Generated by trjconv : CNT in water t=  31.00000
33518
    1C        C    1   2.839   2.771   4.747
    1C        C    2   2.901   2.728   4.866
    1C        C    3   2.842   2.778   4.983
    1C        C    4   2.848   2.777   4.260
    1C        C    5   2.899   2.727   4.382
    1C        C    6   2.849   2.777   4.504
    1C        C    7   3.004   2.634   4.624
    1C        C    8   2.895   2.724   4.627
    1C        C    9   3.072   2.598   4.743
    1C        C   10   3.008   2.635   4.863
    1C        C   11   3.180   2.502   4.976
    1C        C   12   3.055   2.566   4.975
    1C        C   13   2.852   2.775   3.774
    1C        C   14   2.902   2.722   3.895
    1C        C   15   2.847   2.771   4.016
    1C        C   16   3.016   2.645   4.140
    1C        C   17   2.899   2.725   4.139
    1C        C   18   3.077   2.609   4.262
    1C        C   19   3.011   2.642   4.383
    1C        C   20   3.203   2.552   4.504
    1C        C   21   3.070   2.600   4.504
    1C        C   22   3.273   2.530   4.624
    1C        C   23   3.205   2.548   4.746
    1C        C   24   3.412   2.482   4.867
    1C        C   25   3.271   2.508   4.865
    1C        C   26   3.489   2.472   4.983
    1C        C   27   2.853   2.772   3.281
    1C        C   28   2.903   2.727   3.405
    1C        C   29   2.853   2.772   3.529
    1C        C   30   3.020   2.644   3.651
    1C        C   31   2.905   2.726   3.652
    1C        C   32   3.079   2.606   3.774
    1C        C   33   3.016   2.638   3.896
    1C        C   34   3.209   2.555   4.018
    1C        C   35   3.079   2.609   4.019
    1C        C   36   3.276   2.536   4.141
    1C        C   37   3.208   2.555   4.264
    1C        C   38   3.415   2.503   4.380
    1C        C   39   3.278   2.536   4.385
    1C        C   40   3.483   2.504   4.504
    1C        C   41   3.413   2.513   4.627
    1C        C   42   3.628   2.488   4.745
    1C        C   43   3.486   2.488   4.746
    1C        C   44   3.704   2.481   4.864
    1C        C   45   3.628   2.472   4.982
    1C        C   46   2.834   2.750   2.793
    1C        C   47   2.897   2.714   2.915
    1C        C   48   2.853   2.771   3.036
    1C        C   49   3.020   2.642   3.161
    1C        C   50   2.903   2.721   3.159
    1C        C   51   3.082   2.606   3.283
    1C        C   52   3.017   2.643   3.403
    1C        C   53   3.203   2.546   3.531
    1C        C   54   3.078   2.613   3.526
    1C        C   55   3.273   2.520   3.651
    1C        C   56   3.209   2.550   3.773
    1C        C   57   3.413   2.506   3.896
    1C        C   58   3.273   2.526   3.896
    1C        C   59   3.487   2.500   4.016
    1C        C   60   3.414   2.507   4.137
    1C        C   61   3.627   2.496   4.260
    1C        C   62   3.486   2.500   4.258
    1C        C   63   3.698   2.509   4.382
    1C        C   64   3.624   2.506   4.502
    1C        C   65   3.832   2.545   4.623
    1C        C   66   3.696   2.507   4.623
    1C        C   67   3.901   2.562   4.745
    1C        C   68   3.839   2.520   4.865
    1C        C   69   4.055   2.583   4.977
    1C        C   70   3.923   2.536   4.976
    1C        C   71   2.830   2.737   2.311
    1C        C   72   2.891   2.698   2.433
    1C        C   73   2.837   2.753   2.552
    1C        C   74   3.008   2.624   2.673
    1C        C   75   2.891   2.704   2.673
    1C        C   76   3.076   2.596   2.794
    1C        C   77   3.014   2.634   2.915
    1C        C   78   3.205   2.543   3.040
    1C        C   79   3.077   2.604   3.037
    1C        C   80   3.274   2.522   3.161
    1C        C   81   3.209   2.546   3.285
    1C        C   82   3.411   2.501   3.408
    1C        C   83   3.272   2.525   3.410
    1C        C   84   3.483   2.497   3.530
    1C        C   85   3.413   2.500   3.653
    1C        C   86   3.626   2.497   3.773
    1C        C   87   3.484   2.494   3.774
    1C        C   88   3.697   2.514   3.894
    1C        C   89   3.628   2.508   4.017
    1C        C   90   3.836   2.547   4.137
    1C        C   91   3.699   2.510   4.139
    1C        C   92   3.899   2.573   4.261
    1C        C   93   3.833   2.552   4.383
    1C        C   94   4.028   2.636   4.497
    1C        C   95   3.904   2.568   4.504
    1C        C   96   4.089   2.669   4.620
    1C        C   97   4.030   2.623   4.740
    1C        C   98   4.188   2.765   4.861
    1C        C   99   4.096   2.656   4.861
    1C        C  100   4.215   2.843   4.974
    1C        C  101   2.817   2.729   2.071
    1C        C  102   2.991   2.595   2.191
    1C        C  103   2.879   2.684   2.189
    1C        C  104   3.064   2.570   2.310
    1C        C  105   3.005   2.616   2.430
    1C        C  106   3.201   2.531   2.550
    1C        C  107   3.070   2.585   2.552
    1C        C  108   3.271   2.519   2.672
    1C        C  109   3.207   2.542   2.795
    1C        C  110   3.411   2.493   2.916
    1C        C  111   3.272   2.520   2.918
    1C        C  112   3.480   2.487   3.038
    1C        C  113   3.413   2.497   3.162
    1C        C  114   3.623   2.504   3.283
    1C        C  115   3.482   2.496   3.286
    1C        C  116   3.694   2.507   3.405
    1C        C  117   3.624   2.499   3.527
    1C        C  118   3.829   2.547   3.645
    1C        C  119   3.694   2.506   3.650
    1C        C  120   3.896   2.572   3.767
    1C        C  121   3.833   2.551   3.891
    1C        C  122   4.022   2.643   4.010
    1C        C  123   3.898   2.576   4.014
    1C        C  124   4.086   2.677   4.132
    1C        C  125   4.025   2.638   4.253
    1C        C  126   4.195   2.766   4.375
    1C        C  127   4.086   2.676   4.375
    1C        C  128   4.240   2.819   4.498
    1C        C  129   4.192   2.766   4.619
    1C        C  130   4.322   2.938   4.738
    1C        C  131   4.237   2.823   4.740
    1C        C  132   4.354   3.006   4.857
    1C        C  133   4.295   2.956   4.974
    1C        C  134   3.171   2.469   2.080
    1C        C  135   3.038   2.514   2.083
    1C        C  136   3.261   2.478   2.188
    1C        C  137   3.197   2.519   2.307
    1C        C  138   3.407   2.484   2.427
    1C        C  139   3.267   2.504   2.428
    1C        C  140   3.479   2.480   2.549
    1C        C  141   3.410   2.492   2.671
    1C        C  142   3.622   2.493   2.793
    1C        C  143   3.481   2.488   2.793
    1C        C  144   3.692   2.502   2.915
    1C        C  145   3.622   2.491   3.038
    1C        C  146   3.829   2.541   3.156
    1C        C  147   3.692   2.507   3.159
    1C        C  148   3.898   2.565   3.277
    1C        C  149   3.831   2.540   3.399
    1C        C  150   4.021   2.632   3.525
    1C        C  151   3.896   2.566   3.522
    1C        C  152   4.081   2.675   3.646
    1C        C  153   4.020   2.640   3.768
    1C        C  154   4.194   2.768   3.886
    1C        C  155   4.081   2.683   3.888
    1C        C  156   4.245   2.815   4.009
    1C        C  157   4.194   2.769   4.132
    1C        C  158   4.334   2.928   4.253
    1C        C  159   4.245   2.818   4.254
    1C        C  160   4.372   2.988   4.376
    1C        C  161   4.327   2.931   4.497
    1C        C  162   4.438   3.117   4.614
    1C        C  163   4.368   2.994   4.617
    1C        C  164   4.477   3.178   4.735
    1C        C  165   4.442   3.116   4.857
    1C        C  166   4.515   3.316   4.970
    1C        C  167   4.486   3.180   4.974
    1C        C  168   3.476   2.436   2.072
    1C        C  169   3.400   2.456   2.188
    1C        C  170   3.619   2.467   2.308
    1C        C  171   3.477   2.462   2.306
    1C        C  172   3.692   2.486   2.427
    1C        C  173   3.620   2.480   2.548
    1C        C  174   3.827   2.538   2.668
    1C        C  175   3.690   2.502   2.669
    1C        C  176   3.895   2.559   2.790
    1C        C  177   3.827   2.541   2.913
    1C        C  178   4.023   2.627   3.032
    1C        C  179   3.897   2.565   3.034
    1C        C  180   4.082   2.667   3.154
    1C        C  181   4.023   2.630   3.277
    1C        C  182   4.189   2.755   3.404
    1C        C  183   4.080   2.665   3.401
    1C        C  184   4.245   2.809   3.521
    1C        C  185   4.193   2.761   3.644
    1C        C  186   4.340   2.921   3.764
    1C        C  187   4.248   2.813   3.763
    1C        C  188   4.379   2.981   3.886
    1C        C  189   4.337   2.923   4.007
    1C        C  190   4.449   3.103   4.128
    1C        C  191   4.376   2.982   4.130
    1C        C  192   4.474   3.173   4.249
    1C        C  193   4.443   3.110   4.371
    1C        C  194   4.508   3.315   4.492
    1C        C  195   4.467   3.180   4.491
    1C        C  196   4.525   3.385   4.614
    1C        C  197   4.514   3.316   4.736
    1C        C  198   4.550   3.535   4.852
    1C        C  199   4.534   3.392   4.854
    1C        C  200   4.577   3.619   4.964
    1C        C  201   3.615   2.424   2.070
    1C        C  202   3.827   2.507   2.183
    1C        C  203   3.692   2.460   2.186
    1C        C  204   3.897   2.541   2.302
    1C        C  205   3.828   2.527   2.424
    1C        C  206   4.021   2.618   2.545
    1C        C  207   3.894   2.556   2.545
    1C        C  208   4.085   2.658   2.665
    1C        C  209   4.019   2.627   2.786
    1C        C  210   4.190   2.754   2.909
    1C        C  211   4.080   2.665   2.908
    1C        C  212   4.244   2.800   3.031
    1C        C  213   4.193   2.755   3.155
    1C        C  214   4.329   2.911   3.273
    1C        C  215   4.239   2.802   3.280
    1C        C  216   4.370   2.973   3.393
    1C        C  217   4.333   2.920   3.518
    1C        C  218   4.437   3.105   3.641
    1C        C  219   4.374   2.979   3.640
    1C        C  220   4.464   3.172   3.763
    1C        C  221   4.444   3.107   3.886
    1C        C  222   4.504   3.310   4.005
    1C        C  223   4.474   3.172   4.008
    1C        C  224   4.515   3.383   4.125
    1C        C  225   4.504   3.311   4.247
    1C        C  226   4.517   3.523   4.370
    1C        C  227   4.514   3.382   4.368
    1C        C  228   4.516   3.597   4.491
    1C        C  229   4.531   3.526   4.612
    1C        C  230   4.500   3.743   4.728
    1C        C  231   4.532   3.604   4.729
    1C        C  232   4.493   3.817   4.848
    1C        C  233   4.541   3.755   4.964
    1C        C  234   4.014   2.617   2.065
    1C        C  235   3.900   2.538   2.067
    1C        C  236   4.083   2.651   2.182
    1C        C  237   4.023   2.608   2.302
    1C        C  238   4.199   2.732   2.421
    1C        C  239   4.085   2.647   2.423
    1C        C  240   4.252   2.785   2.540
    1C        C  241   4.201   2.738   2.663
    1C        C  242   4.333   2.904   2.783
    1C        C  243   4.246   2.793   2.785
    1C        C  244   4.374   2.963   2.905
    1C        C  245   4.335   2.908   3.029
    1C        C  246   4.437   3.094   3.150
    1C        C  247   4.371   2.969   3.151
    1C        C  248   4.463   3.162   3.271
    1C        C  249   4.434   3.099   3.395
    1C        C  250   4.494   3.304   3.515
    1C        C  251   4.460   3.167   3.516
    1C        C  252   4.507   3.376   3.636
    1C        C  253   4.497   3.310   3.760
    1C        C  254   4.520   3.521   3.880
    1C        C  255   4.510   3.380   3.882
    1C        C  256   4.521   3.592   4.002
    1C        C  257   4.525   3.524   4.126
    1C        C  258   4.491   3.733   4.242
    1C        C  259   4.518   3.594   4.248
    1C        C  260   4.470   3.802   4.363
    1C        C  261   4.492   3.736   4.487
    1C        C  262   4.422   3.940   4.605
    1C        C  263   4.478   3.811   4.606
    1C        C  264   4.398   4.010   4.725
    1C        C  265   4.434   3.945   4.845
    1C        C  266   4.325   4.135   4.958
    1C        C  267   4.398   4.016   4.960
    1C        C  268   4.264   2.778   2.064
    1C        C  269   4.196   2.736   2.179
    1C        C  270   4.343   2.893   2.301
    1C        C  271   4.249   2.786   2.300
    1C        C  272   4.384   2.954   2.421
    1C        C  273   4.337   2.898   2.542
    1C        C  274   4.449   3.083   2.661
    1C        C  275   4.376   2.962   2.662
    1C        C  276   4.480   3.148   2.782
    1C        C  277   4.444   3.086   2.903
    1C        C  278   4.493   3.292   3.025
    1C        C  279   4.465   3.154   3.025
    1C        C  280   4.513   3.363   3.145
    1C        C  281   4.498   3.299   3.270
    1C        C  282   4.520   3.511   3.390
    1C        C  283   4.515   3.370   3.392
    1C        C  284   4.517   3.584   3.511
    1C        C  285   4.513   3.518   3.636
    1C        C  286   4.494   3.730   3.753
    1C        C  287   4.514   3.591   3.757
    1C        C  288   4.480   3.800   3.876
    1C        C  289   4.500   3.732   3.998
    1C        C  290   4.426   3.932   4.118
    1C        C  291   4.481   3.802   4.119
    1C        C  292   4.395   3.998   4.239
    1C        C  293   4.427   3.936   4.362
    1C        C  294   4.324   4.126   4.481
    1C        C  295   4.392   4.002   4.482
    1C        C  296   4.288   4.191   4.601
    1C        C  297   4.329   4.135   4.724
    1C        C  298   4.195   4.312   4.841
    1C        C  299   4.288   4.204   4.841
    1C        C  300   4.171   4.403   4.949
    1C        C  301   4.349   2.888   2.062
    1C        C  302   4.467   3.072   2.177
    1C        C  303   4.395   2.948   2.180
    1C        C  304   4.479   3.148   2.296
    1C        C  305   4.448   3.080   2.416
    1C        C  306   4.507   3.284   2.538
    1C        C  307   4.477   3.146   2.538
    1C        C  308   4.513   3.357   2.659
    1C        C  309   4.503   3.288   2.782
    1C        C  310   4.521   3.502   2.900
    1C        C  311   4.505   3.362   2.902
    1C        C  312   4.522   3.573   3.022
    1C        C  313   4.521   3.504   3.145
    1C        C  314   4.484   3.716   3.264
    1C        C  315   4.511   3.577   3.266
    1C        C  316   4.471   3.788   3.385
    1C        C  317   4.499   3.724   3.508
    1C        C  318   4.429   3.926   3.627
    1C        C  319   4.481   3.795   3.628
    1C        C  320   4.391   3.990   3.747
    1C        C  321   4.423   3.929   3.870
    1C        C  322   4.321   4.112   3.991
    1C        C  323   4.395   3.992   3.994
    1C        C  324   4.280   4.173   4.112
    1C        C  325   4.322   4.119   4.236
    1C        C  326   4.188   4.284   4.356
    1C        C  327   4.286   4.182   4.357
    1C        C  328   4.136   4.337   4.476
    1C        C  329   4.191   4.294   4.599
    1C        C  330   4.024   4.436   4.713
    1C        C  331   4.136   4.348   4.717
    1C        C  332   3.972   4.494   4.831
    1C        C  333   4.052   4.478   4.944
    1C        C  334   4.556   3.269   2.058
    1C        C  335   4.535   3.130   2.065
    1C        C  336   4.538   3.350   2.171
    1C        C  337   4.517   3.285   2.294
    1C        C  338   4.522   3.496   2.413
    1C        C  339   4.519   3.355   2.416
    1C        C  340   4.524   3.569   2.534
    1C        C  341   4.523   3.498   2.656
    1C        C  342   4.491   3.710   2.773
    1C        C  343   4.515   3.571   2.776
    1C        C  344   4.473   3.777   2.895
    1C        C  345   4.497   3.712   3.018
    1C        C  346   4.425   3.914   3.139
    1C        C  347   4.469   3.779   3.139
    1C        C  348   4.395   3.982   3.259
    1C        C  349   4.424   3.921   3.383
    1C        C  350   4.322   4.108   3.502
    1C        C  351   4.399   3.990   3.504
    1C        C  352   4.275   4.166   3.622
    1C        C  353   4.315   4.110   3.745
    1C        C  354   4.175   4.266   3.869
    1C        C  355   4.275   4.165   3.869
    1C        C  356   4.121   4.314   3.990
    1C        C  357   4.178   4.270   4.112
    1C        C  358   4.013   4.402   4.233
    1C        C  359   4.129   4.323   4.234
    1C        C  360   3.955   4.452   4.352
    1C        C  361   4.021   4.419   4.472
    1C        C  362   3.828   4.515   4.592
    1C        C  363   3.960   4.465   4.591
    1C        C  364   3.762   4.550   4.712
    1C        C  365   3.839   4.543   4.829
    1C        C  366   3.632   4.594   4.947
    1C        C  367   3.770   4.576   4.947
    1C        C  368   4.516   3.567   2.053
    1C        C  369   4.523   3.491   2.171
    1C        C  370   4.502   3.706   2.287
    1C        C  371   4.514   3.565   2.290
    1C        C  372   4.484   3.777   2.408
    1C        C  373   4.504   3.709   2.530
    1C        C  374   4.426   3.910   2.649
    1C        C  375   4.480   3.779   2.650
    1C        C  376   4.398   3.975   2.772
    1C        C  377   4.425   3.910   2.894
    1C        C  378   4.321   4.096   3.011
    1C        C  379   4.398   3.977   3.016
    1C        C  380   4.272   4.152   3.131
    1C        C  381   4.318   4.100   3.254
    1C        C  382   4.178   4.257   3.377
    1C        C  383   4.279   4.158   3.377
    1C        C  384   4.121   4.304   3.498
    1C        C  385   4.172   4.263   3.623
    1C        C  386   4.006   4.392   3.742
    1C        C  387   4.120   4.308   3.746
    1C        C  388   3.946   4.429   3.865
    1C        C  389   4.006   4.396   3.989
    1C        C  390   3.815   4.485   4.111
    1C        C  391   3.947   4.434   4.111
    1C        C  392   3.749   4.513   4.232
    1C        C  393   3.823   4.502   4.352
    1C        C  394   3.613   4.546   4.474
    1C        C  395   3.754   4.529   4.472
    1C        C  396   3.545   4.559   4.597
    1C        C  397   3.621   4.563   4.716
    1C        C  398   3.408   4.562   4.840
    1C        C  399   3.548   4.579   4.836
    1C        C  400   3.341   4.520   4.956
    1C        C  401   4.507   3.705   2.055
    1C        C  402   4.456   3.920   2.169
    1C        C  403   4.496   3.785   2.170
    1C        C  404   4.415   3.983   2.288
    1C        C  405   4.441   3.911   2.407
    1C        C  406   4.328   4.096   2.526
    1C        C  407   4.399   3.974   2.527
    1C        C  408   4.276   4.149   2.646
    1C        C  409   4.316   4.090   2.768
    1C        C  410   4.177   4.251   2.887
    1C        C  411   4.274   4.149   2.889
    1C        C  412   4.123   4.298   3.010
    1C        C  413   4.174   4.254   3.134
    1C        C  414   4.001   4.377   3.254
    1C        C  415   4.118   4.299   3.256
    1C        C  416   3.943   4.414   3.377
    1C        C  417   4.005   4.384   3.500
    1C        C  418   3.809   4.472   3.620
    1C        C  419   3.940   4.420   3.620
    1C        C  420   3.745   4.495   3.744
    1C        C  421   3.815   4.481   3.865
    1C        C  422   3.610   4.534   3.987
    1C        C  423   3.749   4.506   3.988
    1C        C  424   3.539   4.537   4.108
    1C        C  425   3.610   4.537   4.231
    1C        C  426   3.400   4.549   4.356
    1C        C  427   3.541   4.554   4.353
    1C        C  428   3.330   4.550   4.479
    1C        C  429   3.403   4.554   4.600
    1C        C  430   3.194   4.517   4.725
    1C        C  431   3.333   4.547   4.722
    1C        C  432   3.123   4.497   4.847
    1C        C  433   3.203   4.501   4.962
    1C        C  434   4.385   4.124   2.051
    1C        C  435   4.453   4.001   2.054
    1C        C  436   4.300   4.162   2.160
    1C        C  437   4.334   4.100   2.283
    1C        C  438   4.180   4.248   2.401
    1C        C  439   4.286   4.154   2.404
    1C        C  440   4.124   4.295   2.522
    1C        C  441   4.174   4.247   2.645
    1C        C  442   4.005   4.377   2.763
    1C        C  443   4.121   4.297   2.766
    1C        C  444   3.944   4.411   2.886
    1C        C  445   4.004   4.374   3.008
    1C        C  446   3.812   4.465   3.127
    1C        C  447   3.943   4.413   3.130
    1C        C  448   3.750   4.491   3.252
    1C        C  449   3.813   4.471   3.376
    1C        C  450   3.606   4.525   3.497
    1C        C  451   3.745   4.499   3.497
    1C        C  452   3.538   4.541   3.620
    1C        C  453   3.609   4.532   3.742
    1C        C  454   3.399   4.546   3.867
    1C        C  455   3.540   4.547   3.865
    1C        C  456   3.329   4.538   3.990
    1C        C  457   3.398   4.544   4.113
    1C        C  458   3.191   4.506   4.237
    1C        C  459   3.327   4.545   4.235
    1C        C  460   3.128   4.483   4.361
    1C        C  461   3.195   4.511   4.483
    1C        C  462   2.996   4.434   4.603
    1C        C  463   3.125   4.491   4.604
    1C        C  464   2.933   4.397   4.724
    1C        C  465   2.989   4.447   4.845
    1C        C  466   2.794   4.345   4.959
    1C        C  467   2.903   4.433   4.958
    1C        C  468   4.123   4.294   2.043
    1C        C  469   4.183   4.245   2.160
    1C        C  470   4.000   4.364   2.279
    1C        C  471   4.121   4.290   2.280
    1C        C  472   3.940   4.406   2.400
    1C        C  473   4.006   4.373   2.520
    1C        C  474   3.814   4.469   2.643
    1C        C  475   3.944   4.412   2.641
    1C        C  476   3.747   4.495   2.764
    1C        C  477   3.815   4.469   2.885
    1C        C  478   3.608   4.524   3.011
    1C        C  479   3.746   4.495   3.006
    1C        C  480   3.537   4.529   3.133
    1C        C  481   3.612   4.522   3.253
    1C        C  482   3.397   4.533   3.379
    1C        C  483   3.538   4.531   3.373
    1C        C  484   3.326   4.527   3.501
    1C        C  485   3.397   4.539   3.622
    1C        C  486   3.190   4.504   3.746
    1C        C  487   3.328   4.534   3.745
    1C        C  488   3.123   4.482   3.869
    1C        C  489   3.192   4.505   3.991
    1C        C  490   3.003   4.414   4.114
    1C        C  491   3.126   4.483   4.114
    1C        C  492   2.943   4.381   4.238
    1C        C  493   3.000   4.423   4.361
    1C        C  494   2.826   4.303   4.483
    1C        C  495   2.934   4.394   4.482
    1C        C  496   2.774   4.256   4.606
    1C        C  497   2.821   4.309   4.728
    1C        C  498   2.659   4.168   4.844
    1C        C  499   2.754   4.272   4.846
    1C        C  500   2.589   4.118   4.955
    1C        C  501   4.000   4.358   2.039
    1C        C  502   3.815   4.468   2.158
    1C        C  503   3.939   4.401   2.157
    1C        C  504   3.742   4.483   2.278
    1C        C  505   3.807   4.454   2.399
    1C        C  506   3.604   4.509   2.521
    1C        C  507   3.742   4.479   2.522
    1C        C  508   3.533   4.510   2.643
    1C        C  509   3.607   4.516   2.764
    1C        C  510   3.399   4.532   2.887
    1C        C  511   3.540   4.529   2.887
    1C        C  512   3.326   4.527   3.008
    1C        C  513   3.396   4.529   3.131
    1C        C  514   3.190   4.497   3.255
    1C        C  515   3.329   4.525   3.255
    1C        C  516   3.123   4.471   3.376
    1C        C  517   3.188   4.495   3.499
    1C        C  518   3.001   4.408   3.625
    1C        C  519   3.124   4.477   3.624
    1C        C  520   2.941   4.372   3.747
    1C        C  521   3.000   4.414   3.868
    1C        C  522   2.839   4.280   3.995
    1C        C  523   2.948   4.369   3.992
    1C        C  524   2.788   4.237   4.120
    1C        C  525   2.831   4.295   4.241
    1C        C  526   2.695   4.135   4.366
    1C        C  527   2.776   4.250   4.363
    1C        C  528   2.656   4.075   4.488
    1C        C  529   2.692   4.141   4.608
    1C        C  530   2.580   3.961   4.733
    1C        C  531   2.636   4.091   4.728
    1C        C  532   2.545   3.899   4.856
    1C        C  533   2.527   3.993   4.963
    1C        C  534   3.613   4.561   2.042
    1C        C  535   3.747   4.519   2.047
    1C        C  536   3.534   4.535   2.158
    1C        C  537   3.604   4.515   2.280
    1C        C  538   3.391   4.520   2.402
    1C        C  539   3.532   4.531   2.401
    1C        C  540   3.321   4.516   2.525
    1C        C  541   3.392   4.520   2.647
    1C        C  542   3.185   4.487   2.769
    1C        C  543   3.322   4.519   2.769
    1C        C  544   3.119   4.460   2.891
    1C        C  545   3.191   4.486   3.010
    1C        C  546   2.998   4.404   3.135
    1C        C  547   3.123   4.470   3.133
    1C        C  548   2.937   4.369   3.258
    1C        C  549   2.997   4.408   3.380
    1C        C  550   2.833   4.279   3.505
    1C        C  551   2.939   4.372   3.503
    1C        C  552   2.780   4.231   3.627
    1C        C  553   2.832   4.281   3.748
    1C        C  554   2.699   4.121   3.877
    1C        C  555   2.787   4.231   3.873
    1C        C  556   2.662   4.065   4.001
    1C        C  557   2.704   4.123   4.122
    1C        C  558   2.596   3.943   4.249
    1C        C  559   2.664   4.067   4.245
    1C        C  560   2.568   3.877   4.370
    1C        C  561   2.598   3.947   4.490
    1C        C  562   2.523   3.752   4.618
    1C        C  563   2.566   3.886   4.613
    1C        C  564   2.508   3.681   4.739
    1C        C  565   2.518   3.759   4.858
    1C        C  566   2.532   3.544   4.978
    1C        C  567   2.524   3.683   4.975
    1C        C  568   3.328   4.481   2.040
    1C        C  569   3.393   4.519   2.159
    1C        C  570   3.182   4.478   2.284
    1C        C  571   3.320   4.511   2.281
    1C        C  572   3.112   4.462   2.405
    1C        C  573   3.183   4.483   2.525
    1C        C  574   2.990   4.399   2.647
    1C        C  575   3.115   4.464   2.648
    1C        C  576   2.931   4.359   2.769
    1C        C  577   2.993   4.396   2.891
    1C        C  578   2.825   4.276   3.015
    1C        C  579   2.935   4.365   3.015
    1C        C  580   2.780   4.225   3.139
    1C        C  581   2.830   4.277   3.261
    1C        C  582   2.696   4.115   3.386
    1C        C  583   2.785   4.225   3.384
    1C        C  584   2.656   4.057   3.509
    1C        C  585   2.697   4.117   3.631
    1C        C  586   2.597   3.934   3.755
    1C        C  587   2.661   4.060   3.755
    1C        C  588   2.574   3.871   3.879
    1C        C  589   2.600   3.938   4.001
    1C        C  590   2.534   3.742   4.127
    1C        C  591   2.570   3.878   4.126
    1C        C  592   2.522   3.673   4.250
    1C        C  593   2.531   3.741   4.374
    1C        C  594   2.517   3.534   4.499
    1C        C  595   2.521   3.676   4.499
    1C        C  596   2.515   3.465   4.622
    1C        C  597   2.514   3.539   4.743
    1C        C  598   2.532   3.324   4.861
    1C        C  599   2.521   3.465   4.863
    1C        C  600   2.533   3.250   4.980
    1C        C  601   3.195   4.447   2.046
    1C        C  602   2.983   4.390   2.161
    1C        C  603   3.117   4.441   2.163
    1C        C  604   2.923   4.361   2.287
    1C        C  605   2.985   4.400   2.407
    1C        C  606   2.819   4.266   2.529
    1C        C  607   2.925   4.359   2.528
    1C        C  608   2.764   4.223   2.652
    1C        C  609   2.819   4.273   2.772
    1C        C  610   2.689   4.110   2.896
    1C        C  611   2.769   4.227   2.895
    1C        C  612   2.654   4.053   3.020
    1C        C  613   2.692   4.114   3.142
    1C        C  614   2.589   3.930   3.266
    1C        C  615   2.656   4.055   3.265
    1C        C  616   2.567   3.865   3.389
    1C        C  617   2.599   3.928   3.511
    1C        C  618   2.528   3.731   3.641
    1C        C  619   2.570   3.866   3.634
    1C        C  620   2.515   3.663   3.764
    1C        C  621   2.532   3.736   3.884
    1C        C  622   2.514   3.527   4.008
    1C        C  623   2.523   3.668   4.007
    1C        C  624   2.517   3.459   4.131
    1C        C  625   2.513   3.532   4.252
    1C        C  626   2.542   3.327   4.376
    1C        C  627   2.513   3.465   4.376
    1C        C  628   2.561   3.257   4.498
    1C        C  629   2.536   3.326   4.618
    1C        C  630   2.588   3.119   4.744
    1C        C  631   2.544   3.254   4.740
    1C        C  632   2.613   3.053   4.868
    1C        C  633   2.559   3.112   4.986
    1C        C  634   2.778   4.307   2.054
    1C        C  635   2.888   4.394   2.055
    1C        C  636   2.748   4.229   2.167
    1C        C  637   2.811   4.272   2.285
    1C        C  638   2.679   4.107   2.412
    1C        C  639   2.766   4.218   2.407
    1C        C  640   2.641   4.044   2.533
    1C        C  641   2.680   4.109   2.652
    1C        C  642   2.587   3.920   2.775
    1C        C  643   2.652   4.046   2.775
    1C        C  644   2.562   3.859   2.900
    1C        C  645   2.589   3.928   3.021
    1C        C  646   2.530   3.727   3.150
    1C        C  647   2.562   3.864   3.144
    1C        C  648   2.519   3.656   3.272
    1C        C  649   2.529   3.729   3.392
    1C        C  650   2.509   3.523   3.519
    1C        C  651   2.513   3.665   3.517
    1C        C  652   2.514   3.451   3.640
    1C        C  653   2.512   3.521   3.762
    1C        C  654   2.535   3.315   3.886
    1C        C  655   2.511   3.454   3.887
    1C        C  656   2.556   3.251   4.010
    1C        C  657   2.535   3.319   4.132
    1C        C  658   2.605   3.121   4.258
    1C        C  659   2.557   3.255   4.256
    1C        C  660   2.633   3.056   4.380
    1C        C  661   2.604   3.122   4.501
    1C        C  662   2.698   2.935   4.625
    1C        C  663   2.622   3.054   4.624
    1C        C  664   2.749   2.882   4.746
    1C        C  665   2.701   2.939   4.866
    1C        C  666   2.751   2.883   4.984
    1C        C  667   2.689   4.020   2.053
    1C        C  668   2.692   4.100   2.168
    1C        C  669   2.592   3.913   2.290
    1C        C  670   2.647   4.044   2.290
    1C        C  671   2.557   3.849   2.411
    1C        C  672   2.580   3.917   2.533
    1C        C  673   2.511   3.718   2.660
    1C        C  674   2.551   3.854   2.656
    1C        C  675   2.503   3.652   2.785
    1C        C  676   2.524   3.723   2.905
    1C        C  677   2.506   3.514   3.031
    1C        C  678   2.514   3.655   3.029
    1C        C  679   2.506   3.443   3.153
    1C        C  680   2.508   3.515   3.274
    1C        C  681   2.533   3.309   3.399
    1C        C  682   2.511   3.448   3.399
    1C        C  683   2.558   3.243   3.522
    1C        C  684   2.534   3.311   3.643
    1C        C  685   2.606   3.114   3.771
    1C        C  686   2.551   3.243   3.765
    1C        C  687   2.641   3.054   3.895
    1C        C  688   2.606   3.119   4.015
    1C        C  689   2.711   2.935   4.139
    1C        C  690   2.638   3.056   4.137
    1C        C  691   2.755   2.883   4.263
    1C        C  692   2.710   2.938   4.385
    1C        C  693   2.754   2.881   4.507
    1C        C  694   2.629   3.893   2.058
    1C        C  695   2.527   3.702   2.176
    1C        C  696   2.575   3.835   2.174
    1C        C  697   2.505   3.637   2.299
    1C        C  698   2.516   3.714   2.417
    1C        C  699   2.489   3.505   2.541
    1C        C  700   2.502   3.646   2.539
    1C        C  701   2.497   3.438   2.665
    1C        C  702   2.495   3.511   2.786
    1C        C  703   2.522   3.303   2.910
    1C        C  704   2.501   3.442   2.909
    1C        C  705   2.545   3.234   3.031
    1C        C  706   2.529   3.303   3.153
    1C        C  707   2.593   3.106   3.279
    1C        C  708   2.544   3.238   3.277
    1C        C  709   2.629   3.043   3.400
    1C        C  710   2.605   3.110   3.522
    1C        C  711   2.713   2.933   3.648
    1C        C  712   2.636   3.052   3.648
    1C        C  713   2.758   2.880   3.770
    1C        C  714   2.720   2.937   3.894
    1C        C  715   2.757   2.880   4.017
    1C        C  716   2.453   3.498   2.059
    1C        C  717   2.493   3.632   2.059
    1C        C  718   2.466   3.422   2.180
    1C        C  719   2.483   3.496   2.300
    1C        C  720   2.518   3.290   2.422
    1C        C  721   2.487   3.428   2.423
    1C        C  722   2.539   3.226   2.546
    1C        C  723   2.517   3.298   2.666
    1C        C  724   2.594   3.102   2.790
    1C        C  725   2.537   3.231   2.789
    1C        C  726   2.627   3.040   2.913
    1C        C  727   2.598   3.103   3.036
    1C        C  728   2.710   2.925   3.158
    1C        C  729   2.628   3.040   3.159
    1C        C  730   2.756   2.874   3.282
    1C        C  731   2.707   2.925   3.404
    1C        C  732   2.754   2.873   3.527
    1C        C  733   2.492   3.197   2.070
    1C        C  734   2.477   3.279   2.183
    1C        C  735   2.584   3.088   2.305
    1C        C  736   2.522   3.216   2.302
    1C        C  737   2.616   3.025   2.427
    1C        C  738   2.594   3.096   2.547
    1C        C  739   2.702   2.915   2.670
    1C        C  740   2.629   3.036   2.670
    1C        C  741   2.744   2.859   2.793
    1C        C  742   2.702   2.920   2.913
    1C        C  743   2.756   2.873   3.035
    1C        C  744   2.545   3.069   2.070
    1C        C  745   2.686   2.900   2.188
    1C        C  746   2.611   3.020   2.184
    1C        C  747   2.733   2.840   2.307
    1C        C  748   2.693   2.906   2.425
    1C        C  749   2.737   2.852   2.548
    1C        C  750   2.740   2.844   2.072
    1C        C  751   3.662   2.340   1.958
    1C        O  752   3.684   2.217   1.976
    1C        O  753   3.640   2.361   1.821
    1C        C  754   4.612   3.047   1.971
    1C        O  755   4.577   3.047   1.850
    1C        O  756   4.745   3.010   1.995
    1C        C  757   4.456   4.230   1.975
    1C        O  758   4.573   4.269   2.003
    1C        O  759   4.413   4.269   1.848
    1C        C  760   3.576   4.653   1.932
    1C        O  761   3.647   4.757   1.918
    1C        O  762   3.559   4.598   1.805
    1C        C  763   2.861   4.521   1.983
    1C        O  764   2.875   4.536   1.859
    1C        O  765   2.817   4.637   2.049
    1C        C  766   2.328   3.484   1.981
    1C        O  767   2.341   3.464   1.858
    1C        O  768   2.207   3.544   2.019
    1C        C  769   4.700   3.606   5.045
    1C        O  770   4.708   3.553   5.159
    1C        O  771   4.825   3.601   4.982
    1C        C  772   4.282   4.486   5.000
    1C        O  773   4.336   4.466   5.112
    1C        O  774   4.350   4.572   4.912
    1C        C  775   4.144   2.479   5.035
    1C        O  776   4.157   2.362   4.989
    1C        O  777   4.275   2.507   5.075
    1C        C  778   2.907   4.532   5.068
    1C        O  779   2.883   4.654   5.046
    1C        O  780   2.886   4.498   5.202
    1C        C  781   2.476   3.035   5.081
    1C        O  782   2.378   2.971   5.036
    1C        O  783   2.493   3.050   5.219
    1C        C  784   2.400   3.982   5.038
    1C        O  785   2.284   3.977   4.989
    1C        O  786   2.391   4.021   5.172
    1C        C  787   2.942   2.436   2.001
    1C        O  788   2.939   2.449   1.876
    1C        O  789   2.857   2.333   2.038
    1C        C  790   3.177   2.379   5.058
    1C        O  791   3.103   2.280   5.032
    1C        O  792   3.223   2.356   5.188
    1C        H  793   4.285   3.013   5.065
    1C        H  794   4.200   2.799   5.071
    1C        H  795   4.481   3.128   5.067
    1C        H  796   4.538   3.366   5.062
    1C        H  797   4.603   3.820   5.022
    1C        H  798   4.382   3.955   5.047
    1C        H  799   4.307   4.168   5.058
    1C        H  800   4.023   4.530   5.033
    1C        H  801   3.822   4.611   5.033
    1C        H  802   3.585   4.659   5.018
    1C        H  803   3.402   4.468   5.027
    1C        H  804   3.163   4.475   5.057
    1C        H  805   3.878   2.533   5.073
    1C        H  806   3.679   2.442   5.071
    1C        H  807   3.011   2.577   5.072
    1C        H  808   3.444   2.423   5.068
    1C        H  809   2.810   2.705   5.054
    1C        H  810   2.700   2.894   5.078
    1C        H  811   2.502   3.299   5.070
    1C        H  812   2.530   3.499   5.076
    1C        H  813   2.504   3.727   5.071
    1C        H  814   2.586   4.175   5.046
    1C        H  815   2.753   4.320   5.054
    1C        H  816   2.697   2.863   1.976
    1C        H  817   2.798   2.657   1.993
    1C        H  818   3.214   2.469   1.983
    1C        H  819   3.425   2.443   1.978
    1C        H  820   3.880   2.470   1.986
    1C        H  821   4.054   2.651   1.972
    1C        H  822   4.268   2.714   1.978
    1C        H  823   4.331   2.956   1.982
    1C        H  824   4.613   3.304   1.974
    1C        H  825   4.554   3.529   1.960
    1C        H  826   4.471   3.742   1.962
    1C        H  827   3.803   4.531   1.956
    1C        H  828   3.983   4.418   1.952
    1C        H  829   4.179   4.295   1.951
    1C        H  830   4.519   3.980   1.973
    1C        H  831   2.633   3.834   1.969
    1C        H  832   2.720   4.053   1.956
    1C        H  833   2.718   4.299   1.966
    1C        H  834   3.385   4.436   1.962
    1C        H  835   3.138   4.456   1.956
    1C        H  836   2.506   3.008   1.991
    1C        H  837   2.450   3.228   1.977
    1C        H  838   2.493   3.681   1.964
    2V3OU   H29  839   2.803   3.548   0.946
    2V3OU   C27  840   2.775   3.502   1.044
    2V3OU   H27  841   2.726   3.575   1.114
    2V3OU   H28  842   2.727   3.402   1.027
    2V3OU   O11  843   2.907   3.486   1.099
    2V3OU   C15  844   2.918   3.402   1.208
    2V3OU   C13  845   3.047   3.377   1.258
    2V3OU   C14  846   3.076   3.268   1.341
    2V3OU   C16  847   2.971   3.189   1.386
    2V3OU    H6  848   2.993   3.105   1.453
    2V3OU   C12  849   3.213   3.231   1.383
    2V3OU    O2  850   3.240   3.122   1.438
    2V3OU   C10  851   3.327   3.307   1.329
    2V3OU    C8  852   3.460   3.268   1.342
    2V3OU   O10  853   3.493   3.153   1.406
    2V3OU   H26  854   3.403   3.120   1.423
    2V3OU    C6  855   3.565   3.349   1.289
    2V3OU    C5  856   3.535   3.467   1.222
    2V3OU    C4  857   3.705   3.298   1.295
    2V3OU    H4  858   3.727   3.237   1.387
    2V3OU    H5  859   3.706   3.225   1.208
    2V3OU    C2  860   3.816   3.401   1.278
    2V3OU    O6  861   3.810   3.478   1.398
    2V3OU   H21  862   3.762   3.556   1.367
    2V3OU    C3  863   3.781   3.495   1.162
    2V3OU    H2  864   3.860   3.574   1.161
    2V3OU    H3  865   3.781   3.445   1.061
    2V3OU   C25  866   3.951   3.330   1.264
    2V3OU    O7  867   3.998   3.299   1.155
    2V3OU   C26  868   4.026   3.295   1.392
    2V3OU   H22  869   4.056   3.390   1.444
    2V3OU   H23  870   4.112   3.226   1.369
    2V3OU    O8  871   3.960   3.209   1.481
    2V3OU   H24  872   3.928   3.262   1.555
    2V3OU    C1  873   3.645   3.560   1.180
    2V3OU    H1  874   3.620   3.614   1.084
    2V3OU    O3  875   3.658   3.657   1.284
    2V3OU   C19  876   3.615   3.793   1.279
    2V3OU    H9  877   3.526   3.809   1.212
    2V3OU    O4  878   3.714   3.856   1.200
    2V3OU   C20  879   3.845   3.876   1.254
    2V3OU   H10  880   3.892   3.773   1.262
    2V3OU   C24  881   3.609   3.856   1.419
    2V3OU   H16  882   3.540   3.793   1.480
    2V3OU   H17  883   3.562   3.956   1.404
    2V3OU   C23  884   3.749   3.875   1.477
    2V3OU   H15  885   3.794   3.772   1.494
    2V3OU    N1  886   3.739   3.962   1.593
    2V3OU   H19  887   3.806   3.932   1.661
    2V3OU   H20  888   3.651   3.941   1.635
    2V3OU   C21  889   3.848   3.953   1.386
    2V3OU   H11  890   3.945   3.925   1.436
    2V3OU    O5  891   3.830   4.093   1.395
    2V3OU   H18  892   3.778   4.099   1.477
    2V3OU   C22  893   3.914   3.948   1.139
    2V3OU   H12  894   3.873   4.051   1.126
    2V3OU   H13  895   3.902   3.891   1.044
    2V3OU   H14  896   4.022   3.963   1.165
    2V3OU   C11  897   3.157   3.469   1.228
    2V3OU    O1  898   3.134   3.587   1.194
    2V3OU    C9  899   3.296   3.426   1.258
    2V3OU    C7  900   3.398   3.505   1.207
    2V3OU    O9  901   3.385   3.615   1.125
    2V3OU   H25  902   3.289   3.630   1.122
    2V3OU   C17  903   2.817   3.316   1.257
    2V3OU    H7  904   2.712   3.340   1.239
    2V3OU   C18  905   2.840   3.210   1.344
    2V3OU    H8  906   2.758   3.148   1.382
    3SOL     OW  907   0.679   4.080   0.741
    3SOL    HW1  908   0.697   4.078   0.642
    3SOL    HW2  909   0.641   3.992   0.770
    4SOL     OW  910   5.834   1.353   2.257
    4SOL    HW1  911   5.932   1.348   2.276
    4SOL    HW2  912   5.807   1.274   2.203
    5SOL     OW  913   3.545   2.989   1.139
    5SOL    HW1  914   3.504   2.958   1.225
    5SOL    HW2  915   3.601   2.916   1.100
    6SOL     OW  916   2.780   2.219   0.145
    6SOL    HW1  917   2.813   2.166   0.067
    6SOL    HW2  918   2.763   2.158   0.222
    7SOL     OW  919   5.819   1.061   1.445
    7SOL    HW1  920   5.720   1.072   1.445
    7SOL    HW2  921   5.855   1.086   1.535
    8SOL     OW  922   3.109   1.987   3.398
    8SOL    HW1  923   3.104   1.899   3.444
    8SOL    HW2  924   3.041   2.049   3.438
    9SOL     OW  925   6.881   4.230   6.016
    9SOL    HW1  926   6.865   4.149   5.958
    9SOL    HW2  927   6.830   4.308   5.979
   10SOL     OW  928   0.342   4.380   0.901
   10SOL    HW1  929   0.367   4.370   0.997
   10SOL    HW2  930   0.337   4.291   0.857
   11SOL     OW  931   4.261   0.186   6.825
   11SOL    HW1  932   4.255   0.223   6.918
   11SOL    HW2  933   4.303   0.096   6.828
   12SOL     OW  934   5.312   6.413   2.322
   12SOL    HW1  935   5.229   6.465   2.339
   12SOL    HW2  936   5.300   6.358   2.239
   13SOL     OW  937   1.477   0.523   2.980
   13SOL    HW1  938   1.388   0.501   2.939
   13SOL    HW2  939   1.462   0.582   3.060
   14SOL     OW  940   2.961   6.717   2.916
   14SOL    HW1  941   2.962   6.617   2.914
   14SOL    HW2  942   3.041   6.752   2.867
   15SOL     OW  943   2.496   6.359   6.550
   15SOL    HW1  944   2.396   6.357   6.543
   15SOL    HW2  945   2.531   6.265   6.557
   16SOL     OW  946   6.362   2.182   6.957
   16SOL    HW1  947   6.385   2.267   6.909
   16SOL    HW2  948   6.308   2.203   0.014
   17SOL     OW  949   4.301   6.128   2.953
   17SOL    HW1  950   4.353   6.043   2.947
   17SOL    HW2  951   4.290   6.154   3.049
   18SOL     OW  952   1.645   0.849   6.920
   18SOL    HW1  953   1.626   0.844   6.822
   18SOL    HW2  954   1.741   0.828   6.937
   19SOL     OW  955   0.962   6.906   1.195
   19SOL    HW1  956   1.024   6.831   1.172
   19SOL    HW2  957   0.998   6.956   1.274
   20SOL     OW  958   3.451   0.924   4.090
   20SOL    HW1  959   3.398   0.842   4.070
   20SOL    HW2  960   3.515   0.943   4.015
   21SOL     OW  961   3.261   3.141   1.724
   21SOL    HW1  962   3.249   3.129   1.625
   21SOL    HW2  963   3.183   3.193   1.760
   22SOL     OW  964   0.821   1.165   5.655
   22SOL    HW1  965   0.891   1.139   5.589
   22SOL    HW2  966   0.815   1.096   5.726
   23SOL     OW  967   3.142   6.066   4.891
   23SOL    HW1  968   3.177   6.081   4.983
   23SOL    HW2  969   3.202   6.003   4.842
   24SOL     OW  970   4.062   1.353   4.955
   24SOL    HW1  971   4.075   1.448   4.984
   24SOL    HW2  972   3.977   1.346   4.903
   25SOL     OW  973   2.302   5.373   1.005
   25SOL    HW1  974   2.290   5.274   1.019
   25SOL    HW2  975   2.381   5.388   0.945
   26SOL     OW  976   5.901   1.010   2.979
   26SOL    HW1  977   5.889   1.021   2.881
   26SOL    HW2  978   5.856   1.085   3.027
   27SOL     OW  979   6.375   0.372   2.442
   27SOL    HW1  980   6.422   0.286   2.423
   27SOL    HW2  981   6.355   0.377   2.540
   28SOL     OW  982   2.725   0.550   0.446
   28SOL    HW1  983   2.771   0.509   0.524
   28SOL    HW2  984   2.627   0.531   0.451
   29SOL     OW  985   4.316   3.025   1.752
   29SOL    HW1  986   4.393   3.053   1.808
   29SOL    HW2  987   4.305   2.926   1.756
   30SOL     OW  988   3.917   1.307   5.213
   30SOL    HW1  989   4.014   1.331   5.221
   30SOL    HW2  990   3.886   1.323   5.119
   31SOL     OW  991   0.609   1.185   5.252
   31SOL    HW1  992   0.630   1.260   5.189
   31SOL    HW2  993   0.533   1.212   5.311
   32SOL     OW  994   0.074   2.126   2.233
   32SOL    HW1  995   0.134   2.183   2.177
   32SOL    HW2  996   0.128   2.054   2.276
   33SOL     OW  997   1.588   1.627   5.623
   33SOL    HW1  998   1.511   1.580   5.579
   33SOL    HW2  999   1.644   1.560   5.671
   34SOL     OW 1000   0.587   0.768   5.127
   34SOL    HW1 1001   0.673   0.762   5.179
   34SOL    HW2 1002   0.608   0.771   5.029
   35SOL     OW 1003   4.291   1.935   6.257
   35SOL    HW1 1004   4.306   1.860   6.321
   35SOL    HW2 1005   4.269   2.019   6.308
   36SOL     OW 1006   1.175   1.766   6.039
   36SOL    HW1 1007   1.245   1.814   5.987
   36SOL    HW2 1008   1.090   1.763   5.986
   37SOL     OW 1009   2.576   6.405   1.162
   37SOL    HW1 1010   2.634   6.401   1.244
   37SOL    HW2 1011   2.608   6.337   1.096
   38SOL     OW 1012   0.138   6.039   1.803
   38SOL    HW1 1013   0.051   5.993   1.821
   38SOL    HW2 1014   0.152   6.047   1.705
   39SOL     OW 1015   6.745   2.811   6.353
   39SOL    HW1 1016   6.815   2.882   6.357
   39SOL    HW2 1017   6.703   2.812   6.262
   40SOL     OW 1018   7.000   1.098   1.258
   40SOL    HW1 1019   0.021   1.138   1.338
   40SOL    HW2 1020   0.011   1.006   1.243
   41SOL     OW 1021   1.519   0.878   6.077
   41SOL    HW1 1022   1.570   0.961   6.101
   41SOL    HW2 1023   1.422   0.891   6.099
   42SOL     OW 1024   3.816   0.217   0.681
   42SOL    HW1 1025   3.875   0.241   0.758
   42SOL    HW2 1026   3.851   0.260   0.598
   43SOL     OW 1027   4.679   5.453   5.279
   43SOL    HW1 1028   4.716   5.539   5.243
   43SOL    HW2 1029   4.728   5.376   5.239
   44SOL     OW 1030   1.037   3.757   6.987
   44SOL    HW1 1031   0.944   3.736   7.019
   44SOL    HW2 1032   1.091   3.673   6.987
   45SOL     OW 1033   2.565   0.456   1.243
   45SOL    HW1 1034   2.479   0.448   1.294
   45SOL    HW2 1035   2.599   0.549   1.251
   46SOL     OW 1036   1.077   5.036   4.243
   46SOL    HW1 1037   1.108   5.125   4.207
   46SOL    HW2 1038   1.085   5.036   4.342
   47SOL     OW 1039   5.623   4.478   2.479
   47SOL    HW1 1040   5.671   4.561   2.506
   47SOL    HW2 1041   5.552   4.457   2.547
   48SOL     OW 1042   0.608   0.863   5.659
   48SOL    HW1 1043   0.555   0.870   5.574
   48SOL    HW2 1044   0.684   0.799   5.645
   49SOL     OW 1045   5.670   3.651   0.301
   49SOL    HW1 1046   5.629   3.678   0.214
   49SOL    HW2 1047   5.669   3.551   0.309
   50SOL     OW 1048   7.006   3.634   4.819
   50SOL    HW1 1049   0.059   3.694   4.838
   50SOL    HW2 1050   6.929   3.689   4.786
   51SOL     OW 1051   3.510   5.615   2.098
   51SOL    HW1 1052   3.608   5.607   2.117
   51SOL    HW2 1053   3.492   5.579   2.006
   52SOL     OW 1054   0.759   2.319   1.938
   52SOL    HW1 1055   0.755   2.388   1.865
   52SOL    HW2 1056   0.701   2.347   2.014
   53SOL     OW 1057   5.002   6.298   4.120
   53SOL    HW1 1058   5.045   6.208   4.121
   53SOL    HW2 1059   5.042   6.354   4.048
   54SOL     OW 1060   5.178   4.661   5.492
   54SOL    HW1 1061   5.188   4.619   5.583
   54SOL    HW2 1062   5.133   4.750   5.501
   55SOL     OW 1063   3.695   1.728   0.780
   55SOL    HW1 1064   3.671   1.632   0.761
   55SOL    HW2 1065   3.612   1.781   0.792
   56SOL     OW 1066   0.362   7.002   1.649
   56SOL    HW1 1067   0.373   6.986   1.747
   56SOL    HW2 1068   0.375   6.916   1.600
   57SOL     OW 1069   5.550   1.065   1.353
   57SOL    HW1 1070   5.602   1.043   1.270
   57SOL    HW2 1071   5.453   1.075   1.329
   58SOL     OW 1072   6.856   0.319   6.662
   58SOL    HW1 1073   6.886   0.275   6.746
   58SOL    HW2 1074   6.764   0.357   6.675
   59SOL     OW 1075   0.972   0.018   4.960
   59SOL    HW1 1076   1.023   0.020   5.046
   59SOL    HW2 1077   0.879   7.010   4.977
   60SOL     OW 1078   5.042   0.053   4.875
   60SOL    HW1 1079   4.983   0.006   4.940
   60SOL    HW2 1080   4.994   0.065   4.788
   61SOL     OW 1081   4.172   6.945   5.275
   61SOL    HW1 1082   4.091   6.919   5.223
   61SOL    HW2 1083   4.205   0.010   5.243
   62SOL     OW 1084   3.232   0.739   5.164
   62SOL    HW1 1085   3.215   0.674   5.237
   62SOL    HW2 1086   3.206   0.831   5.194
   63SOL     OW 1087   6.720   2.978   3.464
   63SOL    HW1 1088   6.727   3.026   3.376
   63SOL    HW2 1089   6.801   2.920   3.476
   64SOL     OW 1090   7.001   2.233   5.625
   64SOL    HW1 1091   0.070   2.253   5.596
   64SOL    HW2 1092   7.000   2.148   5.678
   65SOL     OW 1093   0.927   3.530   5.774
   65SOL    HW1 1094   1.010   3.503   5.823
   65SOL    HW2 1095   0.927   3.489   5.683
   66SOL     OW 1096   2.379   0.656   1.093
   66SOL    HW1 1097   2.347   0.562   1.078
   66SOL    HW2 1098   2.437   0.658   1.175
   67SOL     OW 1099   4.730   5.688   4.038
   67SOL    HW1 1100   4.663   5.680   4.112
   67SOL    HW2 1101   4.810   5.737   4.071
   68SOL     OW 1102   5.474   2.555   6.737
   68SOL    HW1 1103   5.550   2.538   6.800
   68SOL    HW2 1104   5.500   2.525   6.645
   69SOL     OW 1105   2.427   2.698   5.939
   69SOL    HW1 1106   2.456   2.781   5.891
   69SOL    HW2 1107   2.502   2.632   5.939
   70SOL     OW 1108   6.076   6.578   2.339
   70SOL    HW1 1109   5.999   6.515   2.340
   70SOL    HW2 1110   6.044   6.670   2.320
   71SOL     OW 1111   1.896   4.189   2.469
   71SOL    HW1 1112   1.990   4.218   2.487
   71SOL    HW2 1113   1.835   4.227   2.538
   72SOL     OW 1114   3.437   5.353   3.559
   72SOL    HW1 1115   3.360   5.417   3.564
   72SOL    HW2 1116   3.458   5.319   3.651
   73SOL     OW 1117   3.579   2.534   6.808
   73SOL    HW1 1118   3.659   2.556   6.753
   73SOL    HW2 1119   3.504   2.596   6.784
   74SOL     OW 1120   5.296   6.624   6.188
   74SOL    HW1 1121   5.289   6.539   6.136
   74SOL    HW2 1122   5.215   6.634   6.247
   75SOL     OW 1123   3.416   5.024   5.284
   75SOL    HW1 1124   3.507   4.999   5.251
   75SOL    HW2 1125   3.360   4.942   5.294
   76SOL     OW 1126   2.566   2.991   1.038
   76SOL    HW1 1127   2.605   3.011   0.948
   76SOL    HW2 1128   2.521   3.073   1.073
   77SOL     OW 1129   5.389   4.606   6.324
   77SOL    HW1 1130   5.395   4.528   6.386
   77SOL    HW2 1131   5.301   4.604   6.277
   78SOL     OW 1132   6.092   6.704   6.072
   78SOL    HW1 1133   6.076   6.620   6.021
   78SOL    HW2 1134   6.008   6.759   6.073
   79SOL     OW 1135   3.440   6.848   0.344
   79SOL    HW1 1136   3.367   6.824   0.280
   79SOL    HW2 1137   3.412   6.928   0.398
   80SOL     OW 1138   0.383   0.936   4.464
   80SOL    HW1 1139   0.331   0.978   4.390
   80SOL    HW2 1140   0.481   0.950   4.448
   81SOL     OW 1141   1.816   0.297   3.652
   81SOL    HW1 1142   1.727   0.253   3.666
   81SOL    HW2 1143   1.803   0.395   3.638
   82SOL     OW 1144   6.716   4.454   5.921
   82SOL    HW1 1145   6.774   4.529   5.888
   82SOL    HW2 1146   6.633   4.449   5.865
   83SOL     OW 1147   6.490   6.654   6.115
   83SOL    HW1 1148   6.571   6.680   6.168
   83SOL    HW2 1149   6.485   6.554   6.110
   84SOL     OW 1150   6.094   3.967   1.741
   84SOL    HW1 1151   6.151   4.041   1.777
   84SOL    HW2 1152   6.099   3.888   1.802
   85SOL     OW 1153   1.025   1.043   5.470
   85SOL    HW1 1154   1.124   1.042   5.454
   85SOL    HW2 1155   0.977   1.019   5.386
   86SOL     OW 1156   2.211   1.187   4.551
   86SOL    HW1 1157   2.264   1.133   4.618
   86SOL    HW2 1158   2.160   1.258   4.600
   87SOL     OW 1159   4.556   0.052   1.769
   87SOL    HW1 1160   4.645   0.067   1.725
   87SOL    HW2 1161   4.569   7.024   1.853
   88SOL     OW 1162   5.954   0.615   1.110
   88SOL    HW1 1163   5.890   0.680   1.152
   88SOL    HW2 1164   5.944   0.526   1.155
   89SOL     OW 1165   2.108   1.597   5.372
   89SOL    HW1 1166   2.129   1.669   5.306
   89SOL    HW2 1167   2.033   1.628   5.431
   90SOL     OW 1168   6.667   5.770   3.442
   90SOL    HW1 1169   6.601   5.712   3.488
   90SOL    HW2 1170   6.759   5.748   3.474
   91SOL     OW 1171   4.358   4.967   4.720
   91SOL    HW1 1172   4.281   4.959   4.783
   91SOL    HW2 1173   4.418   4.887   4.731
   92SOL     OW 1174   2.890   5.930   1.484
   92SOL    HW1 1175   2.828   5.927   1.406
   92SOL    HW2 1176   2.965   5.864   1.471
   93SOL     OW 1177   3.258   4.652   5.875
   93SOL    HW1 1178   3.242   4.749   5.889
   93SOL    HW2 1179   3.333   4.640   5.810
   94SOL     OW 1180   2.435   6.552   1.866
   94SOL    HW1 1181   2.414   6.611   1.943
   94SOL    HW2 1182   2.431   6.456   1.895
   95SOL     OW 1183   6.784   0.162   5.202
   95SOL    HW1 1184   6.836   0.091   5.250
   95SOL    HW2 1185   6.810   0.164   5.106
   96SOL     OW 1186   2.099   0.088   4.924
   96SOL    HW1 1187   2.047   0.082   4.839
   96SOL    HW2 1188   2.191   0.052   4.910
   97SOL     OW 1189   5.907   3.146   4.768
   97SOL    HW1 1190   5.935   3.089   4.690
   97SOL    HW2 1191   5.826   3.105   4.811
   98SOL     OW 1192   5.661   1.439   5.920
   98SOL    HW1 1193   5.745   1.474   5.963
   98SOL    HW2 1194   5.606   1.391   5.989
   99SOL     OW 1195   4.823   2.013   1.033
   99SOL    HW1 1196   4.801   2.100   1.078
   99SOL    HW2 1197   4.742   1.978   0.986
  100SOL     OW 1198   5.993   5.475   6.473
  100SOL    HW1 1199   6.026   5.545   6.409
  100SOL    HW2 1200   6.048   5.476   6.556
  101SOL     OW 1201   0.863   6.513   4.595
  101SOL    HW1 1202   0.858   6.542   4.691
  101SOL    HW2 1203   0.781   6.545   4.547
  102SOL     OW 1204   4.299   0.400   3.305
  102SOL    HW1 1205   4.252   0.488   3.316
  102SOL    HW2 1206   4.230   0.327   3.300
  103SOL     OW 1207   3.382   2.123   1.504
  103SOL    HW1 1208   3.473   2.115   1.463
  103SOL    HW2 1209   3.386   2.183   1.583
  104SOL     OW 1210   0.359   6.272   2.013
  104SOL    HW1 1211   0.304   6.207   2.067
  104SOL    HW2 1212   0.391   6.226   1.930
  105SOL     OW 1213   5.320   1.191   5.895
  105SOL    HW1 1214   5.264   1.231   5.822
  105SOL    HW2 1215   5.336   1.094   5.875
  106SOL     OW 1216   3.442   6.458   1.258
  106SOL    HW1 1217   3.395   6.411   1.332
  106SOL    HW2 1218   3.502   6.393   1.210
  107SOL     OW 1219   2.426   2.904   0.730
  107SOL    HW1 1220   2.379   2.842   0.668
  107SOL    HW2 1221   2.460   2.854   0.810
  108SOL     OW 1222   4.837   4.114   4.930
  108SOL    HW1 1223   4.857   4.024   4.967
  108SOL    HW2 1224   4.779   4.165   4.994
  109SOL     OW 1225   5.749   0.730   1.575
  109SOL    HW1 1226   5.703   0.657   1.624
  109SOL    HW2 1227   5.827   0.762   1.629
  110SOL     OW 1228   3.420   6.161   4.501
  110SOL    HW1 1229   3.497   6.186   4.560
  110SOL    HW2 1230   3.334   6.177   4.548
  111SOL     OW 1231   3.112   1.235   3.327
  111SOL    HW1 1232   3.086   1.140   3.309
  111SOL    HW2 1233   3.205   1.250   3.294
  112SOL     OW 1234   6.755   1.247   6.607
  112SOL    HW1 1235   6.684   1.302   6.564
  112SOL    HW2 1236   6.807   1.198   6.537
  113SOL     OW 1237   6.890   6.244   3.372
  113SOL    HW1 1238   6.847   6.265   3.284
  113SOL    HW2 1239   6.979   6.290   3.377
  114SOL     OW 1240   1.170   6.365   0.244
  114SOL    HW1 1241   1.246   6.306   0.274
  114SOL    HW2 1242   1.105   6.310   0.192
  115SOL     OW 1243   5.425   0.601   5.526
  115SOL    HW1 1244   5.517   0.621   5.492
  115SOL    HW2 1245   5.403   0.505   5.511
  116SOL     OW 1246   6.241   4.151   2.563
  116SOL    HW1 1247   6.219   4.193   2.651
  116SOL    HW2 1248   6.305   4.075   2.576
  117SOL     OW 1249   1.158   6.809   6.442
  117SOL    HW1 1250   1.254   6.789   6.462
  117SOL    HW2 1251   1.102   6.785   6.521
  118SOL     OW 1252   1.910   0.842   2.899
  118SOL    HW1 1253   1.954   0.932   2.895
  118SOL    HW2 1254   1.900   0.805   2.807
  119SOL     OW 1255   6.730   2.614   6.521
  119SOL    HW1 1256   6.729   2.697   6.466
  119SOL    HW2 1257   6.746   2.535   6.461
  120SOL     OW 1258   5.348   6.439   1.316
  120SOL    HW1 1259   5.396   6.526   1.313
  120SOL    HW2 1260   5.367   6.387   1.233
  121SOL     OW 1261   2.808   2.878   5.808
  121SOL    HW1 1262   2.838   2.863   5.714
  121SOL    HW2 1263   2.710   2.900   5.808
  122SOL     OW 1264   0.697   3.509   4.880
  122SOL    HW1 1265   0.650   3.433   4.836
  122SOL    HW2 1266   0.766   3.547   4.818
  123SOL     OW 1267   0.482   2.012   2.148
  123SOL    HW1 1268   0.540   2.045   2.074
  123SOL    HW2 1269   0.408   1.957   2.111
  124SOL     OW 1270   4.678   3.708   1.078
  124SOL    HW1 1271   4.743   3.734   1.149
  124SOL    HW2 1272   4.634   3.789   1.040
  125SOL     OW 1273   2.203   3.687   1.755
  125SOL    HW1 1274   2.115   3.720   1.788
  125SOL    HW2 1275   2.231   3.607   1.808
  126SOL     OW 1276   3.929   4.585   0.508
  126SOL    HW1 1277   3.874   4.507   0.537
  126SOL    HW2 1278   3.870   4.654   0.466
  127SOL     OW 1279   1.042   5.235   5.632
  127SOL    HW1 1280   0.965   5.176   5.610
  127SOL    HW2 1281   1.065   5.291   5.553
  128SOL     OW 1282   4.486   2.685   0.743
  128SOL    HW1 1283   4.424   2.736   0.684
  128SOL    HW2 1284   4.528   2.611   0.691
  129SOL     OW 1285   2.794   3.928   0.157
  129SOL    HW1 1286   2.840   4.017   0.155
  129SOL    HW2 1287   2.861   3.856   0.138
  130SOL     OW 1288   1.720   2.429   4.915
  130SOL    HW1 1289   1.680   2.358   4.858
  130SOL    HW2 1290   1.820   2.429   4.904
  131SOL     OW 1291   5.473   1.444   2.144
  131SOL    HW1 1292   5.484   1.350   2.110
  131SOL    HW2 1293   5.534   1.459   2.222
  132SOL     OW 1294   0.539   2.151   2.745
  132SOL    HW1 1295   0.477   2.225   2.718
  132SOL    HW2 1296   0.609   2.139   2.675
  133SOL     OW 1297   6.746   5.643   2.836
  133SOL    HW1 1298   6.731   5.742   2.832
  133SOL    HW2 1299   6.664   5.595   2.803
  134SOL     OW 1300   1.230   3.538   2.543
  134SOL    HW1 1301   1.276   3.534   2.632
  134SOL    HW2 1302   1.263   3.617   2.491
  135SOL     OW 1303   4.204   1.164   4.250
  135SOL    HW1 1304   4.144   1.230   4.206
  135SOL    HW2 1305   4.175   1.151   4.345
  136SOL     OW 1306   4.900   4.574   5.791
  136SOL    HW1 1307   4.862   4.557   5.700
  136SOL    HW2 1308   4.852   4.518   5.859
  137SOL     OW 1309   3.421   0.634   5.643
  137SOL    HW1 1310   3.496   0.608   5.704
  137SOL    HW2 1311   3.377   0.717   5.676
  138SOL     OW 1312   6.084   4.586   5.584
  138SOL    HW1 1313   6.021   4.510   5.574
  138SOL    HW2 1314   6.083   4.642   5.501
  139SOL     OW 1315   3.249   5.926   5.796
  139SOL    HW1 1316   3.181   5.995   5.770
  139SOL    HW2 1317   3.340   5.957   5.768
  140SOL     OW 1318   6.831   4.043   4.522
  140SOL    HW1 1319   6.744   4.037   4.570
  140SOL    HW2 1320   6.897   3.982   4.565
  141SOL     OW 1321   1.317   1.696   2.459
  141SOL    HW1 1322   1.289   1.791   2.444
  141SOL    HW2 1323   1.408   1.681   2.422
  142SOL     OW 1324   1.692   4.934   1.340
  142SOL    HW1 1325   1.608   4.987   1.355
  142SOL    HW2 1326   1.732   4.909   1.428
  143SOL     OW 1327   5.034   4.219   2.175
  143SOL    HW1 1328   4.944   4.229   2.218
  143SOL    HW2 1329   5.057   4.122   2.169
  144SOL     OW 1330   2.755   6.201   1.048
  144SOL    HW1 1331   2.816   6.135   1.091
  144SOL    HW2 1332   2.805   6.286   1.030
  145SOL     OW 1333   6.894   5.042   0.756
  145SOL    HW1 1334   6.796   5.044   0.773
  145SOL    HW2 1335   6.921   4.950   0.725
  146SOL     OW 1336   6.626   4.894   0.653
  146SOL    HW1 1337   6.609   4.800   0.624
  146SOL    HW2 1338   6.610   4.956   0.576
  147SOL     OW 1339   5.844   2.739   0.926
  147SOL    HW1 1340   5.896   2.816   0.963
  147SOL    HW2 1341   5.758   2.772   0.886
  148SOL     OW 1342   0.643   5.320   5.260
  148SOL    HW1 1343   0.738   5.317   5.289
  148SOL    HW2 1344   0.638   5.344   5.163
  149SOL     OW 1345   3.261   0.869   6.094
  149SOL    HW1 1346   3.267   0.904   6.187
  149SOL    HW2 1347   3.350   0.833   6.066
  150SOL     OW 1348   0.012   5.942   5.517
  150SOL    HW1 1349   0.007   5.869   5.449
  150SOL    HW2 1350   6.985   5.914   5.598
  151SOL     OW 1351   3.791   0.601   1.922
  151SOL    HW1 1352   3.817   0.698   1.926
  151SOL    HW2 1353   3.864   0.545   1.960
  152SOL     OW 1354   3.059   1.210   4.760
  152SOL    HW1 1355   3.066   1.286   4.696
  152SOL    HW2 1356   3.101   1.234   4.846
  153SOL     OW 1357   1.184   0.444   2.911
  153SOL    HW1 1358   1.136   0.478   2.992
  153SOL    HW2 1359   1.122   0.445   2.833
  154SOL     OW 1360   6.880   1.973   2.927
  154SOL    HW1 1361   6.894   2.054   2.985
  154SOL    HW2 1362   6.786   1.941   2.939
  155SOL     OW 1363   0.343   0.876   3.029
  155SOL    HW1 1364   0.438   0.878   2.998
  155SOL    HW2 1365   0.292   0.952   2.987
  156SOL     OW 1366   0.210   2.506   1.599
  156SOL    HW1 1367   0.215   2.546   1.691
  156SOL    HW2 1368   0.297   2.523   1.552
  157SOL     OW 1369   6.048   3.008   2.872
  157SOL    HW1 1370   6.069   3.043   2.780
  157SOL    HW2 1371   5.957   3.041   2.899
  158SOL     OW 1372   1.762   1.962   4.389
  158SOL    HW1 1373   1.788   1.959   4.292
  158SOL    HW2 1374   1.734   2.055   4.413
  159SOL     OW 1375   4.969   3.191   2.131
  159SOL    HW1 1376   4.878   3.153   2.115
  159SOL    HW2 1377   5.037   3.135   2.084
  160SOL     OW 1378   6.294   4.406   6.070
  160SOL    HW1 1379   6.218   4.348   6.043
  160SOL    HW2 1380   6.357   4.353   6.128
  161SOL     OW 1381   3.262   4.778   5.326
  161SOL    HW1 1382   3.238   4.753   5.420
  161SOL    HW2 1383   3.179   4.784   5.271
  162SOL     OW 1384   4.852   6.036   2.487
  162SOL    HW1 1385   4.881   6.126   2.519
  162SOL    HW2 1386   4.882   5.966   2.552
  163SOL     OW 1387   5.888   0.869   2.070
  163SOL    HW1 1388   5.867   0.771   2.081
  163SOL    HW2 1389   5.935   0.902   2.152
  164SOL     OW 1390   6.525   3.079   0.990
  164SOL    HW1 1391   6.621   3.053   0.978
  164SOL    HW2 1392   6.475   3.003   1.031
  165SOL     OW 1393   6.426   3.856   6.829
  165SOL    HW1 1394   6.359   3.921   6.863
  165SOL    HW2 1395   6.380   3.784   6.777
  166SOL     OW 1396   1.461   0.563   0.844
  166SOL    HW1 1397   1.439   0.466   0.856
  166SOL    HW2 1398   1.517   0.594   0.920
  167SOL     OW 1399   6.440   2.803   0.990
  167SOL    HW1 1400   6.343   2.786   1.008
  167SOL    HW2 1401   6.492   2.788   1.074
  168SOL     OW 1402   2.532   5.677   1.564
  168SOL    HW1 1403   2.505   5.773   1.577
  168SOL    HW2 1404   2.478   5.637   1.489
  169SOL     OW 1405   0.955   0.052   1.647
  169SOL    HW1 1406   0.866   0.093   1.665
  169SOL    HW2 1407   0.946   6.977   1.649
  170SOL     OW 1408   0.594   1.194   2.992
  170SOL    HW1 1409   0.545   1.250   3.059
  170SOL    HW2 1410   0.568   1.098   3.004
  171SOL     OW 1411   3.653   3.850   0.327
  171SOL    HW1 1412   3.660   3.811   0.419
  171SOL    HW2 1413   3.558   3.872   0.308
  172SOL     OW 1414   0.059   2.814   1.494
  172SOL    HW1 1415   0.003   2.893   1.469
  172SOL    HW2 1416   0.056   2.801   1.593
  173SOL     OW 1417   0.367   6.569   5.783
  173SOL    HW1 1418   0.417   6.591   5.867
  173SOL    HW2 1419   0.299   6.640   5.764
  174SOL     OW 1420   2.365   5.800   3.702
  174SOL    HW1 1421   2.407   5.884   3.667
  174SOL    HW2 1422   2.315   5.820   3.786
  175SOL     OW 1423   0.517   5.257   3.403
  175SOL    HW1 1424   0.613   5.282   3.417
  175SOL    HW2 1425   0.484   5.298   3.318
  176SOL     OW 1426   3.060   5.378   0.047
  176SOL    HW1 1427   3.160   5.376   0.047
  176SOL    HW2 1428   3.025   5.287   0.023
  177SOL     OW 1429   4.543   2.012   3.048
  177SOL    HW1 1430   4.553   1.945   3.122
  177SOL    HW2 1431   4.513   2.099   3.085
  178SOL     OW 1432   5.315   4.071   5.485
  178SOL    HW1 1433   5.406   4.051   5.521
  178SOL    HW2 1434   5.299   4.170   5.487
  179SOL     OW 1435   3.174   6.655   1.067
  179SOL    HW1 1436   3.272   6.668   1.078
  179SOL    HW2 1437   3.127   6.680   1.152
  180SOL     OW 1438   1.020   2.175   0.077
  180SOL    HW1 1439   1.057   2.210   0.163
  180SOL    HW2 1440   0.982   2.250   0.023
  181SOL     OW 1441   2.992   3.464   4.728
  181SOL    HW1 1442   2.959   3.557   4.745
  181SOL    HW2 1443   3.006   3.416   4.814
  182SOL     OW 1444   4.812   2.606   4.714
  182SOL    HW1 1445   4.869   2.645   4.641
  182SOL    HW2 1446   4.738   2.670   4.736
  183SOL     OW 1447   6.080   1.781   2.484
  183SOL    HW1 1448   6.176   1.776   2.455
  183SOL    HW2 1449   6.067   1.862   2.541
  184SOL     OW 1450   0.271   4.307   2.883
  184SOL    HW1 1451   0.324   4.383   2.845
  184SOL    HW2 1452   0.174   4.331   2.882
  185SOL     OW 1453   2.872   3.268   6.448
  185SOL    HW1 1454   2.868   3.168   6.439
  185SOL    HW2 1455   2.884   3.309   6.358
  186SOL     OW 1456   5.899   6.422   3.642
  186SOL    HW1 1457   5.973   6.477   3.603
  186SOL    HW2 1458   5.938   6.341   3.687
  187SOL     OW 1459   5.584   6.909   4.033
  187SOL    HW1 1460   5.542   6.921   3.944
  187SOL    HW2 1461   5.671   6.958   4.037
  188SOL     OW 1462   6.138   2.076   4.593
  188SOL    HW1 1463   6.140   2.143   4.518
  188SOL    HW2 1464   6.220   2.088   4.649
  189SOL     OW 1465   1.623   4.561   2.884
  189SOL    HW1 1466   1.576   4.570   2.972
  189SOL    HW2 1467   1.719   4.585   2.895
  190SOL     OW 1468   3.278   0.992   6.328
  190SOL    HW1 1469   3.226   1.068   6.289
  190SOL    HW2 1470   3.367   1.026   6.359
  191SOL     OW 1471   4.943   6.108   6.038
  191SOL    HW1 1472   5.001   6.035   6.076
  191SOL    HW2 1473   4.863   6.121   6.096
  192SOL     OW 1474   6.363   0.740   0.383
  192SOL    HW1 1475   6.383   0.663   0.323
  192SOL    HW2 1476   6.442   0.758   0.442
  193SOL     OW 1477   6.044   4.594   0.220
  193SOL    HW1 1478   6.042   4.575   0.318
  193SOL    HW2 1479   6.008   4.515   0.170
  194SOL     OW 1480   4.353   6.874   4.401
  194SOL    HW1 1481   4.451   6.892   4.392
  194SOL    HW2 1482   4.327   6.876   4.497
  195SOL     OW 1483   6.758   5.177   3.319
  195SOL    HW1 1484   6.816   5.096   3.328
  195SOL    HW2 1485   6.706   5.172   3.234
  196SOL     OW 1486   0.960   1.170   0.810
  196SOL    HW1 1487   0.970   1.162   0.909
  196SOL    HW2 1488   0.874   1.127   0.781
  197SOL     OW 1489   1.738   0.840   0.490
  197SOL    HW1 1490   1.757   0.763   0.429
  197SOL    HW2 1491   1.689   0.807   0.570
  198SOL     OW 1492   2.838   1.336   4.015
  198SOL    HW1 1493   2.840   1.435   4.030
  198SOL    HW2 1494   2.927   1.306   3.981
  199SOL     OW 1495   1.067   1.954   5.052
  199SOL    HW1 1496   1.150   1.927   5.101
  199SOL    HW2 1497   1.054   1.895   4.972
  200SOL     OW 1498   6.093   2.347   6.992
  200SOL    HW1 1499   6.158   2.350   0.044
  200SOL    HW2 1500   6.143   2.345   6.906
  201SOL     OW 1501   6.770   1.631   6.211
  201SOL    HW1 1502   6.767   1.718   6.160
  201SOL    HW2 1503   6.707   1.566   6.169
  202SOL     OW 1504   5.169   0.458   0.018
  202SOL    HW1 1505   5.144   0.371   0.060
  202SOL    HW2 1506   5.086   0.513   0.002
  203SOL     OW 1507   6.401   3.005   6.680
  203SOL    HW1 1508   6.477   3.021   6.618
  203SOL    HW2 1509   6.319   3.052   6.644
  204SOL     OW 1510   5.975   0.455   5.389
  204SOL    HW1 1511   6.055   0.512   5.407
  204SOL    HW2 1512   5.917   0.500   5.321
  205SOL     OW 1513   1.866   3.945   2.728
  205SOL    HW1 1514   1.821   4.035   2.733
  205SOL    HW2 1515   1.961   3.958   2.700
  206SOL     OW 1516   0.439   3.649   0.725
  206SOL    HW1 1517   0.476   3.598   0.802
  206SOL    HW2 1518   0.505   3.648   0.650
  207SOL     OW 1519   6.034   2.809   4.680
  207SOL    HW1 1520   6.101   2.821   4.753
  207SOL    HW2 1521   6.044   2.882   4.613
  208SOL     OW 1522   1.077   3.232   5.148
  208SOL    HW1 1523   1.140   3.272   5.215
  208SOL    HW2 1524   1.019   3.164   5.193
  209SOL     OW 1525   6.693   4.610   2.810
  209SOL    HW1 1526   6.779   4.659   2.823
  209SOL    HW2 1527   6.618   4.675   2.801
  210SOL     OW 1528   4.604   3.446   0.700
  210SOL    HW1 1529   4.531   3.469   0.636
  210SOL    HW2 1530   4.692   3.480   0.665
  211SOL     OW 1531   1.424   1.367   2.005
  211SOL    HW1 1532   1.350   1.411   2.056
  211SOL    HW2 1533   1.389   1.338   1.916
  212SOL     OW 1534   1.993   3.987   1.693
  212SOL    HW1 1535   2.075   4.012   1.745
  212SOL    HW2 1536   1.922   3.955   1.755
  213SOL     OW 1537   1.171   4.882   1.009
  213SOL    HW1 1538   1.268   4.891   0.988
  213SOL    HW2 1539   1.118   4.931   0.940
  214SOL     OW 1540   5.487   6.733   2.147
  214SOL    HW1 1541   5.584   6.757   2.142
  214SOL    HW2 1542   5.432   6.811   2.116
  215SOL     OW 1543   1.981   5.065   3.056
  215SOL    HW1 1544   2.065   5.018   3.028
  215SOL    HW2 1545   1.918   5.070   2.978
  216SOL     OW 1546   1.655   6.192   3.390
  216SOL    HW1 1547   1.630   6.262   3.457
  216SOL    HW2 1548   1.753   6.172   3.399
  217SOL     OW 1549   0.868   5.026   5.569
  217SOL    HW1 1550   0.795   4.982   5.622
  217SOL    HW2 1551   0.857   5.004   5.472
  218SOL     OW 1552   2.589   2.110   5.551
  218SOL    HW1 1553   2.553   2.184   5.608
  218SOL    HW2 1554   2.684   2.131   5.526
  219SOL     OW 1555   4.462   2.277   1.294
  219SOL    HW1 1556   4.458   2.178   1.308
  219SOL    HW2 1557   4.426   2.299   1.203
  220SOL     OW 1558   3.030   6.291   0.914
  220SOL    HW1 1559   2.971   6.372   0.929
  220SOL    HW2 1560   2.976   6.218   0.872
  221SOL     OW 1561   4.932   4.504   2.116
  221SOL    HW1 1562   4.960   4.409   2.128
  221SOL    HW2 1563   4.996   4.549   2.054
  222SOL     OW 1564   2.060   4.652   6.439
  222SOL    HW1 1565   2.078   4.744   6.405
  222SOL    HW2 1566   2.085   4.647   6.536
  223SOL     OW 1567   6.534   2.441   5.090
  223SOL    HW1 1568   6.434   2.443   5.091
  223SOL    HW2 1569   6.569   2.520   5.039
  224SOL     OW 1570   3.559   2.000   5.567
  224SOL    HW1 1571   3.640   2.017   5.511
  224SOL    HW2 1572   3.586   1.968   5.657
  225SOL     OW 1573   4.101   6.054   6.663
  225SOL    HW1 1574   4.045   5.974   6.642
  225SOL    HW2 1575   4.162   6.073   6.586
  226SOL     OW 1576   1.970   2.520   6.911
  226SOL    HW1 1577   2.065   2.529   6.942
  226SOL    HW2 1578   1.936   2.429   6.934
  227SOL     OW 1579   1.475   3.886   0.961
  227SOL    HW1 1580   1.406   3.958   0.958
  227SOL    HW2 1581   1.561   3.922   0.926
  228SOL     OW 1582   0.973   0.577   2.221
  228SOL    HW1 1583   0.979   0.667   2.179
  228SOL    HW2 1584   1.052   0.563   2.280
  229SOL     OW 1585   4.125   0.106   5.850
  229SOL    HW1 1586   4.221   0.109   5.880
  229SOL    HW2 1587   4.102   0.192   5.805
  230SOL     OW 1588   5.473   4.869   6.039
  230SOL    HW1 1589   5.431   4.843   5.952
  230SOL    HW2 1590   5.514   4.788   6.082
  231SOL     OW 1591   5.420   1.755   6.985
  231SOL    HW1 1592   5.490   1.700   6.939
  231SOL    HW2 1593   5.355   1.789   6.918
  232SOL     OW 1594   1.192   1.932   5.625
  232SOL    HW1 1595   1.210   2.015   5.571
  232SOL    HW2 1596   1.278   1.884   5.643
  233SOL     OW 1597   3.194   1.917   2.920
  233SOL    HW1 1598   3.132   1.838   2.918
  233SOL    HW2 1599   3.154   1.992   2.868
  234SOL     OW 1600   5.164   0.823   0.991
  234SOL    HW1 1601   5.134   0.729   1.005
  234SOL    HW2 1602   5.263   0.829   1.005
  235SOL     OW 1603   5.211   2.695   2.455
  235SOL    HW1 1604   5.161   2.640   2.388
  235SOL    HW2 1605   5.191   2.792   2.440
  236SOL     OW 1606   4.060   3.524   6.013
  236SOL    HW1 1607   4.012   3.444   5.975
  236SOL    HW2 1608   4.012   3.556   6.094
  237SOL     OW 1609   6.140   3.604   2.776
  237SOL    HW1 1610   6.133   3.526   2.714
  237SOL    HW2 1611   6.067   3.600   2.844
  238SOL     OW 1612   6.179   2.104   0.753
  238SOL    HW1 1613   6.222   2.026   0.709
  238SOL    HW2 1614   6.176   2.089   0.852
  239SOL     OW 1615   1.187   3.452   0.411
  239SOL    HW1 1616   1.224   3.434   0.319
  239SOL    HW2 1617   1.152   3.366   0.449
  240SOL     OW 1618   4.951   3.390   4.256
  240SOL    HW1 1619   4.900   3.468   4.291
  240SOL    HW2 1620   4.889   3.312   4.243
  241SOL     OW 1621   2.519   1.998   4.193
  241SOL    HW1 1622   2.495   1.954   4.280
  241SOL    HW2 1623   2.455   1.969   4.122
  242SOL     OW 1624   3.684   3.594   2.886
  242SOL    HW1 1625   3.621   3.656   2.839
  242SOL    HW2 1626   3.662   3.499   2.861
  243SOL     OW 1627   3.980   2.396   6.651
  243SOL    HW1 1628   3.903   2.460   6.650
  243SOL    HW2 1629   4.064   2.446   6.629
  244SOL     OW 1630   4.889   3.354   4.875
  244SOL    HW1 1631   4.845   3.438   4.905
  244SOL    HW2 1632   4.917   3.301   4.955
  245SOL     OW 1633   3.356   1.395   3.212
  245SOL    HW1 1634   3.402   1.451   3.142
  245SOL    HW2 1635   3.344   1.450   3.295
  246SOL     OW 1636   6.511   1.246   2.241
  246SOL    HW1 1637   6.475   1.294   2.160
  246SOL    HW2 1638   6.601   1.284   2.263
  247SOL     OW 1639   1.708   1.291   1.603
  247SOL    HW1 1640   1.684   1.388   1.607
  247SOL    HW2 1641   1.643   1.238   1.658
  248SOL     OW 1642   3.120   3.469   1.618
  248SOL    HW1 1643   3.161   3.554   1.651
  248SOL    HW2 1644   3.020   3.479   1.616
  249SOL     OW 1645   4.961   6.602   4.976
  249SOL    HW1 1646   4.897   6.679   4.967
  249SOL    HW2 1647   4.950   6.541   4.897
  250SOL     OW 1648   4.110   2.437   0.303
  250SOL    HW1 1649   4.191   2.380   0.315
  250SOL    HW2 1650   4.127   2.503   0.229
  251SOL     OW 1651   4.038   4.910   5.147
  251SOL    HW1 1652   4.121   4.922   5.203
  251SOL    HW2 1653   3.974   4.851   5.196
  252SOL     OW 1654   6.188   6.551   5.067
  252SOL    HW1 1655   6.165   6.455   5.080
  252SOL    HW2 1656   6.272   6.572   5.117
  253SOL     OW 1657   4.481   6.356   6.281
  253SOL    HW1 1658   4.479   6.341   6.183
  253SOL    HW2 1659   4.490   6.269   6.329
  254SOL     OW 1660   6.225   1.806   5.624
  254SOL    HW1 1661   6.239   1.900   5.590
  254SOL    HW2 1662   6.136   1.772   5.593
  255SOL     OW 1663   0.951   4.308   7.000
  255SOL    HW1 1664   0.941   4.212   0.002
  255SOL    HW2 1665   0.950   4.366   0.057
  256SOL     OW 1666   5.411   2.327   5.031
  256SOL    HW1 1667   5.468   2.327   5.113
  256SOL    HW2 1668   5.437   2.403   4.972
  257SOL     OW 1669   4.810   6.441   2.257
  257SOL    HW1 1670   4.739   6.383   2.218
  257SOL    HW2 1671   4.899   6.397   2.246
  258SOL     OW 1672   1.797   3.207   5.904
  258SOL    HW1 1673   1.756   3.121   5.935
  258SOL    HW2 1674   1.856   3.189   5.826
  259SOL     OW 1675   3.263   6.737   3.911
  259SOL    HW1 1676   3.202   6.752   3.989
  259SOL    HW2 1677   3.341   6.682   3.940
  260SOL     OW 1678   4.332   5.320   3.034
  260SOL    HW1 1679   4.419   5.354   3.070
  260SOL    HW2 1680   4.333   5.324   2.935
  261SOL     OW 1681   4.305   5.218   6.997
  261SOL    HW1 1682   4.362   5.240   6.918
  261SOL    HW2 1683   4.330   5.277   0.049
  262SOL     OW 1684   0.841   3.883   6.493
  262SOL    HW1 1685   0.923   3.865   6.439
  262SOL    HW2 1686   0.868   3.924   6.581
  263SOL     OW 1687   1.130   6.976   4.257
  263SOL    HW1 1688   1.195   6.900   4.261
  263SOL    HW2 1689   1.156   0.015   4.185
  264SOL     OW 1690   6.540   3.370   6.948
  264SOL    HW1 1691   6.452   3.398   6.985
  264SOL    HW2 1692   6.576   3.293   7.001
  265SOL     OW 1693   0.264   0.242   3.185
  265SOL    HW1 1694   0.199   0.311   3.152
  265SOL    HW2 1695   0.322   0.213   3.109
  266SOL     OW 1696   3.626   0.540   5.785
  266SOL    HW1 1697   3.646   0.443   5.798
  266SOL    HW2 1698   3.712   0.592   5.785
  267SOL     OW 1699   1.959   0.231   3.411
  267SOL    HW1 1700   2.028   0.174   3.455
  267SOL    HW2 1701   1.889   0.257   3.478
  268SOL     OW 1702   3.211   2.538   0.956
  268SOL    HW1 1703   3.270   2.532   0.875
  268SOL    HW2 1704   3.210   2.632   0.989
  269SOL     OW 1705   4.790   1.868   0.490
  269SOL    HW1 1706   4.851   1.792   0.465
  269SOL    HW2 1707   4.721   1.836   0.554
  270SOL     OW 1708   5.848   0.560   0.381
  270SOL    HW1 1709   5.941   0.589   0.407
  270SOL    HW2 1710   5.809   0.628   0.319
  271SOL     OW 1711   0.616   4.028   6.435
  271SOL    HW1 1712   0.545   4.003   6.370
  271SOL    HW2 1713   0.689   3.960   6.434
  272SOL     OW 1714   3.147   5.810   3.177
  272SOL    HW1 1715   3.059   5.838   3.138
  272SOL    HW2 1716   3.135   5.793   3.275
  273SOL     OW 1717   1.837   5.258   6.225
  273SOL    HW1 1718   1.845   5.207   6.310
  273SOL    HW2 1719   1.798   5.199   6.154
  274SOL     OW 1720   4.857   2.202   3.757
  274SOL    HW1 1721   4.865   2.181   3.659
  274SOL    HW2 1722   4.853   2.301   3.769
  275SOL     OW 1723   6.292   6.402   1.262
  275SOL    HW1 1724   6.221   6.471   1.253
  275SOL    HW2 1725   6.360   6.415   1.190
  276SOL     OW 1726   1.120   0.366   5.062
  276SOL    HW1 1727   1.168   0.286   5.100
  276SOL    HW2 1728   1.039   0.335   5.012
  277SOL     OW 1729   2.016   4.208   0.789
  277SOL    HW1 1730   2.078   4.271   0.836
  277SOL    HW2 1731   2.032   4.115   0.822
  278SOL     OW 1732   0.753   2.798   2.864
  278SOL    HW1 1733   0.841   2.752   2.856
  278SOL    HW2 1734   0.699   2.754   2.935
  279SOL     OW 1735   6.519   0.986   3.481
  279SOL    HW1 1736   6.603   1.038   3.499
  279SOL    HW2 1737   6.491   1.000   3.386
  280SOL     OW 1738   1.558   4.647   2.558
  280SOL    HW1 1739   1.591   4.578   2.493
  280SOL    HW2 1740   1.569   4.612   2.651
  281SOL     OW 1741   2.429   4.696   1.076
  281SOL    HW1 1742   2.429   4.735   0.984
  281SOL    HW2 1743   2.523   4.671   1.101
  282SOL     OW 1744   2.517   1.539   5.865
  282SOL    HW1 1745   2.476   1.515   5.953
  282SOL    HW2 1746   2.459   1.506   5.791
  283SOL     OW 1747   3.466   2.565   5.945
  283SOL    HW1 1748   3.507   2.643   5.898
  283SOL    HW2 1749   3.378   2.592   5.985
  284SOL     OW 1750   0.570   3.441   3.947
  284SOL    HW1 1751   0.616   3.367   3.995
  284SOL    HW2 1752   0.632   3.519   3.938
  285SOL     OW 1753   4.958   4.961   4.128
  285SOL    HW1 1754   4.911   4.932   4.044
  285SOL    HW2 1755   5.017   4.887   4.159
  286SOL     OW 1756   3.065   4.011   0.331
  286SOL    HW1 1757   3.012   4.094   0.314
  286SOL    HW2 1758   3.100   4.013   0.424
  287SOL     OW 1759   1.249   2.668   0.413
  287SOL    HW1 1760   1.187   2.738   0.447
  287SOL    HW2 1761   1.217   2.634   0.324
  288SOL     OW 1762   4.948   3.380   1.201
  288SOL    HW1 1763   4.916   3.467   1.163
  288SOL    HW2 1764   4.913   3.304   1.145
  289SOL     OW 1765   3.981   5.655   6.916
  289SOL    HW1 1766   3.913   5.682   6.984
  289SOL    HW2 1767   3.997   5.557   6.922
  290SOL     OW 1768   1.388   1.211   4.785
  290SOL    HW1 1769   1.395   1.278   4.712
  290SOL    HW2 1770   1.458   1.230   4.854
  291SOL     OW 1771   6.191   2.674   2.652
  291SOL    HW1 1772   6.236   2.585   2.642
  291SOL    HW2 1773   6.180   2.695   2.749
  292SOL     OW 1774   3.399   0.650   3.827
  292SOL    HW1 1775   3.376   0.727   3.768
  292SOL    HW2 1776   3.328   0.638   3.896
  293SOL     OW 1777   3.838   4.918   3.878
  293SOL    HW1 1778   3.772   4.947   3.947
  293SOL    HW2 1779   3.793   4.911   3.789
  294SOL     OW 1780   4.848   0.909   0.747
  294SOL    HW1 1781   4.797   0.985   0.707
  294SOL    HW2 1782   4.946   0.925   0.737
  295SOL     OW 1783   5.905   0.215   3.648
  295SOL    HW1 1784   5.952   0.297   3.614
  295SOL    HW2 1785   5.868   0.164   3.571
  296SOL     OW 1786   2.334   2.189   3.307
  296SOL    HW1 1787   2.381   2.267   3.264
  296SOL    HW2 1788   2.388   2.106   3.293
  297SOL     OW 1789   1.607   5.360   2.270
  297SOL    HW1 1790   1.537   5.321   2.210
  297SOL    HW2 1791   1.601   5.316   2.360
  298SOL     OW 1792   6.332   4.760   1.045
  298SOL    HW1 1793   6.268   4.732   0.973
  298SOL    HW2 1794   6.409   4.697   1.046
  299SOL     OW 1795   5.700   2.277   4.160
  299SOL    HW1 1796   5.674   2.216   4.234
  299SOL    HW2 1797   5.666   2.369   4.178
  300SOL     OW 1798   6.384   6.758   1.760
  300SOL    HW1 1799   6.357   6.689   1.828
  300SOL    HW2 1800   6.328   6.840   1.771
  301SOL     OW 1801   4.583   2.713   5.669
  301SOL    HW1 1802   4.507   2.707   5.604
  301SOL    HW2 1803   4.656   2.769   5.629
  302SOL     OW 1804   1.001   5.794   4.463
  302SOL    HW1 1805   0.967   5.843   4.544
  302SOL    HW2 1806   1.047   5.710   4.491
  303SOL     OW 1807   6.260   0.072   3.491
  303SOL    HW1 1808   6.237   0.001   3.558
  303SOL    HW2 1809   6.284   0.029   3.404
  304SOL     OW 1810   3.459   0.248   3.377
  304SOL    HW1 1811   3.505   0.251   3.466
  304SOL    HW2 1812   3.362   0.228   3.391
  305SOL     OW 1813   1.703   4.542   1.030
  305SOL    HW1 1814   1.668   4.465   1.083
  305SOL    HW2 1815   1.681   4.628   1.075
  306SOL     OW 1816   1.751   0.924   3.640
  306SOL    HW1 1817   1.743   0.944   3.738
  306SOL    HW2 1818   1.835   0.871   3.625
  307SOL     OW 1819   3.330   0.252   1.550
  307SOL    HW1 1820   3.362   0.158   1.539
  307SOL    HW2 1821   3.404   0.310   1.583
  308SOL     OW 1822   0.783   4.527   3.782
  308SOL    HW1 1823   0.871   4.512   3.826
  308SOL    HW2 1824   0.710   4.523   3.850
  309SOL     OW 1825   3.475   5.008   4.969
  309SOL    HW1 1826   3.548   4.956   5.014
  309SOL    HW2 1827   3.403   5.028   5.035
  310SOL     OW 1828   1.473   5.945   6.220
  310SOL    HW1 1829   1.553   5.897   6.256
  310SOL    HW2 1830   1.477   5.947   6.120
  311SOL     OW 1831   0.249   0.883   1.230
  311SOL    HW1 1832   0.319   0.816   1.204
  311SOL    HW2 1833   0.280   0.975   1.207
  312SOL     OW 1834   3.863   1.206   5.558
  312SOL    HW1 1835   3.790   1.161   5.506
  312SOL    HW2 1836   3.861   1.304   5.540
  313SOL     OW 1837   0.209   4.755   1.177
  313SOL    HW1 1838   0.165   4.842   1.151
  313SOL    HW2 1839   0.153   4.709   1.245
  314SOL     OW 1840   3.648   5.785   1.869
  314SOL    HW1 1841   3.599   5.863   1.832
  314SOL    HW2 1842   3.635   5.781   1.968
  315SOL     OW 1843   0.993   3.880   2.759
  315SOL    HW1 1844   0.939   3.855   2.839
  315SOL    HW2 1845   0.950   3.841   2.677
  316SOL     OW 1846   2.093   3.296   4.725
  316SOL    HW1 1847   2.143   3.372   4.765
  316SOL    HW2 1848   2.143   3.211   4.743
  317SOL     OW 1849   6.681   1.417   0.358
  317SOL    HW1 1850   6.591   1.399   0.398
  317SOL    HW2 1851   6.703   1.345   0.293
  318SOL     OW 1852   2.813   4.466   1.089
  318SOL    HW1 1853   2.750   4.448   1.165
  318SOL    HW2 1854   2.892   4.516   1.123
  319SOL     OW 1855   1.146   0.032   6.719
  319SOL    HW1 1856   1.212   6.994   6.760
  319SOL    HW2 1857   1.056   7.013   6.718
  320SOL     OW 1858   5.427   3.335   1.104
  320SOL    HW1 1859   5.356   3.280   1.148
  320SOL    HW2 1860   5.405   3.345   1.007
  321SOL     OW 1861   2.076   1.363   2.172
  321SOL    HW1 1862   2.162   1.366   2.121
  321SOL    HW2 1863   2.048   1.267   2.183
  322SOL     OW 1864   3.530   2.425   5.384
  322SOL    HW1 1865   3.436   2.459   5.380
  322SOL    HW2 1866   3.534   2.334   5.343
  323SOL     OW 1867   1.112   4.121   1.600
  323SOL    HW1 1868   1.179   4.079   1.661
  323SOL    HW2 1869   1.060   4.190   1.650
  324SOL     OW 1870   0.042   2.698   4.329
  324SOL    HW1 1871   0.032   2.609   4.283
  324SOL    HW2 1872   0.128   2.740   4.301
  325SOL     OW 1873   2.401   1.633   2.943
  325SOL    HW1 1874   2.314   1.641   2.992
  325SOL    HW2 1875   2.409   1.542   2.903
  326SOL     OW 1876   1.697   4.045   4.430
  326SOL    HW1 1877   1.724   4.025   4.525
  326SOL    HW2 1878   1.720   4.140   4.408
  327SOL     OW 1879   6.233   4.096   6.263
  327SOL    HW1 1880   6.259   4.009   6.306
  327SOL    HW2 1881   6.310   4.159   6.265
  328SOL     OW 1882   3.903   5.809   2.905
  328SOL    HW1 1883   3.838   5.738   2.931
  328SOL    HW2 1884   3.858   5.898   2.908
  329SOL     OW 1885   3.452   4.127   2.457
  329SOL    HW1 1886   3.378   4.180   2.416
  329SOL    HW2 1887   3.447   4.134   2.557
  330SOL     OW 1888   2.460   2.177   1.880
  330SOL    HW1 1889   2.540   2.186   1.821
  330SOL    HW2 1890   2.489   2.152   1.973
  331SOL     OW 1891   5.915   3.966   5.510
  331SOL    HW1 1892   5.910   3.867   5.519
  331SOL    HW2 1893   5.865   3.995   5.427
  332SOL     OW 1894   3.724   1.975   3.324
  332SOL    HW1 1895   3.709   1.960   3.227
  332SOL    HW2 1896   3.756   1.890   3.367
  333SOL     OW 1897   4.775   6.765   0.711
  333SOL    HW1 1898   4.702   6.698   0.727
  333SOL    HW2 1899   4.781   6.785   0.613
  334SOL     OW 1900   5.087   6.742   2.947
  334SOL    HW1 1901   5.042   6.656   2.927
  334SOL    HW2 1902   5.024   6.803   2.995
  335SOL     OW 1903   3.241   6.930   2.525
  335SOL    HW1 1904   3.292   7.016   2.518
  335SOL    HW2 1905   3.210   6.902   2.434
  336SOL     OW 1906   3.491   0.410   4.611
  336SOL    HW1 1907   3.512   0.502   4.644
  336SOL    HW2 1908   3.404   0.412   4.561
  337SOL     OW 1909   0.074   4.022   2.161
  337SOL    HW1 1910   0.098   3.969   2.243
  337SOL    HW2 1911   0.146   4.089   2.143
  338SOL     OW 1912   2.592   2.374   1.562
  338SOL    HW1 1913   2.675   2.368   1.507
  338SOL    HW2 1914   2.532   2.297   1.541
  339SOL     OW 1915   4.397   1.309   3.337
  339SOL    HW1 1916   4.331   1.236   3.319
  339SOL    HW2 1917   4.397   1.331   3.435
  340SOL     OW 1918   4.869   3.968   4.675
  340SOL    HW1 1919   4.897   3.887   4.726
  340SOL    HW2 1920   4.829   4.035   4.738
  341SOL     OW 1921   4.714   4.432   5.956
  341SOL    HW1 1922   4.620   4.400   5.947
  341SOL    HW2 1923   4.723   4.483   6.042
  342SOL     OW 1924   6.053   4.003   0.559
  342SOL    HW1 1925   6.097   3.968   0.476
  342SOL    HW2 1926   6.107   3.979   0.639
  343SOL     OW 1927   2.213   0.781   2.583
  343SOL    HW1 1928   2.199   0.684   2.603
  343SOL    HW2 1929   2.311   0.800   2.576
  344SOL     OW 1930   3.849   6.634   0.118
  344SOL    HW1 1931   3.948   6.625   0.116
  344SOL    HW2 1932   3.821   6.679   0.203
  345SOL     OW 1933   1.470   1.148   5.623
  345SOL    HW1 1934   1.456   1.050   5.632
  345SOL    HW2 1935   1.517   1.183   5.704
  346SOL     OW 1936   3.129   0.972   5.222
  346SOL    HW1 1937   3.207   1.029   5.246
  346SOL    HW2 1938   3.059   1.028   5.177
  347SOL     OW 1939   5.028   6.382   5.912
  347SOL    HW1 1940   5.000   6.377   5.816
  347SOL    HW2 1941   5.012   6.293   5.956
  348SOL     OW 1942   2.443   6.588   2.674
  348SOL    HW1 1943   2.465   6.524   2.748
  348SOL    HW2 1944   2.366   6.645   2.701
  349SOL     OW 1945   2.641   5.458   2.494
  349SOL    HW1 1946   2.577   5.531   2.518
  349SOL    HW2 1947   2.603   5.370   2.522
  350SOL     OW 1948   4.610   3.191   0.950
  350SOL    HW1 1949   4.545   3.116   0.963
  350SOL    HW2 1950   4.567   3.263   0.897
  351SOL     OW 1951   3.447   1.837   0.845
  351SOL    HW1 1952   3.366   1.799   0.802
  351SOL    HW2 1953   3.420   1.914   0.904
  352SOL     OW 1954   3.278   2.251   5.942
  352SOL    HW1 1955   3.360   2.256   5.886
  352SOL    HW2 1956   3.285   2.172   6.004
  353SOL     OW 1957   2.050   7.014   1.205
  353SOL    HW1 1958   2.047   6.927   1.157
  353SOL    HW2 1959   2.095   7.002   1.294
  354SOL     OW 1960   5.015   0.473   2.102
  354SOL    HW1 1961   4.938   0.411   2.120
  354SOL    HW2 1962   5.009   0.505   2.007
  355SOL     OW 1963   0.812   1.025   2.305
  355SOL    HW1 1964   0.882   1.064   2.245
  355SOL    HW2 1965   0.745   1.095   2.329
  356SOL     OW 1966   3.262   7.006   2.984
  356SOL    HW1 1967   3.331   0.022   3.044
  356SOL    HW2 1968   3.206   0.053   2.944
  357SOL     OW 1969   1.202   5.060   5.153
  357SOL    HW1 1970   1.173   4.973   5.112
  357SOL    HW2 1971   1.171   5.064   5.248
  358SOL     OW 1972   4.658   1.309   3.269
  358SOL    HW1 1973   4.650   1.386   3.206
  358SOL    HW2 1974   4.567   1.281   3.300
  359SOL     OW 1975   0.122   1.748   0.178
  359SOL    HW1 1976   0.039   1.747   0.233
  359SOL    HW2 1977   0.126   1.834   0.127
  360SOL     OW 1978   5.117   0.182   0.131
  360SOL    HW1 1979   5.152   0.106   0.185
  360SOL    HW2 1980   5.081   0.147   0.044
  361SOL     OW 1981   3.136   0.183   2.878
  361SOL    HW1 1982   3.092   0.265   2.915
  361SOL    HW2 1983   3.112   0.174   2.781
  362SOL     OW 1984   2.986   3.978   0.855
  362SOL    HW1 1985   2.907   3.954   0.799
  362SOL    HW2 1986   2.986   4.076   0.873
  363SOL     OW 1987   4.744   4.708   3.391
  363SOL    HW1 1988   4.716   4.773   3.320
  363SOL    HW2 1989   4.674   4.637   3.400
  364SOL     OW 1990   2.730   5.699   6.218
  364SOL    HW1 1991   2.725   5.632   6.293
  364SOL    HW2 1992   2.818   5.745   6.221
  365SOL     OW 1993   4.655   6.876   3.075
  365SOL    HW1 1994   4.708   6.956   3.104
  365SOL    HW2 1995   4.564   6.881   3.117
  366SOL     OW 1996   5.300   1.257   0.397
  366SOL    HW1 1997   5.352   1.214   0.471
  366SOL    HW2 1998   5.257   1.341   0.430
  367SOL     OW 1999   5.111   2.168   2.199
  367SOL    HW1 2000   5.122   2.069   2.208
  367SOL    HW2 2001   5.109   2.193   2.102
  368SOL     OW 2002   0.378   5.353   5.362
  368SOL    HW1 2003   0.465   5.331   5.317
  368SOL    HW2 2004   0.371   5.301   5.447
  369SOL     OW 2005   1.040   3.434   1.606
  369SOL    HW1 2006   1.049   3.532   1.621
  369SOL    HW2 2007   1.072   3.411   1.515
  370SOL     OW 2008   3.933   1.489   6.284
  370SOL    HW1 2009   4.030   1.516   6.288
  370SOL    HW2 2010   3.909   1.441   6.369
  371SOL     OW 2011   3.760   2.574   6.581
  371SOL    HW1 2012   3.786   2.540   6.491
  371SOL    HW2 2013   3.797   2.666   6.595
  372SOL     OW 2014   2.318   5.412   0.239
  372SOL    HW1 2015   2.286   5.358   0.317
  372SOL    HW2 2016   2.297   5.509   0.255
  373SOL     OW 2017   6.042   6.962   6.380
  373SOL    HW1 2018   6.115   6.926   6.321
  373SOL    HW2 2019   5.967   6.896   6.383
  374SOL     OW 2020   5.059   1.048   1.108
  374SOL    HW1 2021   4.965   1.075   1.125
  374SOL    HW2 2022   5.062   0.981   1.034
  375SOL     OW 2023   6.669   4.423   1.095
  375SOL    HW1 2024   6.662   4.519   1.120
  375SOL    HW2 2025   6.594   4.372   1.136
  376SOL     OW 2026   2.121   3.767   4.887
  376SOL    HW1 2027   2.098   3.843   4.827
  376SOL    HW2 2028   2.195   3.794   4.948
  377SOL     OW 2029   5.144   1.206   4.221
  377SOL    HW1 2030   5.199   1.123   4.233
  377SOL    HW2 2031   5.072   1.188   4.154
  378SOL     OW 2032   5.515   2.318   5.329
  378SOL    HW1 2033   5.613   2.330   5.316
  378SOL    HW2 2034   5.474   2.406   5.355
  379SOL     OW 2035   6.387   2.924   1.620
  379SOL    HW1 2036   6.469   2.867   1.632
  379SOL    HW2 2037   6.395   2.975   1.534
  380SOL     OW 2038   1.146   2.288   0.351
  380SOL    HW1 2039   1.173   2.360   0.288
  380SOL    HW2 2040   1.061   2.314   0.398
  381SOL     OW 2041   4.614   5.028   6.897
  381SOL    HW1 2042   4.677   5.104   6.879
  381SOL    HW2 2043   4.640   4.982   6.982
  382SOL     OW 2044   2.287   5.468   6.849
  382SOL    HW1 2045   2.343   5.442   6.771
  382SOL    HW2 2046   2.344   5.477   6.931
  383SOL     OW 2047   6.323   1.502   0.219
  383SOL    HW1 2048   6.407   1.488   0.166
  383SOL    HW2 2049   6.329   1.452   0.305
  384SOL     OW 2050   0.563   5.154   4.669
  384SOL    HW1 2051   0.647   5.194   4.706
  384SOL    HW2 2052   0.485   5.180   4.727
  385SOL     OW 2053   4.639   5.339   1.232
  385SOL    HW1 2054   4.698   5.377   1.162
  385SOL    HW2 2055   4.547   5.326   1.195
  386SOL     OW 2056   2.371   5.917   4.465
  386SOL    HW1 2057   2.333   5.847   4.526
  386SOL    HW2 2058   2.340   6.007   4.494
  387SOL     OW 2059   0.142   0.648   5.675
  387SOL    HW1 2060   0.144   0.554   5.707
  387SOL    HW2 2061   0.188   0.654   5.586
  388SOL     OW 2062   0.702   1.511   4.499
  388SOL    HW1 2063   0.660   1.594   4.535
  388SOL    HW2 2064   0.723   1.524   4.402
  389SOL     OW 2065   5.110   3.778   2.470
  389SOL    HW1 2066   5.085   3.859   2.416
  389SOL    HW2 2067   5.156   3.808   2.554
  390SOL     OW 2068   3.375   2.443   0.484
  390SOL    HW1 2069   3.347   2.493   0.402
  390SOL    HW2 2070   3.474   2.451   0.496
  391SOL     OW 2071   3.955   3.830   4.095
  391SOL    HW1 2072   3.963   3.794   4.188
  391SOL    HW2 2073   3.950   3.930   4.099
  392SOL     OW 2074   2.073   3.860   1.234
  392SOL    HW1 2075   2.123   3.797   1.174
  392SOL    HW2 2076   2.114   3.859   1.325
  393SOL     OW 2077   1.400   5.734   1.317
  393SOL    HW1 2078   1.438   5.813   1.269
  393SOL    HW2 2079   1.330   5.691   1.260
  394SOL     OW 2080   6.138   1.466   6.194
  394SOL    HW1 2081   6.203   1.390   6.188
  394SOL    HW2 2082   6.046   1.430   6.203
  395SOL     OW 2083   6.123   4.859   6.613
  395SOL    HW1 2084   6.142   4.867   6.515
  395SOL    HW2 2085   6.103   4.949   6.651
  396SOL     OW 2086   0.727   0.941   1.440
  396SOL    HW1 2087   0.736   1.032   1.401
  396SOL    HW2 2088   0.760   0.941   1.534
  397SOL     OW 2089   4.712   2.102   4.651
  397SOL    HW1 2090   4.781   2.118   4.722
  397SOL    HW2 2091   4.696   2.186   4.600
  398SOL     OW 2092   6.924   1.518   3.055
  398SOL    HW1 2093   6.952   1.613   3.039
  398SOL    HW2 2094   6.947   1.462   2.976
  399SOL     OW 2095   6.247   5.588   3.573
  399SOL    HW1 2096   6.182   5.541   3.633
  399SOL    HW2 2097   6.208   5.595   3.481
  400SOL     OW 2098   0.091   6.641   2.638
  400SOL    HW1 2099   0.059   6.694   2.717
  400SOL    HW2 2100   0.189   6.626   2.646
  401SOL     OW 2101   0.944   6.111   5.354
  401SOL    HW1 2102   1.034   6.097   5.395
  401SOL    HW2 2103   0.883   6.037   5.382
  402SOL     OW 2104   6.195   0.740   4.074
  402SOL    HW1 2105   6.111   0.721   4.023
  402SOL    HW2 2106   6.268   0.764   4.009
  403SOL     OW 2107   2.373   1.808   5.190
  403SOL    HW1 2108   2.274   1.822   5.179
  403SOL    HW2 2109   2.407   1.866   5.264
  404SOL     OW 2110   3.057   5.354   3.445
  404SOL    HW1 2111   3.046   5.262   3.408
  404SOL    HW2 2112   2.982   5.373   3.509
  405SOL     OW 2113   2.736   4.671   3.785
  405SOL    HW1 2114   2.813   4.651   3.845
  405SOL    HW2 2115   2.720   4.770   3.784
  406SOL     OW 2116   0.732   6.913   6.501
  406SOL    HW1 2117   0.799   6.951   6.436
  406SOL    HW2 2118   0.738   6.813   6.500
  407SOL     OW 2119   2.103   3.792   4.304
  407SOL    HW1 2120   2.017   3.831   4.338
  407SOL    HW2 2121   2.082   3.713   4.247
  408SOL     OW 2122   2.623   2.407   2.110
  408SOL    HW1 2123   2.709   2.387   2.062
  408SOL    HW2 2124   2.564   2.462   2.051
  409SOL     OW 2125   0.447   2.548   2.238
  409SOL    HW1 2126   0.438   2.639   2.197
  409SOL    HW2 2127   0.434   2.554   2.337
  410SOL     OW 2128   1.670   3.372   1.602
  410SOL    HW1 2129   1.596   3.407   1.544
  410SOL    HW2 2130   1.709   3.290   1.561
  411SOL     OW 2131   6.842   1.751   1.192
  411SOL    HW1 2132   6.800   1.731   1.103
  411SOL    HW2 2133   6.873   1.846   1.193
  412SOL     OW 2134   1.920   4.640   2.958
  412SOL    HW1 2135   1.973   4.563   2.924
  412SOL    HW2 2136   1.980   4.719   2.970
  413SOL     OW 2137   6.525   5.273   2.743
  413SOL    HW1 2138   6.474   5.295   2.826
  413SOL    HW2 2139   6.592   5.345   2.725
  414SOL     OW 2140   2.178   0.454   2.897
  414SOL    HW1 2141   2.137   0.375   2.851
  414SOL    HW2 2142   2.277   0.446   2.896
  415SOL     OW 2143   5.689   3.354   0.318
  415SOL    HW1 2144   5.692   3.378   0.221
  415SOL    HW2 2145   5.757   3.283   0.337
  416SOL     OW 2146   5.995   3.407   6.970
  416SOL    HW1 2147   5.981   3.436   0.040
  416SOL    HW2 2148   5.907   3.403   6.923
  417SOL     OW 2149   2.502   2.531   5.507
  417SOL    HW1 2150   2.546   2.467   5.444
  417SOL    HW2 2151   2.425   2.575   5.461
  418SOL     OW 2152   3.672   5.815   6.581
  418SOL    HW1 2153   3.649   5.905   6.542
  418SOL    HW2 2154   3.740   5.826   6.653
  419SOL     OW 2155   5.683   0.351   0.484
  419SOL    HW1 2156   5.675   0.375   0.581
  419SOL    HW2 2157   5.740   0.418   0.437
  420SOL     OW 2158   3.489   6.680   1.076
  420SOL    HW1 2159   3.471   6.601   1.135
  420SOL    HW2 2160   3.586   6.703   1.080
  421SOL     OW 2161   5.460   4.785   3.032
  421SOL    HW1 2162   5.536   4.726   3.058
  421SOL    HW2 2163   5.450   4.786   2.932
  422SOL     OW 2164   4.070   1.800   2.288
  422SOL    HW1 2165   4.009   1.873   2.319
  422SOL    HW2 2166   4.022   1.712   2.292
  423SOL     OW 2167   2.689   1.030   5.826
  423SOL    HW1 2168   2.766   1.068   5.775
  423SOL    HW2 2169   2.645   0.958   5.772
  424SOL     OW 2170   1.154   4.128   4.555
  424SOL    HW1 2171   1.142   4.063   4.479
  424SOL    HW2 2172   1.094   4.103   4.630
  425SOL     OW 2173   3.437   1.415   0.248
  425SOL    HW1 2174   3.450   1.337   0.187
  425SOL    HW2 2175   3.340   1.422   0.272
  426SOL     OW 2176   2.336   2.638   3.431
  426SOL    HW1 2177   2.333   2.586   3.516
  426SOL    HW2 2178   2.372   2.579   3.358
  427SOL     OW 2179   4.257   1.681   4.298
  427SOL    HW1 2180   4.224   1.728   4.216
  427SOL    HW2 2181   4.333   1.621   4.274
  428SOL     OW 2182   2.649   2.248   5.904
  428SOL    HW1 2183   2.722   2.180   5.894
  428SOL    HW2 2184   2.608   2.266   5.815
  429SOL     OW 2185   6.998   6.796   2.889
  429SOL    HW1 2186   7.008   6.703   2.923
  429SOL    HW2 2187   6.982   6.859   2.966
  430SOL     OW 2188   1.972   1.308   3.431
  430SOL    HW1 2189   1.918   1.390   3.454
  430SOL    HW2 2190   1.972   1.295   3.332
  431SOL     OW 2191   2.381   1.045   1.446
  431SOL    HW1 2192   2.365   0.947   1.462
  431SOL    HW2 2193   2.417   1.058   1.354
  432SOL     OW 2194   5.105   1.577   1.573
  432SOL    HW1 2195   5.142   1.670   1.568
  432SOL    HW2 2196   5.167   1.513   1.527
  433SOL     OW 2197   2.315   4.471   0.111
  433SOL    HW1 2198   2.347   4.404   0.044
  433SOL    HW2 2199   2.256   4.426   0.178
  434SOL     OW 2200   3.737   5.813   2.654
  434SOL    HW1 2201   3.710   5.720   2.628
  434SOL    HW2 2202   3.812   5.808   2.720
  435SOL     OW 2203   2.953   2.451   6.469
  435SOL    HW1 2204   2.900   2.520   6.420
  435SOL    HW2 2205   3.040   2.491   6.499
  436SOL     OW 2206   5.297   6.859   2.813
  436SOL    HW1 2207   5.276   6.821   2.722
  436SOL    HW2 2208   5.226   6.830   2.877
  437SOL     OW 2209   6.813   0.958   5.736
  437SOL    HW1 2210   6.901   1.006   5.735
  437SOL    HW2 2211   6.801   0.912   5.825
  438SOL     OW 2212   0.655   3.548   1.754
  438SOL    HW1 2213   0.726   3.613   1.726
  438SOL    HW2 2214   0.689   3.455   1.741
  439SOL     OW 2215   0.574   1.050   6.146
  439SOL    HW1 2216   0.599   1.058   6.050
  439SOL    HW2 2217   0.619   1.122   6.199
  440SOL     OW 2218   3.521   1.517   1.071
  440SOL    HW1 2219   3.613   1.476   1.071
  440SOL    HW2 2220   3.525   1.608   1.114
  441SOL     OW 2221   0.931   4.629   2.465
  441SOL    HW1 2222   0.840   4.591   2.480
  441SOL    HW2 2223   0.923   4.723   2.432
  442SOL     OW 2224   3.100   3.146   4.978
  442SOL    HW1 2225   3.142   3.161   4.889
  442SOL    HW2 2226   3.000   3.157   4.970
  443SOL     OW 2227   4.861   2.369   2.769
  443SOL    HW1 2228   4.800   2.293   2.790
  443SOL    HW2 2229   4.955   2.342   2.787
  444SOL     OW 2230   4.086   2.237   1.020
  444SOL    HW1 2231   4.006   2.297   1.027
  444SOL    HW2 2232   4.086   2.172   1.095
  445SOL     OW 2233   2.299   5.545   3.860
  445SOL    HW1 2234   2.380   5.558   3.803
  445SOL    HW2 2235   2.220   5.526   3.801
  446SOL     OW 2236   6.919   6.995   0.738
  446SOL    HW1 2237   6.959   0.061   0.724
  446SOL    HW2 2238   6.985   6.937   0.787
  447SOL     OW 2239   6.275   3.470   6.995
  447SOL    HW1 2240   6.279   3.556   0.020
  447SOL    HW2 2241   6.179   3.446   6.977
  448SOL     OW 2242   3.472   6.582   4.028
  448SOL    HW1 2243   3.551   6.643   4.028
  448SOL    HW2 2244   3.500   6.490   4.001
  449SOL     OW 2245   0.562   3.825   4.836
  449SOL    HW1 2246   0.576   3.730   4.863
  449SOL    HW2 2247   0.484   3.831   4.774
  450SOL     OW 2248   6.284   3.864   3.279
  450SOL    HW1 2249   6.193   3.830   3.256
  450SOL    HW2 2250   6.303   3.846   3.375
  451SOL     OW 2251   2.534   1.623   6.927
  451SOL    HW1 2252   2.514   1.703   6.984
  451SOL    HW2 2253   2.463   1.613   6.857
  452SOL     OW 2254   4.219   5.463   1.472
  452SOL    HW1 2255   4.289   5.488   1.538
  452SOL    HW2 2256   4.262   5.428   1.389
  453SOL     OW 2257   4.005   0.783   6.532
  453SOL    HW1 2258   3.929   0.791   6.596
  453SOL    HW2 2259   4.054   0.697   6.548
  454SOL     OW 2260   6.947   2.823   3.519
  454SOL    HW1 2261   6.901   2.767   3.588
  454SOL    HW2 2262   6.957   2.771   3.434
  455SOL     OW 2263   6.151   5.388   7.013
  455SOL    HW1 2264   6.068   5.393   0.044
  455SOL    HW2 2265   6.126   5.365   6.919
  456SOL     OW 2266   1.767   1.077   3.284
  456SOL    HW1 2267   1.721   1.107   3.367
  456SOL    HW2 2268   1.842   1.139   3.263
  457SOL     OW 2269   3.251   5.708   0.364
  457SOL    HW1 2270   3.255   5.613   0.333
  457SOL    HW2 2271   3.271   5.770   0.288
  458SOL     OW 2272   2.980   0.997   4.134
  458SOL    HW1 2273   2.965   1.025   4.229
  458SOL    HW2 2274   3.075   1.011   4.109
  459SOL     OW 2275   2.808   1.161   3.654
  459SOL    HW1 2276   2.721   1.142   3.701
  459SOL    HW2 2277   2.809   1.256   3.623
  460SOL     OW 2278   0.803   1.689   0.087
  460SOL    HW1 2279   0.852   1.664   0.171
  460SOL    HW2 2280   0.832   1.780   0.057
  461SOL     OW 2281   1.414   6.977   5.042
  461SOL    HW1 2282   1.426   6.955   4.946
  461SOL    HW2 2283   1.426   0.051   5.056
  462SOL     OW 2284   3.597   4.417   5.289
  462SOL    HW1 2285   3.544   4.383   5.366
  462SOL    HW2 2286   3.662   4.347   5.260
  463SOL     OW 2287   5.078   6.400   3.076
  463SOL    HW1 2288   5.111   6.460   3.148
  463SOL    HW2 2289   5.018   6.451   3.015
  464SOL     OW 2290   4.479   6.051   4.626
  464SOL    HW1 2291   4.457   6.088   4.535
  464SOL    HW2 2292   4.395   6.027   4.674
  465SOL     OW 2293   0.708   5.250   0.914
  465SOL    HW1 2294   0.636   5.302   0.867
  465SOL    HW2 2295   0.797   5.280   0.880
  466SOL     OW 2296   3.878   5.209   4.257
  466SOL    HW1 2297   3.799   5.255   4.298
  466SOL    HW2 2298   3.918   5.145   4.323
  467SOL     OW 2299   6.438   6.662   1.293
  467SOL    HW1 2300   6.445   6.564   1.314
  467SOL    HW2 2301   6.396   6.709   1.371
  468SOL     OW 2302   2.683   5.997   6.355
  468SOL    HW1 2303   2.771   5.952   6.342
  468SOL    HW2 2304   2.662   6.052   6.275
  469SOL     OW 2305   3.803   4.951   5.534
  469SOL    HW1 2306   3.717   4.914   5.501
  469SOL    HW2 2307   3.828   5.031   5.479
  470SOL     OW 2308   2.387   5.348   2.283
  470SOL    HW1 2309   2.481   5.319   2.300
  470SOL    HW2 2310   2.325   5.273   2.306
  471SOL     OW 2311   1.253   2.054   4.672
  471SOL    HW1 2312   1.343   2.061   4.630
  471SOL    HW2 2313   1.219   1.960   4.663
  472SOL     OW 2314   5.443   3.950   6.266
  472SOL    HW1 2315   5.377   4.025   6.269
  472SOL    HW2 2316   5.504   3.963   6.188
  473SOL     OW 2317   5.661   3.363   1.567
  473SOL    HW1 2318   5.653   3.447   1.513
  473SOL    HW2 2319   5.571   3.318   1.572
  474SOL     OW 2320   5.363   5.202   3.480
  474SOL    HW1 2321   5.446   5.150   3.459
  474SOL    HW2 2322   5.352   5.275   3.413
  475SOL     OW 2323   4.528   1.420   0.369
  475SOL    HW1 2324   4.611   1.448   0.320
  475SOL    HW2 2325   4.477   1.501   0.398
  476SOL     OW 2326   1.320   2.998   0.032
  476SOL    HW1 2327   1.413   3.034   0.035
  476SOL    HW2 2328   1.279   3.020   6.968
  477SOL     OW 2329   6.062   5.484   3.152
  477SOL    HW1 2330   6.003   5.404   3.164
  477SOL    HW2 2331   6.137   5.480   3.217
  478SOL     OW 2332   6.707   4.832   2.357
  478SOL    HW1 2333   6.677   4.852   2.264
  478SOL    HW2 2334   6.699   4.915   2.412
  479SOL     OW 2335   3.542   3.796   2.701
  479SOL    HW1 2336   3.624   3.852   2.712
  479SOL    HW2 2337   3.561   3.721   2.638
  480SOL     OW 2338   0.275   0.214   1.785
  480SOL    HW1 2339   0.178   0.210   1.811
  480SOL    HW2 2340   0.297   0.136   1.726
  481SOL     OW 2341   6.086   5.836   0.837
  481SOL    HW1 2342   6.004   5.780   0.822
  481SOL    HW2 2343   6.160   5.778   0.870
  482SOL     OW 2344   3.644   4.974   2.655
  482SOL    HW1 2345   3.662   4.965   2.557
  482SOL    HW2 2346   3.559   4.926   2.678
  483SOL     OW 2347   6.468   1.195   4.552
  483SOL    HW1 2348   6.379   1.192   4.506
  483SOL    HW2 2349   6.472   1.123   4.621
  484SOL     OW 2350   2.473   5.102   3.348
  484SOL    HW1 2351   2.375   5.109   3.366
  484SOL    HW2 2352   2.523   5.095   3.434
  485SOL     OW 2353   4.439   2.609   0.288
  485SOL    HW1 2354   4.458   2.575   0.196
  485SOL    HW2 2355   4.444   2.709   0.289
  486SOL     OW 2356   5.994   5.891   5.040
  486SOL    HW1 2357   6.065   5.940   4.989
  486SOL    HW2 2358   6.023   5.878   5.135
  487SOL     OW 2359   6.742   0.970   7.010
  487SOL    HW1 2360   6.680   1.043   6.981
  487SOL    HW2 2361   6.734   0.958   0.085
  488SOL     OW 2362   1.813   6.195   3.687
  488SOL    HW1 2363   1.835   6.111   3.736
  488SOL    HW2 2364   1.868   6.201   3.604
  489SOL     OW 2365   2.862   4.639   5.457
  489SOL    HW1 2366   2.860   4.739   5.462
  489SOL    HW2 2367   2.872   4.611   5.362
  490SOL     OW 2368   1.388   3.350   5.177
  490SOL    HW1 2369   1.343   3.342   5.266
  490SOL    HW2 2370   1.385   3.446   5.147
  491SOL     OW 2371   6.395   3.876   1.242
  491SOL    HW1 2372   6.308   3.899   1.198
  491SOL    HW2 2373   6.385   3.882   1.341
  492SOL     OW 2374   1.437   2.753   5.592
  492SOL    HW1 2375   1.484   2.667   5.575
  492SOL    HW2 2376   1.496   2.813   5.647
  493SOL     OW 2377   1.318   5.671   3.569
  493SOL    HW1 2378   1.274   5.631   3.649
  493SOL    HW2 2379   1.267   5.752   3.540
  494SOL     OW 2380   2.928   0.377   2.930
  494SOL    HW1 2381   2.840   0.402   2.888
  494SOL    HW2 2382   2.996   0.447   2.910
  495SOL     OW 2383   3.883   4.759   0.254
  495SOL    HW1 2384   3.968   4.779   0.303
  495SOL    HW2 2385   3.849   4.844   0.212
  496SOL     OW 2386   4.825   0.487   3.270
  496SOL    HW1 2387   4.744   0.529   3.310
  496SOL    HW2 2388   4.839   0.523   3.177
  497SOL     OW 2389   4.911   2.930   0.940
  497SOL    HW1 2390   4.812   2.920   0.937
  497SOL    HW2 2391   4.954   2.847   0.905
  498SOL     OW 2392   0.981   0.205   0.971
  498SOL    HW1 2393   0.945   0.289   1.011
  498SOL    HW2 2394   1.044   0.161   1.035
  499SOL     OW 2395   2.813   6.426   6.811
  499SOL    HW1 2396   2.751   6.456   6.739
  499SOL    HW2 2397   2.870   6.503   6.840
  500SOL     OW 2398   6.153   2.303   6.709
  500SOL    HW1 2399   6.129   2.226   6.651
  500SOL    HW2 2400   6.076   2.366   6.714
  501SOL     OW 2401   1.627   2.152   4.774
  501SOL    HW1 2402   1.584   2.155   4.684
  501SOL    HW2 2403   1.558   2.136   4.844
  502SOL     OW 2404   2.221   2.883   6.708
  502SOL    HW1 2405   2.135   2.849   6.669
  502SOL    HW2 2406   2.258   2.955   6.649
  503SOL     OW 2407   4.181   5.212   0.917
  503SOL    HW1 2408   4.213   5.118   0.928
  503SOL    HW2 2409   4.098   5.226   0.970
  504SOL     OW 2410   6.443   0.485   0.298
  504SOL    HW1 2411   6.513   0.499   0.368
  504SOL    HW2 2412   6.389   0.404   0.320
  505SOL     OW 2413   6.781   3.740   5.479
  505SOL    HW1 2414   6.867   3.762   5.527
  505SOL    HW2 2415   6.704   3.753   5.542
  506SOL     OW 2416   2.648   6.092   2.471
  506SOL    HW1 2417   2.555   6.115   2.501
  506SOL    HW2 2418   2.671   6.000   2.502
  507SOL     OW 2419   2.810   6.429   3.503
  507SOL    HW1 2420   2.838   6.524   3.490
  507SOL    HW2 2421   2.715   6.418   3.476
  508SOL     OW 2422   0.442   5.103   2.964
  508SOL    HW1 2423   0.429   5.137   3.057
  508SOL    HW2 2424   0.430   5.178   2.899
  509SOL     OW 2425   4.908   0.462   6.231
  509SOL    HW1 2426   4.934   0.450   6.327
  509SOL    HW2 2427   4.808   0.458   6.223
  510SOL     OW 2428   6.855   4.386   0.706
  510SOL    HW1 2429   6.910   4.410   0.626
  510SOL    HW2 2430   6.879   4.294   0.736
  511SOL     OW 2431   0.269   1.726   0.632
  511SOL    HW1 2432   0.304   1.639   0.598
  511SOL    HW2 2433   0.282   1.797   0.563
  512SOL     OW 2434   1.230   2.330   4.707
  512SOL    HW1 2435   1.135   2.360   4.698
  512SOL    HW2 2436   1.234   2.230   4.704
  513SOL     OW 2437   5.908   5.572   2.718
  513SOL    HW1 2438   5.990   5.528   2.682
  513SOL    HW2 2439   5.920   5.590   2.816
  514SOL     OW 2440   5.105   1.309   4.500
  514SOL    HW1 2441   5.170   1.385   4.511
  514SOL    HW2 2442   5.125   1.260   4.415
  515SOL     OW 2443   2.986   0.551   6.836
  515SOL    HW1 2444   3.027   0.531   6.925
  515SOL    HW2 2445   2.962   0.465   6.790
  516SOL     OW 2446   0.775   5.483   2.421
  516SOL    HW1 2447   0.720   5.417   2.473
  516SOL    HW2 2448   0.765   5.574   2.462
  517SOL     OW 2449   3.610   5.045   0.875
  517SOL    HW1 2450   3.652   4.970   0.926
  517SOL    HW2 2451   3.671   5.072   0.801
  518SOL     OW 2452   2.210   6.865   4.109
  518SOL    HW1 2453   2.290   6.885   4.053
  518SOL    HW2 2454   2.156   6.948   4.121
  519SOL     OW 2455   6.706   6.897   2.767
  519SOL    HW1 2456   6.775   6.906   2.695
  519SOL    HW2 2457   6.683   6.801   2.780
  520SOL     OW 2458   3.815   5.416   0.865
  520SOL    HW1 2459   3.725   5.457   0.876
  520SOL    HW2 2460   3.806   5.326   0.821
  521SOL     OW 2461   6.918   6.690   5.350
  521SOL    HW1 2462   6.868   6.727   5.429
  521SOL    HW2 2463   6.906   6.591   5.347
  522SOL     OW 2464   3.911   4.714   6.334
  522SOL    HW1 2465   3.913   4.623   6.376
  522SOL    HW2 2466   3.903   4.783   6.405
  523SOL     OW 2467   1.781   0.272   5.916
  523SOL    HW1 2468   1.695   0.299   5.873
  523SOL    HW2 2469   1.816   0.348   5.971
  524SOL     OW 2470   6.438   1.411   1.036
  524SOL    HW1 2471   6.536   1.395   1.019
  524SOL    HW2 2472   6.409   1.356   1.115
  525SOL     OW 2473   1.110   3.378   3.520
  525SOL    HW1 2474   1.021   3.331   3.523
  525SOL    HW2 2475   1.159   3.360   3.605
  526SOL     OW 2476   4.120   6.182   4.222
  526SOL    HW1 2477   4.164   6.197   4.310
  526SOL    HW2 2478   4.099   6.084   4.211
  527SOL     OW 2479   6.887   1.200   0.747
  527SOL    HW1 2480   6.812   1.263   0.729
  527SOL    HW2 2481   6.852   1.120   0.796
  528SOL     OW 2482   6.989   1.687   4.164
  528SOL    HW1 2483   6.899   1.722   4.141
  528SOL    HW2 2484   7.014   1.615   4.099
  529SOL     OW 2485   1.018   1.491   6.278
  529SOL    HW1 2486   1.096   1.501   6.216
  529SOL    HW2 2487   0.980   1.399   6.269
  530SOL     OW 2488   3.367   4.563   1.646
  530SOL    HW1 2489   3.432   4.584   1.720
  530SOL    HW2 2490   3.301   4.495   1.677
  531SOL     OW 2491   0.090   1.784   6.013
  531SOL    HW1 2492   0.111   1.810   6.107
  531SOL    HW2 2493   7.018   1.801   5.995
  532SOL     OW 2494   3.601   1.108   6.749
  532SOL    HW1 2495   3.567   1.015   6.761
  532SOL    HW2 2496   3.693   1.115   6.786
  533SOL     OW 2497   4.168   0.193   4.936
  533SOL    HW1 2498   4.161   0.197   5.036
  533SOL    HW2 2499   4.158   0.099   4.906
  534SOL     OW 2500   2.060   4.091   1.452
  534SOL    HW1 2501   2.005   4.056   1.528
  534SOL    HW2 2502   2.150   4.119   1.486
  535SOL     OW 2503   4.635   4.542   3.745
  535SOL    HW1 2504   4.618   4.480   3.822
  535SOL    HW2 2505   4.691   4.619   3.776
  536SOL     OW 2506   6.497   6.384   1.105
  536SOL    HW1 2507   6.445   6.456   1.059
  536SOL    HW2 2508   6.594   6.398   1.089
  537SOL     OW 2509   3.032   1.667   2.826
  537SOL    HW1 2510   3.039   1.691   2.729
  537SOL    HW2 2511   2.949   1.612   2.840
  538SOL     OW 2512   4.191   5.279   5.570
  538SOL    HW1 2513   4.134   5.347   5.524
  538SOL    HW2 2514   4.229   5.318   5.654
  539SOL     OW 2515   2.156   0.241   0.299
  539SOL    HW1 2516   2.207   0.210   0.220
  539SOL    HW2 2517   2.060   0.213   0.290
  540SOL     OW 2518   2.540   1.662   5.487
  540SOL    HW1 2519   2.626   1.629   5.448
  540SOL    HW2 2520   2.555   1.751   5.530
  541SOL     OW 2521   5.144   5.908   2.330
  541SOL    HW1 2522   5.093   5.822   2.327
  541SOL    HW2 2523   5.132   5.951   2.419
  542SOL     OW 2524   4.097   5.851   5.763
  542SOL    HW1 2525   4.035   5.930   5.764
  542SOL    HW2 2526   4.095   5.808   5.673
  543SOL     OW 2527   6.476   1.902   5.011
  543SOL    HW1 2528   6.472   1.878   4.914
  543SOL    HW2 2529   6.388   1.882   5.054
  544SOL     OW 2530   0.840   2.561   1.095
  544SOL    HW1 2531   0.846   2.487   1.163
  544SOL    HW2 2532   0.820   2.522   1.005
  545SOL     OW 2533   6.993   5.292   0.633
  545SOL    HW1 2534   0.064   5.268   0.613
  545SOL    HW2 2535   6.934   5.215   0.606
  546SOL     OW 2536   7.013   5.549   2.822
  546SOL    HW1 2537   0.022   5.613   2.753
  546SOL    HW2 2538   6.916   5.566   2.840
  547SOL     OW 2539   4.082   6.581   6.743
  547SOL    HW1 2540   4.008   6.559   6.679
  547SOL    HW2 2541   4.106   6.499   6.795
  548SOL     OW 2542   3.916   2.818   0.219
  548SOL    HW1 2543   3.827   2.846   0.183
  548SOL    HW2 2544   3.931   2.721   0.199
  549SOL     OW 2545   5.507   2.721   3.852
  549SOL    HW1 2546   5.448   2.720   3.933
  549SOL    HW2 2547   5.462   2.671   3.778
  550SOL     OW 2548   0.138   5.546   3.934
  550SOL    HW1 2549   0.219   5.500   3.970
  550SOL    HW2 2550   0.164   5.601   3.855
  551SOL     OW 2551   5.315   0.761   0.648
  551SOL    HW1 2552   5.359   0.816   0.718
  551SOL    HW2 2553   5.325   0.664   0.669
  552SOL     OW 2554   0.218   0.395   5.009
  552SOL    HW1 2555   0.215   0.373   4.912
  552SOL    HW2 2556   0.222   0.494   5.021
  553SOL     OW 2557   3.856   2.410   5.296
  553SOL    HW1 2558   3.915   2.368   5.226
  553SOL    HW2 2559   3.793   2.341   5.332
  554SOL     OW 2560   0.160   5.104   0.547
  554SOL    HW1 2561   0.088   5.050   0.502
  554SOL    HW2 2562   0.203   5.164   0.480
  555SOL     OW 2563   3.332   4.215   5.903
  555SOL    HW1 2564   3.278   4.217   5.818
  555SOL    HW2 2565   3.333   4.306   5.944
  556SOL     OW 2566   5.796   6.327   2.914
  556SOL    HW1 2567   5.750   6.280   2.839
  556SOL    HW2 2568   5.760   6.419   2.924
  557SOL     OW 2569   6.224   3.713   0.132
  557SOL    HW1 2570   6.127   3.730   0.146
  557SOL    HW2 2571   6.270   3.796   0.101
  558SOL     OW 2572   3.283   3.642   1.954
  558SOL    HW1 2573   3.297   3.568   1.888
  558SOL    HW2 2574   3.371   3.669   1.992
  559SOL     OW 2575   5.945   1.228   6.635
  559SOL    HW1 2576   6.045   1.217   6.635
  559SOL    HW2 2577   5.907   1.174   6.710
  560SOL     OW 2578   1.316   2.160   3.510
  560SOL    HW1 2579   1.395   2.220   3.519
  560SOL    HW2 2580   1.340   2.067   3.539
  561SOL     OW 2581   0.124   4.044   0.154
  561SOL    HW1 2582   0.215   4.026   0.192
  561SOL    HW2 2583   0.112   3.992   0.070
  562SOL     OW 2584   3.551   5.862   3.311
  562SOL    HW1 2585   3.542   5.763   3.321
  562SOL    HW2 2586   3.640   5.883   3.270
  563SOL     OW 2587   0.781   0.970   4.487
  563SOL    HW1 2588   0.723   1.033   4.435
  563SOL    HW2 2589   0.873   1.007   4.494
  564SOL     OW 2590   5.839   1.401   5.111
  564SOL    HW1 2591   5.774   1.382   5.037
  564SOL    HW2 2592   5.802   1.368   5.198
  565SOL     OW 2593   3.182   3.556   4.054
  565SOL    HW1 2594   3.127   3.552   3.971
  565SOL    HW2 2595   3.219   3.465   4.074
  566SOL     OW 2596   1.617   2.777   3.470
  566SOL    HW1 2597   1.526   2.818   3.458
  566SOL    HW2 2598   1.678   2.844   3.513
  567SOL     OW 2599   1.732   3.201   5.444
  567SOL    HW1 2600   1.672   3.279   5.462
  567SOL    HW2 2601   1.797   3.224   5.372
  568SOL     OW 2602   0.940   0.439   6.921
  568SOL    HW1 2603   1.016   0.380   6.895
  568SOL    HW2 2604   0.958   0.478   7.011
  569SOL     OW 2605   5.343   3.614   5.299
  569SOL    HW1 2606   5.391   3.702   5.294
  569SOL    HW2 2607   5.249   3.625   5.268
  570SOL     OW 2608   3.057   0.217   6.210
  570SOL    HW1 2609   2.973   0.166   6.230
  570SOL    HW2 2610   3.066   0.230   6.111
  571SOL     OW 2611   2.449   4.290   1.919
  571SOL    HW1 2612   2.438   4.367   1.858
  571SOL    HW2 2613   2.411   4.312   2.009
  572SOL     OW 2614   2.933   1.536   4.908
  572SOL    HW1 2615   2.971   1.611   4.855
  572SOL    HW2 2616   2.898   1.465   4.846
  573SOL     OW 2617   0.644   0.168   5.635
  573SOL    HW1 2618   0.696   0.221   5.569
  573SOL    HW2 2619   0.602   0.089   5.589
  574SOL     OW 2620   2.864   0.729   5.831
  574SOL    HW1 2621   2.802   0.759   5.759
  574SOL    HW2 2622   2.812   0.712   5.915
  575SOL     OW 2623   3.910   3.728   0.504
  575SOL    HW1 2624   3.891   3.644   0.554
  575SOL    HW2 2625   3.939   3.705   0.411
  576SOL     OW 2626   0.097   0.784   2.893
  576SOL    HW1 2627   0.073   0.866   2.840
  576SOL    HW2 2628   0.194   0.787   2.917
  577SOL     OW 2629   0.150   6.750   2.318
  577SOL    HW1 2630   0.235   6.786   2.356
  577SOL    HW2 2631   0.076   6.761   2.385
  578SOL     OW 2632   4.087   6.956   0.644
  578SOL    HW1 2633   4.013   6.997   0.589
  578SOL    HW2 2634   4.051   6.879   0.695
  579SOL     OW 2635   0.974   3.733   1.838
  579SOL    HW1 2636   0.968   3.656   1.902
  579SOL    HW2 2637   1.053   3.719   1.778
  580SOL     OW 2638   4.873   4.621   5.004
  580SOL    HW1 2639   4.954   4.667   5.041
  580SOL    HW2 2640   4.903   4.546   4.944
  581SOL     OW 2641   1.974   2.330   3.955
  581SOL    HW1 2642   2.064   2.287   3.961
  581SOL    HW2 2643   1.930   2.326   4.045
  582SOL     OW 2644   5.659   3.960   4.584
  582SOL    HW1 2645   5.731   3.937   4.519
  582SOL    HW2 2646   5.634   3.878   4.637
  583SOL     OW 2647   3.513   5.853   5.474
  583SOL    HW1 2648   3.582   5.829   5.407
  583SOL    HW2 2649   3.534   5.942   5.515
  584SOL     OW 2650   4.103   0.991   5.018
  584SOL    HW1 2651   4.081   1.085   5.043
  584SOL    HW2 2652   4.108   0.934   5.100
  585SOL     OW 2653   3.704   6.369   1.563
  585SOL    HW1 2654   3.619   6.326   1.592
  585SOL    HW2 2655   3.714   6.458   1.609
  586SOL     OW 2656   3.824   0.369   1.331
  586SOL    HW1 2657   3.727   0.364   1.356
  586SOL    HW2 2658   3.852   0.284   1.286
  587SOL     OW 2659   4.610   1.258   2.670
  587SOL    HW1 2660   4.664   1.199   2.730
  587SOL    HW2 2661   4.671   1.323   2.624
  588SOL     OW 2662   2.274   4.218   2.900
  588SOL    HW1 2663   2.350   4.282   2.910
  588SOL    HW2 2664   2.275   4.179   2.808
  589SOL     OW 2665   3.625   4.712   6.638
  589SOL    HW1 2666   3.693   4.760   6.582
  589SOL    HW2 2667   3.534   4.748   6.620
  590SOL     OW 2668   2.493   1.909   6.110
  590SOL    HW1 2669   2.526   1.864   6.194
  590SOL    HW2 2670   2.537   1.867   6.031
  591SOL     OW 2671   3.022   0.244   4.143
  591SOL    HW1 2672   3.115   0.215   4.121
  591SOL    HW2 2673   2.962   0.164   4.145
  592SOL     OW 2674   4.822   2.521   4.212
  592SOL    HW1 2675   4.757   2.593   4.187
  592SOL    HW2 2676   4.797   2.436   4.165
  593SOL     OW 2677   1.567   0.041   0.214
  593SOL    HW1 2678   1.518   0.121   0.181
  593SOL    HW2 2679   1.562   0.037   0.314
  594SOL     OW 2680   3.650   0.907   5.052
  594SOL    HW1 2681   3.642   0.872   5.145
  594SOL    HW2 2682   3.579   0.975   5.035
  595SOL     OW 2683   6.510   3.960   2.167
  595SOL    HW1 2684   6.443   4.031   2.147
  595SOL    HW2 2685   6.569   3.990   2.242
  596SOL     OW 2686   5.929   4.918   4.330
  596SOL    HW1 2687   5.968   4.914   4.422
  596SOL    HW2 2688   5.996   4.884   4.264
  597SOL     OW 2689   3.924   1.430   6.023
  597SOL    HW1 2690   3.844   1.459   5.971
  597SOL    HW2 2691   3.909   1.450   6.120
  598SOL     OW 2692   2.909   3.302   2.782
  598SOL    HW1 2693   2.840   3.243   2.824
  598SOL    HW2 2694   2.996   3.253   2.774
  599SOL     OW 2695   2.006   4.660   1.259
  599SOL    HW1 2696   2.100   4.680   1.283
  599SOL    HW2 2697   1.968   4.735   1.206
  600SOL     OW 2698   0.339   3.315   6.002
  600SOL    HW1 2699   0.335   3.222   6.038
  600SOL    HW2 2700   0.433   3.337   5.975
  601SOL     OW 2701   0.166   0.388   5.756
  601SOL    HW1 2702   0.177   0.301   5.709
  601SOL    HW2 2703   0.256   0.424   5.781
  602SOL     OW 2704   0.849   0.622   3.652
  602SOL    HW1 2705   0.890   0.679   3.581
  602SOL    HW2 2706   0.887   0.530   3.647
  603SOL     OW 2707   1.326   1.721   4.291
  603SOL    HW1 2708   1.398   1.787   4.271
  603SOL    HW2 2709   1.298   1.675   4.207
  604SOL     OW 2710   5.291   2.402   1.160
  604SOL    HW1 2711   5.299   2.357   1.248
  604SOL    HW2 2712   5.207   2.373   1.114
  605SOL     OW 2713   5.731   6.534   1.892
  605SOL    HW1 2714   5.795   6.474   1.941
  605SOL    HW2 2715   5.707   6.492   1.804
  606SOL     OW 2716   2.911   6.449   4.936
  606SOL    HW1 2717   2.917   6.351   4.921
  606SOL    HW2 2718   2.850   6.468   5.012
  607SOL     OW 2719   1.387   3.318   6.229
  607SOL    HW1 2720   1.389   3.411   6.192
  607SOL    HW2 2721   1.475   3.296   6.270
  608SOL     OW 2722   3.151   1.508   0.308
  608SOL    HW1 2723   3.167   1.478   0.214
  608SOL    HW2 2724   3.105   1.597   0.307
  609SOL     OW 2725   3.802   2.935   2.526
  609SOL    HW1 2726   3.886   2.886   2.501
  609SOL    HW2 2727   3.823   3.006   2.593
  610SOL     OW 2728   4.976   2.852   1.906
  610SOL    HW1 2729   4.884   2.889   1.896
  610SOL    HW2 2730   4.983   2.803   1.993
  611SOL     OW 2731   3.574   1.781   2.170
  611SOL    HW1 2732   3.477   1.782   2.142
  611SOL    HW2 2733   3.630   1.819   2.096
  612SOL     OW 2734   4.444   5.037   4.473
  612SOL    HW1 2735   4.542   5.054   4.469
  612SOL    HW2 2736   4.416   5.023   4.568
  613SOL     OW 2737   3.906   5.337   6.288
  613SOL    HW1 2738   3.934   5.418   6.237
  613SOL    HW2 2739   3.857   5.365   6.371
  614SOL     OW 2740   3.505   5.901   6.253
  614SOL    HW1 2741   3.425   5.879   6.309
  614SOL    HW2 2742   3.480   5.900   6.156
  615SOL     OW 2743   6.806   5.261   3.967
  615SOL    HW1 2744   6.768   5.353   3.959
  615SOL    HW2 2745   6.792   5.227   4.059
  616SOL     OW 2746   5.969   2.547   3.828
  616SOL    HW1 2747   5.925   2.517   3.744
  616SOL    HW2 2748   5.982   2.468   3.888
  617SOL     OW 2749   2.394   0.437   6.161
  617SOL    HW1 2750   2.479   0.465   6.206
  617SOL    HW2 2751   2.331   0.400   6.229
  618SOL     OW 2752   2.199   0.559   3.221
  618SOL    HW1 2753   2.125   0.546   3.287
  618SOL    HW2 2754   2.207   0.477   3.163
  619SOL     OW 2755   1.148   2.482   6.855
  619SOL    HW1 2756   1.137   2.386   6.828
  619SOL    HW2 2757   1.068   2.511   6.908
  620SOL     OW 2758   4.488   3.778   0.605
  620SOL    HW1 2759   4.430   3.741   0.532
  620SOL    HW2 2760   4.437   3.845   0.658
  621SOL     OW 2761   0.204   5.929   1.151
  621SOL    HW1 2762   0.232   6.023   1.173
  621SOL    HW2 2763   0.175   5.883   1.235
  622SOL     OW 2764   0.806   1.359   0.014
  622SOL    HW1 2765   0.771   1.451   0.033
  622SOL    HW2 2766   0.865   1.362   6.958
  623SOL     OW 2767   6.673   5.838   5.171
  623SOL    HW1 2768   6.697   5.927   5.212
  623SOL    HW2 2769   6.685   5.843   5.072
  624SOL     OW 2770   0.638   1.515   1.604
  624SOL    HW1 2771   0.570   1.475   1.541
  624SOL    HW2 2772   0.606   1.504   1.698
  625SOL     OW 2773   1.468   1.279   2.337
  625SOL    HW1 2774   1.407   1.353   2.364
  625SOL    HW2 2775   1.553   1.317   2.301
  626SOL     OW 2776   3.269   5.585   4.757
  626SOL    HW1 2777   3.236   5.628   4.842
  626SOL    HW2 2778   3.269   5.486   4.767
  627SOL     OW 2779   4.330   6.161   6.867
  627SOL    HW1 2780   4.417   6.149   6.819
  627SOL    HW2 2781   4.261   6.193   6.803
  628SOL     OW 2782   5.046   3.842   3.269
  628SOL    HW1 2783   4.995   3.907   3.212
  628SOL    HW2 2784   5.067   3.761   3.215
  629SOL     OW 2785   1.973   0.173   0.991
  629SOL    HW1 2786   1.964   0.151   0.894
  629SOL    HW2 2787   2.029   0.104   1.036
  630SOL     OW 2788   2.703   1.011   2.292
  630SOL    HW1 2789   2.622   1.020   2.351
  630SOL    HW2 2790   2.744   0.921   2.305
  631SOL     OW 2791   2.360   1.560   4.093
  631SOL    HW1 2792   2.344   1.659   4.090
  631SOL    HW2 2793   2.286   1.516   4.143
  632SOL     OW 2794   2.906   0.407   0.645
  632SOL    HW1 2795   2.941   0.315   0.662
  632SOL    HW2 2796   2.947   0.470   0.711
  633SOL     OW 2797   2.176   0.360   4.943
  633SOL    HW1 2798   2.215   0.382   5.032
  633SOL    HW2 2799   2.117   0.279   4.951
  634SOL     OW 2800   2.966   5.556   2.026
  634SOL    HW1 2801   2.876   5.514   2.035
  634SOL    HW2 2802   3.034   5.487   2.001
  635SOL     OW 2803   3.213   0.185   2.122
  635SOL    HW1 2804   3.194   0.090   2.097
  635SOL    HW2 2805   3.147   0.245   2.077
  636SOL     OW 2806   4.760   4.924   6.422
  636SOL    HW1 2807   4.843   4.978   6.415
  636SOL    HW2 2808   4.737   4.910   6.519
  637SOL     OW 2809   5.867   5.035   6.496
  637SOL    HW1 2810   5.819   4.988   6.570
  637SOL    HW2 2811   5.820   5.020   6.410
  638SOL     OW 2812   5.574   1.826   3.405
  638SOL    HW1 2813   5.668   1.830   3.372
  638SOL    HW2 2814   5.530   1.743   3.371
  639SOL     OW 2815   4.059   3.838   1.957
  639SOL    HW1 2816   3.972   3.844   1.907
  639SOL    HW2 2817   4.043   3.794   2.046
  640SOL     OW 2818   2.979   2.583   5.337
  640SOL    HW1 2819   2.978   2.501   5.280
  640SOL    HW2 2820   2.888   2.626   5.335
  641SOL     OW 2821   7.018   6.581   4.624
  641SOL    HW1 2822   0.021   6.674   4.601
  641SOL    HW2 2823   0.072   6.532   4.662
  642SOL     OW 2824   0.605   4.416   6.207
  642SOL    HW1 2825   0.657   4.333   6.186
  642SOL    HW2 2826   0.623   4.445   6.301
  643SOL     OW 2827   5.693   6.288   4.795
  643SOL    HW1 2828   5.618   6.236   4.836
  643SOL    HW2 2829   5.657   6.369   4.749
  644SOL     OW 2830   3.067   6.197   1.502
  644SOL    HW1 2831   3.022   6.283   1.525
  644SOL    HW2 2832   3.020   6.155   1.424
  645SOL     OW 2833   0.803   3.102   2.930
  645SOL    HW1 2834   0.852   3.162   2.867
  645SOL    HW2 2835   0.803   3.009   2.896
  646SOL     OW 2836   1.582   3.140   4.398
  646SOL    HW1 2837   1.660   3.127   4.460
  646SOL    HW2 2838   1.614   3.136   4.303
  647SOL     OW 2839   5.597   4.139   0.301
  647SOL    HW1 2840   5.654   4.100   0.373
  647SOL    HW2 2841   5.604   4.239   0.304
  648SOL     OW 2842   4.315   2.253   4.053
  648SOL    HW1 2843   4.365   2.173   4.020
  648SOL    HW2 2844   4.224   2.255   4.012
  649SOL     OW 2845   4.228   4.525   1.456
  649SOL    HW1 2846   4.180   4.493   1.374
  649SOL    HW2 2847   4.271   4.613   1.438
  650SOL     OW 2848   5.502   4.945   0.577
  650SOL    HW1 2849   5.462   4.967   0.666
  650SOL    HW2 2850   5.576   4.879   0.588
  651SOL     OW 2851   1.715   5.873   6.461
  651SOL    HW1 2852   1.746   5.822   6.541
  651SOL    HW2 2853   1.729   5.818   6.379
  652SOL     OW 2854   5.202   2.485   1.784
  652SOL    HW1 2855   5.268   2.470   1.710
  652SOL    HW2 2856   5.109   2.478   1.747
  653SOL     OW 2857   3.452   5.321   2.431
  653SOL    HW1 2858   3.428   5.224   2.430
  653SOL    HW2 2859   3.400   5.369   2.361
  654SOL     OW 2860   0.229   5.173   6.760
  654SOL    HW1 2861   0.156   5.146   6.696
  654SOL    HW2 2862   0.194   5.243   6.821
  655SOL     OW 2863   1.599   1.642   0.042
  655SOL    HW1 2864   1.630   1.721   7.014
  655SOL    HW2 2865   1.677   1.583   0.063
  656SOL     OW 2866   1.621   6.484   1.273
  656SOL    HW1 2867   1.630   6.552   1.346
  656SOL    HW2 2868   1.636   6.527   1.184
  657SOL     OW 2869   3.744   0.539   0.153
  657SOL    HW1 2870   3.829   0.583   0.121
  657SOL    HW2 2871   3.694   0.504   0.074
  658SOL     OW 2872   3.878   5.792   0.123
  658SOL    HW1 2873   3.846   5.883   0.097
  658SOL    HW2 2874   3.816   5.753   0.191
  659SOL     OW 2875   3.740   0.318   6.272
  659SOL    HW1 2876   3.676   0.308   6.348
  659SOL    HW2 2877   3.798   0.398   6.289
  660SOL     OW 2878   3.060   6.346   3.386
  660SOL    HW1 2879   3.142   6.354   3.442
  660SOL    HW2 2880   2.979   6.367   3.442
  661SOL     OW 2881   6.299   5.158   2.641
  661SOL    HW1 2882   6.224   5.205   2.687
  661SOL    HW2 2883   6.384   5.209   2.655
  662SOL     OW 2884   4.480   2.138   6.591
  662SOL    HW1 2885   4.451   2.172   6.680
  662SOL    HW2 2886   4.431   2.185   6.519
  663SOL     OW 2887   1.302   4.554   4.357
  663SOL    HW1 2888   1.209   4.521   4.347
  663SOL    HW2 2889   1.353   4.492   4.417
  664SOL     OW 2890   6.001   0.078   6.626
  664SOL    HW1 2891   6.028   0.033   6.541
  664SOL    HW2 2892   5.902   0.071   6.637
  665SOL     OW 2893   1.280   3.984   1.791
  665SOL    HW1 2894   1.379   3.984   1.780
  665SOL    HW2 2895   1.253   3.910   1.854
  666SOL     OW 2896   4.271   0.540   2.451
  666SOL    HW1 2897   4.241   0.635   2.450
  666SOL    HW2 2898   4.192   0.480   2.460
  667SOL     OW 2899   0.423   0.583   1.519
  667SOL    HW1 2900   0.485   0.587   1.441
  667SOL    HW2 2901   0.475   0.594   1.603
  668SOL     OW 2902   5.535   2.970   7.012
  668SOL    HW1 2903   5.478   3.051   7.021
  668SOL    HW2 2904   5.536   2.940   6.917
  669SOL     OW 2905   5.223   1.500   3.072
  669SOL    HW1 2906   5.194   1.582   3.023
  669SOL    HW2 2907   5.320   1.507   3.094
  670SOL     OW 2908   4.250   2.174   2.347
  670SOL    HW1 2909   4.259   2.236   2.425
  670SOL    HW2 2910   4.299   2.089   2.366
  671SOL     OW 2911   1.042   5.826   1.506
  671SOL    HW1 2912   1.068   5.739   1.548
  671SOL    HW2 2913   0.946   5.821   1.476
  672SOL     OW 2914   0.675   0.266   1.241
  672SOL    HW1 2915   0.619   0.194   1.283
  672SOL    HW2 2916   0.706   0.236   1.152
  673SOL     OW 2917   6.247   0.018   6.697
  673SOL    HW1 2918   6.152   0.041   6.675
  673SOL    HW2 2919   6.303   0.101   6.696
  674SOL     OW 2920   5.237   0.129   4.161
  674SOL    HW1 2921   5.264   0.210   4.213
  674SOL    HW2 2922   5.249   0.048   4.218
  675SOL     OW 2923   1.157   5.008   1.921
  675SOL    HW1 2924   1.088   4.976   1.856
  675SOL    HW2 2925   1.119   5.082   1.977
  676SOL     OW 2926   2.594   5.874   6.751
  676SOL    HW1 2927   2.504   5.856   6.790
  676SOL    HW2 2928   2.662   5.876   6.824
  677SOL     OW 2929   5.465   0.794   1.582
  677SOL    HW1 2930   5.396   0.781   1.511
  677SOL    HW2 2931   5.555   0.799   1.540
  678SOL     OW 2932   0.745   5.225   4.158
  678SOL    HW1 2933   0.710   5.179   4.239
  678SOL    HW2 2934   0.812   5.294   4.185
  679SOL     OW 2935   4.819   1.389   5.862
  679SOL    HW1 2936   4.727   1.421   5.887
  679SOL    HW2 2937   4.878   1.468   5.847
  680SOL     OW 2938   5.939   6.462   4.066
  680SOL    HW1 2939   6.004   6.387   4.052
  680SOL    HW2 2940   5.960   6.536   4.001
  681SOL     OW 2941   3.856   4.792   2.481
  681SOL    HW1 2942   3.857   4.711   2.540
  681SOL    HW2 2943   3.888   4.872   2.533
  682SOL     OW 2944   6.636   1.080   2.882
  682SOL    HW1 2945   6.586   1.087   2.968
  682SOL    HW2 2946   6.572   1.080   2.805
  683SOL     OW 2947   3.201   4.730   0.255
  683SOL    HW1 2948   3.294   4.694   0.266
  683SOL    HW2 2949   3.205   4.822   0.216
  684SOL     OW 2950   6.286   1.675   6.542
  684SOL    HW1 2951   6.345   1.695   6.621
  684SOL    HW2 2952   6.208   1.621   6.573
  685SOL     OW 2953   3.126   6.684   3.704
  685SOL    HW1 2954   3.164   6.723   3.620
  685SOL    HW2 2955   3.191   6.693   3.779
  686SOL     OW 2956   3.509   0.320   5.351
  686SOL    HW1 2957   3.593   0.269   5.333
  686SOL    HW2 2958   3.503   0.398   5.289
  687SOL     OW 2959   0.020   0.917   4.537
  687SOL    HW1 2960   6.998   0.914   4.625
  687SOL    HW2 2961   0.035   1.012   4.510
  688SOL     OW 2962   4.984   3.156   0.290
  688SOL    HW1 2963   5.064   3.099   0.269
  688SOL    HW2 2964   4.998   3.202   0.377
  689SOL     OW 2965   2.602   5.528   0.230
  689SOL    HW1 2966   2.572   5.612   0.274
  689SOL    HW2 2967   2.702   5.521   0.236
  690SOL     OW 2968   5.706   3.351   4.443
  690SOL    HW1 2969   5.698   3.328   4.346
  690SOL    HW2 2970   5.692   3.449   4.456
  691SOL     OW 2971   5.728   0.900   2.577
  691SOL    HW1 2972   5.658   0.968   2.599
  691SOL    HW2 2973   5.762   0.916   2.485
  692SOL     OW 2974   1.233   0.068   3.552
  692SOL    HW1 2975   1.307   0.135   3.541
  692SOL    HW2 2976   1.272   7.002   3.569
  693SOL     OW 2977   6.070   3.995   2.429
  693SOL    HW1 2978   5.997   4.055   2.396
  693SOL    HW2 2979   6.143   4.051   2.469
  694SOL     OW 2980   4.174   4.810   4.516
  694SOL    HW1 2981   4.192   4.725   4.466
  694SOL    HW2 2982   4.259   4.862   4.525
  695SOL     OW 2983   4.492   0.033   3.847
  695SOL    HW1 2984   4.406   7.008   3.864
  695SOL    HW2 2985   4.535   7.021   3.764
  696SOL     OW 2986   5.922   4.337   1.780
  696SOL    HW1 2987   5.972   4.405   1.833
  696SOL    HW2 2988   5.824   4.354   1.787
  697SOL     OW 2989   0.781   6.326   2.772
  697SOL    HW1 2990   0.730   6.352   2.854
  697SOL    HW2 2991   0.774   6.399   2.704
  698SOL     OW 2992   5.779   6.427   6.055
  698SOL    HW1 2993   5.725   6.499   6.012
  698SOL    HW2 2994   5.782   6.442   6.154
  699SOL     OW 2995   3.996   3.362   0.877
  699SOL    HW1 2996   3.989   3.340   0.974
  699SOL    HW2 2997   4.091   3.382   0.854
  700SOL     OW 2998   3.550   6.709   5.433
  700SOL    HW1 2999   3.580   6.663   5.350
  700SOL    HW2 3000   3.571   6.807   5.426
  701SOL     OW 3001   4.637   4.539   2.057
  701SOL    HW1 3002   4.734   4.556   2.076
  701SOL    HW2 3003   4.623   4.441   2.041
  702SOL     OW 3004   3.946   0.532   4.759
  702SOL    HW1 3005   3.947   0.433   4.745
  702SOL    HW2 3006   3.907   0.552   4.849
  703SOL     OW 3007   3.828   3.030   0.626
  703SOL    HW1 3008   3.899   2.996   0.687
  703SOL    HW2 3009   3.741   3.039   0.676
  704SOL     OW 3010   3.950   1.393   7.006
  704SOL    HW1 3011   3.982   1.298   7.014
  704SOL    HW2 3012   4.005   1.452   0.040
  705SOL     OW 3013   6.845   6.274   5.634
  705SOL    HW1 3014   6.802   6.350   5.585
  705SOL    HW2 3015   6.911   6.310   5.700
  706SOL     OW 3016   4.102   6.988   4.792
  706SOL    HW1 3017   4.064   7.019   4.705
  706SOL    HW2 3018   4.036   6.927   4.837
  707SOL     OW 3019   3.306   4.947   4.279
  707SOL    HW1 3020   3.276   4.984   4.191
  707SOL    HW2 3021   3.235   4.886   4.315
  708SOL     OW 3022   2.965   5.858   3.687
  708SOL    HW1 3023   3.020   5.776   3.694
  708SOL    HW2 3024   3.024   5.938   3.681
  709SOL     OW 3025   2.296   0.045   1.808
  709SOL    HW1 3026   2.291   0.120   1.742
  709SOL    HW2 3027   2.222   7.005   1.791
  710SOL     OW 3028   4.962   3.231   2.805
  710SOL    HW1 3029   4.937   3.299   2.736
  710SOL    HW2 3030   4.888   3.165   2.815
  711SOL     OW 3031   6.790   1.724   0.914
  711SOL    HW1 3032   6.764   1.632   0.943
  711SOL    HW2 3033   6.755   1.741   0.821
  712SOL     OW 3034   5.200   4.027   0.220
  712SOL    HW1 3035   5.210   4.029   0.120
  712SOL    HW2 3036   5.125   4.087   0.247
  713SOL     OW 3037   4.341   2.933   6.157
  713SOL    HW1 3038   4.252   2.908   6.196
  713SOL    HW2 3039   4.360   2.878   6.077
  714SOL     OW 3040   4.441   6.621   2.976
  714SOL    HW1 3041   4.368   6.558   2.951
  714SOL    HW2 3042   4.404   6.712   2.991
  715SOL     OW 3043   5.922   4.360   5.617
  715SOL    HW1 3044   5.839   4.326   5.662
  715SOL    HW2 3045   5.999   4.300   5.639
  716SOL     OW 3046   3.427   1.776   3.607
  716SOL    HW1 3047   3.436   1.731   3.696
  716SOL    HW2 3048   3.515   1.771   3.559
  717SOL     OW 3049   4.837   5.181   3.845
  717SOL    HW1 3050   4.851   5.248   3.917
  717SOL    HW2 3051   4.914   5.117   3.844
  718SOL     OW 3052   6.311   1.987   5.336
  718SOL    HW1 3053   6.212   1.988   5.323
  718SOL    HW2 3054   6.356   1.967   5.249
  719SOL     OW 3055   4.910   5.707   2.562
  719SOL    HW1 3056   4.891   5.758   2.646
  719SOL    HW2 3057   4.837   5.641   2.546
  720SOL     OW 3058   2.934   1.578   1.161
  720SOL    HW1 3059   2.978   1.652   1.212
  720SOL    HW2 3060   2.836   1.597   1.154
  721SOL     OW 3061   0.069   2.726   2.114
  721SOL    HW1 3062   0.042   2.635   2.083
  721SOL    HW2 3063   0.128   2.718   2.195
  722SOL     OW 3064   5.462   6.408   1.564
  722SOL    HW1 3065   5.555   6.374   1.582
  722SOL    HW2 3066   5.451   6.422   1.466
  723SOL     OW 3067   2.257   0.731   4.420
  723SOL    HW1 3068   2.199   0.652   4.398
  723SOL    HW2 3069   2.210   0.815   4.393
  724SOL     OW 3070   1.343   2.781   4.978
  724SOL    HW1 3071   1.394   2.710   5.026
  724SOL    HW2 3072   1.267   2.740   4.929
  725SOL     OW 3073   1.637   4.266   3.289
  725SOL    HW1 3074   1.570   4.258   3.215
  725SOL    HW2 3075   1.642   4.179   3.338
  726SOL     OW 3076   2.345   3.973   0.508
  726SOL    HW1 3077   2.313   4.027   0.587
  726SOL    HW2 3078   2.441   3.948   0.523
  727SOL     OW 3079   3.757   5.401   4.516
  727SOL    HW1 3080   3.777   5.388   4.614
  727SOL    HW2 3081   3.669   5.448   4.506
  728SOL     OW 3082   5.834   3.353   3.480
  728SOL    HW1 3083   5.777   3.422   3.434
  728SOL    HW2 3084   5.834   3.370   3.578
  729SOL     OW 3085   0.917   4.974   0.378
  729SOL    HW1 3086   0.822   4.952   0.355
  729SOL    HW2 3087   0.927   4.977   0.477
  730SOL     OW 3088   4.083   1.566   3.186
  730SOL    HW1 3089   4.123   1.645   3.232
  730SOL    HW2 3090   4.149   1.528   3.121
  731SOL     OW 3091   4.872   4.650   5.314
  731SOL    HW1 3092   4.907   4.596   5.390
  731SOL    HW2 3093   4.948   4.692   5.264
  732SOL     OW 3094   4.428   0.759   4.250
  732SOL    HW1 3095   4.425   0.682   4.314
  732SOL    HW2 3096   4.523   0.773   4.220
  733SOL     OW 3097   0.270   5.213   4.122
  733SOL    HW1 3098   0.287   5.225   4.220
  733SOL    HW2 3099   0.309   5.127   4.091
  734SOL     OW 3100   5.943   6.036   3.185
  734SOL    HW1 3101   5.993   6.100   3.242
  734SOL    HW2 3102   6.007   5.987   3.126
  735SOL     OW 3103   4.212   0.333   2.715
  735SOL    HW1 3104   4.176   0.345   2.622
  735SOL    HW2 3105   4.307   0.304   2.710
  736SOL     OW 3106   1.516   1.903   4.199
  736SOL    HW1 3107   1.599   1.936   4.154
  736SOL    HW2 3108   1.471   1.979   4.246
  737SOL     OW 3109   3.510   0.723   6.044
  737SOL    HW1 3110   3.581   0.729   6.114
  737SOL    HW2 3111   3.529   0.789   5.972
  738SOL     OW 3112   1.674   5.249   0.360
  738SOL    HW1 3113   1.588   5.218   0.320
  738SOL    HW2 3114   1.685   5.209   0.451
  739SOL     OW 3115   1.514   0.865   3.495
  739SOL    HW1 3116   1.503   0.766   3.506
  739SOL    HW2 3117   1.590   0.897   3.552
  740SOL     OW 3118   5.194   2.960   3.015
  740SOL    HW1 3119   5.256   2.918   2.949
  740SOL    HW2 3120   5.124   2.894   3.042
  741SOL     OW 3121   2.798   1.534   2.884
  741SOL    HW1 3122   2.744   1.616   2.900
  741SOL    HW2 3123   2.741   1.465   2.839
  742SOL     OW 3124   2.206   0.507   2.598
  742SOL    HW1 3125   2.132   0.450   2.632
  742SOL    HW2 3126   2.266   0.452   2.539
  743SOL     OW 3127   0.358   6.626   2.646
  743SOL    HW1 3128   0.403   6.541   2.620
  743SOL    HW2 3129   0.357   6.689   2.569
  744SOL     OW 3130   5.109   1.664   1.032
  744SOL    HW1 3131   5.142   1.756   1.050
  744SOL    HW2 3132   5.148   1.631   0.946
  745SOL     OW 3133   2.194   6.972   5.291
  745SOL    HW1 3134   2.179   0.027   5.233
  745SOL    HW2 3135   2.281   6.929   5.266
  746SOL     OW 3136   6.310   5.813   4.936
  746SOL    HW1 3137   6.403   5.784   4.915
  746SOL    HW2 3138   6.247   5.738   4.914
  747SOL     OW 3139   3.796   5.326   2.345
  747SOL    HW1 3140   3.726   5.336   2.275
  747SOL    HW2 3141   3.755   5.284   2.427
  748SOL     OW 3142   6.137   4.811   2.142
  748SOL    HW1 3143   6.201   4.881   2.175
  748SOL    HW2 3144   6.161   4.788   2.047
  749SOL     OW 3145   4.771   4.332   4.730
  749SOL    HW1 3146   4.832   4.310   4.653
  749SOL    HW2 3147   4.776   4.260   4.798
  750SOL     OW 3148   2.467   1.967   3.139
  750SOL    HW1 3149   2.539   1.992   3.075
  750SOL    HW2 3150   2.378   1.972   3.092
  751SOL     OW 3151   4.576   0.401   0.391
  751SOL    HW1 3152   4.552   0.406   0.488
  751SOL    HW2 3153   4.579   0.305   0.363
  752SOL     OW 3154   3.172   3.176   4.673
  752SOL    HW1 3155   3.085   3.176   4.625
  752SOL    HW2 3156   3.220   3.262   4.655
  753SOL     OW 3157   3.755   3.871   3.580
  753SOL    HW1 3158   3.774   3.860   3.678
  753SOL    HW2 3159   3.828   3.828   3.527
  754SOL     OW 3160   5.007   0.064   6.944
  754SOL    HW1 3161   4.949   7.014   6.910
  754SOL    HW2 3162   4.975   0.151   6.907
  755SOL     OW 3163   4.671   4.264   5.108
  755SOL    HW1 3164   4.620   4.243   5.192
  755SOL    HW2 3165   4.631   4.345   5.065
  756SOL     OW 3166   3.425   5.626   5.591
  756SOL    HW1 3167   3.465   5.709   5.554
  756SOL    HW2 3168   3.332   5.614   5.556
  757SOL     OW 3169   1.394   7.007   1.790
  757SOL    HW1 3170   1.409   6.924   1.736
  757SOL    HW2 3171   1.353   0.053   1.733
  758SOL     OW 3172   3.826   1.071   4.644
  758SOL    HW1 3173   3.853   1.012   4.567
  758SOL    HW2 3174   3.799   1.013   4.721
  759SOL     OW 3175   0.008   2.663   3.283
  759SOL    HW1 3176   6.965   2.653   3.210
  759SOL    HW2 3177   0.059   2.749   3.270
  760SOL     OW 3178   6.898   5.505   4.152
  760SOL    HW1 3179   6.945   5.418   4.135
  760SOL    HW2 3180   6.877   5.549   4.064
  761SOL     OW 3181   5.002   4.951   6.090
  761SOL    HW1 3182   5.069   4.917   6.156
  761SOL    HW2 3183   5.049   4.975   6.005
  762SOL     OW 3184   3.837   5.893   3.347
  762SOL    HW1 3185   3.916   5.895   3.286
  762SOL    HW2 3186   3.866   5.913   3.440
  763SOL     OW 3187   5.697   1.332   0.770
  763SOL    HW1 3188   5.688   1.361   0.675
  763SOL    HW2 3189   5.654   1.400   0.830
  764SOL     OW 3190   5.345   6.405   5.187
  764SOL    HW1 3191   5.303   6.322   5.151
  764SOL    HW2 3192   5.360   6.394   5.286
  765SOL     OW 3193   5.647   6.109   0.302
  765SOL    HW1 3194   5.676   6.047   0.374
  765SOL    HW2 3195   5.630   6.200   0.341
  766SOL     OW 3196   2.495   2.222   3.804
  766SOL    HW1 3197   2.513   2.320   3.796
  766SOL    HW2 3198   2.557   2.172   3.743
  767SOL     OW 3199   6.775   5.925   3.158
  767SOL    HW1 3200   6.679   5.941   3.136
  767SOL    HW2 3201   6.796   5.828   3.148
  768SOL     OW 3202   2.463   5.708   1.875
  768SOL    HW1 3203   2.498   5.629   1.824
  768SOL    HW2 3204   2.497   5.704   1.969
  769SOL     OW 3205   3.473   1.626   5.488
  769SOL    HW1 3206   3.436   1.690   5.554
  769SOL    HW2 3207   3.536   1.673   5.426
  770SOL     OW 3208   0.746   4.798   5.637
  770SOL    HW1 3209   0.764   4.703   5.611
  770SOL    HW2 3210   0.686   4.840   5.569
  771SOL     OW 3211   1.551   4.891   2.458
  771SOL    HW1 3212   1.556   4.811   2.517
  771SOL    HW2 3213   1.515   4.969   2.509
  772SOL     OW 3214   6.107   5.086   0.437
  772SOL    HW1 3215   6.157   5.001   0.417
  772SOL    HW2 3216   6.160   5.164   0.403
  773SOL     OW 3217   1.777   4.941   4.062
  773SOL    HW1 3218   1.769   4.940   4.162
  773SOL    HW2 3219   1.687   4.933   4.021
  774SOL     OW 3220   1.746   2.050   4.118
  774SOL    HW1 3221   1.720   2.140   4.082
  774SOL    HW2 3222   1.827   2.017   4.070
  775SOL     OW 3223   0.790   4.054   2.270
  775SOL    HW1 3224   0.702   4.027   2.231
  775SOL    HW2 3225   0.850   4.086   2.197
  776SOL     OW 3226   3.430   5.268   6.782
  776SOL    HW1 3227   3.374   5.200   6.736
  776SOL    HW2 3228   3.522   5.231   6.797
  777SOL     OW 3229   2.129   3.681   6.853
  777SOL    HW1 3230   2.090   3.598   6.893
  777SOL    HW2 3231   2.062   3.755   6.859
  778SOL     OW 3232   3.654   5.541   6.905
  778SOL    HW1 3233   3.668   5.560   6.808
  778SOL    HW2 3234   3.562   5.572   6.932
  779SOL     OW 3235   5.782   1.709   3.582
  779SOL    HW1 3236   5.812   1.717   3.677
  779SOL    HW2 3237   5.697   1.761   3.570
  780SOL     OW 3238   6.392   1.564   4.569
  780SOL    HW1 3239   6.372   1.516   4.655
  780SOL    HW2 3240   6.485   1.600   4.571
  781SOL     OW 3241   0.833   5.046   6.272
  781SOL    HW1 3242   0.919   5.068   6.318
  781SOL    HW2 3243   0.756   5.072   6.331
  782SOL     OW 3244   2.052   4.330   5.498
  782SOL    HW1 3245   2.066   4.428   5.484
  782SOL    HW2 3246   2.093   4.279   5.422
  783SOL     OW 3247   6.844   4.833   6.165
  783SOL    HW1 3248   6.768   4.889   6.132
  783SOL    HW2 3249   6.904   4.889   6.223
  784SOL     OW 3250   2.069   5.747   6.255
  784SOL    HW1 3251   2.074   5.651   6.282
  784SOL    HW2 3252   2.161   5.785   6.249
  785SOL     OW 3253   0.330   0.248   4.150
  785SOL    HW1 3254   0.268   0.169   4.154
  785SOL    HW2 3255   0.424   0.217   4.167
  786SOL     OW 3256   5.956   0.950   4.694
  786SOL    HW1 3257   5.886   1.006   4.737
  786SOL    HW2 3258   5.913   0.871   4.650
  787SOL     OW 3259   2.170   6.555   0.572
  787SOL    HW1 3260   2.084   6.603   0.583
  787SOL    HW2 3261   2.245   6.621   0.569
  788SOL     OW 3262   2.135   3.267   2.091
  788SOL    HW1 3263   2.186   3.353   2.086
  788SOL    HW2 3264   2.039   3.284   2.067
  789SOL     OW 3265   3.674   5.224   2.559
  789SOL    HW1 3266   3.656   5.138   2.606
  789SOL    HW2 3267   3.598   5.245   2.498
  790SOL     OW 3268   6.886   3.146   2.003
  790SOL    HW1 3269   6.931   3.091   1.933
  790SOL    HW2 3270   6.907   3.109   2.094
  791SOL     OW 3271   3.343   1.526   3.466
  791SOL    HW1 3272   3.271   1.464   3.500
  791SOL    HW2 3273   3.317   1.621   3.486
  792SOL     OW 3274   2.271   0.059   0.512
  792SOL    HW1 3275   2.195   0.119   0.536
  792SOL    HW2 3276   2.331   0.106   0.447
  793SOL     OW 3277   1.785   5.806   4.616
  793SOL    HW1 3278   1.735   5.888   4.642
  793SOL    HW2 3279   1.775   5.791   4.518
  794SOL     OW 3280   3.531   3.505   2.210
  794SOL    HW1 3281   3.475   3.580   2.245
  794SOL    HW2 3282   3.472   3.437   2.166
  795SOL     OW 3283   4.543   6.958   5.132
  795SOL    HW1 3284   4.595   0.014   5.160
  795SOL    HW2 3285   4.525   6.900   5.212
  796SOL     OW 3286   1.072   2.688   6.503
  796SOL    HW1 3287   1.172   2.680   6.509
  796SOL    HW2 3288   1.045   2.696   6.407
  797SOL     OW 3289   3.301   6.926   1.133
  797SOL    HW1 3290   3.333   6.852   1.192
  797SOL    HW2 3291   3.353   6.925   1.047
  798SOL     OW 3292   4.771   4.508   1.229
  798SOL    HW1 3293   4.807   4.421   1.262
  798SOL    HW2 3294   4.708   4.547   1.297
  799SOL     OW 3295   3.739   3.075   5.437
  799SOL    HW1 3296   3.709   3.171   5.433
  799SOL    HW2 3297   3.836   3.071   5.456
  800SOL     OW 3298   5.528   3.156   2.705
  800SOL    HW1 3299   5.593   3.085   2.680
  800SOL    HW2 3300   5.440   3.114   2.727
  801SOL     OW 3301   2.060   5.348   6.881
  801SOL    HW1 3302   1.994   5.408   6.925
  801SOL    HW2 3303   2.143   5.399   6.860
  802SOL     OW 3304   4.103   2.458   6.271
  802SOL    HW1 3305   4.076   2.373   6.318
  802SOL    HW2 3306   4.202   2.463   6.267
  803SOL     OW 3307   2.423   2.466   3.238
  803SOL    HW1 3308   2.370   2.482   3.155
  803SOL    HW2 3309   2.519   2.449   3.214
  804SOL     OW 3310   4.977   7.014   3.036
  804SOL    HW1 3311   5.006   0.024   2.947
  804SOL    HW2 3312   5.057   7.000   3.094
  805SOL     OW 3313   3.468   1.691   3.864
  805SOL    HW1 3314   3.536   1.760   3.889
  805SOL    HW2 3315   3.379   1.717   3.902
  806SOL     OW 3316   4.133   6.147   6.087
  806SOL    HW1 3317   4.152   6.236   6.045
  806SOL    HW2 3318   4.140   6.075   6.018
  807SOL     OW 3319   1.496   6.422   6.171
  807SOL    HW1 3320   1.549   6.354   6.223
  807SOL    HW2 3321   1.412   6.379   6.137
  808SOL     OW 3322   5.448   2.122   5.953
  808SOL    HW1 3323   5.365   2.178   5.947
  808SOL    HW2 3324   5.522   2.168   5.902
  809SOL     OW 3325   3.151   6.467   6.241
  809SOL    HW1 3326   3.089   6.541   6.267
  809SOL    HW2 3327   3.217   6.501   6.174
  810SOL     OW 3328   4.079   3.975   6.850
  810SOL    HW1 3329   4.070   3.952   6.753
  810SOL    HW2 3330   3.990   3.999   6.887
  811SOL     OW 3331   5.667   5.629   4.682
  811SOL    HW1 3332   5.751   5.579   4.701
  811SOL    HW2 3333   5.680   5.687   4.602
  812SOL     OW 3334   1.239   2.733   1.059
  812SOL    HW1 3335   1.190   2.746   0.973
  812SOL    HW2 3336   1.172   2.725   1.134
  813SOL     OW 3337   3.235   1.826   4.971
  813SOL    HW1 3338   3.291   1.907   4.955
  813SOL    HW2 3339   3.255   1.790   5.062
  814SOL     OW 3340   0.620   4.705   1.501
  814SOL    HW1 3341   0.595   4.699   1.597
  814SOL    HW2 3342   0.545   4.673   1.444
  815SOL     OW 3343   4.713   0.899   3.749
  815SOL    HW1 3344   4.696   0.850   3.834
  815SOL    HW2 3345   4.636   0.959   3.729
  816SOL     OW 3346   5.454   3.675   6.285
  816SOL    HW1 3347   5.393   3.666   6.206
  816SOL    HW2 3348   5.484   3.770   6.294
  817SOL     OW 3349   6.580   5.354   6.607
  817SOL    HW1 3350   6.664   5.304   6.586
  817SOL    HW2 3351   6.590   5.449   6.578
  818SOL     OW 3352   6.768   1.174   5.566
  818SOL    HW1 3353   6.763   1.102   5.635
  818SOL    HW2 3354   6.728   1.142   5.480
  819SOL     OW 3355   5.598   3.624   1.485
  819SOL    HW1 3356   5.502   3.638   1.508
  819SOL    HW2 3357   5.608   3.618   1.386
  820SOL     OW 3358   2.453   1.909   5.657
  820SOL    HW1 3359   2.512   1.978   5.614
  820SOL    HW2 3360   2.358   1.924   5.629
  821SOL     OW 3361   5.189   3.140   6.206
  821SOL    HW1 3362   5.097   3.128   6.167
  821SOL    HW2 3363   5.185   3.206   6.281
  822SOL     OW 3364   6.800   4.517   3.456
  822SOL    HW1 3365   6.755   4.433   3.425
  822SOL    HW2 3366   6.736   4.573   3.508
  823SOL     OW 3367   2.265   2.910   4.292
  823SOL    HW1 3368   2.252   3.001   4.333
  823SOL    HW2 3369   2.176   2.872   4.267
  824SOL     OW 3370   5.361   0.579   6.536
  824SOL    HW1 3371   5.382   0.556   6.631
  824SOL    HW2 3372   5.278   0.531   6.507
  825SOL     OW 3373   6.286   5.674   0.919
  825SOL    HW1 3374   6.271   5.588   0.869
  825SOL    HW2 3375   6.383   5.684   0.938
  826SOL     OW 3376   3.792   2.008   0.246
  826SOL    HW1 3377   3.862   2.019   0.176
  826SOL    HW2 3378   3.701   2.021   0.206
  827SOL     OW 3379   3.577   3.100   4.884
  827SOL    HW1 3380   3.536   3.037   4.817
  827SOL    HW2 3381   3.572   3.059   4.975
  828SOL     OW 3382   0.974   6.778   5.978
  828SOL    HW1 3383   1.035   6.715   5.930
  828SOL    HW2 3384   0.881   6.767   5.944
  829SOL     OW 3385   3.899   3.336   1.716
  829SOL    HW1 3386   3.971   3.332   1.785
  829SOL    HW2 3387   3.814   3.366   1.759
  830SOL     OW 3388   6.831   3.998   5.880
  830SOL    HW1 3389   6.889   3.917   5.887
  830SOL    HW2 3390   6.735   3.970   5.872
  831SOL     OW 3391   5.927   1.485   2.926
  831SOL    HW1 3392   5.947   1.489   3.024
  831SOL    HW2 3393   5.834   1.517   2.909
  832SOL     OW 3394   3.177   2.129   4.805
  832SOL    HW1 3395   3.181   2.170   4.896
  832SOL    HW2 3396   3.084   2.097   4.788
  833SOL     OW 3397   3.922   2.807   6.936
  833SOL    HW1 3398   3.976   2.889   6.957
  833SOL    HW2 3399   3.843   2.804   6.997
  834SOL     OW 3400   6.012   3.570   0.576
  834SOL    HW1 3401   6.022   3.579   0.675
  834SOL    HW2 3402   6.026   3.475   0.549
  835SOL     OW 3403   6.229   6.872   5.379
  835SOL    HW1 3404   6.306   6.886   5.317
  835SOL    HW2 3405   6.154   6.829   5.330
  836SOL     OW 3406   6.027   6.830   4.103
  836SOL    HW1 3407   6.027   6.763   4.177
  836SOL    HW2 3408   5.988   6.790   4.020
  837SOL     OW 3409   1.117   0.533   6.473
  837SOL    HW1 3410   1.187   0.483   6.524
  837SOL    HW2 3411   1.027   0.495   6.494
  838SOL     OW 3412   1.586   5.818   3.275
  838SOL    HW1 3413   1.542   5.855   3.193
  838SOL    HW2 3414   1.629   5.731   3.253
  839SOL     OW 3415   1.358   2.721   0.090
  839SOL    HW1 3416   1.359   2.813   0.130
  839SOL    HW2 3417   1.294   2.720   0.013
  840SOL     OW 3418   4.419   5.358   0.192
  840SOL    HW1 3419   4.488   5.287   0.206
  840SOL    HW2 3420   4.415   5.418   0.272
  841SOL     OW 3421   2.918   5.102   6.479
  841SOL    HW1 3422   2.842   5.166   6.474
  841SOL    HW2 3423   3.001   5.150   6.508
  842SOL     OW 3424   4.486   6.779   1.505
  842SOL    HW1 3425   4.408   6.832   1.540
  842SOL    HW2 3426   4.537   6.835   1.440
  843SOL     OW 3427   1.330   0.619   2.148
  843SOL    HW1 3428   1.297   0.552   2.081
  843SOL    HW2 3429   1.409   0.668   2.111
  844SOL     OW 3430   6.932   6.379   1.711
  844SOL    HW1 3431   6.945   6.457   1.774
  844SOL    HW2 3432   6.872   6.312   1.754
  845SOL     OW 3433   3.677   1.534   1.562
  845SOL    HW1 3434   3.730   1.540   1.646
  845SOL    HW2 3435   3.658   1.625   1.526
  846SOL     OW 3436   1.323   1.184   1.337
  846SOL    HW1 3437   1.315   1.161   1.240
  846SOL    HW2 3438   1.374   1.269   1.347
  847SOL     OW 3439   2.495   3.298   1.331
  847SOL    HW1 3440   2.463   3.386   1.366
  847SOL    HW2 3441   2.467   3.288   1.235
  848SOL     OW 3442   6.392   6.191   0.658
  848SOL    HW1 3443   6.313   6.233   0.613
  848SOL    HW2 3444   6.465   6.178   0.591
  849SOL     OW 3445   5.184   3.364   6.411
  849SOL    HW1 3446   5.181   3.303   6.490
  849SOL    HW2 3447   5.091   3.376   6.375
  850SOL     OW 3448   1.728   1.289   4.527
  850SOL    HW1 3449   1.642   1.322   4.488
  850SOL    HW2 3450   1.805   1.330   4.478
  851SOL     OW 3451   5.003   2.240   5.930
  851SOL    HW1 3452   5.004   2.167   5.998
  851SOL    HW2 3453   4.922   2.230   5.871
  852SOL     OW 3454   6.638   5.141   1.919
  852SOL    HW1 3455   6.655   5.049   1.883
  852SOL    HW2 3456   6.661   5.208   1.849
  853SOL     OW 3457   3.320   2.638   0.699
  853SOL    HW1 3458   3.327   2.575   0.621
  853SOL    HW2 3459   3.260   2.714   0.675
  854SOL     OW 3460   0.137   0.066   6.034
  854SOL    HW1 3461   0.212   0.109   6.083
  854SOL    HW2 3462   0.050   0.108   6.061
  855SOL     OW 3463   4.860   1.867   0.211
  855SOL    HW1 3464   4.880   1.783   0.160
  855SOL    HW2 3465   4.801   1.846   0.288
  856SOL     OW 3466   1.685   5.676   1.530
  856SOL    HW1 3467   1.636   5.589   1.516
  856SOL    HW2 3468   1.739   5.670   1.613
  857SOL     OW 3469   6.975   6.505   5.025
  857SOL    HW1 3470   6.971   6.486   4.927
  857SOL    HW2 3471   6.935   6.595   5.043
  858SOL     OW 3472   3.426   4.140   6.926
  858SOL    HW1 3473   3.458   4.049   6.899
  858SOL    HW2 3474   3.326   4.141   6.922
  859SOL     OW 3475   4.584   5.793   5.492
  859SOL    HW1 3476   4.660   5.807   5.554
  859SOL    HW2 3477   4.609   5.826   5.400
  860SOL     OW 3478   4.381   3.179   6.569
  860SOL    HW1 3479   4.449   3.157   6.499
  860SOL    HW2 3480   4.428   3.215   6.650
  861SOL     OW 3481   1.111   5.805   2.297
  861SOL    HW1 3482   1.186   5.759   2.248
  861SOL    HW2 3483   1.123   5.904   2.291
  862SOL     OW 3484   0.762   4.094   4.013
  862SOL    HW1 3485   0.677   4.043   3.999
  862SOL    HW2 3486   0.741   4.180   4.060
  863SOL     OW 3487   5.351   0.519   1.599
  863SOL    HW1 3488   5.434   0.573   1.584
  863SOL    HW2 3489   5.271   0.575   1.579
  864SOL     OW 3490   5.839   5.116   2.856
  864SOL    HW1 3491   5.905   5.079   2.921
  864SOL    HW2 3492   5.875   5.106   2.763
  865SOL     OW 3493   1.394   5.152   4.532
  865SOL    HW1 3494   1.417   5.160   4.629
  865SOL    HW2 3495   1.465   5.099   4.485
  866SOL     OW 3496   3.947   6.972   1.350
  866SOL    HW1 3497   3.983   0.039   1.369
  866SOL    HW2 3498   3.909   6.933   1.434
  867SOL     OW 3499   5.776   3.650   5.625
  867SOL    HW1 3500   5.867   3.665   5.585
  867SOL    HW2 3501   5.773   3.693   5.715
  868SOL     OW 3502   0.723   1.530   2.508
  868SOL    HW1 3503   0.772   1.612   2.480
  868SOL    HW2 3504   0.776   1.483   2.580
  869SOL     OW 3505   0.538   3.118   2.030
  869SOL    HW1 3506   0.564   3.050   2.098
  869SOL    HW2 3507   0.581   3.096   1.942
  870SOL     OW 3508   3.915   4.777   1.845
  870SOL    HW1 3509   3.820   4.755   1.869
  870SOL    HW2 3510   3.963   4.694   1.819
  871SOL     OW 3511   4.295   1.573   3.696
  871SOL    HW1 3512   4.313   1.478   3.720
  871SOL    HW2 3513   4.377   1.613   3.655
  872SOL     OW 3514   1.280   2.529   5.225
  872SOL    HW1 3515   1.316   2.479   5.147
  872SOL    HW2 3516   1.181   2.515   5.231
  873SOL     OW 3517   4.105   0.126   6.237
  873SOL    HW1 3518   4.084   0.186   6.313
  873SOL    HW2 3519   4.097   0.031   6.267
  874SOL     OW 3520   6.278   4.064   2.094
  874SOL    HW1 3521   6.202   4.000   2.107
  874SOL    HW2 3522   6.268   4.141   2.157
  875SOL     OW 3523   5.362   5.712   2.237
  875SOL    HW1 3524   5.439   5.691   2.176
  875SOL    HW2 3525   5.296   5.637   2.232
  876SOL     OW 3526   6.363   1.132   6.609
  876SOL    HW1 3527   6.400   1.182   6.531
  876SOL    HW2 3528   6.353   1.195   6.686
  877SOL     OW 3529   1.561   3.186   6.849
  877SOL    HW1 3530   1.630   3.128   6.807
  877SOL    HW2 3531   1.561   3.171   6.948
  878SOL     OW 3532   4.015   6.378   4.039
  878SOL    HW1 3533   4.041   6.309   4.107
  878SOL    HW2 3534   3.982   6.460   4.085
  879SOL     OW 3535   5.481   6.986   5.956
  879SOL    HW1 3536   5.404   6.989   6.020
  879SOL    HW2 3537   5.448   6.952   5.868
  880SOL     OW 3538   3.458   3.227   3.074
  880SOL    HW1 3539   3.467   3.135   3.036
  880SOL    HW2 3540   3.549   3.263   3.095
  881SOL     OW 3541   3.933   2.544   0.490
  881SOL    HW1 3542   3.997   2.537   0.566
  881SOL    HW2 3543   3.968   2.492   0.412
  882SOL     OW 3544   1.821   2.946   3.526
  882SOL    HW1 3545   1.895   2.888   3.563
  882SOL    HW2 3546   1.861   3.020   3.473
  883SOL     OW 3547   2.461   6.521   2.939
  883SOL    HW1 3548   2.362   6.534   2.942
  883SOL    HW2 3549   2.502   6.565   3.018
  884SOL     OW 3550   2.677   3.549   6.176
  884SOL    HW1 3551   2.715   3.613   6.109
  884SOL    HW2 3552   2.750   3.489   6.209
  885SOL     OW 3553   4.219   2.933   6.752
  885SOL    HW1 3554   4.275   3.006   6.713
  885SOL    HW2 3555   4.179   2.963   6.838
  886SOL     OW 3556   3.821   1.312   6.467
  886SOL    HW1 3557   3.770   1.227   6.482
  886SOL    HW2 3558   3.786   1.382   6.529
  887SOL     OW 3559   4.239   0.904   5.313
  887SOL    HW1 3560   4.321   0.943   5.357
  887SOL    HW2 3561   4.165   0.971   5.317
  888SOL     OW 3562   0.747   6.798   1.831
  888SOL    HW1 3563   0.700   6.883   1.852
  888SOL    HW2 3564   0.684   6.721   1.840
  889SOL     OW 3565   0.320   3.881   0.618
  889SOL    HW1 3566   0.320   3.806   0.684
  889SOL    HW2 3567   0.228   3.893   0.582
  890SOL     OW 3568   1.976   5.750   4.794
  890SOL    HW1 3569   1.921   5.771   4.713
  890SOL    HW2 3570   1.956   5.816   4.866
  891SOL     OW 3571   4.842   4.583   2.356
  891SOL    HW1 3572   4.766   4.529   2.393
  891SOL    HW2 3573   4.864   4.551   2.264
  892SOL     OW 3574   2.330   4.191   0.695
  892SOL    HW1 3575   2.404   4.234   0.643
  892SOL    HW2 3576   2.310   4.246   0.776
  893SOL     OW 3577   1.829   5.349   2.638
  893SOL    HW1 3578   1.864   5.361   2.730
  893SOL    HW2 3579   1.905   5.340   2.574
  894SOL     OW 3580   0.799   4.790   1.318
  894SOL    HW1 3581   0.838   4.712   1.268
  894SOL    HW2 3582   0.747   4.756   1.396
  895SOL     OW 3583   0.049   4.957   4.209
  895SOL    HW1 3584   0.134   4.922   4.171
  895SOL    HW2 3585   6.999   4.892   4.194
  896SOL     OW 3586   6.868   1.081   6.432
  896SOL    HW1 3587   6.893   1.002   6.487
  896SOL    HW2 3588   6.903   1.069   6.339
  897SOL     OW 3589   5.529   1.144   0.872
  897SOL    HW1 3590   5.589   1.214   0.834
  897SOL    HW2 3591   5.441   1.185   0.897
  898SOL     OW 3592   3.975   1.000   2.767
  898SOL    HW1 3593   4.018   0.931   2.709
  898SOL    HW2 3594   3.945   1.077   2.711
  899SOL     OW 3595   6.425   6.681   6.633
  899SOL    HW1 3596   6.512   6.656   6.590
  899SOL    HW2 3597   6.443   6.731   6.718
  900SOL     OW 3598   5.206   5.308   0.044
  900SOL    HW1 3599   5.280   5.376   0.050
  900SOL    HW2 3600   5.177   5.282   0.136
  901SOL     OW 3601   1.228   0.443   3.301
  901SOL    HW1 3602   1.217   0.531   3.255
  901SOL    HW2 3603   1.154   0.382   3.273
  902SOL     OW 3604   7.022   3.208   1.577
  902SOL    HW1 3605   0.097   3.204   1.571
  902SOL    HW2 3606   6.995   3.256   1.660
  903SOL     OW 3607   6.906   0.719   0.743
  903SOL    HW1 3608   6.854   0.728   0.828
  903SOL    HW2 3609   6.960   0.802   0.728
  904SOL     OW 3610   2.760   0.984   3.441
  904SOL    HW1 3611   2.798   1.063   3.489
  904SOL    HW2 3612   2.682   0.948   3.491
  905SOL     OW 3613   5.993   1.763   6.227
  905SOL    HW1 3614   5.996   1.855   6.188
  905SOL    HW2 3615   6.074   1.748   6.284
  906SOL     OW 3616   5.412   3.497   0.652
  906SOL    HW1 3617   5.421   3.429   0.579
  906SOL    HW2 3618   5.368   3.579   0.615
  907SOL     OW 3619   5.606   4.037   6.496
  907SOL    HW1 3620   5.551   4.000   6.421
  907SOL    HW2 3621   5.703   4.028   6.474
  908SOL     OW 3622   0.512   3.754   3.267
  908SOL    HW1 3623   0.510   3.832   3.204
  908SOL    HW2 3624   0.559   3.780   3.351
  909SOL     OW 3625   5.299   5.187   5.909
  909SOL    HW1 3626   5.382   5.214   5.861
  909SOL    HW2 3627   5.315   5.191   6.008
  910SOL     OW 3628   3.457   4.576   0.348
  910SOL    HW1 3629   3.416   4.486   0.364
  910SOL    HW2 3630   3.513   4.573   0.265
  911SOL     OW 3631   1.241   4.719   5.720
  911SOL    HW1 3632   1.299   4.638   5.730
  911SOL    HW2 3633   1.224   4.736   5.623
  912SOL     OW 3634   5.029   1.228   5.260
  912SOL    HW1 3635   5.088   1.185   5.191
  912SOL    HW2 3636   4.940   1.249   5.219
  913SOL     OW 3637   4.570   6.432   3.114
  913SOL    HW1 3638   4.541   6.524   3.088
  913SOL    HW2 3639   4.491   6.380   3.148
  914SOL     OW 3640   3.318   6.562   6.007
  914SOL    HW1 3641   3.367   6.650   6.005
  914SOL    HW2 3642   3.251   6.560   5.934
  915SOL     OW 3643   4.973   5.571   1.375
  915SOL    HW1 3644   4.918   5.591   1.294
  915SOL    HW2 3645   5.021   5.484   1.362
  916SOL     OW 3646   0.988   3.545   2.825
  916SOL    HW1 3647   1.076   3.585   2.849
  916SOL    HW2 3648   0.947   3.596   2.749
  917SOL     OW 3649   0.479   6.862   6.605
  917SOL    HW1 3650   0.393   6.914   6.608
  917SOL    HW2 3651   0.554   6.923   6.583
  918SOL     OW 3652   3.759   6.467   6.942
  918SOL    HW1 3653   3.807   6.507   7.020
  918SOL    HW2 3654   3.671   6.431   6.972
  919SOL     OW 3655   4.570   0.944   6.171
  919SOL    HW1 3656   4.650   0.898   6.211
  919SOL    HW2 3657   4.552   0.906   6.081
  920SOL     OW 3658   3.034   4.812   2.066
  920SOL    HW1 3659   2.991   4.723   2.052
  920SOL    HW2 3660   2.988   4.880   2.009
  921SOL     OW 3661   4.784   5.700   5.189
  921SOL    HW1 3662   4.782   5.788   5.236
  921SOL    HW2 3663   4.857   5.643   5.227
  922SOL     OW 3664   2.932   3.398   3.259
  922SOL    HW1 3665   2.957   3.452   3.178
  922SOL    HW2 3666   2.834   3.408   3.276
  923SOL     OW 3667   2.404   3.706   5.711
  923SOL    HW1 3668   2.414   3.709   5.612
  923SOL    HW2 3669   2.488   3.739   5.754
  924SOL     OW 3670   0.539   3.177   1.184
  924SOL    HW1 3671   0.543   3.138   1.092
  924SOL    HW2 3672   0.453   3.149   1.228
  925SOL     OW 3673   0.507   1.450   6.726
  925SOL    HW1 3674   0.532   1.379   6.661
  925SOL    HW2 3675   0.565   1.530   6.712
  926SOL     OW 3676   2.276   1.989   1.098
  926SOL    HW1 3677   2.313   1.906   1.057
  926SOL    HW2 3678   2.177   1.990   1.089
  927SOL     OW 3679   6.684   3.276   4.727
  927SOL    HW1 3680   6.747   3.200   4.741
  927SOL    HW2 3681   6.694   3.312   4.635
  928SOL     OW 3682   2.811   5.487   5.516
  928SOL    HW1 3683   2.811   5.514   5.612
  928SOL    HW2 3684   2.760   5.402   5.504
  929SOL     OW 3685   0.420   1.899   4.699
  929SOL    HW1 3686   0.359   1.847   4.759
  929SOL    HW2 3687   0.487   1.948   4.755
  930SOL     OW 3688   5.857   5.422   5.011
  930SOL    HW1 3689   5.919   5.376   5.074
  930SOL    HW2 3690   5.770   5.373   5.009
  931SOL     OW 3691   5.894   0.487   3.287
  931SOL    HW1 3692   5.897   0.566   3.227
  931SOL    HW2 3693   5.972   0.488   3.349
  932SOL     OW 3694   3.738   0.030   3.580
  932SOL    HW1 3695   3.697   0.026   3.489
  932SOL    HW2 3696   3.689   0.098   3.635
  933SOL     OW 3697   0.913   5.570   1.856
  933SOL    HW1 3698   0.976   5.646   1.838
  933SOL    HW2 3699   0.886   5.571   1.952
  934SOL     OW 3700   1.878   2.731   0.486
  934SOL    HW1 3701   1.967   2.710   0.447
  934SOL    HW2 3702   1.806   2.698   0.424
  935SOL     OW 3703   5.716   2.615   5.602
  935SOL    HW1 3704   5.723   2.621   5.702
  935SOL    HW2 3705   5.772   2.687   5.561
  936SOL     OW 3706   1.927   0.383   6.152
  936SOL    HW1 3707   1.953   0.292   6.183
  936SOL    HW2 3708   2.008   0.441   6.146
  937SOL     OW 3709   3.448   2.472   6.487
  937SOL    HW1 3710   3.548   2.479   6.490
  937SOL    HW2 3711   3.418   2.463   6.392
  938SOL     OW 3712   4.956   6.341   4.824
  938SOL    HW1 3713   5.020   6.266   4.841
  938SOL    HW2 3714   4.869   6.304   4.792
  939SOL     OW 3715   1.692   0.179   4.831
  939SOL    HW1 3716   1.602   0.145   4.803
  939SOL    HW2 3717   1.763   0.126   4.786
  940SOL     OW 3718   1.842   5.505   0.582
  940SOL    HW1 3719   1.928   5.552   0.600
  940SOL    HW2 3720   1.847   5.411   0.615
  941SOL     OW 3721   3.910   6.944   1.080
  941SOL    HW1 3722   3.925   6.947   1.179
  941SOL    HW2 3723   3.984   6.892   1.037
  942SOL     OW 3724   6.428   5.328   0.034
  942SOL    HW1 3725   6.346   5.373   7.024
  942SOL    HW2 3726   6.498   5.396   0.053
  943SOL     OW 3727   3.611   6.089   0.970
  943SOL    HW1 3728   3.512   6.077   0.979
  943SOL    HW2 3729   3.647   6.023   0.904
  944SOL     OW 3730   6.817   6.181   3.080
  944SOL    HW1 3731   6.911   6.205   3.055
  944SOL    HW2 3732   6.812   6.084   3.104
  945SOL     OW 3733   0.713   5.705   6.821
  945SOL    HW1 3734   0.766   5.780   6.860
  945SOL    HW2 3735   0.689   5.639   6.893
  946SOL     OW 3736   5.874   1.782   3.822
  946SOL    HW1 3737   5.967   1.801   3.853
  946SOL    HW2 3738   5.808   1.818   3.888
  947SOL     OW 3739   3.730   4.098   2.501
  947SOL    HW1 3740   3.630   4.100   2.495
  947SOL    HW2 3741   3.769   4.106   2.410
  948SOL     OW 3742   3.397   1.340   3.786
  948SOL    HW1 3743   3.306   1.322   3.823
  948SOL    HW2 3744   3.442   1.411   3.839
  949SOL     OW 3745   2.720   0.061   5.851
  949SOL    HW1 3746   2.682   0.153   5.857
  949SOL    HW2 3747   2.648   7.018   5.869
  950SOL     OW 3748   6.962   6.610   1.867
  950SOL    HW1 3749   0.005   6.603   1.941
  950SOL    HW2 3750   6.878   6.650   1.903
  951SOL     OW 3751   1.416   0.103   3.158
  951SOL    HW1 3752   1.444   0.173   3.092
  951SOL    HW2 3753   1.441   0.132   3.250
  952SOL     OW 3754   3.620   1.425   2.913
  952SOL    HW1 3755   3.704   1.452   2.959
  952SOL    HW2 3756   3.583   1.343   2.956
  953SOL     OW 3757   0.752   5.602   5.858
  953SOL    HW1 3758   0.801   5.581   5.942
  953SOL    HW2 3759   0.791   5.685   5.817
  954SOL     OW 3760   4.594   6.770   2.488
  954SOL    HW1 3761   4.587   6.742   2.393
  954SOL    HW2 3762   4.661   6.843   2.497
  955SOL     OW 3763   2.975   4.755   1.107
  955SOL    HW1 3764   2.911   4.803   1.166
  955SOL    HW2 3765   2.961   4.783   1.012
  956SOL     OW 3766   3.473   0.502   1.015
  956SOL    HW1 3767   3.493   0.547   0.928
  956SOL    HW2 3768   3.529   0.419   1.023
  957SOL     OW 3769   5.908   6.858   3.640
  957SOL    HW1 3770   5.911   6.820   3.548
  957SOL    HW2 3771   5.832   6.923   3.647
  958SOL     OW 3772   5.779   5.727   1.902
  958SOL    HW1 3773   5.720   5.650   1.925
  958SOL    HW2 3774   5.773   5.745   1.803
  959SOL     OW 3775   5.066   0.300   3.058
  959SOL    HW1 3776   5.050   0.264   2.967
  959SOL    HW2 3777   5.114   0.388   3.051
  960SOL     OW 3778   1.691   6.176   5.405
  960SOL    HW1 3779   1.650   6.264   5.431
  960SOL    HW2 3780   1.790   6.188   5.394
  961SOL     OW 3781   3.801   1.340   3.648
  961SOL    HW1 3782   3.813   1.254   3.597
  961SOL    HW2 3783   3.740   1.400   3.597
  962SOL     OW 3784   0.244   0.108   4.714
  962SOL    HW1 3785   0.264   0.202   4.688
  962SOL    HW2 3786   0.308   0.079   4.785
  963SOL     OW 3787   5.950   2.848   1.327
  963SOL    HW1 3788   5.953   2.944   1.300
  963SOL    HW2 3789   6.021   2.829   1.395
  964SOL     OW 3790   3.459   6.403   5.037
  964SOL    HW1 3791   3.427   6.401   4.943
  964SOL    HW2 3792   3.400   6.461   5.092
  965SOL     OW 3793   4.785   1.837   3.913
  965SOL    HW1 3794   4.766   1.844   3.815
  965SOL    HW2 3795   4.700   1.839   3.964
  966SOL     OW 3796   5.319   0.756   3.041
  966SOL    HW1 3797   5.253   0.691   3.079
  966SOL    HW2 3798   5.354   0.721   2.954
  967SOL     OW 3799   4.016   5.462   5.839
  967SOL    HW1 3800   4.024   5.544   5.896
  967SOL    HW2 3801   4.104   5.415   5.835
  968SOL     OW 3802   3.772   0.597   1.201
  968SOL    HW1 3803   3.790   0.509   1.244
  968SOL    HW2 3804   3.700   0.645   1.251
  969SOL     OW 3805   2.708   3.623   6.828
  969SOL    HW1 3806   2.733   3.693   6.761
  969SOL    HW2 3807   2.787   3.599   6.883
  970SOL     OW 3808   4.328   6.316   4.993
  970SOL    HW1 3809   4.392   6.344   5.064
  970SOL    HW2 3810   4.358   6.229   4.953
  971SOL     OW 3811   4.937   3.410   3.566
  971SOL    HW1 3812   4.996   3.367   3.497
  971SOL    HW2 3813   4.876   3.475   3.521
  972SOL     OW 3814   0.315   1.797   0.889
  972SOL    HW1 3815   0.326   1.890   0.921
  972SOL    HW2 3816   0.292   1.798   0.791
  973SOL     OW 3817   6.698   2.567   4.737
  973SOL    HW1 3818   6.682   2.469   4.724
  973SOL    HW2 3819   6.645   2.599   4.815
  974SOL     OW 3820   0.667   3.090   1.792
  974SOL    HW1 3821   0.723   3.012   1.762
  974SOL    HW2 3822   0.697   3.173   1.745
  975SOL     OW 3823   2.963   0.404   1.733
  975SOL    HW1 3824   3.016   0.488   1.725
  975SOL    HW2 3825   3.009   0.331   1.681
  976SOL     OW 3826   6.891   2.912   3.865
  976SOL    HW1 3827   6.868   2.829   3.815
  976SOL    HW2 3828   6.926   2.888   3.955
  977SOL     OW 3829   6.290   1.277   2.439
  977SOL    HW1 3830   6.380   1.267   2.396
  977SOL    HW2 3831   6.266   1.374   2.443
  978SOL     OW 3832   5.001   2.409   1.065
  978SOL    HW1 3833   4.997   2.504   1.033
  978SOL    HW2 3834   4.908   2.372   1.069
  979SOL     OW 3835   6.999   5.017   6.359
  979SOL    HW1 3836   0.060   4.967   6.374
  979SOL    HW2 3837   6.937   5.000   6.435
  980SOL     OW 3838   4.613   1.465   4.036
  980SOL    HW1 3839   4.525   1.512   4.037
  980SOL    HW2 3840   4.601   1.373   3.999
  981SOL     OW 3841   0.562   5.954   5.634
  981SOL    HW1 3842   0.638   5.989   5.689
  981SOL    HW2 3843   0.500   5.901   5.691
  982SOL     OW 3844   0.111   0.905   6.833
  982SOL    HW1 3845   0.178   0.875   6.765
  982SOL    HW2 3846   0.159   0.933   6.917
  983SOL     OW 3847   7.008   3.591   2.600
  983SOL    HW1 3848   6.958   3.639   2.672
  983SOL    HW2 3849   0.081   3.610   2.609
  984SOL     OW 3850   0.116   3.427   3.634
  984SOL    HW1 3851   0.034   3.407   3.689
  984SOL    HW2 3852   0.109   3.519   3.596
  985SOL     OW 3853   5.598   5.248   5.091
  985SOL    HW1 3854   5.565   5.205   5.007
  985SOL    HW2 3855   5.650   5.182   5.145
  986SOL     OW 3856   4.069   5.521   1.859
  986SOL    HW1 3857   4.021   5.554   1.777
  986SOL    HW2 3858   4.166   5.542   1.851
  987SOL     OW 3859   4.603   4.520   4.564
  987SOL    HW1 3860   4.684   4.548   4.512
  987SOL    HW2 3861   4.614   4.426   4.597
  988SOL     OW 3862   3.010   4.831   2.367
  988SOL    HW1 3863   2.920   4.788   2.357
  988SOL    HW2 3864   3.067   4.806   2.288
  989SOL     OW 3865   0.176   2.643   1.259
  989SOL    HW1 3866   0.237   2.710   1.217
  989SOL    HW2 3867   0.151   2.673   1.351
  990SOL     OW 3868   3.586   0.051   5.115
  990SOL    HW1 3869   3.625   0.083   5.028
  990SOL    HW2 3870   3.627   0.101   5.191
  991SOL     OW 3871   1.078   5.981   4.073
  991SOL    HW1 3872   1.148   6.040   4.113
  991SOL    HW2 3873   1.116   5.890   4.055
  992SOL     OW 3874   6.646   3.099   0.358
  992SOL    HW1 3875   6.715   3.156   0.402
  992SOL    HW2 3876   6.673   3.003   0.365
  993SOL     OW 3877   1.849   5.338   6.560
  993SOL    HW1 3878   1.867   5.436   6.548
  993SOL    HW2 3879   1.934   5.287   6.549
  994SOL     OW 3880   2.601   6.941   1.489
  994SOL    HW1 3881   2.629   0.007   1.457
  994SOL    HW2 3882   2.503   6.928   1.470
  995SOL     OW 3883   5.997   4.028   5.766
  995SOL    HW1 3884   5.954   4.039   5.676
  995SOL    HW2 3885   5.964   3.943   5.808
  996SOL     OW 3886   4.112   6.439   5.065
  996SOL    HW1 3887   4.193   6.387   5.040
  996SOL    HW2 3888   4.126   6.535   5.042
  997SOL     OW 3889   1.001   6.229   3.654
  997SOL    HW1 3890   0.994   6.302   3.721
  997SOL    HW2 3891   1.098   6.213   3.632
  998SOL     OW 3892   4.828   0.068   0.453
  998SOL    HW1 3893   4.812   0.102   0.360
  998SOL    HW2 3894   4.793   0.135   0.519
  999SOL     OW 3895   5.613   3.014   2.113
  999SOL    HW1 3896   5.638   2.948   2.042
  999SOL    HW2 3897   5.593   3.102   2.070
 1000SOL     OW 3898   5.545   1.984   1.940
 1000SOL    HW1 3899   5.636   1.945   1.950
 1000SOL    HW2 3900   5.535   2.061   2.004
 1001SOL     OW 3901   2.700   6.474   3.071
 1001SOL    HW1 3902   2.734   6.553   3.123
 1001SOL    HW2 3903   2.709   6.392   3.126
 1002SOL     OW 3904   3.786   2.291   0.720
 1002SOL    HW1 3905   3.838   2.364   0.674
 1002SOL    HW2 3906   3.791   2.208   0.666
 1003SOL     OW 3907   0.532   1.169   3.946
 1003SOL    HW1 3908   0.566   1.228   3.872
 1003SOL    HW2 3909   0.520   1.076   3.912
 1004SOL     OW 3910   4.991   1.632   4.322
 1004SOL    HW1 3911   4.968   1.629   4.419
 1004SOL    HW2 3912   5.049   1.711   4.304
 1005SOL     OW 3913   0.818   5.558   1.611
 1005SOL    HW1 3914   0.869   5.565   1.696
 1005SOL    HW2 3915   0.770   5.470   1.608
 1006SOL     OW 3916   2.188   4.524   1.468
 1006SOL    HW1 3917   2.272   4.471   1.478
 1006SOL    HW2 3918   2.109   4.462   1.465
 1007SOL     OW 3919   4.617   1.268   6.348
 1007SOL    HW1 3920   4.548   1.279   6.276
 1007SOL    HW2 3921   4.574   1.236   6.432
 1008SOL     OW 3922   0.244   4.765   4.939
 1008SOL    HW1 3923   0.161   4.724   4.899
 1008SOL    HW2 3924   0.323   4.739   4.885
 1009SOL     OW 3925   6.332   6.320   6.413
 1009SOL    HW1 3926   6.315   6.337   6.510
 1009SOL    HW2 3927   6.250   6.341   6.360
 1010SOL     OW 3928   2.960   3.816   0.522
 1010SOL    HW1 3929   3.020   3.890   0.553
 1010SOL    HW2 3930   2.927   3.765   0.601
 1011SOL     OW 3931   0.193   5.248   2.313
 1011SOL    HW1 3932   0.160   5.342   2.303
 1011SOL    HW2 3933   0.284   5.240   2.272
 1012SOL     OW 3934   5.506   6.345   3.111
 1012SOL    HW1 3935   5.576   6.410   3.082
 1012SOL    HW2 3936   5.540   6.290   3.187
 1013SOL     OW 3937   0.718   1.246   6.256
 1013SOL    HW1 3938   0.682   1.338   6.241
 1013SOL    HW2 3939   0.811   1.240   6.219
 1014SOL     OW 3940   0.707   4.650   4.247
 1014SOL    HW1 3941   0.759   4.602   4.176
 1014SOL    HW2 3942   0.716   4.748   4.235
 1015SOL     OW 3943   3.172   6.509   0.265
 1015SOL    HW1 3944   3.080   6.478   0.287
 1015SOL    HW2 3945   3.237   6.434   0.283
 1016SOL     OW 3946   6.976   4.801   0.584
 1016SOL    HW1 3947   6.954   4.866   0.511
 1016SOL    HW2 3948   0.050   4.801   0.601
 1017SOL     OW 3949   2.022   1.066   2.253
 1017SOL    HW1 3950   2.117   1.053   2.225
 1017SOL    HW2 3951   1.998   0.999   2.323
 1018SOL     OW 3952   5.687   6.145   5.159
 1018SOL    HW1 3953   5.713   6.237   5.130
 1018SOL    HW2 3954   5.621   6.108   5.094
 1019SOL     OW 3955   6.174   4.025   1.048
 1019SOL    HW1 3956   6.110   3.978   1.108
 1019SOL    HW2 3957   6.185   4.120   1.078
 1020SOL     OW 3958   5.592   1.459   1.601
 1020SOL    HW1 3959   5.534   1.493   1.676
 1020SOL    HW2 3960   5.592   1.359   1.602
 1021SOL     OW 3961   1.265   6.559   0.633
 1021SOL    HW1 3962   1.212   6.602   0.706
 1021SOL    HW2 3963   1.262   6.459   0.643
 1022SOL     OW 3964   2.100   5.225   6.479
 1022SOL    HW1 3965   2.118   5.156   6.409
 1022SOL    HW2 3966   2.083   5.181   6.566
 1023SOL     OW 3967   0.894   1.326   2.325
 1023SOL    HW1 3968   0.896   1.395   2.397
 1023SOL    HW2 3969   0.800   1.312   2.294
 1024SOL     OW 3970   1.939   2.430   4.581
 1024SOL    HW1 3971   1.969   2.518   4.543
 1024SOL    HW2 3972   1.984   2.415   4.669
 1025SOL     OW 3973   4.609   4.143   1.222
 1025SOL    HW1 3974   4.533   4.201   1.193
 1025SOL    HW2 3975   4.586   4.100   1.309
 1026SOL     OW 3976   3.261   2.855   1.931
 1026SOL    HW1 3977   3.219   2.780   1.880
 1026SOL    HW2 3978   3.191   2.917   1.963
 1027SOL     OW 3979   6.639   0.200   0.290
 1027SOL    HW1 3980   6.724   0.149   0.280
 1027SOL    HW2 3981   6.616   0.207   0.388
 1028SOL     OW 3982   0.822   4.886   3.129
 1028SOL    HW1 3983   0.884   4.944   3.076
 1028SOL    HW2 3984   0.831   4.908   3.226
 1029SOL     OW 3985   0.342   0.845   4.883
 1029SOL    HW1 3986   0.394   0.916   4.930
 1029SOL    HW2 3987   0.247   0.876   4.871
 1030SOL     OW 3988   4.111   3.645   0.990
 1030SOL    HW1 3989   4.189   3.707   0.998
 1030SOL    HW2 3990   4.141   3.560   0.947
 1031SOL     OW 3991   3.784   2.722   0.759
 1031SOL    HW1 3992   3.696   2.679   0.777
 1031SOL    HW2 3993   3.801   2.721   0.660
 1032SOL     OW 3994   1.594   1.356   1.075
 1032SOL    HW1 3995   1.580   1.397   0.985
 1032SOL    HW2 3996   1.518   1.380   1.136
 1033SOL     OW 3997   6.724   6.900   1.891
 1033SOL    HW1 3998   6.822   6.916   1.900
 1033SOL    HW2 3999   6.707   6.832   1.819
 1034SOL     OW 4000   2.835   0.840   5.066
 1034SOL    HW1 4001   2.900   0.887   5.006
 1034SOL    HW2 4002   2.884   0.782   5.131
 1035SOL     OW 4003   1.435   0.305   0.212
 1035SOL    HW1 4004   1.466   0.395   0.180
 1035SOL    HW2 4005   1.351   0.280   0.164
 1036SOL     OW 4006   5.068   1.506   2.339
 1036SOL    HW1 4007   5.026   1.416   2.331
 1036SOL    HW2 4008   5.015   1.572   2.285
 1037SOL     OW 4009   1.526   3.710   3.191
 1037SOL    HW1 4010   1.501   3.802   3.162
 1037SOL    HW2 4011   1.543   3.710   3.290
 1038SOL     OW 4012   2.112   6.319   0.388
 1038SOL    HW1 4013   2.106   6.324   0.289
 1038SOL    HW2 4014   2.149   6.404   0.424
 1039SOL     OW 4015   2.914   3.617   2.786
 1039SOL    HW1 4016   2.914   3.517   2.785
 1039SOL    HW2 4017   3.000   3.650   2.824
 1040SOL     OW 4018   3.576   1.326   2.610
 1040SOL    HW1 4019   3.539   1.398   2.668
 1040SOL    HW2 4020   3.644   1.273   2.661
 1041SOL     OW 4021   6.690   6.635   6.550
 1041SOL    HW1 4022   6.733   6.717   6.587
 1041SOL    HW2 4023   6.743   6.555   6.578
 1042SOL     OW 4024   5.325   3.658   4.051
 1042SOL    HW1 4025   5.387   3.594   4.005
 1042SOL    HW2 4026   5.236   3.615   4.064
 1043SOL     OW 4027   2.359   1.981   3.847
 1043SOL    HW1 4028   2.355   1.932   3.760
 1043SOL    HW2 4029   2.429   2.052   3.842
 1044SOL     OW 4030   5.998   4.636   2.316
 1044SOL    HW1 4031   6.031   4.662   2.406
 1044SOL    HW2 4032   6.038   4.698   2.247
 1045SOL     OW 4033   2.422   0.552   2.758
 1045SOL    HW1 4034   2.338   0.526   2.711
 1045SOL    HW2 4035   2.434   0.652   2.751
 1046SOL     OW 4036   2.863   2.535   0.681
 1046SOL    HW1 4037   2.903   2.548   0.772
 1046SOL    HW2 4038   2.772   2.574   0.678
 1047SOL     OW 4039   3.749   1.076   3.517
 1047SOL    HW1 4040   3.672   1.107   3.573
 1047SOL    HW2 4041   3.720   0.999   3.460
 1048SOL     OW 4042   0.750   6.961   2.196
 1048SOL    HW1 4043   0.845   6.934   2.186
 1048SOL    HW2 4044   0.720   7.009   2.113
 1049SOL     OW 4045   3.339   6.944   0.799
 1049SOL    HW1 4046   3.374   6.943   0.705
 1049SOL    HW2 4047   3.250   6.899   0.801
 1050SOL     OW 4048   2.327   1.504   4.539
 1050SOL    HW1 4049   2.247   1.550   4.578
 1050SOL    HW2 4050   2.296   1.428   4.482
 1051SOL     OW 4051   1.689   2.031   5.546
 1051SOL    HW1 4052   1.622   1.967   5.510
 1051SOL    HW2 4053   1.744   1.986   5.617
 1052SOL     OW 4054   4.313   2.205   6.363
 1052SOL    HW1 4055   4.356   2.292   6.337
 1052SOL    HW2 4056   4.217   2.220   6.384
 1053SOL     OW 4057   5.111   2.983   3.846
 1053SOL    HW1 4058   5.114   2.888   3.817
 1053SOL    HW2 4059   5.143   3.042   3.772
 1054SOL     OW 4060   4.839   5.557   6.490
 1054SOL    HW1 4061   4.841   5.564   6.391
 1054SOL    HW2 4062   4.744   5.545   6.521
 1055SOL     OW 4063   5.431   5.545   6.403
 1055SOL    HW1 4064   5.347   5.543   6.457
 1055SOL    HW2 4065   5.455   5.452   6.376
 1056SOL     OW 4066   3.772   3.919   0.629
 1056SOL    HW1 4067   3.853   3.884   0.582
 1056SOL    HW2 4068   3.692   3.865   0.603
 1057SOL     OW 4069   3.272   3.458   6.768
 1057SOL    HW1 4070   3.183   3.499   6.792
 1057SOL    HW2 4071   3.259   3.390   6.696
 1058SOL     OW 4072   2.970   2.114   2.002
 1058SOL    HW1 4073   2.926   2.204   2.001
 1058SOL    HW2 4074   3.063   2.122   1.965
 1059SOL     OW 4075   2.068   6.153   2.268
 1059SOL    HW1 4076   2.162   6.125   2.248
 1059SOL    HW2 4077   2.030   6.203   2.190
 1060SOL     OW 4078   6.121   0.488   5.827
 1060SOL    HW1 4079   6.186   0.526   5.893
 1060SOL    HW2 4080   6.118   0.388   5.837
 1061SOL     OW 4081   6.724   3.550   6.819
 1061SOL    HW1 4082   6.701   3.647   6.832
 1061SOL    HW2 4083   6.662   3.494   6.874
 1062SOL     OW 4084   3.167   4.690   5.563
 1062SOL    HW1 4085   3.131   4.729   5.648
 1062SOL    HW2 4086   3.100   4.627   5.525
 1063SOL     OW 4087   2.964   6.288   4.027
 1063SOL    HW1 4088   2.988   6.263   4.121
 1063SOL    HW2 4089   3.045   6.283   3.969
 1064SOL     OW 4090   1.141   4.056   0.496
 1064SOL    HW1 4091   1.091   4.026   0.415
 1064SOL    HW2 4092   1.141   3.983   0.564
 1065SOL     OW 4093   6.074   1.053   5.061
 1065SOL    HW1 4094   6.005   0.986   5.034
 1065SOL    HW2 4095   6.165   1.013   5.053
 1066SOL     OW 4096   4.691   6.173   0.794
 1066SOL    HW1 4097   4.762   6.237   0.766
 1066SOL    HW2 4098   4.733   6.094   0.839
 1067SOL     OW 4099   3.149   1.210   0.137
 1067SOL    HW1 4100   3.094   1.178   0.215
 1067SOL    HW2 4101   3.134   1.149   0.060
 1068SOL     OW 4102   6.082   3.124   1.659
 1068SOL    HW1 4103   6.063   3.028   1.639
 1068SOL    HW2 4104   6.012   3.181   1.616
 1069SOL     OW 4105   6.854   2.552   2.845
 1069SOL    HW1 4106   6.836   2.457   2.821
 1069SOL    HW2 4107   6.930   2.587   2.789
 1070SOL     OW 4108   0.714   0.781   2.315
 1070SOL    HW1 4109   0.774   0.726   2.374
 1070SOL    HW2 4110   0.748   0.875   2.311
 1071SOL     OW 4111   0.595   2.923   6.128
 1071SOL    HW1 4112   0.645   2.849   6.083
 1071SOL    HW2 4113   0.659   2.995   6.155
 1072SOL     OW 4114   2.402   1.349   1.759
 1072SOL    HW1 4115   2.409   1.442   1.721
 1072SOL    HW2 4116   2.470   1.290   1.715
 1073SOL     OW 4117   5.499   2.241   3.013
 1073SOL    HW1 4118   5.419   2.183   3.027
 1073SOL    HW2 4119   5.572   2.186   2.972
 1074SOL     OW 4120   3.445   5.589   1.811
 1074SOL    HW1 4121   3.540   5.617   1.801
 1074SOL    HW2 4122   3.441   5.492   1.836
 1075SOL     OW 4123   6.346   3.900   4.851
 1075SOL    HW1 4124   6.250   3.901   4.879
 1075SOL    HW2 4125   6.351   3.912   4.752
 1076SOL     OW 4126   2.129   4.198   5.278
 1076SOL    HW1 4127   2.228   4.217   5.282
 1076SOL    HW2 4128   2.110   4.138   5.200
 1077SOL     OW 4129   6.643   6.502   0.526
 1077SOL    HW1 4130   6.725   6.560   0.528
 1077SOL    HW2 4131   6.608   6.489   0.619
 1078SOL     OW 4132   5.592   6.823   4.301
 1078SOL    HW1 4133   5.557   6.904   4.346
 1078SOL    HW2 4134   5.588   6.835   4.202
 1079SOL     OW 4135   0.903   6.605   1.311
 1079SOL    HW1 4136   0.875   6.534   1.246
 1079SOL    HW2 4137   0.914   6.565   1.401
 1080SOL     OW 4138   4.717   5.691   0.432
 1080SOL    HW1 4139   4.742   5.776   0.385
 1080SOL    HW2 4140   4.696   5.620   0.364
 1081SOL     OW 4141   0.021   6.649   3.355
 1081SOL    HW1 4142   6.960   6.700   3.348
 1081SOL    HW2 4143   0.098   6.713   3.361
 1082SOL     OW 4144   4.382   0.253   0.082
 1082SOL    HW1 4145   4.468   0.301   0.064
 1082SOL    HW2 4146   4.401   0.163   0.122
 1083SOL     OW 4147   5.965   4.199   2.274
 1083SOL    HW1 4148   5.976   4.170   2.179
 1083SOL    HW2 4149   6.035   4.267   2.295
 1084SOL     OW 4150   4.657   0.767   5.123
 1084SOL    HW1 4151   4.686   0.674   5.101
 1084SOL    HW2 4152   4.569   0.764   5.171
 1085SOL     OW 4153   1.453   3.211   4.950
 1085SOL    HW1 4154   1.481   3.269   4.873
 1085SOL    HW2 4155   1.405   3.267   5.018
 1086SOL     OW 4156   5.793   4.740   1.846
 1086SOL    HW1 4157   5.752   4.649   1.842
 1086SOL    HW2 4158   5.732   4.802   1.895
 1087SOL     OW 4159   3.740   0.055   5.708
 1087SOL    HW1 4160   3.773   6.986   5.722
 1087SOL    HW2 4161   3.808   0.107   5.657
 1088SOL     OW 4162   6.951   5.157   4.700
 1088SOL    HW1 4163   6.871   5.107   4.731
 1088SOL    HW2 4164   7.003   5.101   4.636
 1089SOL     OW 4165   6.046   5.269   4.246
 1089SOL    HW1 4166   6.075   5.361   4.223
 1089SOL    HW2 4167   6.058   5.253   4.345
 1090SOL     OW 4168   5.627   2.524   4.915
 1090SOL    HW1 4169   5.548   2.502   4.856
 1090SOL    HW2 4170   5.669   2.609   4.882
 1091SOL     OW 4171   2.158   3.794   3.070
 1091SOL    HW1 4172   2.193   3.745   2.990
 1091SOL    HW2 4173   2.059   3.782   3.076
 1092SOL     OW 4174   1.266   6.292   0.690
 1092SOL    HW1 4175   1.193   6.239   0.648
 1092SOL    HW2 4176   1.275   6.266   0.787
 1093SOL     OW 4177   1.194   0.687   3.150
 1093SOL    HW1 4178   1.113   0.725   3.194
 1093SOL    HW2 4179   1.275   0.735   3.182
 1094SOL     OW 4180   0.477   0.098   3.047
 1094SOL    HW1 4181   0.462   0.004   3.079
 1094SOL    HW2 4182   0.576   0.113   3.036
 1095SOL     OW 4183   6.223   3.939   0.767
 1095SOL    HW1 4184   6.228   3.955   0.865
 1095SOL    HW2 4185   6.299   3.984   0.721
 1096SOL     OW 4186   2.135   5.789   2.145
 1096SOL    HW1 4187   2.082   5.839   2.214
 1096SOL    HW2 4188   2.194   5.722   2.190
 1097SOL     OW 4189   2.768   5.804   4.669
 1097SOL    HW1 4190   2.715   5.865   4.727
 1097SOL    HW2 4191   2.725   5.798   4.578
 1098SOL     OW 4192   6.574   4.122   6.943
 1098SOL    HW1 4193   6.638   4.046   6.953
 1098SOL    HW2 4194   6.613   4.192   6.883
 1099SOL     OW 4195   5.500   0.432   6.333
 1099SOL    HW1 4196   5.499   0.517   6.387
 1099SOL    HW2 4197   5.472   0.356   6.391
 1100SOL     OW 4198   4.599   1.450   4.477
 1100SOL    HW1 4199   4.676   1.391   4.501
 1100SOL    HW2 4200   4.527   1.396   4.434
 1101SOL     OW 4201   4.862   2.670   6.717
 1101SOL    HW1 4202   4.805   2.588   6.724
 1101SOL    HW2 4203   4.947   2.648   6.668
 1102SOL     OW 4204   3.056   0.680   3.874
 1102SOL    HW1 4205   3.062   0.605   3.809
 1102SOL    HW2 4206   3.015   0.648   3.959
 1103SOL     OW 4207   3.452   5.764   0.920
 1103SOL    HW1 4208   3.531   5.792   0.865
 1103SOL    HW2 4209   3.412   5.681   0.880
 1104SOL     OW 4210   6.507   1.529   3.467
 1104SOL    HW1 4211   6.555   1.615   3.452
 1104SOL    HW2 4212   6.453   1.534   3.550
 1105SOL     OW 4213   4.808   0.937   6.316
 1105SOL    HW1 4214   4.871   0.893   6.252
 1105SOL    HW2 4215   4.823   1.035   6.316
 1106SOL     OW 4216   6.013   1.852   1.797
 1106SOL    HW1 4217   5.947   1.884   1.864
 1106SOL    HW2 4218   5.983   1.878   1.705
 1107SOL     OW 4219   1.252   2.067   0.417
 1107SOL    HW1 4220   1.256   1.999   0.343
 1107SOL    HW2 4221   1.210   2.151   0.383
 1108SOL     OW 4222   2.216   1.467   3.474
 1108SOL    HW1 4223   2.194   1.562   3.451
 1108SOL    HW2 4224   2.133   1.412   3.471
 1109SOL     OW 4225   4.909   1.830   5.004
 1109SOL    HW1 4226   4.996   1.863   5.042
 1109SOL    HW2 4227   4.913   1.731   4.995
 1110SOL     OW 4228   1.146   0.737   2.560
 1110SOL    HW1 4229   1.209   0.770   2.630
 1110SOL    HW2 4230   1.179   0.650   2.524
 1111SOL     OW 4231   5.638   3.190   6.115
 1111SOL    HW1 4232   5.699   3.241   6.055
 1111SOL    HW2 4233   5.545   3.193   6.078
 1112SOL     OW 4234   5.814   0.588   2.389
 1112SOL    HW1 4235   5.849   0.534   2.466
 1112SOL    HW2 4236   5.877   0.663   2.370
 1113SOL     OW 4237   6.777   2.416   3.268
 1113SOL    HW1 4238   6.816   2.327   3.244
 1113SOL    HW2 4239   6.789   2.479   3.191
 1114SOL     OW 4240   3.389   3.390   5.059
 1114SOL    HW1 4241   3.403   3.291   5.069
 1114SOL    HW2 4242   3.442   3.423   4.981
 1115SOL     OW 4243   1.987   5.245   5.799
 1115SOL    HW1 4244   1.933   5.217   5.720
 1115SOL    HW2 4245   1.933   5.305   5.858
 1116SOL     OW 4246   4.461   0.048   0.347
 1116SOL    HW1 4247   4.398   0.001   0.284
 1116SOL    HW2 4248   4.555   0.036   0.314
 1117SOL     OW 4249   2.166   2.562   1.632
 1117SOL    HW1 4250   2.096   2.621   1.673
 1117SOL    HW2 4251   2.194   2.492   1.698
 1118SOL     OW 4252   4.853   6.801   0.094
 1118SOL    HW1 4253   4.850   6.790   7.019
 1118SOL    HW2 4254   4.936   6.760   0.130
 1119SOL     OW 4255   2.631   5.230   3.993
 1119SOL    HW1 4256   2.612   5.261   3.899
 1119SOL    HW2 4257   2.610   5.133   4.001
 1120SOL     OW 4258   6.846   3.373   1.330
 1120SOL    HW1 4259   6.811   3.458   1.291
 1120SOL    HW2 4260   6.939   3.388   1.363
 1121SOL     OW 4261   6.122   4.761   5.812
 1121SOL    HW1 4262   6.088   4.704   5.737
 1121SOL    HW2 4263   6.221   4.763   5.810
 1122SOL     OW 4264   6.091   1.055   1.792
 1122SOL    HW1 4265   6.138   1.088   1.874
 1122SOL    HW2 4266   6.128   1.102   1.711
 1123SOL     OW 4267   4.119   1.713   4.692
 1123SOL    HW1 4268   4.147   1.662   4.774
 1123SOL    HW2 4269   4.034   1.675   4.657
 1124SOL     OW 4270   2.224   2.744   3.798
 1124SOL    HW1 4271   2.251   2.724   3.892
 1124SOL    HW2 4272   2.294   2.712   3.735
 1125SOL     OW 4273   1.424   3.029   3.616
 1125SOL    HW1 4274   1.483   3.104   3.590
 1125SOL    HW2 4275   1.376   3.052   3.701
 1126SOL     OW 4276   4.551   4.814   3.982
 1126SOL    HW1 4277   4.511   4.802   4.073
 1126SOL    HW2 4278   4.515   4.744   3.920
 1127SOL     OW 4279   6.094   6.567   1.250
 1127SOL    HW1 4280   6.053   6.593   1.162
 1127SOL    HW2 4281   6.022   6.558   1.319
 1128SOL     OW 4282   4.219   1.650   5.261
 1128SOL    HW1 4283   4.164   1.645   5.344
 1128SOL    HW2 4284   4.310   1.610   5.279
 1129SOL     OW 4285   0.999   0.794   6.954
 1129SOL    HW1 4286   1.003   0.894   6.955
 1129SOL    HW2 4287   0.906   0.765   6.932
 1130SOL     OW 4288   2.369   5.351   1.610
 1130SOL    HW1 4289   2.286   5.338   1.664
 1130SOL    HW2 4290   2.352   5.421   1.540
 1131SOL     OW 4291   1.318   5.493   3.843
 1131SOL    HW1 4292   1.367   5.511   3.929
 1131SOL    HW2 4293   1.247   5.561   3.831
 1132SOL     OW 4294   1.242   1.674   2.986
 1132SOL    HW1 4295   1.173   1.701   2.919
 1132SOL    HW2 4296   1.332   1.671   2.942
 1133SOL     OW 4297   1.361   6.575   6.581
 1133SOL    HW1 4298   1.377   6.613   6.490
 1133SOL    HW2 4299   1.445   6.536   6.616
 1134SOL     OW 4300   4.884   5.628   0.637
 1134SOL    HW1 4301   4.821   5.652   0.562
 1134SOL    HW2 4302   4.831   5.601   0.717
 1135SOL     OW 4303   1.730   0.455   3.070
 1135SOL    HW1 4304   1.640   0.468   3.028
 1135SOL    HW2 4305   1.798   0.512   3.023
 1136SOL     OW 4306   1.245   4.686   2.454
 1136SOL    HW1 4307   1.197   4.674   2.541
 1136SOL    HW2 4308   1.337   4.723   2.471
 1137SOL     OW 4309   0.964   5.310   4.571
 1137SOL    HW1 4310   0.993   5.319   4.666
 1137SOL    HW2 4311   0.996   5.222   4.534
 1138SOL     OW 4312   1.804   3.909   4.625
 1138SOL    HW1 4313   1.902   3.913   4.642
 1138SOL    HW2 4314   1.756   3.881   4.708
 1139SOL     OW 4315   2.946   5.877   4.996
 1139SOL    HW1 4316   2.903   5.958   4.956
 1139SOL    HW2 4317   2.997   5.827   4.926
 1140SOL     OW 4318   2.419   2.608   1.493
 1140SOL    HW1 4319   2.326   2.603   1.530
 1140SOL    HW2 4320   2.469   2.526   1.519
 1141SOL     OW 4321   6.277   4.960   5.440
 1141SOL    HW1 4322   6.205   4.994   5.500
 1141SOL    HW2 4323   6.363   5.007   5.460
 1142SOL     OW 4324   0.941   5.767   2.979
 1142SOL    HW1 4325   0.988   5.817   3.052
 1142SOL    HW2 4326   0.943   5.669   2.999
 1143SOL     OW 4327   6.695   4.489   1.472
 1143SOL    HW1 4328   6.681   4.391   1.463
 1143SOL    HW2 4329   6.694   4.532   1.382
 1144SOL     OW 4330   5.063   4.446   0.693
 1144SOL    HW1 4331   5.096   4.539   0.711
 1144SOL    HW2 4332   5.031   4.440   0.599
 1145SOL     OW 4333   6.227   6.892   0.649
 1145SOL    HW1 4334   6.185   6.811   0.608
 1145SOL    HW2 4335   6.319   6.904   0.612
 1146SOL     OW 4336   1.631   1.098   1.439
 1146SOL    HW1 4337   1.666   1.155   1.513
 1146SOL    HW2 4338   1.531   1.099   1.441
 1147SOL     OW 4339   2.177   6.508   1.133
 1147SOL    HW1 4340   2.119   6.537   1.056
 1147SOL    HW2 4341   2.120   6.489   1.213
 1148SOL     OW 4342   3.705   6.133   2.190
 1148SOL    HW1 4343   3.625   6.087   2.151
 1148SOL    HW2 4344   3.690   6.149   2.287
 1149SOL     OW 4345   5.284   2.295   1.424
 1149SOL    HW1 4346   5.297   2.373   1.485
 1149SOL    HW2 4347   5.197   2.250   1.446
 1150SOL     OW 4348   1.085   2.453   0.959
 1150SOL    HW1 4349   1.182   2.436   0.941
 1150SOL    HW2 4350   1.077   2.528   1.024
 1151SOL     OW 4351   5.607   5.227   4.001
 1151SOL    HW1 4352   5.643   5.209   3.910
 1151SOL    HW2 4353   5.667   5.188   4.071
 1152SOL     OW 4354   3.957   6.413   6.147
 1152SOL    HW1 4355   4.047   6.452   6.166
 1152SOL    HW2 4356   3.950   6.323   6.190
 1153SOL     OW 4357   5.543   6.625   1.322
 1153SOL    HW1 4358   5.541   6.725   1.325
 1153SOL    HW2 4359   5.615   6.595   1.259
 1154SOL     OW 4360   1.610   3.352   0.882
 1154SOL    HW1 4361   1.676   3.310   0.820
 1154SOL    HW2 4362   1.518   3.343   0.844
 1155SOL     OW 4363   3.289   5.766   3.660
 1155SOL    HW1 4364   3.277   5.682   3.607
 1155SOL    HW2 4365   3.334   5.745   3.747
 1156SOL     OW 4366   2.622   1.138   1.839
 1156SOL    HW1 4367   2.642   1.040   1.832
 1156SOL    HW2 4368   2.637   1.181   1.750
 1157SOL     OW 4369   2.751   2.043   0.358
 1157SOL    HW1 4370   2.808   1.982   0.302
 1157SOL    HW2 4371   2.748   2.008   0.452
 1158SOL     OW 4372   5.476   4.764   3.920
 1158SOL    HW1 4373   5.458   4.862   3.912
 1158SOL    HW2 4374   5.405   4.722   3.976
 1159SOL     OW 4375   5.743   4.829   0.484
 1159SOL    HW1 4376   5.842   4.819   0.499
 1159SOL    HW2 4377   5.728   4.905   0.420
 1160SOL     OW 4378   4.418   2.037   0.486
 1160SOL    HW1 4379   4.511   2.074   0.484
 1160SOL    HW2 4380   4.398   2.003   0.578
 1161SOL     OW 4381   6.586   5.079   0.856
 1161SOL    HW1 4382   6.522   5.083   0.932
 1161SOL    HW2 4383   6.562   5.003   0.796
 1162SOL     OW 4384   2.575   2.359   4.791
 1162SOL    HW1 4385   2.595   2.275   4.741
 1162SOL    HW2 4386   2.621   2.356   4.880
 1163SOL     OW 4387   5.286   2.090   1.885
 1163SOL    HW1 4388   5.376   2.046   1.886
 1163SOL    HW2 4389   5.240   2.071   1.798
 1164SOL     OW 4390   4.457   2.108   5.545
 1164SOL    HW1 4391   4.391   2.183   5.536
 1164SOL    HW2 4392   4.461   2.079   5.641
 1165SOL     OW 4393   4.503   0.232   3.528
 1165SOL    HW1 4394   4.523   0.328   3.508
 1165SOL    HW2 4395   4.420   0.227   3.584
 1166SOL     OW 4396   3.747   4.052   6.296
 1166SOL    HW1 4397   3.738   4.143   6.255
 1166SOL    HW2 4398   3.725   4.057   6.394
 1167SOL     OW 4399   5.209   4.527   2.965
 1167SOL    HW1 4400   5.147   4.599   2.997
 1167SOL    HW2 4401   5.240   4.472   3.042
 1168SOL     OW 4402   0.519   6.921   0.989
 1168SOL    HW1 4403   0.512   6.858   0.911
 1168SOL    HW2 4404   0.447   6.900   1.056
 1169SOL     OW 4405   4.843   1.653   5.403
 1169SOL    HW1 4406   4.794   1.738   5.383
 1169SOL    HW2 4407   4.941   1.672   5.410
 1170SOL     OW 4408   5.112   4.616   2.424
 1170SOL    HW1 4409   5.138   4.640   2.518
 1170SOL    HW2 4410   5.014   4.597   2.421
 1171SOL     OW 4411   0.622   6.235   0.718
 1171SOL    HW1 4412   0.593   6.174   0.644
 1171SOL    HW2 4413   0.569   6.320   0.714
 1172SOL     OW 4414   5.759   3.147   0.024
 1172SOL    HW1 4415   5.688   3.077   0.012
 1172SOL    HW2 4416   5.758   3.209   6.970
 1173SOL     OW 4417   4.033   2.556   0.915
 1173SOL    HW1 4418   4.031   2.642   0.967
 1173SOL    HW2 4419   3.963   2.494   0.950
 1174SOL     OW 4420   2.536   4.800   0.373
 1174SOL    HW1 4421   2.542   4.871   0.444
 1174SOL    HW2 4422   2.513   4.712   0.415
 1175SOL     OW 4423   3.316   3.991   4.168
 1175SOL    HW1 4424   3.232   3.938   4.177
 1175SOL    HW2 4425   3.320   4.034   4.078
 1176SOL     OW 4426   5.544   2.896   6.736
 1176SOL    HW1 4427   5.464   2.836   6.728
 1176SOL    HW2 4428   5.611   2.873   6.665
 1177SOL     OW 4429   0.914   1.822   5.264
 1177SOL    HW1 4430   0.831   1.871   5.293
 1177SOL    HW2 4431   0.954   1.868   5.185
 1178SOL     OW 4432   4.586   6.732   0.206
 1178SOL    HW1 4433   4.562   6.681   0.124
 1178SOL    HW2 4434   4.666   6.788   0.189
 1179SOL     OW 4435   0.094   5.848   0.674
 1179SOL    HW1 4436   0.112   5.753   0.697
 1179SOL    HW2 4437   0.083   5.857   0.575
 1180SOL     OW 4438   3.699   6.415   0.538
 1180SOL    HW1 4439   3.612   6.465   0.543
 1180SOL    HW2 4440   3.766   6.469   0.487
 1181SOL     OW 4441   6.597   6.318   6.345
 1181SOL    HW1 4442   6.611   6.273   6.257
 1181SOL    HW2 4443   6.502   6.348   6.353
 1182SOL     OW 4444   4.894   3.738   3.449
 1182SOL    HW1 4445   4.844   3.811   3.496
 1182SOL    HW2 4446   4.966   3.778   3.392
 1183SOL     OW 4447   2.080   4.672   6.709
 1183SOL    HW1 4448   2.106   4.753   6.761
 1183SOL    HW2 4449   1.983   4.652   6.723
 1184SOL     OW 4450   0.319   0.650   5.436
 1184SOL    HW1 4451   0.376   0.577   5.398
 1184SOL    HW2 4452   0.361   0.739   5.416
 1185SOL     OW 4453   6.308   1.698   6.850
 1185SOL    HW1 4454   6.310   1.716   6.949
 1185SOL    HW2 4455   6.357   1.770   6.802
 1186SOL     OW 4456   5.667   6.715   4.592
 1186SOL    HW1 4457   5.758   6.674   4.602
 1186SOL    HW2 4458   5.649   6.734   4.495
 1187SOL     OW 4459   6.600   2.085   6.139
 1187SOL    HW1 4460   6.700   2.081   6.134
 1187SOL    HW2 4461   6.564   1.992   6.145
 1188SOL     OW 4462   4.109   1.680   6.614
 1188SOL    HW1 4463   4.143   1.702   6.522
 1188SOL    HW2 4464   4.057   1.758   6.650
 1189SOL     OW 4465   5.784   3.495   3.767
 1189SOL    HW1 4466   5.745   3.585   3.748
 1189SOL    HW2 4467   5.835   3.498   3.853
 1190SOL     OW 4468   3.155   0.235   3.791
 1190SOL    HW1 4469   3.090   0.311   3.796
 1190SOL    HW2 4470   3.183   0.209   3.884
 1191SOL     OW 4471   3.539   6.390   2.764
 1191SOL    HW1 4472   3.548   6.487   2.789
 1191SOL    HW2 4473   3.498   6.340   2.840
 1192SOL     OW 4474   6.509   5.610   3.593
 1192SOL    HW1 4475   6.539   5.635   3.685
 1192SOL    HW2 4476   6.410   5.599   3.591
 1193SOL     OW 4477   6.558   5.793   4.487
 1193SOL    HW1 4478   6.534   5.871   4.544
 1193SOL    HW2 4479   6.652   5.804   4.454
 1194SOL     OW 4480   3.629   0.293   1.065
 1194SOL    HW1 4481   3.596   0.221   1.004
 1194SOL    HW2 4482   3.714   0.263   1.109
 1195SOL     OW 4483   5.004   2.773   2.913
 1195SOL    HW1 4484   5.006   2.747   2.816
 1195SOL    HW2 4485   4.920   2.824   2.932
 1196SOL     OW 4486   0.164   6.619   5.177
 1196SOL    HW1 4487   0.069   6.587   5.186
 1196SOL    HW2 4488   0.206   6.578   5.096
 1197SOL     OW 4489   1.963   6.165   0.529
 1197SOL    HW1 4490   2.027   6.212   0.467
 1197SOL    HW2 4491   1.966   6.207   0.619
 1198SOL     OW 4492   1.617   2.399   6.936
 1198SOL    HW1 4493   1.533   2.346   6.942
 1198SOL    HW2 4494   1.692   2.348   6.977
 1199SOL     OW 4495   6.065   3.898   2.175
 1199SOL    HW1 4496   6.067   3.926   2.271
 1199SOL    HW2 4497   6.081   3.799   2.168
 1200SOL     OW 4498   3.458   4.100   2.733
 1200SOL    HW1 4499   3.548   4.057   2.744
 1200SOL    HW2 4500   3.418   4.116   2.824
 1201SOL     OW 4501   1.322   2.416   4.967
 1201SOL    HW1 4502   1.303   2.403   4.870
 1201SOL    HW2 4503   1.383   2.344   4.999
 1202SOL     OW 4504   1.045   5.614   5.180
 1202SOL    HW1 4505   1.089   5.528   5.153
 1202SOL    HW2 4506   1.107   5.665   5.239
 1203SOL     OW 4507   4.084   6.217   5.373
 1203SOL    HW1 4508   4.158   6.173   5.323
 1203SOL    HW2 4509   4.023   6.263   5.307
 1204SOL     OW 4510   1.911   6.840   3.173
 1204SOL    HW1 4511   1.916   6.902   3.094
 1204SOL    HW2 4512   1.825   6.789   3.170
 1205SOL     OW 4513   5.846   3.848   1.926
 1205SOL    HW1 4514   5.801   3.785   1.990
 1205SOL    HW2 4515   5.800   3.937   1.929
 1206SOL     OW 4516   3.220   3.454   4.378
 1206SOL    HW1 4517   3.232   3.454   4.477
 1206SOL    HW2 4518   3.128   3.420   4.355
 1207SOL     OW 4519   1.181   6.102   2.995
 1207SOL    HW1 4520   1.106   6.166   2.978
 1207SOL    HW2 4521   1.149   6.029   3.055
 1208SOL     OW 4522   3.406   3.277   6.531
 1208SOL    HW1 4523   3.381   3.181   6.541
 1208SOL    HW2 4524   3.411   3.300   6.433
 1209SOL     OW 4525   3.869   6.438   5.200
 1209SOL    HW1 4526   3.965   6.444   5.171
 1209SOL    HW2 4527   3.812   6.412   5.122
 1210SOL     OW 4528   3.164   0.893   2.723
 1210SOL    HW1 4529   3.184   0.991   2.713
 1210SOL    HW2 4530   3.108   0.878   2.804
 1211SOL     OW 4531   0.855   2.748   0.371
 1211SOL    HW1 4532   0.890   2.730   0.279
 1211SOL    HW2 4533   0.784   2.681   0.392
 1212SOL     OW 4534   1.126   6.936   0.070
 1212SOL    HW1 4535   1.050   6.889   0.026
 1212SOL    HW2 4536   1.094   6.983   0.152
 1213SOL     OW 4537   5.678   3.187   1.099
 1213SOL    HW1 4538   5.594   3.239   1.112
 1213SOL    HW2 4539   5.717   3.208   1.009
 1214SOL     OW 4540   6.971   2.461   2.563
 1214SOL    HW1 4541   6.903   2.412   2.617
 1214SOL    HW2 4542   0.015   2.501   2.624
 1215SOL     OW 4543   2.021   6.066   3.158
 1215SOL    HW1 4544   1.978   6.107   3.078
 1215SOL    HW2 4545   1.956   6.007   3.205
 1216SOL     OW 4546   3.914   7.005   1.878
 1216SOL    HW1 4547   3.936   6.996   1.975
 1216SOL    HW2 4548   3.876   0.071   1.860
 1217SOL     OW 4549   2.785   3.871   6.745
 1217SOL    HW1 4550   2.734   3.944   6.790
 1217SOL    HW2 4551   2.790   3.889   6.647
 1218SOL     OW 4552   2.585   5.053   3.582
 1218SOL    HW1 4553   2.523   5.019   3.652
 1218SOL    HW2 4554   2.680   5.037   3.610
 1219SOL     OW 4555   4.003   5.857   1.934
 1219SOL    HW1 4556   4.000   5.758   1.923
 1219SOL    HW2 4557   3.936   5.901   1.874
 1220SOL     OW 4558   0.564   4.692   1.746
 1220SOL    HW1 4559   0.531   4.624   1.812
 1220SOL    HW2 4560   0.631   4.751   1.792
 1221SOL     OW 4561   4.340   4.728   6.536
 1221SOL    HW1 4562   4.303   4.637   6.522
 1221SOL    HW2 4563   4.373   4.737   6.630
 1222SOL     OW 4564   6.695   0.987   6.709
 1222SOL    HW1 4565   6.596   0.979   6.720
 1222SOL    HW2 4566   6.716   1.055   6.638
 1223SOL     OW 4567   3.777   6.644   1.370
 1223SOL    HW1 4568   3.801   6.720   1.430
 1223SOL    HW2 4569   3.843   6.570   1.381
 1224SOL     OW 4570   3.004   1.194   1.583
 1224SOL    HW1 4571   3.021   1.202   1.681
 1224SOL    HW2 4572   3.066   1.126   1.544
 1225SOL     OW 4573   3.102   3.570   6.111
 1225SOL    HW1 4574   3.101   3.666   6.136
 1225SOL    HW2 4575   3.150   3.559   6.024
 1226SOL     OW 4576   2.206   5.074   0.435
 1226SOL    HW1 4577   2.112   5.059   0.404
 1226SOL    HW2 4578   2.206   5.144   0.507
 1227SOL     OW 4579   1.183   4.211   6.118
 1227SOL    HW1 4580   1.110   4.157   6.159
 1227SOL    HW2 4581   1.262   4.212   6.179
 1228SOL     OW 4582   3.975   1.958   0.044
 1228SOL    HW1 4583   4.055   1.901   0.064
 1228SOL    HW2 4584   3.943   1.937   6.976
 1229SOL     OW 4585   3.369   3.692   6.374
 1229SOL    HW1 4586   3.436   3.757   6.338
 1229SOL    HW2 4587   3.321   3.733   6.452
 1230SOL     OW 4588   4.382   0.658   3.971
 1230SOL    HW1 4589   4.357   0.746   3.930
 1230SOL    HW2 4590   4.354   0.584   3.910
 1231SOL     OW 4591   0.877   3.396   4.249
 1231SOL    HW1 4592   0.882   3.352   4.159
 1231SOL    HW2 4593   0.871   3.495   4.236
 1232SOL     OW 4594   2.044   3.036   2.944
 1232SOL    HW1 4595   2.099   2.983   2.879
 1232SOL    HW2 4596   2.103   3.097   2.996
 1233SOL     OW 4597   0.565   2.488   4.228
 1233SOL    HW1 4598   0.592   2.395   4.252
 1233SOL    HW2 4599   0.627   2.553   4.271
 1234SOL     OW 4600   6.300   4.675   4.390
 1234SOL    HW1 4601   6.384   4.728   4.395
 1234SOL    HW2 4602   6.276   4.658   4.294
 1235SOL     OW 4603   6.894   5.358   3.593
 1235SOL    HW1 4604   6.794   5.360   3.593
 1235SOL    HW2 4605   6.926   5.327   3.683
 1236SOL     OW 4606   5.486   0.832   6.543
 1236SOL    HW1 4607   5.440   0.743   6.538
 1236SOL    HW2 4608   5.479   0.878   6.455
 1237SOL     OW 4609   1.852   4.710   6.111
 1237SOL    HW1 4610   1.773   4.736   6.055
 1237SOL    HW2 4611   1.920   4.783   6.107
 1238SOL     OW 4612   1.819   1.669   0.863
 1238SOL    HW1 4613   1.871   1.584   0.853
 1238SOL    HW2 4614   1.724   1.647   0.886
 1239SOL     OW 4615   1.179   0.323   5.975
 1239SOL    HW1 4616   1.246   0.295   5.906
 1239SOL    HW2 4617   1.092   0.343   5.930
 1240SOL     OW 4618   5.235   5.522   0.663
 1240SOL    HW1 4619   5.325   5.512   0.705
 1240SOL    HW2 4620   5.188   5.434   0.665
 1241SOL     OW 4621   0.273   2.195   4.677
 1241SOL    HW1 4622   0.283   2.096   4.670
 1241SOL    HW2 4623   0.358   2.235   4.710
 1242SOL     OW 4624   2.112   2.243   6.603
 1242SOL    HW1 4625   2.032   2.211   6.552
 1242SOL    HW2 4626   2.091   2.328   6.650
 1243SOL     OW 4627   2.515   4.985   5.160
 1243SOL    HW1 4628   2.475   4.981   5.068
 1243SOL    HW2 4629   2.494   4.901   5.210
 1244SOL     OW 4630   0.450   1.953   2.942
 1244SOL    HW1 4631   0.495   2.022   2.884
 1244SOL    HW2 4632   0.374   1.996   2.991
 1245SOL     OW 4633   2.906   2.832   5.566
 1245SOL    HW1 4634   2.998   2.802   5.589
 1245SOL    HW2 4635   2.905   2.874   5.475
 1246SOL     OW 4636   1.291   6.413   1.273
 1246SOL    HW1 4637   1.383   6.397   1.235
 1246SOL    HW2 4638   1.299   6.445   1.367
 1247SOL     OW 4639   1.065   6.497   6.435
 1247SOL    HW1 4640   1.138   6.539   6.489
 1247SOL    HW2 4641   1.031   6.563   6.368
 1248SOL     OW 4642   2.418   6.930   3.919
 1248SOL    HW1 4643   2.383   6.904   3.829
 1248SOL    HW2 4644   2.509   6.891   3.932
 1249SOL     OW 4645   5.694   2.883   2.975
 1249SOL    HW1 4646   5.625   2.828   2.929
 1249SOL    HW2 4647   5.780   2.832   2.979
 1250SOL     OW 4648   0.291   3.353   4.423
 1250SOL    HW1 4649   0.337   3.343   4.334
 1250SOL    HW2 4650   0.326   3.285   4.487
 1251SOL     OW 4651   3.159   0.530   6.490
 1251SOL    HW1 4652   3.181   0.624   6.466
 1251SOL    HW2 4653   3.219   0.467   6.441
 1252SOL     OW 4654   3.387   3.944   0.265
 1252SOL    HW1 4655   3.304   3.976   0.311
 1252SOL    HW2 4656   3.366   3.863   0.210
 1253SOL     OW 4657   4.874   1.234   3.026
 1253SOL    HW1 4658   4.805   1.235   3.098
 1253SOL    HW2 4659   4.959   1.274   3.060
 1254SOL     OW 4660   5.381   0.968   3.624
 1254SOL    HW1 4661   5.460   0.945   3.681
 1254SOL    HW2 4662   5.301   0.984   3.683
 1255SOL     OW 4663   5.960   0.228   1.675
 1255SOL    HW1 4664   6.040   0.253   1.730
 1255SOL    HW2 4665   5.948   0.129   1.678
 1256SOL     OW 4666   4.743   2.502   3.815
 1256SOL    HW1 4667   4.648   2.473   3.816
 1256SOL    HW2 4668   4.756   2.577   3.880
 1257SOL     OW 4669   5.950   1.078   4.372
 1257SOL    HW1 4670   5.910   1.116   4.455
 1257SOL    HW2 4671   5.881   1.026   4.322
 1258SOL     OW 4672   0.065   5.269   3.406
 1258SOL    HW1 4673   0.055   5.290   3.309
 1258SOL    HW2 4674   7.001   5.276   3.451
 1259SOL     OW 4675   5.121   2.063   4.754
 1259SOL    HW1 4676   5.040   2.119   4.774
 1259SOL    HW2 4677   5.092   1.969   4.733
 1260SOL     OW 4678   0.505   1.775   5.118
 1260SOL    HW1 4679   0.511   1.734   5.209
 1260SOL    HW2 4680   0.508   1.875   5.126
 1261SOL     OW 4681   6.761   3.582   1.191
 1261SOL    HW1 4682   6.818   3.526   1.130
 1261SOL    HW2 4683   6.749   3.673   1.151
 1262SOL     OW 4684   5.000   6.266   2.109
 1262SOL    HW1 4685   5.097   6.289   2.101
 1262SOL    HW2 4686   4.945   6.333   2.059
 1263SOL     OW 4687   0.526   1.939   3.247
 1263SOL    HW1 4688   0.455   1.881   3.287
 1263SOL    HW2 4689   0.585   1.883   3.189
 1264SOL     OW 4690   0.781   2.721   5.263
 1264SOL    HW1 4691   0.867   2.753   5.225
 1264SOL    HW2 4692   0.796   2.686   5.356
 1265SOL     OW 4693   5.789   0.135   5.336
 1265SOL    HW1 4694   5.872   0.146   5.391
 1265SOL    HW2 4695   5.709   0.156   5.393
 1266SOL     OW 4696   3.366   1.483   5.124
 1266SOL    HW1 4697   3.386   1.537   5.205
 1266SOL    HW2 4698   3.268   1.460   5.122
 1267SOL     OW 4699   3.048   0.346   2.010
 1267SOL    HW1 4700   3.014   0.378   1.921
 1267SOL    HW2 4701   2.970   0.327   2.070
 1268SOL     OW 4702   4.168   2.170   5.291
 1268SOL    HW1 4703   4.184   2.072   5.304
 1268SOL    HW2 4704   4.218   2.220   5.362
 1269SOL     OW 4705   5.503   1.925   3.669
 1269SOL    HW1 4706   5.499   1.854   3.599
 1269SOL    HW2 4707   5.433   1.908   3.739
 1270SOL     OW 4708   6.276   5.362   2.917
 1270SOL    HW1 4709   6.250   5.283   2.972
 1270SOL    HW2 4710   6.322   5.430   2.974
 1271SOL     OW 4711   1.714   0.872   1.876
 1271SOL    HW1 4712   1.655   0.888   1.955
 1271SOL    HW2 4713   1.803   0.915   1.891
 1272SOL     OW 4714   6.251   2.529   0.820
 1272SOL    HW1 4715   6.238   2.566   0.912
 1272SOL    HW2 4716   6.307   2.446   0.826
 1273SOL     OW 4717   1.811   4.156   5.515
 1273SOL    HW1 4718   1.742   4.158   5.588
 1273SOL    HW2 4719   1.867   4.239   5.521
 1274SOL     OW 4720   0.216   4.099   4.130
 1274SOL    HW1 4721   0.142   4.157   4.095
 1274SOL    HW2 4722   0.184   4.005   4.134
 1275SOL     OW 4723   1.663   1.602   2.924
 1275SOL    HW1 4724   1.660   1.643   2.833
 1275SOL    HW2 4725   1.679   1.674   2.992
 1276SOL     OW 4726   5.791   4.420   3.775
 1276SOL    HW1 4727   5.798   4.374   3.686
 1276SOL    HW2 4728   5.738   4.504   3.764
 1277SOL     OW 4729   1.647   6.138   6.576
 1277SOL    HW1 4730   1.736   6.178   6.595
 1277SOL    HW2 4731   1.659   6.052   6.526
 1278SOL     OW 4732   0.269   6.096   2.536
 1278SOL    HW1 4733   0.176   6.082   2.569
 1278SOL    HW2 4734   0.267   6.138   2.445
 1279SOL     OW 4735   2.820   3.236   0.755
 1279SOL    HW1 4736   2.910   3.273   0.778
 1279SOL    HW2 4737   2.778   3.291   0.683
 1280SOL     OW 4738   2.542   2.483   3.854
 1280SOL    HW1 4739   2.488   2.464   3.935
 1280SOL    HW2 4740   2.629   2.525   3.880
 1281SOL     OW 4741   5.085   6.273   5.346
 1281SOL    HW1 4742   5.022   6.338   5.304
 1281SOL    HW2 4743   5.150   6.323   5.404
 1282SOL     OW 4744   0.958   2.816   1.143
 1282SOL    HW1 4745   0.912   2.890   1.192
 1282SOL    HW2 4746   0.896   2.739   1.131
 1283SOL     OW 4747   0.526   1.187   4.417
 1283SOL    HW1 4748   0.457   1.149   4.355
 1283SOL    HW2 4749   0.590   1.244   4.365
 1284SOL     OW 4750   3.834   2.153   1.746
 1284SOL    HW1 4751   3.786   2.210   1.812
 1284SOL    HW2 4752   3.910   2.106   1.791
 1285SOL     OW 4753   4.341   1.780   4.558
 1285SOL    HW1 4754   4.258   1.787   4.614
 1285SOL    HW2 4755   4.317   1.741   4.468
 1286SOL     OW 4756   4.775   1.065   2.160
 1286SOL    HW1 4757   4.848   1.133   2.161
 1286SOL    HW2 4758   4.687   1.111   2.142
 1287SOL     OW 4759   5.001   5.063   6.391
 1287SOL    HW1 4760   5.039   5.102   6.475
 1287SOL    HW2 4761   5.073   5.017   6.340
 1288SOL     OW 4762   4.505   4.314   6.532
 1288SOL    HW1 4763   4.566   4.314   6.611
 1288SOL    HW2 4764   4.424   4.369   6.552
 1289SOL     OW 4765   0.917   6.762   0.528
 1289SOL    HW1 4766   0.971   6.769   0.611
 1289SOL    HW2 4767   0.946   6.683   0.475
 1290SOL     OW 4768   1.469   6.707   5.134
 1290SOL    HW1 4769   1.541   6.675   5.073
 1290SOL    HW2 4770   1.445   6.801   5.112
 1291SOL     OW 4771   5.581   5.337   3.609
 1291SOL    HW1 4772   5.638   5.350   3.527
 1291SOL    HW2 4773   5.486   5.326   3.582
 1292SOL     OW 4774   0.437   6.697   2.909
 1292SOL    HW1 4775   0.405   6.660   2.822
 1292SOL    HW2 4776   0.502   6.771   2.892
 1293SOL     OW 4777   5.260   0.110   1.090
 1293SOL    HW1 4778   5.178   0.076   1.044
 1293SOL    HW2 4779   5.244   0.112   1.189
 1294SOL     OW 4780   2.063   4.614   5.453
 1294SOL    HW1 4781   1.989   4.673   5.421
 1294SOL    HW2 4782   2.137   4.670   5.491
 1295SOL     OW 4783   0.284   4.607   0.421
 1295SOL    HW1 4784   0.278   4.698   0.462
 1295SOL    HW2 4785   0.217   4.600   0.347
 1296SOL     OW 4786   4.646   0.394   5.753
 1296SOL    HW1 4787   4.666   0.474   5.809
 1296SOL    HW2 4788   4.549   0.394   5.728
 1297SOL     OW 4789   6.499   6.872   6.810
 1297SOL    HW1 4790   6.509   6.955   6.865
 1297SOL    HW2 4791   6.482   6.795   6.871
 1298SOL     OW 4792   5.455   0.507   3.185
 1298SOL    HW1 4793   5.363   0.530   3.216
 1298SOL    HW2 4794   5.512   0.589   3.187
 1299SOL     OW 4795   1.146   4.384   4.708
 1299SOL    HW1 4796   1.149   4.317   4.634
 1299SOL    HW2 4797   1.238   4.417   4.727
 1300SOL     OW 4798   1.546   5.421   0.084
 1300SOL    HW1 4799   1.510   5.425   0.178
 1300SOL    HW2 4800   1.552   5.513   0.047
 1301SOL     OW 4801   6.143   1.170   0.280
 1301SOL    HW1 4802   6.050   1.204   0.272
 1301SOL    HW2 4803   6.141   1.072   0.303
 1302SOL     OW 4804   6.917   0.001   4.988
 1302SOL    HW1 4805   6.947   6.996   4.898
 1302SOL    HW2 4806   6.955   6.964   5.057
 1303SOL     OW 4807   3.223   6.649   1.425
 1303SOL    HW1 4808   3.175   6.726   1.383
 1303SOL    HW2 4809   3.322   6.660   1.412
 1304SOL     OW 4810   0.095   0.361   0.187
 1304SOL    HW1 4811   0.171   0.404   0.138
 1304SOL    HW2 4812   0.009   0.400   0.154
 1305SOL     OW 4813   4.340   3.876   5.977
 1305SOL    HW1 4814   4.386   3.887   5.890
 1305SOL    HW2 4815   4.379   3.940   6.044
 1306SOL     OW 4816   2.882   6.018   4.461
 1306SOL    HW1 4817   2.811   5.947   4.457
 1306SOL    HW2 4818   2.972   5.974   4.463
 1307SOL     OW 4819   2.132   3.182   4.205
 1307SOL    HW1 4820   2.061   3.115   4.227
 1307SOL    HW2 4821   2.148   3.240   4.285
 1308SOL     OW 4822   6.830   3.728   6.369
 1308SOL    HW1 4823   6.789   3.746   6.458
 1308SOL    HW2 4824   6.758   3.719   6.300
 1309SOL     OW 4825   5.999   4.228   6.656
 1309SOL    HW1 4826   5.905   4.236   6.691
 1309SOL    HW2 4827   5.997   4.224   6.556
 1310SOL     OW 4828   2.163   3.253   3.090
 1310SOL    HW1 4829   2.089   3.312   3.124
 1310SOL    HW2 4830   2.240   3.257   3.154
 1311SOL     OW 4831   5.990   5.356   0.199
 1311SOL    HW1 4832   5.973   5.259   0.182
 1311SOL    HW2 4833   5.921   5.392   0.261
 1312SOL     OW 4834   2.850   1.610   6.450
 1312SOL    HW1 4835   2.854   1.699   6.407
 1312SOL    HW2 4836   2.866   1.620   6.549
 1313SOL     OW 4837   5.780   5.186   1.869
 1313SOL    HW1 4838   5.808   5.210   1.776
 1313SOL    HW2 4839   5.841   5.115   1.905
 1314SOL     OW 4840   2.179   1.005   3.718
 1314SOL    HW1 4841   2.167   0.906   3.705
 1314SOL    HW2 4842   2.098   1.052   3.682
 1315SOL     OW 4843   6.289   0.828   3.238
 1315SOL    HW1 4844   6.380   0.793   3.216
 1315SOL    HW2 4845   6.297   0.921   3.275
 1316SOL     OW 4846   5.258   7.022   6.126
 1316SOL    HW1 4847   5.246   7.017   6.225
 1316SOL    HW2 4848   5.222   6.939   6.083
 1317SOL     OW 4849   3.696   2.914   4.527
 1317SOL    HW1 4850   3.600   2.898   4.549
 1317SOL    HW2 4851   3.746   2.936   4.610
 1318SOL     OW 4852   1.927   1.660   6.330
 1318SOL    HW1 4853   1.944   1.716   6.411
 1318SOL    HW2 4854   1.832   1.674   6.299
 1319SOL     OW 4855   6.703   1.395   0.692
 1319SOL    HW1 4856   6.789   1.425   0.653
 1319SOL    HW2 4857   6.637   1.470   0.690
 1320SOL     OW 4858   2.758   2.975   6.081
 1320SOL    HW1 4859   2.830   2.993   6.148
 1320SOL    HW2 4860   2.799   2.947   5.994
 1321SOL     OW 4861   6.877   2.488   1.570
 1321SOL    HW1 4862   6.878   2.582   1.535
 1321SOL    HW2 4863   6.902   2.425   1.496
 1322SOL     OW 4864   2.635   2.629   6.927
 1322SOL    HW1 4865   2.589   2.718   6.917
 1322SOL    HW2 4866   2.725   2.643   6.968
 1323SOL     OW 4867   3.953   0.837   1.482
 1323SOL    HW1 4868   3.997   0.777   1.415
 1323SOL    HW2 4869   3.955   0.793   1.572
 1324SOL     OW 4870   2.479   4.290   5.957
 1324SOL    HW1 4871   2.409   4.360   5.942
 1324SOL    HW2 4872   2.437   4.209   5.997
 1325SOL     OW 4873   4.225   6.197   4.483
 1325SOL    HW1 4874   4.184   6.117   4.527
 1325SOL    HW2 4875   4.272   6.252   4.552
 1326SOL     OW 4876   4.832   1.322   4.562
 1326SOL    HW1 4877   4.929   1.304   4.544
 1326SOL    HW2 4878   4.807   1.282   4.650
 1327SOL     OW 4879   4.993   5.667   2.301
 1327SOL    HW1 4880   4.917   5.631   2.248
 1327SOL    HW2 4881   4.965   5.677   2.397
 1328SOL     OW 4882   2.084   2.058   5.923
 1328SOL    HW1 4883   2.002   2.071   5.980
 1328SOL    HW2 4884   2.163   2.045   5.982
 1329SOL     OW 4885   1.426   3.037   3.975
 1329SOL    HW1 4886   1.478   3.122   3.962
 1329SOL    HW2 4887   1.336   3.047   3.933
 1330SOL     OW 4888   6.305   3.355   2.924
 1330SOL    HW1 4889   6.378   3.303   2.879
 1330SOL    HW2 4890   6.290   3.441   2.874
 1331SOL     OW 4891   4.201   2.013   3.212
 1331SOL    HW1 4892   4.173   1.980   3.122
 1331SOL    HW2 4893   4.258   2.094   3.202
 1332SOL     OW 4894   2.132   6.012   6.968
 1332SOL    HW1 4895   2.083   5.952   6.904
 1332SOL    HW2 4896   2.186   6.078   6.916
 1333SOL     OW 4897   3.265   3.351   2.923
 1333SOL    HW1 4898   3.326   3.313   2.992
 1333SOL    HW2 4899   3.207   3.279   2.886
 1334SOL     OW 4900   6.407   4.420   1.823
 1334SOL    HW1 4901   6.464   4.500   1.808
 1334SOL    HW2 4902   6.463   4.337   1.817
 1335SOL     OW 4903   0.526   3.613   3.028
 1335SOL    HW1 4904   0.531   3.643   3.123
 1335SOL    HW2 4905   0.576   3.527   3.017
 1336SOL     OW 4906   2.187   6.950   5.818
 1336SOL    HW1 4907   2.130   6.920   5.740
 1336SOL    HW2 4908   2.235   6.871   5.856
 1337SOL     OW 4909   0.624   7.014   1.939
 1337SOL    HW1 4910   0.621   0.090   1.935
 1337SOL    HW2 4911   0.532   6.978   1.941
 1338SOL     OW 4912   0.060   3.814   5.102
 1338SOL    HW1 4913   0.096   3.759   5.177
 1338SOL    HW2 4914   0.126   3.817   5.027
 1339SOL     OW 4915   5.418   1.433   7.005
 1339SOL    HW1 4916   5.482   1.495   0.025
 1339SOL    HW2 4917   5.459   1.396   6.922
 1340SOL     OW 4918   3.302   2.737   1.100
 1340SOL    HW1 4919   3.327   2.651   1.145
 1340SOL    HW2 4920   3.323   2.814   1.160
 1341SOL     OW 4921   5.597   5.756   6.325
 1341SOL    HW1 4922   5.541   5.696   6.382
 1341SOL    HW2 4923   5.617   5.840   6.375
 1342SOL     OW 4924   1.838   6.087   1.288
 1342SOL    HW1 4925   1.916   6.046   1.335
 1342SOL    HW2 4926   1.756   6.078   1.344
 1343SOL     OW 4927   4.955   6.510   2.856
 1343SOL    HW1 4928   4.943   6.411   2.851
 1343SOL    HW2 4929   4.945   6.549   2.764
 1344SOL     OW 4930   0.912   0.775   4.106
 1344SOL    HW1 4931   0.849   0.845   4.139
 1344SOL    HW2 4932   0.929   0.788   4.009
 1345SOL     OW 4933   1.369   6.566   5.686
 1345SOL    HW1 4934   1.438   6.495   5.671
 1345SOL    HW2 4935   1.395   6.649   5.637
 1346SOL     OW 4936   3.054   5.298   4.094
 1346SOL    HW1 4937   2.961   5.334   4.098
 1346SOL    HW2 4938   3.113   5.350   4.155
 1347SOL     OW 4939   1.575   0.726   6.361
 1347SOL    HW1 4940   1.518   0.654   6.324
 1347SOL    HW2 4941   1.657   0.737   6.304
 1348SOL     OW 4942   1.632   6.672   4.912
 1348SOL    HW1 4943   1.618   6.575   4.928
 1348SOL    HW2 4944   1.673   6.685   4.822
 1349SOL     OW 4945   5.523   3.740   4.286
 1349SOL    HW1 4946   5.463   3.705   4.214
 1349SOL    HW2 4947   5.541   3.668   4.353
 1350SOL     OW 4948   4.663   4.832   6.671
 1350SOL    HW1 4949   4.605   4.771   6.725
 1350SOL    HW2 4950   4.715   4.891   6.733
 1351SOL     OW 4951   7.020   2.472   6.321
 1351SOL    HW1 4952   6.952   2.543   6.336
 1351SOL    HW2 4953   7.015   2.440   6.226
 1352SOL     OW 4954   0.038   0.704   2.570
 1352SOL    HW1 4955   6.999   0.750   2.632
 1352SOL    HW2 4956   0.003   0.709   2.476
 1353SOL     OW 4957   6.407   2.132   6.372
 1353SOL    HW1 4958   6.400   2.207   6.438
 1353SOL    HW2 4959   6.502   2.125   6.341
 1354SOL     OW 4960   5.097   5.008   2.813
 1354SOL    HW1 4961   4.997   5.005   2.816
 1354SOL    HW2 4962   5.133   5.008   2.906
 1355SOL     OW 4963   4.097   3.639   5.201
 1355SOL    HW1 4964   4.087   3.541   5.184
 1355SOL    HW2 4965   4.034   3.690   5.143
 1356SOL     OW 4966   2.748   3.322   6.739
 1356SOL    HW1 4967   2.840   3.316   6.701
 1356SOL    HW2 4968   2.742   3.399   6.802
 1357SOL     OW 4969   1.155   3.004   5.560
 1357SOL    HW1 4970   1.237   3.034   5.510
 1357SOL    HW2 4971   1.176   2.922   5.613
 1358SOL     OW 4972   2.469   6.766   6.645
 1358SOL    HW1 4973   2.558   6.807   6.664
 1358SOL    HW2 4974   2.397   6.835   6.653
 1359SOL     OW 4975   6.570   4.851   6.913
 1359SOL    HW1 4976   6.481   4.813   6.888
 1359SOL    HW2 4977   6.557   4.939   6.960
 1360SOL     OW 4978   3.070   1.801   6.295
 1360SOL    HW1 4979   3.068   1.747   6.211
 1360SOL    HW2 4980   3.057   1.898   6.272
 1361SOL     OW 4981   6.588   5.492   5.288
 1361SOL    HW1 4982   6.619   5.400   5.313
 1361SOL    HW2 4983   6.492   5.488   5.259
 1362SOL     OW 4984   3.590   3.931   4.162
 1362SOL    HW1 4985   3.491   3.945   4.155
 1362SOL    HW2 4986   3.609   3.854   4.222
 1363SOL     OW 4987   0.522   6.551   3.459
 1363SOL    HW1 4988   0.444   6.502   3.420
 1363SOL    HW2 4989   0.581   6.486   3.507
 1364SOL     OW 4990   3.822   4.063   6.961
 1364SOL    HW1 4991   3.726   4.092   6.955
 1364SOL    HW2 4992   3.833   3.998   0.011
 1365SOL     OW 4993   5.996   2.687   6.277
 1365SOL    HW1 4994   6.021   2.618   6.209
 1365SOL    HW2 4995   5.901   2.673   6.306
 1366SOL     OW 4996   2.305   0.452   5.204
 1366SOL    HW1 4997   2.255   0.530   5.240
 1366SOL    HW2 4998   2.336   0.394   5.279
 1367SOL     OW 4999   2.464   1.706   2.611
 1367SOL    HW1 5000   2.516   1.736   2.691
 1367SOL    HW2 5001   2.431   1.785   2.561
 1368SOL     OW 5002   6.957   0.573   2.916
 1368SOL    HW1 5003   7.015   0.654   2.909
 1368SOL    HW2 5004   6.926   0.562   3.010
 1369SOL     OW 5005   0.143   0.097   2.272
 1369SOL    HW1 5006   0.046   0.094   2.295
 1369SOL    HW2 5007   0.191   0.154   2.339
 1370SOL     OW 5008   1.732   0.809   2.378
 1370SOL    HW1 5009   1.831   0.814   2.370
 1370SOL    HW2 5010   1.695   0.900   2.396
 1371SOL     OW 5011   3.016   0.103   6.534
 1371SOL    HW1 5012   3.107   0.080   6.500
 1371SOL    HW2 5013   2.960   0.021   6.537
 1372SOL     OW 5014   2.629   1.945   1.714
 1372SOL    HW1 5015   2.699   1.875   1.694
 1372SOL    HW2 5016   2.580   1.918   1.797
 1373SOL     OW 5017   1.865   5.730   6.692
 1373SOL    HW1 5018   1.939   5.683   6.645
 1373SOL    HW2 5019   1.891   5.748   6.787
 1374SOL     OW 5020   4.954   3.869   5.478
 1374SOL    HW1 5021   4.897   3.809   5.421
 1374SOL    HW2 5022   5.043   3.826   5.493
 1375SOL     OW 5023   0.927   4.023   4.319
 1375SOL    HW1 5024   1.011   3.984   4.356
 1375SOL    HW2 5025   0.950   4.094   4.253
 1376SOL     OW 5026   5.262   0.639   1.990
 1376SOL    HW1 5027   5.271   0.626   2.089
 1376SOL    HW2 5028   5.253   0.550   1.945
 1377SOL     OW 5029   0.567   4.211   4.943
 1377SOL    HW1 5030   0.615   4.188   4.859
 1377SOL    HW2 5031   0.531   4.304   4.936
 1378SOL     OW 5032   1.789   2.072   0.351
 1378SOL    HW1 5033   1.772   2.170   0.355
 1378SOL    HW2 5034   1.826   2.048   0.262
 1379SOL     OW 5035   4.324   5.626   1.753
 1379SOL    HW1 5036   4.323   5.671   1.842
 1379SOL    HW2 5037   4.331   5.695   1.680
 1380SOL     OW 5038   5.911   5.100   2.594
 1380SOL    HW1 5039   5.812   5.100   2.578
 1380SOL    HW2 5040   5.960   5.093   2.507
 1381SOL     OW 5041   4.804   6.952   2.437
 1381SOL    HW1 5042   4.780   0.022   2.460
 1381SOL    HW2 5043   4.854   6.911   2.513
 1382SOL     OW 5044   0.359   4.101   0.435
 1382SOL    HW1 5045   0.384   4.035   0.506
 1382SOL    HW2 5046   0.406   4.187   0.452
 1383SOL     OW 5047   2.618   0.029   0.784
 1383SOL    HW1 5048   2.666   6.999   0.853
 1383SOL    HW2 5049   2.651   0.123   0.786
 1384SOL     OW 5050   1.432   1.611   1.774
 1384SOL    HW1 5051   1.388   1.522   1.771
 1384SOL    HW2 5052   1.447   1.637   1.870
 1385SOL     OW 5053   4.887   3.665   4.062
 1385SOL    HW1 5054   4.870   3.659   3.963
 1385SOL    HW2 5055   4.986   3.655   4.078
 1386SOL     OW 5056   2.610   2.397   3.468
 1386SOL    HW1 5057   2.512   2.414   3.466
 1386SOL    HW2 5058   2.650   2.414   3.378
 1387SOL     OW 5059   3.390   0.930   3.728
 1387SOL    HW1 5060   3.439   1.017   3.720
 1387SOL    HW2 5061   3.294   0.944   3.703
 1388SOL     OW 5062   5.212   2.022   3.724
 1388SOL    HW1 5063   5.173   2.101   3.772
 1388SOL    HW2 5064   5.193   1.939   3.776
 1389SOL     OW 5065   0.043   0.547   3.567
 1389SOL    HW1 5066   0.119   0.559   3.631
 1389SOL    HW2 5067   0.071   0.485   3.493
 1390SOL     OW 5068   5.423   1.736   2.147
 1390SOL    HW1 5069   5.402   1.647   2.106
 1390SOL    HW2 5070   5.519   1.739   2.173
 1391SOL     OW 5071   5.755   0.861   5.007
 1391SOL    HW1 5072   5.662   0.863   4.972
 1391SOL    HW2 5073   5.811   0.799   4.952
 1392SOL     OW 5074   3.715   6.852   5.223
 1392SOL    HW1 5075   3.660   6.920   5.174
 1392SOL    HW2 5076   3.675   6.761   5.210
 1393SOL     OW 5077   5.194   0.764   6.915
 1393SOL    HW1 5078   5.118   0.744   6.853
 1393SOL    HW2 5079   5.158   0.779   7.007
 1394SOL     OW 5080   4.171   0.760   4.217
 1394SOL    HW1 5081   4.130   0.723   4.301
 1394SOL    HW2 5082   4.270   0.764   4.228
 1395SOL     OW 5083   0.844   4.925   2.671
 1395SOL    HW1 5084   0.869   4.885   2.758
 1395SOL    HW2 5085   0.753   4.967   2.678
 1396SOL     OW 5086   1.498   1.646   3.701
 1396SOL    HW1 5087   1.525   1.736   3.666
 1396SOL    HW2 5088   1.469   1.589   3.624
 1397SOL     OW 5089   2.454   4.518   5.440
 1397SOL    HW1 5090   2.411   4.532   5.529
 1397SOL    HW2 5091   2.543   4.473   5.452
 1398SOL     OW 5092   3.194   6.727   6.528
 1398SOL    HW1 5093   3.292   6.726   6.509
 1398SOL    HW2 5094   3.144   6.751   6.445
 1399SOL     OW 5095   3.833   0.268   7.007
 1399SOL    HW1 5096   3.820   0.194   6.941
 1399SOL    HW2 5097   3.919   0.253   0.032
 1400SOL     OW 5098   0.591   1.283   5.620
 1400SOL    HW1 5099   0.526   1.242   5.685
 1400SOL    HW2 5100   0.682   1.243   5.634
 1401SOL     OW 5101   4.836   0.226   2.119
 1401SOL    HW1 5102   4.785   0.280   2.186
 1401SOL    HW2 5103   4.792   0.137   2.108
 1402SOL     OW 5104   4.776   4.228   1.838
 1402SOL    HW1 5105   4.770   4.138   1.795
 1402SOL    HW2 5106   4.704   4.237   1.907
 1403SOL     OW 5107   3.080   3.226   6.947
 1403SOL    HW1 5108   3.170   3.204   6.983
 1403SOL    HW2 5109   3.069   3.188   6.856
 1404SOL     OW 5110   3.688   6.402   0.237
 1404SOL    HW1 5111   3.719   6.343   0.311
 1404SOL    HW2 5112   3.708   6.498   0.260
 1405SOL     OW 5113   1.198   3.941   6.789
 1405SOL    HW1 5114   1.278   3.987   6.828
 1405SOL    HW2 5115   1.168   3.868   6.850
 1406SOL     OW 5116   2.159   2.552   6.555
 1406SOL    HW1 5117   2.217   2.540   6.475
 1406SOL    HW2 5118   2.214   2.580   6.633
 1407SOL     OW 5119   6.997   2.488   2.054
 1407SOL    HW1 5120   6.905   2.454   2.077
 1407SOL    HW2 5121   6.997   2.521   1.960
 1408SOL     OW 5122   5.864   6.397   1.031
 1408SOL    HW1 5123   5.951   6.370   0.991
 1408SOL    HW2 5124   5.812   6.450   0.963
 1409SOL     OW 5125   5.766   1.965   5.767
 1409SOL    HW1 5126   5.721   1.901   5.829
 1409SOL    HW2 5127   5.865   1.959   5.779
 1410SOL     OW 5128   3.039   0.624   0.491
 1410SOL    HW1 5129   3.037   0.529   0.520
 1410SOL    HW2 5130   2.978   0.678   0.549
 1411SOL     OW 5131   3.242   6.742   0.191
 1411SOL    HW1 5132   3.231   6.648   0.224
 1411SOL    HW2 5133   3.271   6.742   0.096
 1412SOL     OW 5134   2.584   1.387   6.695
 1412SOL    HW1 5135   2.583   1.468   6.754
 1412SOL    HW2 5136   2.651   1.321   6.731
 1413SOL     OW 5137   2.637   1.365   5.152
 1413SOL    HW1 5138   2.646   1.265   5.147
 1413SOL    HW2 5139   2.541   1.389   5.163
 1414SOL     OW 5140   0.335   4.994   2.084
 1414SOL    HW1 5141   0.260   4.928   2.078
 1414SOL    HW2 5142   0.397   4.983   2.006
 1415SOL     OW 5143   3.568   1.820   5.094
 1415SOL    HW1 5144   3.503   1.801   5.020
 1415SOL    HW2 5145   3.611   1.909   5.079
 1416SOL     OW 5146   4.732   0.546   4.962
 1416SOL    HW1 5147   4.828   0.518   4.958
 1416SOL    HW2 5148   4.708   0.594   4.877
 1417SOL     OW 5149   3.603   3.739   4.416
 1417SOL    HW1 5150   3.664   3.701   4.485
 1417SOL    HW2 5151   3.594   3.674   4.340
 1418SOL     OW 5152   3.568   3.776   5.304
 1418SOL    HW1 5153   3.608   3.689   5.275
 1418SOL    HW2 5154   3.472   3.762   5.329
 1419SOL     OW 5155   0.158   5.178   1.979
 1419SOL    HW1 5156   0.215   5.246   1.934
 1419SOL    HW2 5157   0.217   5.108   2.020
 1420SOL     OW 5158   2.814   6.711   3.199
 1420SOL    HW1 5159   2.902   6.729   3.156
 1420SOL    HW2 5160   2.825   6.706   3.298
 1421SOL     OW 5161   1.899   5.262   0.694
 1421SOL    HW1 5162   1.893   5.163   0.701
 1421SOL    HW2 5163   1.848   5.304   0.769
 1422SOL     OW 5164   1.821   4.122   6.771
 1422SOL    HW1 5165   1.757   4.165   6.708
 1422SOL    HW2 5166   1.878   4.192   6.814
 1423SOL     OW 5167   4.540   1.030   4.583
 1423SOL    HW1 5168   4.489   1.102   4.534
 1423SOL    HW2 5169   4.489   0.945   4.579
 1424SOL     OW 5170   6.578   3.328   1.251
 1424SOL    HW1 5171   6.670   3.329   1.291
 1424SOL    HW2 5172   6.586   3.316   1.152
 1425SOL     OW 5173   5.706   6.534   3.348
 1425SOL    HW1 5174   5.753   6.458   3.302
 1425SOL    HW2 5175   5.664   6.501   3.432
 1426SOL     OW 5176   3.742   1.404   0.625
 1426SOL    HW1 5177   3.660   1.436   0.671
 1426SOL    HW2 5178   3.716   1.345   0.548
 1427SOL     OW 5179   1.044   1.163   4.016
 1427SOL    HW1 5180   1.110   1.089   4.003
 1427SOL    HW2 5181   0.960   1.126   4.055
 1428SOL     OW 5182   1.778   3.873   3.837
 1428SOL    HW1 5183   1.802   3.876   3.740
 1428SOL    HW2 5184   1.685   3.908   3.850
 1429SOL     OW 5185   6.500   0.398   1.521
 1429SOL    HW1 5186   6.474   0.451   1.602
 1429SOL    HW2 5187   6.529   0.459   1.448
 1430SOL     OW 5188   2.214   3.972   4.509
 1430SOL    HW1 5189   2.254   4.049   4.460
 1430SOL    HW2 5190   2.214   3.892   4.449
 1431SOL     OW 5191   3.604   2.132   0.564
 1431SOL    HW1 5192   3.580   2.190   0.641
 1431SOL    HW2 5193   3.521   2.098   0.520
 1432SOL     OW 5194   3.447   0.418   2.944
 1432SOL    HW1 5195   3.464   0.418   2.846
 1432SOL    HW2 5196   3.462   0.509   2.982
 1433SOL     OW 5197   3.075   1.992   4.174
 1433SOL    HW1 5198   3.035   1.985   4.266
 1433SOL    HW2 5199   3.171   1.964   4.178
 1434SOL     OW 5200   5.701   3.480   0.672
 1434SOL    HW1 5201   5.613   3.526   0.687
 1434SOL    HW2 5202   5.685   3.392   0.628
 1435SOL     OW 5203   0.213   6.237   4.309
 1435SOL    HW1 5204   0.163   6.156   4.339
 1435SOL    HW2 5205   0.217   6.239   4.209
 1436SOL     OW 5206   5.453   0.972   0.156
 1436SOL    HW1 5207   5.372   1.030   0.156
 1436SOL    HW2 5208   5.456   0.917   0.239
 1437SOL     OW 5209   4.538   1.058   0.697
 1437SOL    HW1 5210   4.483   1.141   0.683
 1437SOL    HW2 5211   4.483   0.978   0.675
 1438SOL     OW 5212   2.379   0.002   3.196
 1438SOL    HW1 5213   2.431   0.080   3.231
 1438SOL    HW2 5214   2.282   0.017   3.214
 1439SOL     OW 5215   0.039   5.195   4.948
 1439SOL    HW1 5216   0.004   5.206   4.855
 1439SOL    HW2 5217   0.124   5.143   4.946
 1440SOL     OW 5218   3.443   3.277   2.482
 1440SOL    HW1 5219   3.405   3.307   2.394
 1440SOL    HW2 5220   3.470   3.181   2.475
 1441SOL     OW 5221   0.551   1.749   5.993
 1441SOL    HW1 5222   0.505   1.775   6.078
 1441SOL    HW2 5223   0.537   1.652   5.976
 1442SOL     OW 5224   5.506   5.916   0.141
 1442SOL    HW1 5225   5.567   5.882   0.069
 1442SOL    HW2 5226   5.554   5.985   0.195
 1443SOL     OW 5227   1.556   3.325   3.960
 1443SOL    HW1 5228   1.572   3.371   3.872
 1443SOL    HW2 5229   1.631   3.346   4.022
 1444SOL     OW 5230   4.984   6.958   4.494
 1444SOL    HW1 5231   4.974   6.886   4.562
 1444SOL    HW2 5232   4.952   6.925   4.405
 1445SOL     OW 5233   6.764   2.329   0.053
 1445SOL    HW1 5234   6.671   2.361   0.072
 1445SOL    HW2 5235   6.760   2.238   0.011
 1446SOL     OW 5236   2.809   5.747   2.207
 1446SOL    HW1 5237   2.892   5.718   2.161
 1446SOL    HW2 5238   2.827   5.829   2.261
 1447SOL     OW 5239   6.670   0.919   4.579
 1447SOL    HW1 5240   6.707   1.011   4.591
 1447SOL    HW2 5241   6.582   0.912   4.627
 1448SOL     OW 5242   5.565   0.886   0.826
 1448SOL    HW1 5243   5.613   0.862   0.741
 1448SOL    HW2 5244   5.549   0.985   0.828
 1449SOL     OW 5245   4.489   5.257   0.508
 1449SOL    HW1 5246   4.496   5.182   0.573
 1449SOL    HW2 5247   4.512   5.225   0.416
 1450SOL     OW 5248   5.172   1.049   3.449
 1450SOL    HW1 5249   5.163   1.141   3.489
 1450SOL    HW2 5250   5.260   1.010   3.477
 1451SOL     OW 5251   1.030   6.913   2.181
 1451SOL    HW1 5252   1.027   6.818   2.213
 1451SOL    HW2 5253   1.105   6.924   2.116
 1452SOL     OW 5254   2.133   6.734   6.051
 1452SOL    HW1 5255   2.131   6.832   6.032
 1452SOL    HW2 5256   2.124   6.719   6.149
 1453SOL     OW 5257   5.997   4.400   4.334
 1453SOL    HW1 5258   6.007   4.404   4.235
 1453SOL    HW2 5259   6.087   4.410   4.377
 1454SOL     OW 5260   5.790   3.805   1.016
 1454SOL    HW1 5261   5.782   3.709   1.041
 1454SOL    HW2 5262   5.818   3.813   0.920
 1455SOL     OW 5263   1.836   2.279   1.750
 1455SOL    HW1 5264   1.741   2.247   1.746
 1455SOL    HW2 5265   1.895   2.204   1.779
 1456SOL     OW 5266   5.517   5.224   4.682
 1456SOL    HW1 5267   5.447   5.256   4.745
 1456SOL    HW2 5268   5.534   5.127   4.697
 1457SOL     OW 5269   2.137   0.964   4.387
 1457SOL    HW1 5270   2.041   0.987   4.374
 1457SOL    HW2 5271   2.177   1.023   4.457
 1458SOL     OW 5272   6.555   5.356   0.342
 1458SOL    HW1 5273   6.595   5.435   0.389
 1458SOL    HW2 5274   6.475   5.324   0.393
 1459SOL     OW 5275   2.731   6.898   1.727
 1459SOL    HW1 5276   2.777   6.985   1.745
 1459SOL    HW2 5277   2.694   6.899   1.634
 1460SOL     OW 5278   0.183   1.219   6.670
 1460SOL    HW1 5279   0.131   1.139   6.702
 1460SOL    HW2 5280   0.279   1.208   6.693
 1461SOL     OW 5281   4.754   4.435   2.868
 1461SOL    HW1 5282   4.790   4.457   2.959
 1461SOL    HW2 5283   4.657   4.459   2.864
 1462SOL     OW 5284   5.563   0.019   4.914
 1462SOL    HW1 5285   5.472   0.059   4.921
 1462SOL    HW2 5286   5.631   0.092   4.904
 1463SOL     OW 5287   0.842   1.993   5.593
 1463SOL    HW1 5288   0.830   1.900   5.628
 1463SOL    HW2 5289   0.804   1.999   5.501
 1464SOL     OW 5290   0.986   1.058   1.077
 1464SOL    HW1 5291   0.997   0.963   1.050
 1464SOL    HW2 5292   0.906   1.067   1.136
 1465SOL     OW 5293   1.981   1.165   3.652
 1465SOL    HW1 5294   1.983   1.227   3.574
 1465SOL    HW2 5295   1.887   1.138   3.671
 1466SOL     OW 5296   6.128   5.798   3.826
 1466SOL    HW1 5297   6.066   5.774   3.751
 1466SOL    HW2 5298   6.183   5.719   3.851
 1467SOL     OW 5299   6.803   3.805   4.753
 1467SOL    HW1 5300   6.715   3.764   4.778
 1467SOL    HW2 5301   6.794   3.905   4.755
 1468SOL     OW 5302   4.741   0.073   2.733
 1468SOL    HW1 5303   4.828   0.105   2.769
 1468SOL    HW2 5304   4.722   7.005   2.767
 1469SOL     OW 5305   0.105   0.483   2.311
 1469SOL    HW1 5306   0.171   0.409   2.295
 1469SOL    HW2 5307   0.035   0.451   2.375
 1470SOL     OW 5308   0.578   0.425   3.174
 1470SOL    HW1 5309   0.514   0.502   3.177
 1470SOL    HW2 5310   0.626   0.424   3.087
 1471SOL     OW 5311   6.029   1.313   0.996
 1471SOL    HW1 5312   6.015   1.285   1.091
 1471SOL    HW2 5313   5.999   1.241   0.934
 1472SOL     OW 5314   4.854   5.113   4.776
 1472SOL    HW1 5315   4.858   5.013   4.783
 1472SOL    HW2 5316   4.768   5.146   4.815
 1473SOL     OW 5317   0.150   3.316   4.019
 1473SOL    HW1 5318   0.194   3.382   3.959
 1473SOL    HW2 5319   0.051   3.322   4.009
 1474SOL     OW 5320   4.612   6.203   2.644
 1474SOL    HW1 5321   4.637   6.259   2.723
 1474SOL    HW2 5322   4.688   6.203   2.578
 1475SOL     OW 5323   6.117   6.924   2.909
 1475SOL    HW1 5324   6.154   6.858   2.844
 1475SOL    HW2 5325   6.082   7.004   2.860
 1476SOL     OW 5326   0.808   2.165   1.399
 1476SOL    HW1 5327   0.874   2.157   1.474
 1476SOL    HW2 5328   0.858   2.174   1.312
 1477SOL     OW 5329   2.759   6.385   4.660
 1477SOL    HW1 5330   2.777   6.380   4.758
 1477SOL    HW2 5331   2.663   6.408   4.645
 1478SOL     OW 5332   0.244   3.661   0.991
 1478SOL    HW1 5333   0.330   3.612   0.978
 1478SOL    HW2 5334   0.186   3.649   0.911
 1479SOL     OW 5335   1.827   5.175   7.002
 1479SOL    HW1 5336   1.806   5.231   6.922
 1479SOL    HW2 5337   1.783   5.085   6.992
 1480SOL     OW 5338   3.164   0.890   0.190
 1480SOL    HW1 5339   3.118   0.950   0.256
 1480SOL    HW2 5340   3.141   0.919   0.097
 1481SOL     OW 5341   0.105   3.516   0.447
 1481SOL    HW1 5342   0.170   3.554   0.381
 1481SOL    HW2 5343   0.024   3.576   0.452
 1482SOL     OW 5344   6.014   0.591   6.387
 1482SOL    HW1 5345   5.931   0.536   6.387
 1482SOL    HW2 5346   6.094   0.532   6.392
 1483SOL     OW 5347   0.196   2.625   0.061
 1483SOL    HW1 5348   0.263   2.552   0.078
 1483SOL    HW2 5349   0.123   2.590   0.003
 1484SOL     OW 5350   6.366   6.701   3.716
 1484SOL    HW1 5351   6.455   6.744   3.731
 1484SOL    HW2 5352   6.348   6.695   3.617
 1485SOL     OW 5353   5.115   3.481   4.054
 1485SOL    HW1 5354   5.085   3.456   3.962
 1485SOL    HW2 5355   5.060   3.433   4.122
 1486SOL     OW 5356   4.945   2.968   1.550
 1486SOL    HW1 5357   4.928   2.972   1.451
 1486SOL    HW2 5358   4.857   2.955   1.597
 1487SOL     OW 5359   0.583   7.004   5.471
 1487SOL    HW1 5360   0.508   6.974   5.412
 1487SOL    HW2 5361   0.608   6.931   5.534
 1488SOL     OW 5362   4.896   1.995   4.151
 1488SOL    HW1 5363   4.851   1.915   4.113
 1488SOL    HW2 5364   4.832   2.046   4.208
 1489SOL     OW 5365   2.996   5.089   4.647
 1489SOL    HW1 5366   2.956   5.148   4.577
 1489SOL    HW2 5367   3.023   5.144   4.726
 1490SOL     OW 5368   2.547   2.830   0.431
 1490SOL    HW1 5369   2.592   2.754   0.384
 1490SOL    HW2 5370   2.496   2.794   0.509
 1491SOL     OW 5371   0.570   2.095   4.116
 1491SOL    HW1 5372   0.606   2.168   4.174
 1491SOL    HW2 5373   0.644   2.032   4.093
 1492SOL     OW 5374   0.323   1.842   1.971
 1492SOL    HW1 5375   0.274   1.757   1.951
 1492SOL    HW2 5376   0.264   1.920   1.947
 1493SOL     OW 5377   6.244   2.892   4.840
 1493SOL    HW1 5378   6.263   2.794   4.838
 1493SOL    HW2 5379   6.272   2.930   4.928
 1494SOL     OW 5380   5.399   1.631   3.742
 1494SOL    HW1 5381   5.461   1.586   3.677
 1494SOL    HW2 5382   5.423   1.602   3.835
 1495SOL     OW 5383   1.612   4.022   1.798
 1495SOL    HW1 5384   1.609   4.085   1.721
 1495SOL    HW2 5385   1.681   3.952   1.781
 1496SOL     OW 5386   0.891   0.376   2.480
 1496SOL    HW1 5387   0.800   0.339   2.460
 1496SOL    HW2 5388   0.937   0.398   2.395
 1497SOL     OW 5389   5.652   5.078   5.942
 1497SOL    HW1 5390   5.588   5.125   5.882
 1497SOL    HW2 5391   5.604   5.006   5.993
 1498SOL     OW 5392   3.142   5.861   6.871
 1498SOL    HW1 5393   3.108   5.792   6.806
 1498SOL    HW2 5394   3.241   5.872   6.858
 1499SOL     OW 5395   1.036   4.400   4.346
 1499SOL    HW1 5396   0.952   4.388   4.399
 1499SOL    HW2 5397   1.050   4.320   4.288
 1500SOL     OW 5398   4.016   6.532   5.880
 1500SOL    HW1 5399   4.000   6.489   5.969
 1500SOL    HW2 5400   3.930   6.568   5.844
 1501SOL     OW 5401   3.538   0.339   1.348
 1501SOL    HW1 5402   3.458   0.292   1.387
 1501SOL    HW2 5403   3.545   0.315   1.251
 1502SOL     OW 5404   0.321   1.115   6.318
 1502SOL    HW1 5405   0.251   1.186   6.307
 1502SOL    HW2 5406   0.354   1.086   6.228
 1503SOL     OW 5407   3.473   3.780   4.979
 1503SOL    HW1 5408   3.520   3.829   4.905
 1503SOL    HW2 5409   3.522   3.696   4.999
 1504SOL     OW 5410   2.873   6.962   3.890
 1504SOL    HW1 5411   2.834   0.022   3.926
 1504SOL    HW2 5412   2.925   6.981   3.807
 1505SOL     OW 5413   5.343   6.700   3.080
 1505SOL    HW1 5414   5.274   6.772   3.073
 1505SOL    HW2 5415   5.336   6.639   3.002
 1506SOL     OW 5416   0.511   6.163   4.298
 1506SOL    HW1 5417   0.496   6.213   4.213
 1506SOL    HW2 5418   0.581   6.209   4.352
 1507SOL     OW 5419   2.239   1.406   0.088
 1507SOL    HW1 5420   2.228   1.462   0.006
 1507SOL    HW2 5421   2.222   1.462   0.169
 1508SOL     OW 5422   4.657   6.362   0.998
 1508SOL    HW1 5423   4.650   6.300   0.920
 1508SOL    HW2 5424   4.591   6.335   1.068
 1509SOL     OW 5425   5.633   1.607   6.843
 1509SOL    HW1 5426   5.640   1.508   6.846
 1509SOL    HW2 5427   5.715   1.648   6.883
 1510SOL     OW 5428   6.541   1.724   2.186
 1510SOL    HW1 5429   6.563   1.819   2.167
 1510SOL    HW2 5430   6.616   1.682   2.237
 1511SOL     OW 5431   0.732   2.856   7.009
 1511SOL    HW1 5432   0.770   2.892   0.069
 1511SOL    HW2 5433   0.794   2.788   6.970
 1512SOL     OW 5434   6.994   0.806   2.051
 1512SOL    HW1 5435   6.947   0.780   1.967
 1512SOL    HW2 5436   0.040   0.739   2.072
 1513SOL     OW 5437   1.904   0.765   2.648
 1513SOL    HW1 5438   1.875   0.860   2.632
 1513SOL    HW2 5439   1.934   0.725   2.561
 1514SOL     OW 5440   4.581   0.787   5.926
 1514SOL    HW1 5441   4.577   0.818   5.831
 1514SOL    HW2 5442   4.645   0.710   5.933
 1515SOL     OW 5443   5.775   5.335   5.871
 1515SOL    HW1 5444   5.735   5.425   5.853
 1515SOL    HW2 5445   5.780   5.283   5.786
 1516SOL     OW 5446   5.790   1.869   1.983
 1516SOL    HW1 5447   5.754   1.776   1.991
 1516SOL    HW2 5448   5.843   1.892   2.065
 1517SOL     OW 5449   3.534   5.583   2.431
 1517SOL    HW1 5450   3.570   5.489   2.427
 1517SOL    HW2 5451   3.515   5.615   2.338
 1518SOL     OW 5452   0.636   4.693   1.025
 1518SOL    HW1 5453   0.672   4.631   1.094
 1518SOL    HW2 5454   0.709   4.753   0.992
 1519SOL     OW 5455   0.638   4.183   1.193
 1519SOL    HW1 5456   0.726   4.149   1.226
 1519SOL    HW2 5457   0.578   4.106   1.171
 1520SOL     OW 5458   1.489   4.044   2.622
 1520SOL    HW1 5459   1.392   4.040   2.645
 1520SOL    HW2 5460   1.534   3.960   2.651
 1521SOL     OW 5461   2.172   5.810   5.102
 1521SOL    HW1 5462   2.161   5.721   5.059
 1521SOL    HW2 5463   2.237   5.803   5.177
 1522SOL     OW 5464   1.693   2.230   5.975
 1522SOL    HW1 5465   1.780   2.276   5.992
 1522SOL    HW2 5466   1.659   2.255   5.884
 1523SOL     OW 5467   5.994   0.530   1.886
 1523SOL    HW1 5468   5.916   0.510   1.827
 1523SOL    HW2 5469   5.962   0.544   1.980
 1524SOL     OW 5470   0.681   1.921   1.351
 1524SOL    HW1 5471   0.744   1.867   1.407
 1524SOL    HW2 5472   0.709   2.017   1.352
 1525SOL     OW 5473   5.363   1.040   5.466
 1525SOL    HW1 5474   5.462   1.040   5.454
 1525SOL    HW2 5475   5.337   0.967   5.530
 1526SOL     OW 5476   5.601   2.588   0.011
 1526SOL    HW1 5477   5.531   2.522   0.039
 1526SOL    HW2 5478   5.690   2.558   0.047
 1527SOL     OW 5479   2.915   0.658   5.249
 1527SOL    HW1 5480   2.930   0.649   5.348
 1527SOL    HW2 5481   2.898   0.568   5.210
 1528SOL     OW 5482   5.410   6.295   3.785
 1528SOL    HW1 5483   5.397   6.335   3.876
 1528SOL    HW2 5484   5.410   6.368   3.717
 1529SOL     OW 5485   1.999   0.152   5.159
 1529SOL    HW1 5486   2.038   0.124   5.071
 1529SOL    HW2 5487   1.957   0.242   5.150
 1530SOL     OW 5488   2.964   6.468   1.471
 1530SOL    HW1 5489   3.059   6.480   1.441
 1530SOL    HW2 5490   2.955   6.504   1.564
 1531SOL     OW 5491   5.837   1.485   6.486
 1531SOL    HW1 5492   5.885   1.430   6.554
 1531SOL    HW2 5493   5.821   1.431   6.404
 1532SOL     OW 5494   3.104   1.591   5.209
 1532SOL    HW1 5495   3.007   1.611   5.196
 1532SOL    HW2 5496   3.150   1.673   5.243
 1533SOL     OW 5497   4.744   3.307   0.323
 1533SOL    HW1 5498   4.655   3.266   0.304
 1533SOL    HW2 5499   4.816   3.251   0.282
 1534SOL     OW 5500   0.373   0.248   0.113
 1534SOL    HW1 5501   0.351   0.343   0.138
 1534SOL    HW2 5502   0.472   0.235   0.114
 1535SOL     OW 5503   5.389   3.934   4.466
 1535SOL    HW1 5504   5.463   3.998   4.488
 1535SOL    HW2 5505   5.427   3.858   4.412
 1536SOL     OW 5506   2.925   6.061   3.031
 1536SOL    HW1 5507   2.989   6.139   3.033
 1536SOL    HW2 5508   2.863   6.071   2.953
 1537SOL     OW 5509   1.851   5.673   4.188
 1537SOL    HW1 5510   1.772   5.723   4.222
 1537SOL    HW2 5511   1.859   5.587   4.239
 1538SOL     OW 5512   3.401   6.348   0.308
 1538SOL    HW1 5513   3.498   6.348   0.282
 1538SOL    HW2 5514   3.387   6.288   0.387
 1539SOL     OW 5515   2.446   6.778   2.348
 1539SOL    HW1 5516   2.439   6.678   2.353
 1539SOL    HW2 5517   2.530   6.808   2.395
 1540SOL     OW 5518   5.994   0.359   5.023
 1540SOL    HW1 5519   6.030   0.444   5.061
 1540SOL    HW2 5520   6.057   0.284   5.042
 1541SOL     OW 5521   5.251   1.803   1.936
 1541SOL    HW1 5522   5.221   1.898   1.947
 1541SOL    HW2 5523   5.328   1.785   1.997
 1542SOL     OW 5524   6.714   5.627   1.191
 1542SOL    HW1 5525   6.635   5.606   1.248
 1542SOL    HW2 5526   6.735   5.550   1.131
 1543SOL     OW 5527   3.415   3.574   3.343
 1543SOL    HW1 5528   3.441   3.645   3.409
 1543SOL    HW2 5529   3.452   3.596   3.253
 1544SOL     OW 5530   3.546   3.703   1.788
 1544SOL    HW1 5531   3.530   3.711   1.887
 1544SOL    HW2 5532   3.526   3.791   1.744
 1545SOL     OW 5533   0.295   6.726   5.408
 1545SOL    HW1 5534   0.320   6.822   5.396
 1545SOL    HW2 5535   0.271   6.686   5.319
 1546SOL     OW 5536   0.289   6.558   0.311
 1546SOL    HW1 5537   0.292   6.655   0.336
 1546SOL    HW2 5538   0.286   6.549   0.212
 1547SOL     OW 5539   3.233   6.187   0.093
 1547SOL    HW1 5540   3.171   6.146   0.160
 1547SOL    HW2 5541   3.304   6.238   0.140
 1548SOL     OW 5542   6.458   4.451   3.009
 1548SOL    HW1 5543   6.447   4.487   2.917
 1548SOL    HW2 5544   6.387   4.383   3.028
 1549SOL     OW 5545   5.997   1.901   1.087
 1549SOL    HW1 5546   5.970   1.956   1.008
 1549SOL    HW2 5547   5.995   1.804   1.062
 1550SOL     OW 5548   2.500   5.242   2.602
 1550SOL    HW1 5549   2.409   5.280   2.585
 1550SOL    HW2 5550   2.504   5.148   2.567
 1551SOL     OW 5551   0.784   2.526   1.754
 1551SOL    HW1 5552   0.802   2.605   1.813
 1551SOL    HW2 5553   0.853   2.522   1.681
 1552SOL     OW 5554   1.662   6.714   2.008
 1552SOL    HW1 5555   1.589   6.668   1.956
 1552SOL    HW2 5556   1.750   6.699   1.963
 1553SOL     OW 5557   5.534   1.529   5.318
 1553SOL    HW1 5558   5.518   1.622   5.286
 1553SOL    HW2 5559   5.512   1.523   5.415
 1554SOL     OW 5560   2.661   3.022   0.783
 1554SOL    HW1 5561   2.696   3.112   0.758
 1554SOL    HW2 5562   2.571   3.008   0.740
 1555SOL     OW 5563   4.499   1.249   1.300
 1555SOL    HW1 5564   4.413   1.279   1.260
 1555SOL    HW2 5565   4.523   1.308   1.376
 1556SOL     OW 5566   2.968   2.281   0.767
 1556SOL    HW1 5567   2.918   2.362   0.737
 1556SOL    HW2 5568   3.058   2.280   0.724
 1557SOL     OW 5569   2.112   2.794   1.399
 1557SOL    HW1 5570   2.092   2.892   1.407
 1557SOL    HW2 5571   2.073   2.759   1.314
 1558SOL     OW 5572   4.571   2.550   6.548
 1558SOL    HW1 5573   4.507   2.601   6.491
 1558SOL    HW2 5574   4.650   2.522   6.493
 1559SOL     OW 5575   2.576   6.375   3.399
 1559SOL    HW1 5576   2.615   6.283   3.396
 1559SOL    HW2 5577   2.531   6.389   3.487
 1560SOL     OW 5578   4.512   2.950   1.478
 1560SOL    HW1 5579   4.425   2.909   1.505
 1560SOL    HW2 5580   4.581   2.933   1.548
 1561SOL     OW 5581   6.269   6.412   0.473
 1561SOL    HW1 5582   6.304   6.450   0.387
 1561SOL    HW2 5583   6.306   6.466   0.549
 1562SOL     OW 5584   2.718   6.889   2.866
 1562SOL    HW1 5585   2.739   6.986   2.876
 1562SOL    HW2 5586   2.801   6.835   2.883
 1563SOL     OW 5587   2.139   3.978   3.871
 1563SOL    HW1 5588   2.188   3.971   3.959
 1563SOL    HW2 5589   2.187   4.042   3.812
 1564SOL     OW 5590   1.272   1.871   3.374
 1564SOL    HW1 5591   1.253   1.952   3.318
 1564SOL    HW2 5592   1.315   1.801   3.317
 1565SOL     OW 5593   5.211   1.483   5.294
 1565SOL    HW1 5594   5.293   1.433   5.321
 1565SOL    HW2 5595   5.132   1.446   5.342
 1566SOL     OW 5596   1.207   3.147   3.768
 1566SOL    HW1 5597   1.179   3.220   3.830
 1566SOL    HW2 5598   1.133   3.081   3.758
 1567SOL     OW 5599   5.303   0.672   4.720
 1567SOL    HW1 5600   5.382   0.617   4.692
 1567SOL    HW2 5601   5.222   0.641   4.671
 1568SOL     OW 5602   2.129   4.227   1.199
 1568SOL    HW1 5603   2.053   4.266   1.148
 1568SOL    HW2 5604   2.095   4.180   1.280
 1569SOL     OW 5605   2.292   0.941   2.291
 1569SOL    HW1 5606   2.242   0.856   2.277
 1569SOL    HW2 5607   2.324   0.945   2.386
 1570SOL     OW 5608   3.210   5.997   6.403
 1570SOL    HW1 5609   3.220   5.898   6.407
 1570SOL    HW2 5610   3.149   6.027   6.477
 1571SOL     OW 5611   0.832   1.622   4.821
 1571SOL    HW1 5612   0.809   1.698   4.761
 1571SOL    HW2 5613   0.773   1.624   4.902
 1572SOL     OW 5614   1.805   6.455   3.631
 1572SOL    HW1 5615   1.890   6.500   3.603
 1572SOL    HW2 5616   1.826   6.368   3.676
 1573SOL     OW 5617   5.413   6.267   0.463
 1573SOL    HW1 5618   5.385   6.228   0.375
 1573SOL    HW2 5619   5.367   6.218   0.537
 1574SOL     OW 5620   0.226   3.525   3.093
 1574SOL    HW1 5621   0.259   3.552   3.003
 1574SOL    HW2 5622   0.291   3.556   3.163
 1575SOL     OW 5623   6.533   2.517   0.077
 1575SOL    HW1 5624   6.535   2.615   0.097
 1575SOL    HW2 5625   6.458   2.498   0.014
 1576SOL     OW 5626   1.549   6.250   2.607
 1576SOL    HW1 5627   1.641   6.242   2.644
 1576SOL    HW2 5628   1.518   6.160   2.575
 1577SOL     OW 5629   4.011   5.825   3.901
 1577SOL    HW1 5630   3.926   5.790   3.940
 1577SOL    HW2 5631   4.020   5.794   3.807
 1578SOL     OW 5632   5.202   1.820   1.512
 1578SOL    HW1 5633   5.277   1.820   1.577
 1578SOL    HW2 5634   5.228   1.873   1.431
 1579SOL     OW 5635   1.375   3.394   2.331
 1579SOL    HW1 5636   1.421   3.401   2.242
 1579SOL    HW2 5637   1.329   3.480   2.352
 1580SOL     OW 5638   3.350   4.021   3.892
 1580SOL    HW1 5639   3.305   4.048   3.807
 1580SOL    HW2 5640   3.336   3.924   3.908
 1581SOL     OW 5641   5.193   4.537   5.771
 1581SOL    HW1 5642   5.098   4.508   5.759
 1581SOL    HW2 5643   5.195   4.622   5.824
 1582SOL     OW 5644   4.197   5.992   3.826
 1582SOL    HW1 5645   4.266   5.983   3.899
 1582SOL    HW2 5646   4.116   5.938   3.851
 1583SOL     OW 5647   0.412   5.436   4.622
 1583SOL    HW1 5648   0.398   5.469   4.715
 1583SOL    HW2 5649   0.359   5.352   4.608
 1584SOL     OW 5650   0.217   4.403   0.105
 1584SOL    HW1 5651   0.300   4.440   0.064
 1584SOL    HW2 5652   0.210   4.306   0.081
 1585SOL     OW 5653   4.722   6.179   4.167
 1585SOL    HW1 5654   4.802   6.239   4.162
 1585SOL    HW2 5655   4.652   6.213   4.104
 1586SOL     OW 5656   2.216   5.995   3.435
 1586SOL    HW1 5657   2.276   6.054   3.380
 1586SOL    HW2 5658   2.174   5.926   3.376
 1587SOL     OW 5659   3.741   6.805   0.560
 1587SOL    HW1 5660   3.734   6.858   0.644
 1587SOL    HW2 5661   3.650   6.783   0.525
 1588SOL     OW 5662   6.387   2.052   3.913
 1588SOL    HW1 5663   6.438   1.966   3.912
 1588SOL    HW2 5664   6.298   2.039   3.870
 1589SOL     OW 5665   0.247   1.495   4.502
 1589SOL    HW1 5666   0.306   1.437   4.558
 1589SOL    HW2 5667   0.219   1.575   4.555
 1590SOL     OW 5668   5.796   0.691   3.787
 1590SOL    HW1 5669   5.874   0.744   3.755
 1590SOL    HW2 5670   5.789   0.606   3.734
 1591SOL     OW 5671   0.180   5.579   0.679
 1591SOL    HW1 5672   0.204   5.570   0.582
 1591SOL    HW2 5673   0.203   5.494   0.727
 1592SOL     OW 5674   6.665   4.324   4.799
 1592SOL    HW1 5675   6.633   4.236   4.834
 1592SOL    HW2 5676   6.587   4.377   4.764
 1593SOL     OW 5677   3.883   5.672   1.720
 1593SOL    HW1 5678   3.802   5.723   1.749
 1593SOL    HW2 5679   3.902   5.690   1.624
 1594SOL     OW 5680   5.330   1.542   2.680
 1594SOL    HW1 5681   5.367   1.634   2.669
 1594SOL    HW2 5682   5.354   1.487   2.600
 1595SOL     OW 5683   0.247   4.216   6.787
 1595SOL    HW1 5684   0.292   4.160   6.856
 1595SOL    HW2 5685   0.292   4.305   6.782
 1596SOL     OW 5686   5.264   4.564   4.065
 1596SOL    HW1 5687   5.290   4.514   4.147
 1596SOL    HW2 5688   5.242   4.499   3.992
 1597SOL     OW 5689   4.335   6.940   1.271
 1597SOL    HW1 5690   4.281   6.889   1.339
 1597SOL    HW2 5691   4.349   6.884   1.190
 1598SOL     OW 5692   0.847   5.305   5.866
 1598SOL    HW1 5693   0.796   5.389   5.849
 1598SOL    HW2 5694   0.920   5.295   5.799
 1599SOL     OW 5695   5.449   5.472   4.044
 1599SOL    HW1 5696   5.371   5.489   3.984
 1599SOL    HW2 5697   5.513   5.410   3.999
 1600SOL     OW 5698   4.602   1.139   1.634
 1600SOL    HW1 5699   4.505   1.143   1.659
 1600SOL    HW2 5700   4.623   1.215   1.572
 1601SOL     OW 5701   6.083   0.612   4.501
 1601SOL    HW1 5702   6.177   0.590   4.526
 1601SOL    HW2 5703   6.083   0.671   4.420
 1602SOL     OW 5704   4.204   5.715   3.210
 1602SOL    HW1 5705   4.297   5.729   3.179
 1602SOL    HW2 5706   4.169   5.628   3.175
 1603SOL     OW 5707   3.353   5.031   1.813
 1603SOL    HW1 5708   3.448   5.007   1.793
 1603SOL    HW2 5709   3.341   5.037   1.913
 1604SOL     OW 5710   4.639   5.269   1.830
 1604SOL    HW1 5711   4.666   5.232   1.919
 1604SOL    HW2 5712   4.719   5.277   1.771
 1605SOL     OW 5713   4.690   4.917   0.124
 1605SOL    HW1 5714   4.767   4.959   0.173
 1605SOL    HW2 5715   4.716   4.827   0.091
 1606SOL     OW 5716   4.723   5.850   4.961
 1606SOL    HW1 5717   4.746   5.773   5.020
 1606SOL    HW2 5718   4.711   5.817   4.867
 1607SOL     OW 5719   5.041   3.906   3.754
 1607SOL    HW1 5720   5.018   3.961   3.834
 1607SOL    HW2 5721   5.129   3.861   3.769
 1608SOL     OW 5722   6.442   3.331   3.179
 1608SOL    HW1 5723   6.491   3.368   3.100
 1608SOL    HW2 5724   6.447   3.231   3.177
 1609SOL     OW 5725   1.859   0.159   0.736
 1609SOL    HW1 5726   1.785   0.223   0.761
 1609SOL    HW2 5727   1.915   0.200   0.664
 1610SOL     OW 5728   5.986   5.809   1.313
 1610SOL    HW1 5729   5.897   5.853   1.301
 1610SOL    HW2 5730   5.997   5.736   1.246
 1611SOL     OW 5731   0.265   4.496   6.658
 1611SOL    HW1 5732   0.284   4.580   6.709
 1611SOL    HW2 5733   0.340   4.478   6.595
 1612SOL     OW 5734   5.157   0.932   2.200
 1612SOL    HW1 5735   5.166   1.032   2.206
 1612SOL    HW2 5736   5.147   0.906   2.104
 1613SOL     OW 5737   0.502   6.173   2.690
 1613SOL    HW1 5738   0.581   6.126   2.729
 1613SOL    HW2 5739   0.435   6.106   2.660
 1614SOL     OW 5740   5.363   1.570   5.558
 1614SOL    HW1 5741   5.350   1.625   5.476
 1614SOL    HW2 5742   5.408   1.625   5.628
 1615SOL     OW 5743   6.702   3.340   5.695
 1615SOL    HW1 5744   6.743   3.345   5.603
 1615SOL    HW2 5745   6.603   3.331   5.687
 1616SOL     OW 5746   0.902   1.352   3.534
 1616SOL    HW1 5747   0.946   1.262   3.537
 1616SOL    HW2 5748   0.907   1.395   3.624
 1617SOL     OW 5749   0.059   5.652   4.292
 1617SOL    HW1 5750   0.081   5.748   4.306
 1617SOL    HW2 5751   6.988   5.643   4.264
 1618SOL     OW 5752   2.735   5.503   3.243
 1618SOL    HW1 5753   2.647   5.473   3.280
 1618SOL    HW2 5754   2.769   5.580   3.297
 1619SOL     OW 5755   0.851   3.674   6.002
 1619SOL    HW1 5756   0.860   3.639   5.909
 1619SOL    HW2 5757   0.830   3.598   6.064
 1620SOL     OW 5758   2.963   6.759   4.560
 1620SOL    HW1 5759   2.997   6.685   4.502
 1620SOL    HW2 5760   2.864   6.750   4.570
 1621SOL     OW 5761   5.735   4.919   0.928
 1621SOL    HW1 5762   5.649   4.951   0.887
 1621SOL    HW2 5763   5.792   4.997   0.952
 1622SOL     OW 5764   6.742   3.156   2.893
 1622SOL    HW1 5765   6.666   3.208   2.931
 1622SOL    HW2 5766   6.812   3.218   2.860
 1623SOL     OW 5767   0.388   2.647   3.969
 1623SOL    HW1 5768   0.357   2.579   4.037
 1623SOL    HW2 5769   0.392   2.603   3.879
 1624SOL     OW 5770   4.459   3.012   0.452
 1624SOL    HW1 5771   4.373   3.024   0.503
 1624SOL    HW2 5772   4.533   2.991   0.517
 1625SOL     OW 5773   1.079   6.170   0.526
 1625SOL    HW1 5774   1.149   6.175   0.455
 1625SOL    HW2 5775   0.990   6.195   0.488
 1626SOL     OW 5776   2.546   1.765   1.931
 1626SOL    HW1 5777   2.472   1.715   1.885
 1626SOL    HW2 5778   2.537   1.754   2.030
 1627SOL     OW 5779   4.656   1.770   6.366
 1627SOL    HW1 5780   4.642   1.678   6.328
 1627SOL    HW2 5781   4.753   1.781   6.389
 1628SOL     OW 5782   5.200   5.883   0.982
 1628SOL    HW1 5783   5.155   5.884   1.071
 1628SOL    HW2 5784   5.131   5.886   0.910
 1629SOL     OW 5785   1.653   6.803   3.098
 1629SOL    HW1 5786   1.663   6.896   3.064
 1629SOL    HW2 5787   1.603   6.804   3.184
 1630SOL     OW 5788   0.407   4.846   6.154
 1630SOL    HW1 5789   0.430   4.943   6.145
 1630SOL    HW2 5790   0.490   4.793   6.170
 1631SOL     OW 5791   4.919   4.414   0.176
 1631SOL    HW1 5792   4.839   4.458   0.216
 1631SOL    HW2 5793   4.980   4.484   0.139
 1632SOL     OW 5794   6.341   6.570   2.458
 1632SOL    HW1 5795   6.258   6.576   2.403
 1632SOL    HW2 5796   6.339   6.485   2.512
 1633SOL     OW 5797   6.367   3.809   4.359
 1633SOL    HW1 5798   6.455   3.762   4.350
 1633SOL    HW2 5799   6.351   3.865   4.278
 1634SOL     OW 5800   1.613   3.831   6.467
 1634SOL    HW1 5801   1.529   3.812   6.517
 1634SOL    HW2 5802   1.594   3.836   6.369
 1635SOL     OW 5803   2.927   0.774   4.294
 1635SOL    HW1 5804   2.954   0.847   4.231
 1635SOL    HW2 5805   2.856   0.808   4.355
 1636SOL     OW 5806   0.178   6.111   1.531
 1636SOL    HW1 5807   0.178   6.202   1.572
 1636SOL    HW2 5808   0.100   6.102   1.470
 1637SOL     OW 5809   1.265   1.141   1.911
 1637SOL    HW1 5810   1.169   1.169   1.900
 1637SOL    HW2 5811   1.286   1.130   2.008
 1638SOL     OW 5812   5.409   2.367   3.458
 1638SOL    HW1 5813   5.373   2.337   3.370
 1638SOL    HW2 5814   5.440   2.287   3.510
 1639SOL     OW 5815   4.744   2.255   1.147
 1639SOL    HW1 5816   4.747   2.214   1.239
 1639SOL    HW2 5817   4.686   2.336   1.149
 1640SOL     OW 5818   6.373   1.122   0.133
 1640SOL    HW1 5819   6.369   1.108   0.034
 1640SOL    HW2 5820   6.291   1.170   0.163
 1641SOL     OW 5821   5.791   1.211   3.161
 1641SOL    HW1 5822   5.706   1.203   3.109
 1641SOL    HW2 5823   5.770   1.241   3.254
 1642SOL     OW 5824   6.989   3.157   6.016
 1642SOL    HW1 5825   7.013   3.252   6.037
 1642SOL    HW2 5826   0.044   3.111   5.976
 1643SOL     OW 5827   2.248   5.005   4.384
 1643SOL    HW1 5828   2.341   5.037   4.367
 1643SOL    HW2 5829   2.252   4.916   4.431
 1644SOL     OW 5830   5.794   1.700   1.252
 1644SOL    HW1 5831   5.818   1.628   1.316
 1644SOL    HW2 5832   5.841   1.685   1.165
 1645SOL     OW 5833   2.515   1.072   4.516
 1645SOL    HW1 5834   2.442   1.117   4.466
 1645SOL    HW2 5835   2.563   1.008   4.456
 1646SOL     OW 5836   0.164   5.555   1.700
 1646SOL    HW1 5837   0.100   5.489   1.737
 1646SOL    HW2 5838   0.162   5.552   1.600
 1647SOL     OW 5839   6.346   3.061   5.033
 1647SOL    HW1 5840   6.321   3.109   5.117
 1647SOL    HW2 5841   6.383   3.127   4.967
 1648SOL     OW 5842   5.548   5.985   2.284
 1648SOL    HW1 5843   5.501   6.058   2.334
 1648SOL    HW2 5844   5.483   5.936   2.226
 1649SOL     OW 5845   3.859   0.605   2.596
 1649SOL    HW1 5846   3.921   0.669   2.640
 1649SOL    HW2 5847   3.787   0.655   2.548
 1650SOL     OW 5848   2.553   2.520   5.093
 1650SOL    HW1 5849   2.616   2.566   5.155
 1650SOL    HW2 5850   2.493   2.589   5.051
 1651SOL     OW 5851   1.258   2.253   4.184
 1651SOL    HW1 5852   1.275   2.348   4.158
 1651SOL    HW2 5853   1.184   2.216   4.128
 1652SOL     OW 5854   6.992   4.293   1.777
 1652SOL    HW1 5855   6.999   4.249   1.866
 1652SOL    HW2 5856   0.054   4.281   1.727
 1653SOL     OW 5857   6.575   4.212   1.814
 1653SOL    HW1 5858   6.568   4.118   1.779
 1653SOL    HW2 5859   6.630   4.213   1.897
 1654SOL     OW 5860   6.864   3.612   1.700
 1654SOL    HW1 5861   6.883   3.703   1.665
 1654SOL    HW2 5862   6.819   3.619   1.789
 1655SOL     OW 5863   6.924   0.309   5.837
 1655SOL    HW1 5864   7.008   0.337   5.791
 1655SOL    HW2 5865   6.938   0.308   5.936
 1656SOL     OW 5866   2.279   4.175   2.609
 1656SOL    HW1 5867   2.281   4.274   2.595
 1656SOL    HW2 5868   2.345   4.131   2.548
 1657SOL     OW 5869   0.308   1.281   6.007
 1657SOL    HW1 5870   0.338   1.202   5.954
 1657SOL    HW2 5871   0.222   1.259   6.054
 1658SOL     OW 5872   5.269   6.816   5.561
 1658SOL    HW1 5873   5.237   6.738   5.615
 1658SOL    HW2 5874   5.343   6.861   5.611
 1659SOL     OW 5875   3.260   0.293   6.357
 1659SOL    HW1 5876   3.349   0.256   6.331
 1659SOL    HW2 5877   3.190   0.260   6.293
 1660SOL     OW 5878   2.815   0.764   2.366
 1660SOL    HW1 5879   2.820   0.709   2.283
 1660SOL    HW2 5880   2.903   0.811   2.379
 1661SOL     OW 5881   4.764   5.173   3.379
 1661SOL    HW1 5882   4.813   5.118   3.310
 1661SOL    HW2 5883   4.713   5.112   3.440
 1662SOL     OW 5884   0.144   1.604   3.763
 1662SOL    HW1 5885   0.185   1.518   3.732
 1662SOL    HW2 5886   0.047   1.590   3.782
 1663SOL     OW 5887   5.828   4.098   0.941
 1663SOL    HW1 5888   5.756   4.133   1.000
 1663SOL    HW2 5889   5.832   3.999   0.948
 1664SOL     OW 5890   1.395   1.813   6.253
 1664SOL    HW1 5891   1.362   1.802   6.159
 1664SOL    HW2 5892   1.326   1.859   6.308
 1665SOL     OW 5893   1.990   4.326   6.864
 1665SOL    HW1 5894   2.052   4.252   6.836
 1665SOL    HW2 5895   2.000   4.341   6.963
 1666SOL     OW 5896   5.541   6.385   5.404
 1666SOL    HW1 5897   5.549   6.291   5.436
 1666SOL    HW2 5898   5.613   6.404   5.337
 1667SOL     OW 5899   6.667   4.900   1.307
 1667SOL    HW1 5900   6.756   4.883   1.349
 1667SOL    HW2 5901   6.641   4.996   1.320
 1668SOL     OW 5902   6.663   3.397   1.705
 1668SOL    HW1 5903   6.692   3.436   1.618
 1668SOL    HW2 5904   6.568   3.421   1.723
 1669SOL     OW 5905   6.266   2.486   5.074
 1669SOL    HW1 5906   6.186   2.427   5.064
 1669SOL    HW2 5907   6.286   2.529   4.986
 1670SOL     OW 5908   3.109   4.428   5.368
 1670SOL    HW1 5909   3.035   4.462   5.309
 1670SOL    HW2 5910   3.192   4.418   5.314
 1671SOL     OW 5911   5.953   2.276   0.830
 1671SOL    HW1 5912   6.039   2.288   0.779
 1671SOL    HW2 5913   5.932   2.360   0.879
 1672SOL     OW 5914   0.294   2.062   1.536
 1672SOL    HW1 5915   0.356   2.018   1.601
 1672SOL    HW2 5916   0.236   2.127   1.585
 1673SOL     OW 5917   1.155   0.485   5.729
 1673SOL    HW1 5918   1.136   0.582   5.709
 1673SOL    HW2 5919   1.241   0.479   5.781
 1674SOL     OW 5920   5.093   2.508   3.020
 1674SOL    HW1 5921   5.055   2.595   2.989
 1674SOL    HW2 5922   5.054   2.485   3.110
 1675SOL     OW 5923   5.458   1.113   2.185
 1675SOL    HW1 5924   5.382   1.136   2.246
 1675SOL    HW2 5925   5.499   1.027   2.215
 1676SOL     OW 5926   1.311   2.510   4.104
 1676SOL    HW1 5927   1.395   2.562   4.092
 1676SOL    HW2 5928   1.243   2.567   4.150
 1677SOL     OW 5929   3.209   3.994   2.311
 1677SOL    HW1 5930   3.296   4.018   2.267
 1677SOL    HW2 5931   3.228   3.948   2.398
 1678SOL     OW 5932   0.384   6.811   0.099
 1678SOL    HW1 5933   0.357   6.892   0.047
 1678SOL    HW2 5934   0.409   6.737   0.036
 1679SOL     OW 5935   5.992   1.920   0.604
 1679SOL    HW1 5936   6.076   1.867   0.590
 1679SOL    HW2 5937   6.013   2.001   0.659
 1680SOL     OW 5938   5.649   2.443   2.925
 1680SOL    HW1 5939   5.684   2.494   3.003
 1680SOL    HW2 5940   5.571   2.387   2.954
 1681SOL     OW 5941   3.837   6.181   4.323
 1681SOL    HW1 5942   3.868   6.147   4.234
 1681SOL    HW2 5943   3.798   6.273   4.312
 1682SOL     OW 5944   3.693   1.158   5.226
 1682SOL    HW1 5945   3.650   1.151   5.136
 1682SOL    HW2 5946   3.754   1.237   5.227
 1683SOL     OW 5947   0.914   3.285   2.742
 1683SOL    HW1 5948   0.950   3.370   2.780
 1683SOL    HW2 5949   0.832   3.304   2.689
 1684SOL     OW 5950   3.186   5.375   1.420
 1684SOL    HW1 5951   3.250   5.444   1.457
 1684SOL    HW2 5952   3.212   5.285   1.455
 1685SOL     OW 5953   0.370   1.705   5.613
 1685SOL    HW1 5954   0.342   1.678   5.705
 1685SOL    HW2 5955   0.441   1.642   5.580
 1686SOL     OW 5956   3.566   5.258   1.634
 1686SOL    HW1 5957   3.614   5.182   1.590
 1686SOL    HW2 5958   3.574   5.340   1.576
 1687SOL     OW 5959   4.402   4.372   0.218
 1687SOL    HW1 5960   4.420   4.274   0.207
 1687SOL    HW2 5961   4.304   4.389   0.215
 1688SOL     OW 5962   2.988   0.315   3.223
 1688SOL    HW1 5963   2.978   0.331   3.125
 1688SOL    HW2 5964   2.962   0.398   3.273
 1689SOL     OW 5965   3.994   0.722   1.735
 1689SOL    HW1 5966   4.092   0.716   1.751
 1689SOL    HW2 5967   3.952   0.781   1.804
 1690SOL     OW 5968   6.933   4.532   4.455
 1690SOL    HW1 5969   6.903   4.558   4.547
 1690SOL    HW2 5970   6.928   4.433   4.445
 1691SOL     OW 5971   4.286   2.568   5.338
 1691SOL    HW1 5972   4.372   2.616   5.355
 1691SOL    HW2 5973   4.283   2.537   5.243
 1692SOL     OW 5974   6.682   5.074   2.472
 1692SOL    HW1 5975   6.612   5.144   2.485
 1692SOL    HW2 5976   6.772   5.112   2.497
 1693SOL     OW 5977   5.571   6.835   5.119
 1693SOL    HW1 5978   5.548   6.887   5.037
 1693SOL    HW2 5979   5.546   6.739   5.106
 1694SOL     OW 5980   4.644   1.107   6.626
 1694SOL    HW1 5981   4.612   1.176   6.690
 1694SOL    HW2 5982   4.742   1.119   6.609
 1695SOL     OW 5983   4.498   7.012   4.796
 1695SOL    HW1 5984   4.585   6.978   4.761
 1695SOL    HW2 5985   4.498   0.087   4.795
 1696SOL     OW 5986   4.926   6.867   1.146
 1696SOL    HW1 5987   4.904   6.770   1.155
 1696SOL    HW2 5988   5.010   6.887   1.197
 1697SOL     OW 5989   4.173   3.269   1.715
 1697SOL    HW1 5990   4.082   3.227   1.717
 1697SOL    HW2 5991   4.242   3.198   1.716
 1698SOL     OW 5992   4.291   1.104   1.993
 1698SOL    HW1 5993   4.302   1.022   2.047
 1698SOL    HW2 5994   4.372   1.163   2.004
 1699SOL     OW 5995   1.707   0.848   1.231
 1699SOL    HW1 5996   1.714   0.947   1.222
 1699SOL    HW2 5997   1.799   0.808   1.228
 1700SOL     OW 5998   5.653   3.439   2.439
 1700SOL    HW1 5999   5.635   3.449   2.537
 1700SOL    HW2 6000   5.604   3.360   2.404
 1701SOL     OW 6001   1.157   5.377   5.409
 1701SOL    HW1 6002   1.229   5.415   5.467
 1701SOL    HW2 6003   1.194   5.360   5.318
 1702SOL     OW 6004   2.164   2.213   6.961
 1702SOL    HW1 6005   2.190   2.309   6.976
 1702SOL    HW2 6006   2.219   2.175   6.886
 1703SOL     OW 6007   1.516   2.469   2.349
 1703SOL    HW1 6008   1.439   2.478   2.412
 1703SOL    HW2 6009   1.509   2.382   2.301
 1704SOL     OW 6010   3.062   3.128   6.677
 1704SOL    HW1 6011   3.141   3.131   6.616
 1704SOL    HW2 6012   2.990   3.074   6.635
 1705SOL     OW 6013   5.326   2.788   0.783
 1705SOL    HW1 6014   5.409   2.742   0.815
 1705SOL    HW2 6015   5.338   2.887   0.788
 1706SOL     OW 6016   5.429   0.592   5.860
 1706SOL    HW1 6017   5.505   0.557   5.806
 1706SOL    HW2 6018   5.388   0.670   5.813
 1707SOL     OW 6019   3.331   1.619   2.313
 1707SOL    HW1 6020   3.398   1.680   2.357
 1707SOL    HW2 6021   3.308   1.655   2.223
 1708SOL     OW 6022   2.722   4.901   2.003
 1708SOL    HW1 6023   2.766   4.814   2.025
 1708SOL    HW2 6024   2.683   4.897   1.911
 1709SOL     OW 6025   5.391   5.144   1.663
 1709SOL    HW1 6026   5.325   5.109   1.596
 1709SOL    HW2 6027   5.376   5.100   1.751
 1710SOL     OW 6028   4.610   2.660   2.040
 1710SOL    HW1 6029   4.604   2.571   2.086
 1710SOL    HW2 6030   4.652   2.727   2.102
 1711SOL     OW 6031   4.506   5.346   6.892
 1711SOL    HW1 6032   4.481   5.378   6.801
 1711SOL    HW2 6033   4.605   5.344   6.900
 1712SOL     OW 6034   0.575   1.944   2.437
 1712SOL    HW1 6035   0.573   1.845   2.453
 1712SOL    HW2 6036   0.553   1.962   2.341
 1713SOL     OW 6037   2.784   1.445   2.477
 1713SOL    HW1 6038   2.781   1.542   2.455
 1713SOL    HW2 6039   2.739   1.429   2.565
 1714SOL     OW 6040   2.964   4.640   1.436
 1714SOL    HW1 6041   2.931   4.546   1.446
 1714SOL    HW2 6042   2.914   4.684   1.361
 1715SOL     OW 6043   1.673   6.308   0.916
 1715SOL    HW1 6044   1.651   6.218   0.877
 1715SOL    HW2 6045   1.724   6.296   1.001
 1716SOL     OW 6046   4.992   1.447   2.778
 1716SOL    HW1 6047   5.069   1.433   2.840
 1716SOL    HW2 6048   5.008   1.528   2.722
 1717SOL     OW 6049   3.487   5.825   3.852
 1717SOL    HW1 6050   3.410   5.887   3.860
 1717SOL    HW2 6051   3.538   5.822   3.939
 1718SOL     OW 6052   1.730   3.533   1.824
 1718SOL    HW1 6053   1.714   3.474   1.745
 1718SOL    HW2 6054   1.811   3.502   1.873
 1719SOL     OW 6055   1.121   4.812   3.367
 1719SOL    HW1 6056   1.029   4.852   3.362
 1719SOL    HW2 6057   1.114   4.713   3.375
 1720SOL     OW 6058   1.370   3.043   5.392
 1720SOL    HW1 6059   1.378   3.061   5.294
 1720SOL    HW2 6060   1.380   2.945   5.409
 1721SOL     OW 6061   2.325   2.640   0.139
 1721SOL    HW1 6062   2.381   2.722   0.136
 1721SOL    HW2 6063   2.339   2.593   0.226
 1722SOL     OW 6064   3.149   2.143   3.108
 1722SOL    HW1 6065   3.168   2.049   3.079
 1722SOL    HW2 6066   3.232   2.183   3.146
 1723SOL     OW 6067   6.576   4.780   1.593
 1723SOL    HW1 6068   6.597   4.771   1.495
 1723SOL    HW2 6069   6.498   4.841   1.605
 1724SOL     OW 6070   6.100   3.563   0.869
 1724SOL    HW1 6071   6.126   3.626   0.942
 1724SOL    HW2 6072   6.180   3.510   0.841
 1725SOL     OW 6073   1.766   6.825   5.500
 1725SOL    HW1 6074   1.770   6.876   5.414
 1725SOL    HW2 6075   1.728   6.734   5.483
 1726SOL     OW 6076   5.129   4.907   3.388
 1726SOL    HW1 6077   5.142   4.998   3.428
 1726SOL    HW2 6078   5.203   4.889   3.322
 1727SOL     OW 6079   2.875   3.522   4.123
 1727SOL    HW1 6080   2.885   3.597   4.187
 1727SOL    HW2 6081   2.818   3.450   4.163
 1728SOL     OW 6082   5.626   2.112   4.866
 1728SOL    HW1 6083   5.528   2.092   4.862
 1728SOL    HW2 6084   5.658   2.103   4.961
 1729SOL     OW 6085   1.915   3.621   3.041
 1729SOL    HW1 6086   2.004   3.577   3.028
 1729SOL    HW2 6087   1.861   3.610   2.958
 1730SOL     OW 6088   2.766   0.854   4.781
 1730SOL    HW1 6089   2.865   0.844   4.782
 1730SOL    HW2 6090   2.723   0.767   4.808
 1731SOL     OW 6091   5.804   4.449   3.495
 1731SOL    HW1 6092   5.834   4.408   3.408
 1731SOL    HW2 6093   5.810   4.548   3.488
 1732SOL     OW 6094   4.058   3.347   5.159
 1732SOL    HW1 6095   4.104   3.261   5.184
 1732SOL    HW2 6096   4.040   3.347   5.060
 1733SOL     OW 6097   1.144   1.848   7.004
 1733SOL    HW1 6098   1.050   1.881   6.998
 1733SOL    HW2 6099   1.206   1.926   7.015
 1734SOL     OW 6100   0.767   4.200   1.851
 1734SOL    HW1 6101   0.818   4.117   1.832
 1734SOL    HW2 6102   0.702   4.184   1.926
 1735SOL     OW 6103   3.388   5.577   5.875
 1735SOL    HW1 6104   3.400   5.600   5.779
 1735SOL    HW2 6105   3.302   5.527   5.887
 1736SOL     OW 6106   4.763   1.911   5.645
 1736SOL    HW1 6107   4.756   1.983   5.575
 1736SOL    HW2 6108   4.827   1.841   5.614
 1737SOL     OW 6109   2.441   1.197   6.504
 1737SOL    HW1 6110   2.492   1.226   6.423
 1737SOL    HW2 6111   2.500   1.142   6.563
 1738SOL     OW 6112   1.240   3.730   1.994
 1738SOL    HW1 6113   1.213   3.720   2.089
 1738SOL    HW2 6114   1.340   3.737   1.988
 1739SOL     OW 6115   4.577   5.038   2.317
 1739SOL    HW1 6116   4.609   4.979   2.243
 1739SOL    HW2 6117   4.498   5.091   2.285
 1740SOL     OW 6118   6.660   2.278   4.733
 1740SOL    HW1 6119   6.621   2.249   4.820
 1740SOL    HW2 6120   6.724   2.209   4.700
 1741SOL     OW 6121   1.124   3.132   4.419
 1741SOL    HW1 6122   1.106   3.195   4.494
 1741SOL    HW2 6123   1.198   3.069   4.444
 1742SOL     OW 6124   5.986   0.056   0.004
 1742SOL    HW1 6125   5.973   0.118   6.951
 1742SOL    HW2 6126   6.050   7.008   7.004
 1743SOL     OW 6127   1.252   2.357   1.799
 1743SOL    HW1 6128   1.335   2.380   1.748
 1743SOL    HW2 6129   1.213   2.273   1.762
 1744SOL     OW 6130   3.344   1.802   5.217
 1744SOL    HW1 6131   3.438   1.803   5.184
 1744SOL    HW2 6132   3.333   1.874   5.286
 1745SOL     OW 6133   6.304   6.552   0.982
 1745SOL    HW1 6134   6.250   6.472   0.955
 1745SOL    HW2 6135   6.248   6.634   0.974
 1746SOL     OW 6136   2.385   5.493   2.813
 1746SOL    HW1 6137   2.413   5.532   2.726
 1746SOL    HW2 6138   2.388   5.393   2.807
 1747SOL     OW 6139   2.760   6.726   1.940
 1747SOL    HW1 6140   2.721   6.769   1.859
 1747SOL    HW2 6141   2.840   6.777   1.971
 1748SOL     OW 6142   6.943   1.487   3.681
 1748SOL    HW1 6143   6.922   1.582   3.659
 1748SOL    HW2 6144   6.872   1.450   3.741
 1749SOL     OW 6145   6.617   5.029   2.828
 1749SOL    HW1 6146   6.579   5.115   2.793
 1749SOL    HW2 6147   6.671   4.985   2.756
 1750SOL     OW 6148   2.610   1.374   1.332
 1750SOL    HW1 6149   2.522   1.378   1.379
 1750SOL    HW2 6150   2.595   1.364   1.234
 1751SOL     OW 6151   6.207   4.168   4.548
 1751SOL    HW1 6152   6.235   4.264   4.545
 1751SOL    HW2 6153   6.122   4.160   4.601
 1752SOL     OW 6154   6.363   0.724   2.377
 1752SOL    HW1 6155   6.321   0.699   2.290
 1752SOL    HW2 6156   6.392   0.641   2.426
 1753SOL     OW 6157   6.413   1.389   1.515
 1753SOL    HW1 6158   6.355   1.454   1.564
 1753SOL    HW2 6159   6.419   1.415   1.418
 1754SOL     OW 6160   2.099   5.307   3.501
 1754SOL    HW1 6161   2.146   5.267   3.422
 1754SOL    HW2 6162   2.118   5.253   3.583
 1755SOL     OW 6163   5.889   6.172   5.411
 1755SOL    HW1 6164   5.816   6.168   5.478
 1755SOL    HW2 6165   5.852   6.199   5.322
 1756SOL     OW 6166   4.473   6.108   1.530
 1756SOL    HW1 6167   4.384   6.153   1.541
 1756SOL    HW2 6168   4.531   6.129   1.608
 1757SOL     OW 6169   2.606   4.938   4.881
 1757SOL    HW1 6170   2.674   4.866   4.874
 1757SOL    HW2 6171   2.648   5.026   4.862
 1758SOL     OW 6172   0.595   6.513   4.070
 1758SOL    HW1 6173   0.618   6.417   4.052
 1758SOL    HW2 6174   0.496   6.522   4.084
 1759SOL     OW 6175   1.670   5.477   6.329
 1759SOL    HW1 6176   1.741   5.410   6.307
 1759SOL    HW2 6177   1.704   5.569   6.312
 1760SOL     OW 6178   5.887   1.385   3.972
 1760SOL    HW1 6179   5.837   1.314   4.021
 1760SOL    HW2 6180   5.849   1.475   3.995
 1761SOL     OW 6181   5.337   2.329   3.826
 1761SOL    HW1 6182   5.397   2.283   3.761
 1761SOL    HW2 6183   5.326   2.273   3.908
 1762SOL     OW 6184   0.946   1.753   5.864
 1762SOL    HW1 6185   0.905   1.749   5.772
 1762SOL    HW2 6186   0.874   1.761   5.932
 1763SOL     OW 6187   1.452   4.648   3.841
 1763SOL    HW1 6188   1.430   4.745   3.833
 1763SOL    HW2 6189   1.545   4.632   3.810
 1764SOL     OW 6190   0.724   5.730   3.683
 1764SOL    HW1 6191   0.778   5.749   3.602
 1764SOL    HW2 6192   0.630   5.761   3.669
 1765SOL     OW 6193   5.482   3.936   2.221
 1765SOL    HW1 6194   5.442   3.844   2.228
 1765SOL    HW2 6195   5.572   3.929   2.177
 1766SOL     OW 6196   4.293   5.169   3.771
 1766SOL    HW1 6197   4.277   5.248   3.712
 1766SOL    HW2 6198   4.205   5.135   3.805
 1767SOL     OW 6199   1.518   4.192   1.571
 1767SOL    HW1 6200   1.444   4.251   1.604
 1767SOL    HW2 6201   1.586   4.247   1.523
 1768SOL     OW 6202   3.537   4.894   3.106
 1768SOL    HW1 6203   3.443   4.871   3.131
 1768SOL    HW2 6204   3.599   4.868   3.180
 1769SOL     OW 6205   5.094   0.567   1.066
 1769SOL    HW1 6206   5.070   0.498   0.998
 1769SOL    HW2 6207   5.079   0.529   1.158
 1770SOL     OW 6208   2.259   4.578   0.654
 1770SOL    HW1 6209   2.228   4.571   0.749
 1770SOL    HW2 6210   2.245   4.671   0.621
 1771SOL     OW 6211   1.382   3.096   6.045
 1771SOL    HW1 6212   1.285   3.069   6.045
 1771SOL    HW2 6213   1.392   3.181   6.096
 1772SOL     OW 6214   2.638   5.006   2.521
 1772SOL    HW1 6215   2.735   5.030   2.518
 1772SOL    HW2 6216   2.627   4.908   2.505
 1773SOL     OW 6217   2.209   6.350   4.710
 1773SOL    HW1 6218   2.110   6.361   4.699
 1773SOL    HW2 6219   2.227   6.306   4.798
 1774SOL     OW 6220   5.628   5.472   1.737
 1774SOL    HW1 6221   5.530   5.488   1.749
 1774SOL    HW2 6222   5.666   5.542   1.676
 1775SOL     OW 6223   1.737   6.637   1.085
 1775SOL    HW1 6224   1.816   6.601   1.034
 1775SOL    HW2 6225   1.765   6.717   1.137
 1776SOL     OW 6226   4.839   3.390   6.570
 1776SOL    HW1 6227   4.849   3.350   6.479
 1776SOL    HW2 6228   4.777   3.469   6.565
 1777SOL     OW 6229   4.768   5.326   6.918
 1777SOL    HW1 6230   4.813   5.245   6.955
 1777SOL    HW2 6231   4.831   5.374   6.857
 1778SOL     OW 6232   6.995   0.746   3.361
 1778SOL    HW1 6233   7.013   0.681   3.435
 1778SOL    HW2 6234   0.046   0.744   3.296
 1779SOL     OW 6235   6.713   0.152   4.446
 1779SOL    HW1 6236   6.709   0.215   4.524
 1779SOL    HW2 6237   6.647   0.181   4.377
 1780SOL     OW 6238   2.786   6.691   4.267
 1780SOL    HW1 6239   2.799   6.670   4.170
 1780SOL    HW2 6240   2.759   6.786   4.278
 1781SOL     OW 6241   4.950   1.549   6.317
 1781SOL    HW1 6242   5.001   1.504   6.390
 1781SOL    HW2 6243   4.990   1.524   6.229
 1782SOL     OW 6244   4.958   0.354   2.433
 1782SOL    HW1 6245   4.951   0.451   2.410
 1782SOL    HW2 6246   4.867   0.314   2.440
 1783SOL     OW 6247   1.961   3.317   0.182
 1783SOL    HW1 6248   1.892   3.367   0.235
 1783SOL    HW2 6249   1.957   3.220   0.205
 1784SOL     OW 6250   2.159   5.675   1.469
 1784SOL    HW1 6251   2.105   5.602   1.511
 1784SOL    HW2 6252   2.107   5.715   1.393
 1785SOL     OW 6253   1.927   5.055   4.307
 1785SOL    HW1 6254   1.891   5.118   4.238
 1785SOL    HW2 6255   2.026   5.067   4.314
 1786SOL     OW 6256   0.318   5.645   1.917
 1786SOL    HW1 6257   0.278   5.614   1.831
 1786SOL    HW2 6258   0.416   5.623   1.919
 1787SOL     OW 6259   2.652   2.544   6.259
 1787SOL    HW1 6260   2.746   2.567   6.237
 1787SOL    HW2 6261   2.597   2.627   6.268
 1788SOL     OW 6262   3.712   4.366   0.571
 1788SOL    HW1 6263   3.700   4.385   0.473
 1788SOL    HW2 6264   3.701   4.268   0.587
 1789SOL     OW 6265   5.724   2.922   2.354
 1789SOL    HW1 6266   5.674   2.973   2.284
 1789SOL    HW2 6267   5.816   2.901   2.321
 1790SOL     OW 6268   2.561   1.951   5.038
 1790SOL    HW1 6269   2.497   2.016   4.995
 1790SOL    HW2 6270   2.511   1.892   5.100
 1791SOL     OW 6271   6.492   0.281   3.517
 1791SOL    HW1 6272   6.477   0.310   3.422
 1791SOL    HW2 6273   6.413   0.227   3.548
 1792SOL     OW 6274   6.932   2.705   6.109
 1792SOL    HW1 6275   6.941   2.745   6.018
 1792SOL    HW2 6276   6.880   2.767   6.168
 1793SOL     OW 6277   0.752   1.641   5.070
 1793SOL    HW1 6278   0.667   1.689   5.093
 1793SOL    HW2 6279   0.809   1.633   5.152
 1794SOL     OW 6280   6.469   1.830   6.675
 1794SOL    HW1 6281   6.419   1.916   6.684
 1794SOL    HW2 6282   6.535   1.837   6.600
 1795SOL     OW 6283   5.470   4.358   0.573
 1795SOL    HW1 6284   5.555   4.409   0.556
 1795SOL    HW2 6285   5.415   4.357   0.489
 1796SOL     OW 6286   6.202   0.409   0.129
 1796SOL    HW1 6287   6.194   0.381   0.224
 1796SOL    HW2 6288   6.111   0.416   0.089
 1797SOL     OW 6289   3.386   6.311   5.513
 1797SOL    HW1 6290   3.320   6.236   5.501
 1797SOL    HW2 6291   3.376   6.376   5.438
 1798SOL     OW 6292   2.600   3.763   0.015
 1798SOL    HW1 6293   2.655   3.724   6.966
 1798SOL    HW2 6294   2.658   3.822   0.072
 1799SOL     OW 6295   3.323   1.751   2.067
 1799SOL    HW1 6296   3.309   1.850   2.065
 1799SOL    HW2 6297   3.332   1.716   1.974
 1800SOL     OW 6298   5.636   2.251   5.793
 1800SOL    HW1 6299   5.569   2.293   5.732
 1800SOL    HW2 6300   5.676   2.170   5.749
 1801SOL     OW 6301   0.757   1.803   2.218
 1801SOL    HW1 6302   0.832   1.864   2.191
 1801SOL    HW2 6303   0.689   1.799   2.145
 1802SOL     OW 6304   6.256   4.439   4.528
 1802SOL    HW1 6305   6.255   4.526   4.478
 1802SOL    HW2 6306   6.346   4.428   4.572
 1803SOL     OW 6307   7.016   6.221   3.820
 1803SOL    HW1 6308   7.016   6.223   3.920
 1803SOL    HW2 6309   0.029   6.307   3.786
 1804SOL     OW 6310   1.015   3.111   6.352
 1804SOL    HW1 6311   0.947   3.060   6.405
 1804SOL    HW2 6312   1.013   3.207   6.379
 1805SOL     OW 6313   6.337   4.678   5.679
 1805SOL    HW1 6314   6.391   4.713   5.603
 1805SOL    HW2 6315   6.261   4.624   5.643
 1806SOL     OW 6316   0.289   1.132   1.165
 1806SOL    HW1 6317   0.299   1.147   1.066
 1806SOL    HW2 6318   0.229   1.202   1.203
 1807SOL     OW 6319   6.205   2.361   2.268
 1807SOL    HW1 6320   6.212   2.420   2.188
 1807SOL    HW2 6321   6.141   2.401   2.334
 1808SOL     OW 6322   6.453   0.383   0.028
 1808SOL    HW1 6323   6.353   0.374   0.025
 1808SOL    HW2 6324   6.482   0.407   0.120
 1809SOL     OW 6325   4.524   0.431   5.116
 1809SOL    HW1 6326   4.607   0.475   5.081
 1809SOL    HW2 6327   4.450   0.440   5.048
 1810SOL     OW 6328   1.290   1.914   5.172
 1810SOL    HW1 6329   1.349   1.884   5.097
 1810SOL    HW2 6330   1.297   1.850   5.248
 1811SOL     OW 6331   3.721   5.412   1.897
 1811SOL    HW1 6332   3.787   5.470   1.848
 1811SOL    HW2 6333   3.712   5.325   1.848
 1812SOL     OW 6334   4.229   0.916   6.481
 1812SOL    HW1 6335   4.238   0.992   6.546
 1812SOL    HW2 6336   4.148   0.863   6.504
 1813SOL     OW 6337   5.780   3.748   1.693
 1813SOL    HW1 6338   5.716   3.800   1.636
 1813SOL    HW2 6339   5.789   3.792   1.782
 1814SOL     OW 6340   6.528   5.712   0.958
 1814SOL    HW1 6341   6.553   5.808   0.946
 1814SOL    HW2 6342   6.606   5.654   0.935
 1815SOL     OW 6343   6.275   5.461   1.433
 1815SOL    HW1 6344   6.310   5.368   1.432
 1815SOL    HW2 6345   6.180   5.461   1.465
 1816SOL     OW 6346   3.401   5.155   4.680
 1816SOL    HW1 6347   3.412   5.096   4.760
 1816SOL    HW2 6348   3.481   5.145   4.619
 1817SOL     OW 6349   6.744   2.518   3.502
 1817SOL    HW1 6350   6.753   2.495   3.405
 1817SOL    HW2 6351   6.654   2.488   3.534
 1818SOL     OW 6352   2.373   1.804   0.432
 1818SOL    HW1 6353   2.455   1.778   0.484
 1818SOL    HW2 6354   2.373   1.903   0.417
 1819SOL     OW 6355   0.884   3.320   1.278
 1819SOL    HW1 6356   0.829   3.379   1.220
 1819SOL    HW2 6357   0.980   3.327   1.251
 1820SOL     OW 6358   4.188   6.718   5.007
 1820SOL    HW1 6359   4.141   6.797   5.047
 1820SOL    HW2 6360   4.286   6.737   5.001
 1821SOL     OW 6361   3.538   1.283   2.317
 1821SOL    HW1 6362   3.601   1.323   2.250
 1821SOL    HW2 6363   3.573   1.300   2.409
 1822SOL     OW 6364   2.052   3.991   4.742
 1822SOL    HW1 6365   2.101   4.061   4.795
 1822SOL    HW2 6366   2.098   3.977   4.655
 1823SOL     OW 6367   4.124   6.926   3.651
 1823SOL    HW1 6368   4.168   6.964   3.732
 1823SOL    HW2 6369   4.032   6.895   3.673
 1824SOL     OW 6370   4.624   2.665   1.774
 1824SOL    HW1 6371   4.598   2.698   1.865
 1824SOL    HW2 6372   4.562   2.591   1.747
 1825SOL     OW 6373   1.395   3.838   0.230
 1825SOL    HW1 6374   1.391   3.771   0.305
 1825SOL    HW2 6375   1.479   3.824   0.178
 1826SOL     OW 6376   3.746   3.365   0.262
 1826SOL    HW1 6377   3.807   3.309   0.319
 1826SOL    HW2 6378   3.660   3.379   0.310
 1827SOL     OW 6379   5.204   4.692   0.651
 1827SOL    HW1 6380   5.274   4.657   0.713
 1827SOL    HW2 6381   5.225   4.664   0.558
 1828SOL     OW 6382   2.379   5.314   5.006
 1828SOL    HW1 6383   2.402   5.217   4.993
 1828SOL    HW2 6384   2.295   5.321   5.060
 1829SOL     OW 6385   1.825   6.357   2.302
 1829SOL    HW1 6386   1.841   6.396   2.393
 1829SOL    HW2 6387   1.861   6.264   2.298
 1830SOL     OW 6388   4.389   1.362   6.531
 1830SOL    HW1 6389   4.457   1.392   6.598
 1830SOL    HW2 6390   4.297   1.381   6.565
 1831SOL     OW 6391   3.610   4.561   0.043
 1831SOL    HW1 6392   3.526   4.508   0.039
 1831SOL    HW2 6393   3.688   4.498   0.049
 1832SOL     OW 6394   2.112   2.968   5.842
 1832SOL    HW1 6395   2.140   3.064   5.844
 1832SOL    HW2 6396   2.097   2.936   5.936
 1833SOL     OW 6397   5.734   1.469   0.527
 1833SOL    HW1 6398   5.655   1.514   0.485
 1833SOL    HW2 6399   5.808   1.535   0.537
 1834SOL     OW 6400   1.958   4.051   6.334
 1834SOL    HW1 6401   1.918   4.142   6.348
 1834SOL    HW2 6402   1.942   3.995   6.415
 1835SOL     OW 6403   6.229   6.904   0.067
 1835SOL    HW1 6404   6.282   6.989   0.070
 1835SOL    HW2 6405   6.229   6.863   0.158
 1836SOL     OW 6406   5.836   1.265   4.553
 1836SOL    HW1 6407   5.774   1.277   4.630
 1836SOL    HW2 6408   5.804   1.319   4.475
 1837SOL     OW 6409   1.302   2.206   1.043
 1837SOL    HW1 6410   1.298   2.188   1.141
 1837SOL    HW2 6411   1.351   2.292   1.026
 1838SOL     OW 6412   5.179   0.446   0.535
 1838SOL    HW1 6413   5.262   0.452   0.591
 1838SOL    HW2 6414   5.170   0.353   0.501
 1839SOL     OW 6415   6.853   1.891   6.094
 1839SOL    HW1 6416   6.881   1.987   6.094
 1839SOL    HW2 6417   6.817   1.866   6.004
 1840SOL     OW 6418   2.790   6.863   5.503
 1840SOL    HW1 6419   2.815   6.950   5.460
 1840SOL    HW2 6420   2.751   6.880   5.593
 1841SOL     OW 6421   2.531   6.964   1.906
 1841SOL    HW1 6422   2.469   6.983   1.830
 1841SOL    HW2 6423   2.625   6.964   1.874
 1842SOL     OW 6424   6.825   4.508   1.734
 1842SOL    HW1 6425   6.769   4.504   1.651
 1842SOL    HW2 6426   6.896   4.437   1.729
 1843SOL     OW 6427   2.855   0.874   6.782
 1843SOL    HW1 6428   2.918   0.942   6.745
 1843SOL    HW2 6429   2.883   0.849   6.874
 1844SOL     OW 6430   5.010   3.468   0.764
 1844SOL    HW1 6431   4.979   3.516   0.846
 1844SOL    HW2 6432   4.974   3.375   0.764
 1845SOL     OW 6433   0.915   2.646   4.704
 1845SOL    HW1 6434   0.900   2.653   4.803
 1845SOL    HW2 6435   0.946   2.735   4.669
 1846SOL     OW 6436   3.784   1.772   2.350
 1846SOL    HW1 6437   3.741   1.742   2.435
 1846SOL    HW2 6438   3.714   1.802   2.286
 1847SOL     OW 6439   3.413   5.911   6.832
 1847SOL    HW1 6440   3.457   5.932   6.919
 1847SOL    HW2 6441   3.458   5.963   6.759
 1848SOL     OW 6442   3.276   5.862   4.687
 1848SOL    HW1 6443   3.252   5.856   4.590
 1848SOL    HW2 6444   3.308   5.773   4.719
 1849SOL     OW 6445   4.721   2.730   2.434
 1849SOL    HW1 6446   4.736   2.751   2.337
 1849SOL    HW2 6447   4.753   2.637   2.453
 1850SOL     OW 6448   5.017   1.367   0.990
 1850SOL    HW1 6449   5.009   1.332   1.083
 1850SOL    HW2 6450   4.938   1.425   0.970
 1851SOL     OW 6451   0.884   5.005   4.019
 1851SOL    HW1 6452   0.967   5.002   4.075
 1851SOL    HW2 6453   0.830   5.086   4.043
 1852SOL     OW 6454   0.976   6.951   3.653
 1852SOL    HW1 6455   1.046   7.005   3.606
 1852SOL    HW2 6456   0.885   6.981   3.622
 1853SOL     OW 6457   0.795   1.715   5.639
 1853SOL    HW1 6458   0.750   1.640   5.686
 1853SOL    HW2 6459   0.783   1.705   5.540
 1854SOL     OW 6460   0.463   7.000   4.177
 1854SOL    HW1 6461   0.433   6.985   4.083
 1854SOL    HW2 6462   0.562   6.989   4.183
 1855SOL     OW 6463   6.751   1.273   5.118
 1855SOL    HW1 6464   6.727   1.350   5.060
 1855SOL    HW2 6465   6.846   1.283   5.149
 1856SOL     OW 6466   5.007   4.005   6.529
 1856SOL    HW1 6467   4.966   3.915   6.514
 1856SOL    HW2 6468   4.982   4.066   6.454
 1857SOL     OW 6469   4.640   0.856   6.506
 1857SOL    HW1 6470   4.618   0.939   6.556
 1857SOL    HW2 6471   4.701   0.878   6.430
 1858SOL     OW 6472   5.438   2.027   4.309
 1858SOL    HW1 6473   5.369   2.001   4.377
 1858SOL    HW2 6474   5.416   2.118   4.273
 1859SOL     OW 6475   6.050   6.428   2.881
 1859SOL    HW1 6476   5.963   6.380   2.897
 1859SOL    HW2 6477   6.037   6.498   2.811
 1860SOL     OW 6478   2.262   0.988   0.298
 1860SOL    HW1 6479   2.360   1.005   0.288
 1860SOL    HW2 6480   2.239   0.898   0.260
 1861SOL     OW 6481   6.553   6.671   5.395
 1861SOL    HW1 6482   6.616   6.748   5.406
 1861SOL    HW2 6483   6.584   6.595   5.452
 1862SOL     OW 6484   3.813   5.175   5.345
 1862SOL    HW1 6485   3.860   5.247   5.396
 1862SOL    HW2 6486   3.717   5.172   5.372
 1863SOL     OW 6487   6.846   1.109   1.622
 1863SOL    HW1 6488   6.749   1.127   1.608
 1863SOL    HW2 6489   6.868   1.119   1.719
 1864SOL     OW 6490   2.190   5.858   2.731
 1864SOL    HW1 6491   2.110   5.913   2.753
 1864SOL    HW2 6492   2.244   5.842   2.813
 1865SOL     OW 6493   6.279   2.793   5.747
 1865SOL    HW1 6494   6.264   2.698   5.775
 1865SOL    HW2 6495   6.335   2.794   5.664
 1866SOL     OW 6496   0.498   3.802   5.510
 1866SOL    HW1 6497   0.400   3.821   5.504
 1866SOL    HW2 6498   0.514   3.720   5.564
 1867SOL     OW 6499   1.322   0.820   1.262
 1867SOL    HW1 6500   1.407   0.802   1.312
 1867SOL    HW2 6501   1.344   0.868   1.177
 1868SOL     OW 6502   5.784   3.403   5.742
 1868SOL    HW1 6503   5.824   3.380   5.653
 1868SOL    HW2 6504   5.776   3.502   5.750
 1869SOL     OW 6505   5.216   0.438   5.122
 1869SOL    HW1 6506   5.220   0.510   5.192
 1869SOL    HW2 6507   5.309   0.414   5.094
 1870SOL     OW 6508   5.646   0.884   5.702
 1870SOL    HW1 6509   5.692   0.796   5.690
 1870SOL    HW2 6510   5.592   0.883   5.786
 1871SOL     OW 6511   2.579   4.858   6.890
 1871SOL    HW1 6512   2.488   4.896   6.907
 1871SOL    HW2 6513   2.648   4.916   6.934
 1872SOL     OW 6514   2.665   3.294   0.535
 1872SOL    HW1 6515   2.695   3.359   0.464
 1872SOL    HW2 6516   2.621   3.216   0.492
 1873SOL     OW 6517   6.109   1.815   2.110
 1873SOL    HW1 6518   6.071   1.740   2.165
 1873SOL    HW2 6519   6.106   1.900   2.162
 1874SOL     OW 6520   2.100   5.442   6.254
 1874SOL    HW1 6521   2.052   5.406   6.174
 1874SOL    HW2 6522   2.073   5.390   6.335
 1875SOL     OW 6523   1.472   6.245   2.166
 1875SOL    HW1 6524   1.534   6.202   2.232
 1875SOL    HW2 6525   1.475   6.196   2.079
 1876SOL     OW 6526   1.053   4.967   5.976
 1876SOL    HW1 6527   1.017   5.018   5.898
 1876SOL    HW2 6528   1.080   4.875   5.946
 1877SOL     OW 6529   0.530   0.975   3.634
 1877SOL    HW1 6530   0.573   1.024   3.558
 1877SOL    HW2 6531   0.444   0.936   3.604
 1878SOL     OW 6532   6.005   4.142   4.091
 1878SOL    HW1 6533   6.034   4.107   4.180
 1878SOL    HW2 6534   5.911   4.114   4.072
 1879SOL     OW 6535   4.178   6.186   5.635
 1879SOL    HW1 6536   4.205   6.183   5.539
 1879SOL    HW2 6537   4.083   6.215   5.642
 1880SOL     OW 6538   1.476   3.489   4.819
 1880SOL    HW1 6539   1.466   3.413   4.755
 1880SOL    HW2 6540   1.566   3.485   4.862
 1881SOL     OW 6541   2.128   2.413   3.238
 1881SOL    HW1 6542   2.158   2.440   3.147
 1881SOL    HW2 6543   2.183   2.335   3.270
 1882SOL     OW 6544   4.220   6.694   0.546
 1882SOL    HW1 6545   4.241   6.636   0.625
 1882SOL    HW2 6546   4.213   6.790   0.576
 1883SOL     OW 6547   2.082   3.619   2.665
 1883SOL    HW1 6548   2.013   3.616   2.737
 1883SOL    HW2 6549   2.057   3.554   2.592
 1884SOL     OW 6550   4.736   0.889   6.973
 1884SOL    HW1 6551   4.713   0.811   0.006
 1884SOL    HW2 6552   4.654   0.942   6.954
 1885SOL     OW 6553   0.082   1.610   0.832
 1885SOL    HW1 6554   0.066   1.681   0.900
 1885SOL    HW2 6555   0.140   1.646   0.758
 1886SOL     OW 6556   3.568   3.172   4.423
 1886SOL    HW1 6557   3.619   3.242   4.473
 1886SOL    HW2 6558   3.566   3.088   4.478
 1887SOL     OW 6559   0.779   5.919   5.441
 1887SOL    HW1 6560   0.801   5.823   5.425
 1887SOL    HW2 6561   0.705   5.926   5.508
 1888SOL     OW 6562   2.090   1.663   6.091
 1888SOL    HW1 6563   2.172   1.702   6.131
 1888SOL    HW2 6564   2.024   1.640   6.163
 1889SOL     OW 6565   3.596   3.767   0.062
 1889SOL    HW1 6566   3.660   3.807   0.128
 1889SOL    HW2 6567   3.585   3.830   7.009
 1890SOL     OW 6568   6.019   6.548   6.461
 1890SOL    HW1 6569   5.980   6.545   6.553
 1890SOL    HW2 6570   6.092   6.615   6.458
 1891SOL     OW 6571   5.471   3.415   6.885
 1891SOL    HW1 6572   5.462   3.336   6.824
 1891SOL    HW2 6573   5.416   3.490   6.850
 1892SOL     OW 6574   4.275   0.722   2.905
 1892SOL    HW1 6575   4.228   0.642   2.943
 1892SOL    HW2 6576   4.261   0.800   2.965
 1893SOL     OW 6577   2.982   1.990   6.712
 1893SOL    HW1 6578   2.947   2.066   6.658
 1893SOL    HW2 6579   3.012   1.917   6.651
 1894SOL     OW 6580   4.944   3.216   0.752
 1894SOL    HW1 6581   4.988   3.127   0.741
 1894SOL    HW2 6582   4.861   3.206   0.807
 1895SOL     OW 6583   4.816   5.707   2.958
 1895SOL    HW1 6584   4.828   5.773   2.884
 1895SOL    HW2 6585   4.811   5.756   3.046
 1896SOL     OW 6586   7.015   1.372   4.727
 1896SOL    HW1 6587   6.981   1.438   4.660
 1896SOL    HW2 6588   6.978   1.282   4.707
 1897SOL     OW 6589   5.600   5.337   3.191
 1897SOL    HW1 6590   5.519   5.311   3.138
 1897SOL    HW2 6591   5.589   5.430   3.226
 1898SOL     OW 6592   5.539   6.693   6.947
 1898SOL    HW1 6593   5.556   6.600   6.978
 1898SOL    HW2 6594   5.626   6.740   6.934
 1899SOL     OW 6595   2.044   2.803   3.605
 1899SOL    HW1 6596   2.102   2.776   3.682
 1899SOL    HW2 6597   2.101   2.819   3.524
 1900SOL     OW 6598   2.795   5.614   1.373
 1900SOL    HW1 6599   2.779   5.517   1.394
 1900SOL    HW2 6600   2.891   5.636   1.389
 1901SOL     OW 6601   0.500   1.477   6.015
 1901SOL    HW1 6602   0.426   1.413   5.995
 1901SOL    HW2 6603   0.522   1.474   6.112
 1902SOL     OW 6604   1.537   2.704   4.685
 1902SOL    HW1 6605   1.579   2.688   4.774
 1902SOL    HW2 6606   1.496   2.796   4.683
 1903SOL     OW 6607   6.755   5.706   3.741
 1903SOL    HW1 6608   6.770   5.791   3.791
 1903SOL    HW2 6609   6.829   5.691   3.676
 1904SOL     OW 6610   0.691   0.098   4.408
 1904SOL    HW1 6611   0.730   0.190   4.412
 1904SOL    HW2 6612   0.676   0.073   4.312
 1905SOL     OW 6613   5.958   3.384   5.510
 1905SOL    HW1 6614   5.940   3.397   5.413
 1905SOL    HW2 6615   6.057   3.375   5.524
 1906SOL     OW 6616   2.621   6.535   5.631
 1906SOL    HW1 6617   2.632   6.448   5.583
 1906SOL    HW2 6618   2.540   6.532   5.689
 1907SOL     OW 6619   3.988   6.778   3.245
 1907SOL    HW1 6620   4.055   6.762   3.173
 1907SOL    HW2 6621   4.008   6.866   3.290
 1908SOL     OW 6622   5.126   4.975   0.733
 1908SOL    HW1 6623   5.125   4.884   0.774
 1908SOL    HW2 6624   5.155   4.968   0.638
 1909SOL     OW 6625   5.342   5.519   3.557
 1909SOL    HW1 6626   5.335   5.505   3.458
 1909SOL    HW2 6627   5.251   5.510   3.598
 1910SOL     OW 6628   4.826   3.952   4.169
 1910SOL    HW1 6629   4.845   3.939   4.266
 1910SOL    HW2 6630   4.809   3.864   4.126
 1911SOL     OW 6631   0.609   2.436   5.579
 1911SOL    HW1 6632   0.672   2.389   5.641
 1911SOL    HW2 6633   0.568   2.370   5.516
 1912SOL     OW 6634   3.124   6.588   2.485
 1912SOL    HW1 6635   3.064   6.665   2.466
 1912SOL    HW2 6636   3.082   6.504   2.451
 1913SOL     OW 6637   2.686   4.099   6.869
 1913SOL    HW1 6638   2.670   4.197   6.854
 1913SOL    HW2 6639   2.619   4.064   6.935
 1914SOL     OW 6640   4.371   1.373   4.942
 1914SOL    HW1 6641   4.273   1.363   4.928
 1914SOL    HW2 6642   4.413   1.412   4.860
 1915SOL     OW 6643   3.066   6.368   5.589
 1915SOL    HW1 6644   3.076   6.422   5.505
 1915SOL    HW2 6645   2.974   6.328   5.592
 1916SOL     OW 6646   3.365   6.534   2.393
 1916SOL    HW1 6647   3.277   6.542   2.439
 1916SOL    HW2 6648   3.417   6.459   2.432
 1917SOL     OW 6649   3.778   4.064   3.404
 1917SOL    HW1 6650   3.742   4.143   3.453
 1917SOL    HW2 6651   3.763   3.981   3.458
 1918SOL     OW 6652   0.548   6.300   5.780
 1918SOL    HW1 6653   0.517   6.232   5.847
 1918SOL    HW2 6654   0.524   6.269   5.688
 1919SOL     OW 6655   5.771   0.533   2.085
 1919SOL    HW1 6656   5.835   0.535   2.162
 1919SOL    HW2 6657   5.693   0.592   2.105
 1920SOL     OW 6658   6.516   6.088   4.626
 1920SOL    HW1 6659   6.523   6.109   4.723
 1920SOL    HW2 6660   6.587   6.137   4.575
 1921SOL     OW 6661   2.525   6.303   6.929
 1921SOL    HW1 6662   2.516   6.394   6.888
 1921SOL    HW2 6663   2.592   6.308   7.004
 1922SOL     OW 6664   3.948   4.492   0.120
 1922SOL    HW1 6665   3.942   4.450   0.029
 1922SOL    HW2 6666   3.961   4.590   0.111
 1923SOL     OW 6667   1.684   3.007   1.079
 1923SOL    HW1 6668   1.782   3.016   1.060
 1923SOL    HW2 6669   1.658   2.911   1.074
 1924SOL     OW 6670   0.379   3.661   1.328
 1924SOL    HW1 6671   0.283   3.636   1.314
 1924SOL    HW2 6672   0.398   3.666   1.426
 1925SOL     OW 6673   2.972   4.472   0.678
 1925SOL    HW1 6674   2.948   4.395   0.619
 1925SOL    HW2 6675   3.058   4.512   0.647
 1926SOL     OW 6676   0.569   0.669   3.443
 1926SOL    HW1 6677   0.486   0.707   3.482
 1926SOL    HW2 6678   0.643   0.672   3.510
 1927SOL     OW 6679   5.116   3.530   1.387
 1927SOL    HW1 6680   5.052   3.469   1.340
 1927SOL    HW2 6681   5.071   3.569   1.468
 1928SOL     OW 6682   0.223   5.240   4.647
 1928SOL    HW1 6683   0.145   5.299   4.627
 1928SOL    HW2 6684   0.196   5.172   4.715
 1929SOL     OW 6685   0.608   4.735   2.896
 1929SOL    HW1 6686   0.553   4.768   2.819
 1929SOL    HW2 6687   0.558   4.751   2.981
 1930SOL     OW 6688   6.510   5.630   5.735
 1930SOL    HW1 6689   6.422   5.672   5.757
 1930SOL    HW2 6690   6.579   5.702   5.725
 1931SOL     OW 6691   1.917   2.383   4.248
 1931SOL    HW1 6692   1.838   2.443   4.243
 1931SOL    HW2 6693   1.936   2.361   4.344
 1932SOL     OW 6694   6.115   3.302   2.301
 1932SOL    HW1 6695   6.172   3.379   2.272
 1932SOL    HW2 6696   6.045   3.284   2.232
 1933SOL     OW 6697   3.061   5.116   0.249
 1933SOL    HW1 6698   3.139   5.058   0.227
 1933SOL    HW2 6699   2.998   5.117   0.171
 1934SOL     OW 6700   0.277   6.284   2.877
 1934SOL    HW1 6701   0.349   6.333   2.927
 1934SOL    HW2 6702   0.320   6.217   2.816
 1935SOL     OW 6703   0.975   1.085   3.318
 1935SOL    HW1 6704   1.043   1.081   3.245
 1935SOL    HW2 6705   0.893   1.131   3.284
 1936SOL     OW 6706   0.302   5.780   4.822
 1936SOL    HW1 6707   0.331   5.786   4.727
 1936SOL    HW2 6708   0.381   5.772   4.882
 1937SOL     OW 6709   4.543   1.828   3.262
 1937SOL    HW1 6710   4.638   1.799   3.276
 1937SOL    HW2 6711   4.489   1.749   3.232
 1938SOL     OW 6712   5.193   6.967   3.962
 1938SOL    HW1 6713   5.273   7.007   3.917
 1938SOL    HW2 6714   5.193   6.992   4.059
 1939SOL     OW 6715   2.755   0.354   4.360
 1939SOL    HW1 6716   2.834   0.333   4.417
 1939SOL    HW2 6717   2.687   0.281   4.367
 1940SOL     OW 6718   6.127   6.789   6.722
 1940SOL    HW1 6719   6.166   6.743   6.643
 1940SOL    HW2 6720   6.185   6.867   6.748
 1941SOL     OW 6721   4.428   4.964   2.564
 1941SOL    HW1 6722   4.329   4.956   2.556
 1941SOL    HW2 6723   4.468   4.981   2.474
 1942SOL     OW 6724   0.227   2.854   2.820
 1942SOL    HW1 6725   0.306   2.902   2.783
 1942SOL    HW2 6726   0.258   2.771   2.867
 1943SOL     OW 6727   3.408   5.175   3.347
 1943SOL    HW1 6728   3.399   5.262   3.397
 1943SOL    HW2 6729   3.460   5.190   3.263
 1944SOL     OW 6730   6.979   6.316   2.106
 1944SOL    HW1 6731   0.006   6.232   2.120
 1944SOL    HW2 6732   6.916   6.304   2.029
 1945SOL     OW 6733   2.945   4.833   2.762
 1945SOL    HW1 6734   2.956   4.830   2.861
 1945SOL    HW2 6735   3.017   4.779   2.719
 1946SOL     OW 6736   1.669   6.716   6.715
 1946SOL    HW1 6737   1.701   6.695   6.807
 1946SOL    HW2 6738   1.651   6.630   6.666
 1947SOL     OW 6739   4.401   0.682   3.620
 1947SOL    HW1 6740   4.404   0.726   3.530
 1947SOL    HW2 6741   4.395   0.752   3.691
 1948SOL     OW 6742   6.173   2.904   5.275
 1948SOL    HW1 6743   6.116   2.940   5.202
 1948SOL    HW2 6744   6.193   2.807   5.257
 1949SOL     OW 6745   5.114   3.507   6.962
 1949SOL    HW1 6746   5.076   3.504   0.029
 1949SOL    HW2 6747   5.128   3.414   6.928
 1950SOL     OW 6748   3.040   5.053   0.896
 1950SOL    HW1 6749   3.127   5.008   0.917
 1950SOL    HW2 6750   3.024   5.126   0.963
 1951SOL     OW 6751   6.198   2.876   6.876
 1951SOL    HW1 6752   6.133   2.950   6.859
 1951SOL    HW2 6753   6.290   2.905   6.851
 1952SOL     OW 6754   3.110   3.179   4.198
 1952SOL    HW1 6755   3.194   3.125   4.202
 1952SOL    HW2 6756   3.061   3.159   4.113
 1953SOL     OW 6757   0.524   2.131   4.475
 1953SOL    HW1 6758   0.442   2.079   4.501
 1953SOL    HW2 6759   0.569   2.165   4.557
 1954SOL     OW 6760   2.268   1.869   4.318
 1954SOL    HW1 6761   2.175   1.869   4.354
 1954SOL    HW2 6762   2.269   1.828   4.227
 1955SOL     OW 6763   6.426   5.782   2.442
 1955SOL    HW1 6764   6.521   5.751   2.444
 1955SOL    HW2 6765   6.419   5.863   2.383
 1956SOL     OW 6766   4.429   5.912   2.921
 1956SOL    HW1 6767   4.494   5.883   2.851
 1956SOL    HW2 6768   4.430   5.845   2.996
 1957SOL     OW 6769   2.583   6.370   5.137
 1957SOL    HW1 6770   2.645   6.449   5.129
 1957SOL    HW2 6771   2.501   6.398   5.186
 1958SOL     OW 6772   3.950   3.887   6.167
 1958SOL    HW1 6773   4.001   3.933   6.095
 1958SOL    HW2 6774   3.890   3.952   6.213
 1959SOL     OW 6775   2.662   0.280   0.891
 1959SOL    HW1 6776   2.604   0.359   0.869
 1959SOL    HW2 6777   2.734   0.308   0.954
 1960SOL     OW 6778   5.276   5.402   2.515
 1960SOL    HW1 6779   5.196   5.371   2.565
 1960SOL    HW2 6780   5.296   5.338   2.441
 1961SOL     OW 6781   5.531   4.634   5.674
 1961SOL    HW1 6782   5.499   4.566   5.608
 1961SOL    HW2 6783   5.599   4.692   5.631
 1962SOL     OW 6784   0.158   6.716   4.294
 1962SOL    HW1 6785   0.106   6.631   4.307
 1962SOL    HW2 6786   0.234   6.719   4.359
 1963SOL     OW 6787   2.369   1.338   3.900
 1963SOL    HW1 6788   2.460   1.297   3.895
 1963SOL    HW2 6789   2.374   1.422   3.953
 1964SOL     OW 6790   6.512   3.012   2.176
 1964SOL    HW1 6791   6.583   2.944   2.157
 1964SOL    HW2 6792   6.511   3.081   2.103
 1965SOL     OW 6793   2.280   6.868   3.656
 1965SOL    HW1 6794   2.371   6.860   3.614
 1965SOL    HW2 6795   2.244   6.960   3.640
 1966SOL     OW 6796   6.914   6.772   6.836
 1966SOL    HW1 6797   6.930   6.678   6.805
 1966SOL    HW2 6798   6.839   6.812   6.782
 1967SOL     OW 6799   5.762   2.730   4.814
 1967SOL    HW1 6800   5.839   2.700   4.757
 1967SOL    HW2 6801   5.725   2.815   4.776
 1968SOL     OW 6802   3.991   5.616   4.929
 1968SOL    HW1 6803   3.978   5.630   4.831
 1968SOL    HW2 6804   3.907   5.580   4.969
 1969SOL     OW 6805   6.427   0.855   1.513
 1969SOL    HW1 6806   6.525   0.873   1.501
 1969SOL    HW2 6807   6.375   0.935   1.484
 1970SOL     OW 6808   1.706   0.990   3.970
 1970SOL    HW1 6809   1.741   1.033   4.052
 1970SOL    HW2 6810   1.614   0.954   3.988
 1971SOL     OW 6811   6.934   1.380   5.972
 1971SOL    HW1 6812   6.840   1.414   5.980
 1971SOL    HW2 6813   6.972   1.409   5.884
 1972SOL     OW 6814   1.335   6.782   3.900
 1972SOL    HW1 6815   1.408   6.758   3.836
 1972SOL    HW2 6816   1.246   6.766   3.858
 1973SOL     OW 6817   2.812   2.985   0.367
 1973SOL    HW1 6818   2.754   3.053   0.321
 1973SOL    HW2 6819   2.755   2.922   0.419
 1974SOL     OW 6820   6.452   6.365   4.030
 1974SOL    HW1 6821   6.521   6.336   4.097
 1974SOL    HW2 6822   6.496   6.376   3.940
 1975SOL     OW 6823   2.525   6.872   3.543
 1975SOL    HW1 6824   2.608   6.921   3.567
 1975SOL    HW2 6825   2.528   6.846   3.446
 1976SOL     OW 6826   6.448   4.454   5.829
 1976SOL    HW1 6827   6.401   4.529   5.785
 1976SOL    HW2 6828   6.411   4.440   5.921
 1977SOL     OW 6829   3.378   2.132   5.131
 1977SOL    HW1 6830   3.313   2.206   5.147
 1977SOL    HW2 6831   3.444   2.129   5.206
 1978SOL     OW 6832   6.835   2.455   5.078
 1978SOL    HW1 6833   6.782   2.370   5.078
 1978SOL    HW2 6834   6.773   2.533   5.070
 1979SOL     OW 6835   6.861   3.823   2.278
 1979SOL    HW1 6836   6.927   3.828   2.353
 1979SOL    HW2 6837   6.803   3.904   2.278
 1980SOL     OW 6838   2.756   0.730   2.842
 1980SOL    HW1 6839   2.791   0.812   2.887
 1980SOL    HW2 6840   2.816   0.705   2.766
 1981SOL     OW 6841   5.822   3.386   2.028
 1981SOL    HW1 6842   5.826   3.408   1.930
 1981SOL    HW2 6843   5.862   3.296   2.044
 1982SOL     OW 6844   0.177   0.151   5.558
 1982SOL    HW1 6845   0.081   0.142   5.529
 1982SOL    HW2 6846   0.201   0.075   5.618
 1983SOL     OW 6847   1.073   4.589   1.418
 1983SOL    HW1 6848   0.976   4.580   1.437
 1983SOL    HW2 6849   1.090   4.676   1.371
 1984SOL     OW 6850   4.262   0.673   5.493
 1984SOL    HW1 6851   4.310   0.727   5.562
 1984SOL    HW2 6852   4.245   0.730   5.413
 1985SOL     OW 6853   1.165   5.553   1.578
 1985SOL    HW1 6854   1.159   5.454   1.595
 1985SOL    HW2 6855   1.250   5.588   1.617
 1986SOL     OW 6856   6.904   2.671   0.576
 1986SOL    HW1 6857   6.853   2.587   0.554
 1986SOL    HW2 6858   7.001   2.650   0.582
 1987SOL     OW 6859   2.758   3.509   0.385
 1987SOL    HW1 6860   2.741   3.608   0.381
 1987SOL    HW2 6861   2.853   3.491   0.363
 1988SOL     OW 6862   4.860   3.179   1.049
 1988SOL    HW1 6863   4.877   3.090   1.006
 1988SOL    HW2 6864   4.763   3.203   1.037
 1989SOL     OW 6865   2.330   2.519   3.668
 1989SOL    HW1 6866   2.403   2.499   3.733
 1989SOL    HW2 6867   2.242   2.492   3.708
 1990SOL     OW 6868   0.780   0.637   2.990
 1990SOL    HW1 6869   0.872   0.662   2.963
 1990SOL    HW2 6870   0.760   0.545   2.958
 1991SOL     OW 6871   4.674   6.344   2.874
 1991SOL    HW1 6872   4.628   6.366   2.960
 1991SOL    HW2 6873   4.762   6.302   2.893
 1992SOL     OW 6874   2.661   5.267   5.745
 1992SOL    HW1 6875   2.665   5.259   5.645
 1992SOL    HW2 6876   2.621   5.183   5.783
 1993SOL     OW 6877   2.984   3.213   4.450
 1993SOL    HW1 6878   2.897   3.263   4.453
 1993SOL    HW2 6879   3.014   3.204   4.355
 1994SOL     OW 6880   6.736   2.277   1.878
 1994SOL    HW1 6881   6.734   2.298   1.976
 1994SOL    HW2 6882   6.725   2.178   1.865
 1995SOL     OW 6883   3.648   2.219   1.483
 1995SOL    HW1 6884   3.725   2.229   1.419
 1995SOL    HW2 6885   3.676   2.251   1.573
 1996SOL     OW 6886   2.296   4.563   5.203
 1996SOL    HW1 6887   2.342   4.564   5.292
 1996SOL    HW2 6888   2.294   4.470   5.167
 1997SOL     OW 6889   5.964   6.036   4.172
 1997SOL    HW1 6890   5.948   6.090   4.254
 1997SOL    HW2 6891   5.907   5.953   4.174
 1998SOL     OW 6892   2.923   4.813   4.575
 1998SOL    HW1 6893   2.891   4.738   4.633
 1998SOL    HW2 6894   2.979   4.875   4.630
 1999SOL     OW 6895   2.283   1.400   2.000
 1999SOL    HW1 6896   2.200   1.442   1.963
 1999SOL    HW2 6897   2.344   1.374   1.925
 2000SOL     OW 6898   3.113   1.337   5.012
 2000SOL    HW1 6899   3.065   1.424   4.999
 2000SOL    HW2 6900   3.054   1.273   5.063
 2001SOL     OW 6901   2.382   2.581   6.758
 2001SOL    HW1 6902   2.463   2.585   6.817
 2001SOL    HW2 6903   2.411   2.578   6.662
 2002SOL     OW 6904   1.632   4.633   4.809
 2002SOL    HW1 6905   1.562   4.705   4.806
 2002SOL    HW2 6906   1.719   4.673   4.838
 2003SOL     OW 6907   6.392   3.866   3.579
 2003SOL    HW1 6908   6.452   3.859   3.659
 2003SOL    HW2 6909   6.323   3.793   3.583
 2004SOL     OW 6910   3.395   0.061   0.070
 2004SOL    HW1 6911   3.365   0.097   7.005
 2004SOL    HW2 6912   3.344   0.108   0.143
 2005SOL     OW 6913   3.113   6.484   5.334
 2005SOL    HW1 6914   3.027   6.534   5.333
 2005SOL    HW2 6915   3.114   6.417   5.260
 2006SOL     OW 6916   4.657   6.680   3.370
 2006SOL    HW1 6917   4.730   6.732   3.414
 2006SOL    HW2 6918   4.687   6.649   3.280
 2007SOL     OW 6919   6.502   5.680   6.890
 2007SOL    HW1 6920   6.558   5.755   6.925
 2007SOL    HW2 6921   6.535   5.594   6.928
 2008SOL     OW 6922   6.837   5.809   5.657
 2008SOL    HW1 6923   6.809   5.742   5.588
 2008SOL    HW2 6924   6.787   5.894   5.642
 2009SOL     OW 6925   0.967   0.686   0.171
 2009SOL    HW1 6926   1.023   0.604   0.163
 2009SOL    HW2 6927   0.989   0.750   0.097
 2010SOL     OW 6928   2.071   0.905   0.870
 2010SOL    HW1 6929   1.985   0.926   0.917
 2010SOL    HW2 6930   2.066   0.813   0.830
 2011SOL     OW 6931   6.649   1.942   4.706
 2011SOL    HW1 6932   6.557   1.933   4.744
 2011SOL    HW2 6933   6.714   1.965   4.778
 2012SOL     OW 6934   6.867   3.121   1.196
 2012SOL    HW1 6935   6.867   3.108   1.097
 2012SOL    HW2 6936   6.873   3.218   1.217
 2013SOL     OW 6937   3.957   2.239   1.517
 2013SOL    HW1 6938   3.912   2.190   1.592
 2013SOL    HW2 6939   3.943   2.337   1.528
 2014SOL     OW 6940   3.318   5.562   3.194
 2014SOL    HW1 6941   3.222   5.572   3.170
 2014SOL    HW2 6942   3.373   5.625   3.139
 2015SOL     OW 6943   3.504   5.863   0.166
 2015SOL    HW1 6944   3.558   5.908   0.095
 2015SOL    HW2 6945   3.467   5.777   0.130
 2016SOL     OW 6946   6.149   5.751   4.188
 2016SOL    HW1 6947   6.224   5.696   4.153
 2016SOL    HW2 6948   6.071   5.744   4.126
 2017SOL     OW 6949   2.121   5.197   2.230
 2017SOL    HW1 6950   2.033   5.225   2.192
 2017SOL    HW2 6951   2.112   5.107   2.272
 2018SOL     OW 6952   0.485   4.068   5.689
 2018SOL    HW1 6953   0.386   4.061   5.692
 2018SOL    HW2 6954   0.512   4.137   5.622
 2019SOL     OW 6955   5.113   1.101   2.882
 2019SOL    HW1 6956   5.040   1.166   2.905
 2019SOL    HW2 6957   5.125   1.037   2.958
 2020SOL     OW 6958   2.186   5.329   3.160
 2020SOL    HW1 6959   2.140   5.398   3.105
 2020SOL    HW2 6960   2.207   5.249   3.103
 2021SOL     OW 6961   1.721   5.962   1.919
 2021SOL    HW1 6962   1.783   5.948   1.842
 2021SOL    HW2 6963   1.771   5.948   2.005
 2022SOL     OW 6964   3.366   5.544   1.543
 2022SOL    HW1 6965   3.442   5.596   1.505
 2022SOL    HW2 6966   3.367   5.552   1.643
 2023SOL     OW 6967   6.447   2.188   5.507
 2023SOL    HW1 6968   6.361   2.155   5.467
 2023SOL    HW2 6969   6.481   2.121   5.574
 2024SOL     OW 6970   6.185   0.285   3.359
 2024SOL    HW1 6971   6.197   0.205   3.417
 2024SOL    HW2 6972   6.273   0.314   3.322
 2025SOL     OW 6973   5.954   0.989   1.096
 2025SOL    HW1 6974   5.992   1.030   1.179
 2025SOL    HW2 6975   6.027   0.979   1.028
 2026SOL     OW 6976   2.105   1.832   5.195
 2026SOL    HW1 6977   2.093   1.913   5.251
 2026SOL    HW2 6978   2.015   1.801   5.161
 2027SOL     OW 6979   0.028   0.232   1.872
 2027SOL    HW1 6980   7.022   0.267   1.961
 2027SOL    HW2 6981   6.975   0.231   1.809
 2028SOL     OW 6982   3.869   3.779   5.721
 2028SOL    HW1 6983   3.959   3.776   5.765
 2028SOL    HW2 6984   3.853   3.692   5.672
 2029SOL     OW 6985   1.739   0.620   0.292
 2029SOL    HW1 6986   1.816   0.573   0.251
 2029SOL    HW2 6987   1.655   0.596   0.243
 2030SOL     OW 6988   1.963   2.910   2.597
 2030SOL    HW1 6989   1.922   2.999   2.576
 2030SOL    HW2 6990   1.890   2.845   2.620
 2031SOL     OW 6991   6.482   0.269   2.727
 2031SOL    HW1 6992   6.392   0.305   2.750
 2031SOL    HW2 6993   6.494   0.180   2.773
 2032SOL     OW 6994   4.703   6.001   2.255
 2032SOL    HW1 6995   4.762   6.047   2.188
 2032SOL    HW2 6996   4.742   6.012   2.346
 2033SOL     OW 6997   0.437   5.287   6.562
 2033SOL    HW1 6998   0.374   5.269   6.637
 2033SOL    HW2 6999   0.394   5.348   6.496
 2034SOL     OW 7000   2.193   5.462   4.090
 2034SOL    HW1 7001   2.223   5.369   4.107
 2034SOL    HW2 7002   2.227   5.492   4.001
 2035SOL     OW 7003   0.535   2.124   3.518
 2035SOL    HW1 7004   0.627   2.126   3.557
 2035SOL    HW2 7005   0.469   2.103   3.590
 2036SOL     OW 7006   0.516   4.770   0.718
 2036SOL    HW1 7007   0.465   4.700   0.769
 2036SOL    HW2 7008   0.565   4.829   0.783
 2037SOL     OW 7009   0.230   2.322   6.711
 2037SOL    HW1 7010   0.134   2.295   6.714
 2037SOL    HW2 7011   0.284   2.248   6.671
 2038SOL     OW 7012   1.484   0.054   4.709
 2038SOL    HW1 7013   1.387   0.060   4.735
 2038SOL    HW2 7014   1.494   7.015   4.633
 2039SOL     OW 7015   1.214   5.281   1.684
 2039SOL    HW1 7016   1.237   5.312   1.777
 2039SOL    HW2 7017   1.294   5.237   1.643
 2040SOL     OW 7018   3.794   3.577   4.594
 2040SOL    HW1 7019   3.777   3.479   4.596
 2040SOL    HW2 7020   3.876   3.596   4.540
 2041SOL     OW 7021   4.549   2.751   6.921
 2041SOL    HW1 7022   4.463   2.718   6.882
 2041SOL    HW2 7023   4.623   2.731   6.857
 2042SOL     OW 7024   3.118   5.684   0.695
 2042SOL    HW1 7025   3.159   5.661   0.606
 2042SOL    HW2 7026   3.137   5.780   0.716
 2043SOL     OW 7027   4.198   6.128   2.314
 2043SOL    HW1 7028   4.135   6.063   2.271
 2043SOL    HW2 7029   4.237   6.187   2.243
 2044SOL     OW 7030   6.821   1.052   2.102
 2044SOL    HW1 7031   6.850   1.055   2.198
 2044SOL    HW2 7032   6.830   0.959   2.068
 2045SOL     OW 7033   3.188   6.576   6.800
 2045SOL    HW1 7034   3.211   6.572   6.703
 2045SOL    HW2 7035   3.125   6.502   6.823
 2046SOL     OW 7036   5.788   6.720   5.736
 2046SOL    HW1 7037   5.821   6.747   5.646
 2046SOL    HW2 7038   5.764   6.802   5.788
 2047SOL     OW 7039   5.114   3.262   0.516
 2047SOL    HW1 7040   5.146   3.357   0.512
 2047SOL    HW2 7041   5.079   3.243   0.608
 2048SOL     OW 7042   4.712   6.284   5.358
 2048SOL    HW1 7043   4.756   6.210   5.409
 2048SOL    HW2 7044   4.782   6.337   5.310
 2049SOL     OW 7045   4.924   5.470   6.757
 2049SOL    HW1 7046   5.016   5.485   6.794
 2049SOL    HW2 7047   4.914   5.521   6.672
 2050SOL     OW 7048   5.481   0.984   3.317
 2050SOL    HW1 7049   5.469   1.079   3.345
 2050SOL    HW2 7050   5.579   0.964   3.309
 2051SOL     OW 7051   3.218   5.435   1.156
 2051SOL    HW1 7052   3.128   5.445   1.112
 2051SOL    HW2 7053   3.206   5.431   1.255
 2052SOL     OW 7054   2.196   2.737   0.827
 2052SOL    HW1 7055   2.228   2.643   0.842
 2052SOL    HW2 7056   2.261   2.801   0.867
 2053SOL     OW 7057   4.946   1.196   0.746
 2053SOL    HW1 7058   4.992   1.109   0.763
 2053SOL    HW2 7059   4.963   1.258   0.822
 2054SOL     OW 7060   0.550   3.071   0.949
 2054SOL    HW1 7061   0.451   3.083   0.937
 2054SOL    HW2 7062   0.569   2.977   0.977
 2055SOL     OW 7063   6.272   1.190   3.715
 2055SOL    HW1 7064   6.268   1.091   3.702
 2055SOL    HW2 7065   6.179   1.227   3.712
 2056SOL     OW 7066   0.693   6.767   2.595
 2056SOL    HW1 7067   0.648   6.797   2.679
 2056SOL    HW2 7068   0.693   6.842   2.528
 2057SOL     OW 7069   4.897   3.419   3.863
 2057SOL    HW1 7070   4.886   3.347   3.795
 2057SOL    HW2 7071   4.898   3.509   3.818
 2058SOL     OW 7072   0.545   0.649   1.776
 2058SOL    HW1 7073   0.485   0.695   1.842
 2058SOL    HW2 7074   0.640   0.657   1.806
 2059SOL     OW 7075   1.618   0.818   6.631
 2059SOL    HW1 7076   1.573   0.767   6.556
 2059SOL    HW2 7077   1.628   0.914   6.605
 2060SOL     OW 7078   0.277   4.660   2.968
 2060SOL    HW1 7079   0.203   4.615   3.018
 2060SOL    HW2 7080   0.353   4.595   2.956
 2061SOL     OW 7081   1.443   0.924   0.631
 2061SOL    HW1 7082   1.510   0.984   0.587
 2061SOL    HW2 7083   1.352   0.944   0.595
 2062SOL     OW 7084   3.965   0.577   3.784
 2062SOL    HW1 7085   4.018   0.501   3.745
 2062SOL    HW2 7086   3.987   0.585   3.882
 2063SOL     OW 7087   2.369   2.270   1.113
 2063SOL    HW1 7088   2.291   2.212   1.090
 2063SOL    HW2 7089   2.339   2.348   1.167
 2064SOL     OW 7090   1.408   1.849   1.169
 2064SOL    HW1 7091   1.327   1.903   1.143
 2064SOL    HW2 7092   1.469   1.840   1.091
 2065SOL     OW 7093   6.968   2.921   2.623
 2065SOL    HW1 7094   6.913   2.940   2.705
 2065SOL    HW2 7095   6.996   3.008   2.581
 2066SOL     OW 7096   1.403   6.258   2.938
 2066SOL    HW1 7097   1.393   6.343   2.887
 2066SOL    HW2 7098   1.313   6.219   2.956
 2067SOL     OW 7099   0.447   0.609   0.306
 2067SOL    HW1 7100   0.422   0.515   0.325
 2067SOL    HW2 7101   0.541   0.625   0.335
 2068SOL     OW 7102   2.064   2.169   5.021
 2068SOL    HW1 7103   2.010   2.094   4.985
 2068SOL    HW2 7104   2.099   2.145   5.112
 2069SOL     OW 7105   0.927   2.026   2.230
 2069SOL    HW1 7106   0.881   2.076   2.157
 2069SOL    HW2 7107   1.006   1.977   2.193
 2070SOL     OW 7108   6.922   1.468   2.778
 2070SOL    HW1 7109   6.857   1.532   2.738
 2070SOL    HW2 7110   7.015   1.492   2.748
 2071SOL     OW 7111   2.843   6.220   5.587
 2071SOL    HW1 7112   2.781   6.204   5.664
 2071SOL    HW2 7113   2.845   6.138   5.529
 2072SOL     OW 7114   5.247   5.082   2.581
 2072SOL    HW1 7115   5.183   5.100   2.656
 2072SOL    HW2 7116   5.314   5.013   2.610
 2073SOL     OW 7117   3.284   6.863   5.300
 2073SOL    HW1 7118   3.310   6.960   5.304
 2073SOL    HW2 7119   3.260   6.831   5.391
 2074SOL     OW 7120   5.558   2.486   2.669
 2074SOL    HW1 7121   5.575   2.480   2.768
 2074SOL    HW2 7122   5.460   2.494   2.653
 2075SOL     OW 7123   4.063   3.082   5.944
 2075SOL    HW1 7124   4.010   3.153   5.899
 2075SOL    HW2 7125   4.160   3.107   5.945
 2076SOL     OW 7126   5.186   0.176   0.443
 2076SOL    HW1 7127   5.138   0.114   0.504
 2076SOL    HW2 7128   5.189   0.137   0.351
 2077SOL     OW 7129   4.390   0.996   4.093
 2077SOL    HW1 7130   4.409   0.921   4.156
 2077SOL    HW2 7131   4.306   1.042   4.120
 2078SOL     OW 7132   4.147   5.900   4.213
 2078SOL    HW1 7133   4.190   5.855   4.292
 2078SOL    HW2 7134   4.198   5.876   4.130
 2079SOL     OW 7135   6.574   6.893   4.010
 2079SOL    HW1 7136   6.542   6.862   4.099
 2079SOL    HW2 7137   6.580   6.993   4.009
 2080SOL     OW 7138   2.400   1.793   3.650
 2080SOL    HW1 7139   2.420   1.789   3.552
 2080SOL    HW2 7140   2.460   1.730   3.700
 2081SOL     OW 7141   0.889   6.354   4.258
 2081SOL    HW1 7142   0.840   6.439   4.244
 2081SOL    HW2 7143   0.974   6.372   4.308
 2082SOL     OW 7144   4.759   0.843   2.323
 2082SOL    HW1 7145   4.678   0.784   2.318
 2082SOL    HW2 7146   4.757   0.908   2.248
 2083SOL     OW 7147   3.989   4.089   5.998
 2083SOL    HW1 7148   3.899   4.048   5.982
 2083SOL    HW2 7149   3.977   4.178   6.042
 2084SOL     OW 7150   6.850   2.665   3.096
 2084SOL    HW1 7151   6.805   2.754   3.088
 2084SOL    HW2 7152   6.860   2.625   3.005
 2085SOL     OW 7153   6.033   6.646   6.951
 2085SOL    HW1 7154   6.089   6.702   6.890
 2085SOL    HW2 7155   5.994   6.704   7.022
 2086SOL     OW 7156   3.546   4.929   0.019
 2086SOL    HW1 7157   3.608   4.952   0.094
 2086SOL    HW2 7158   3.595   4.873   6.976
 2087SOL     OW 7159   5.602   5.937   3.707
 2087SOL    HW1 7160   5.678   5.999   3.684
 2087SOL    HW2 7161   5.606   5.857   3.648
 2088SOL     OW 7162   2.697   6.541   1.698
 2088SOL    HW1 7163   2.621   6.546   1.762
 2088SOL    HW2 7164   2.783   6.551   1.747
 2089SOL     OW 7165   2.303   1.219   6.893
 2089SOL    HW1 7166   2.316   1.122   6.914
 2089SOL    HW2 7167   2.301   1.271   6.978
 2090SOL     OW 7168   3.335   3.758   3.929
 2090SOL    HW1 7169   3.285   3.709   4.000
 2090SOL    HW2 7170   3.306   3.725   3.839
 2091SOL     OW 7171   2.883   4.252   0.879
 2091SOL    HW1 7172   2.874   4.300   0.967
 2091SOL    HW2 7173   2.913   4.316   0.809
 2092SOL     OW 7174   0.177   6.492   0.987
 2092SOL    HW1 7175   0.158   6.553   1.064
 2092SOL    HW2 7176   0.145   6.400   1.009
 2093SOL     OW 7177   1.798   2.066   1.465
 2093SOL    HW1 7178   1.892   2.066   1.429
 2093SOL    HW2 7179   1.747   1.991   1.424
 2094SOL     OW 7180   6.718   0.601   2.131
 2094SOL    HW1 7181   6.806   0.568   2.095
 2094SOL    HW2 7182   6.705   0.696   2.106
 2095SOL     OW 7183   6.287   4.465   5.261
 2095SOL    HW1 7184   6.384   4.461   5.287
 2095SOL    HW2 7185   6.248   4.551   5.292
 2096SOL     OW 7186   4.796   4.354   3.624
 2096SOL    HW1 7187   4.844   4.326   3.708
 2096SOL    HW2 7188   4.732   4.428   3.646
 2097SOL     OW 7189   6.668   3.716   6.150
 2097SOL    HW1 7190   6.714   3.674   6.072
 2097SOL    HW2 7191   6.586   3.663   6.173
 2098SOL     OW 7192   4.184   0.246   4.250
 2098SOL    HW1 7193   4.248   0.287   4.185
 2098SOL    HW2 7194   4.115   0.314   4.276
 2099SOL     OW 7195   2.643   1.992   3.594
 2099SOL    HW1 7196   2.552   1.968   3.559
 2099SOL    HW2 7197   2.713   1.949   3.538
 2100SOL     OW 7198   4.214   4.673   6.183
 2100SOL    HW1 7199   4.165   4.692   6.269
 2100SOL    HW2 7200   4.161   4.608   6.129
 2101SOL     OW 7201   6.271   0.008   1.732
 2101SOL    HW1 7202   6.268   0.036   1.828
 2101SOL    HW2 7203   6.322   0.075   1.679
 2102SOL     OW 7204   0.448   4.924   1.405
 2102SOL    HW1 7205   0.488   5.016   1.400
 2102SOL    HW2 7206   0.521   4.857   1.417
 2103SOL     OW 7207   3.719   3.523   6.314
 2103SOL    HW1 7208   3.730   3.447   6.251
 2103SOL    HW2 7209   3.664   3.494   6.393
 2104SOL     OW 7210   1.454   4.456   5.752
 2104SOL    HW1 7211   1.473   4.451   5.654
 2104SOL    HW2 7212   1.370   4.407   5.773
 2105SOL     OW 7213   5.785   6.130   2.206
 2105SOL    HW1 7214   5.692   6.118   2.243
 2105SOL    HW2 7215   5.837   6.046   2.218
 2106SOL     OW 7216   5.429   6.094   6.277
 2106SOL    HW1 7217   5.433   6.040   6.361
 2106SOL    HW2 7218   5.522   6.107   6.241
 2107SOL     OW 7219   2.836   5.161   0.429
 2107SOL    HW1 7220   2.880   5.192   0.513
 2107SOL    HW2 7221   2.907   5.135   0.363
 2108SOL     OW 7222   6.356   4.442   6.521
 2108SOL    HW1 7223   6.269   4.471   6.482
 2108SOL    HW2 7224   6.422   4.517   6.514
 2109SOL     OW 7225   5.554   5.580   2.463
 2109SOL    HW1 7226   5.457   5.588   2.437
 2109SOL    HW2 7227   5.611   5.618   2.390
 2110SOL     OW 7228   1.241   4.791   5.456
 2110SOL    HW1 7229   1.216   4.882   5.423
 2110SOL    HW2 7230   1.234   4.725   5.381
 2111SOL     OW 7231   2.103   1.969   6.709
 2111SOL    HW1 7232   2.200   1.947   6.708
 2111SOL    HW2 7233   2.088   2.056   6.662
 2112SOL     OW 7234   5.116   4.003   0.686
 2112SOL    HW1 7235   5.030   4.050   0.703
 2112SOL    HW2 7236   5.191   4.069   0.687
 2113SOL     OW 7237   6.630   1.857   3.046
 2113SOL    HW1 7238   6.668   1.932   3.100
 2113SOL    HW2 7239   6.531   1.868   3.039
 2114SOL     OW 7240   1.507   3.591   0.065
 2114SOL    HW1 7241   1.581   3.655   0.086
 2114SOL    HW2 7242   1.542   3.517   0.008
 2115SOL     OW 7243   4.065   5.537   2.155
 2115SOL    HW1 7244   4.147   5.587   2.185
 2115SOL    HW2 7245   4.075   5.512   2.058
 2116SOL     OW 7246   0.578   3.772   4.072
 2116SOL    HW1 7247   0.635   3.709   4.020
 2116SOL    HW2 7248   0.545   3.727   4.155
 2117SOL     OW 7249   0.004   5.954   6.193
 2117SOL    HW1 7250   0.025   5.978   6.098
 2117SOL    HW2 7251   7.013   6.037   6.246
 2118SOL     OW 7252   0.009   2.970   2.235
 2118SOL    HW1 7253   0.023   2.896   2.300
 2118SOL    HW2 7254   0.035   2.940   2.144
 2119SOL     OW 7255   4.252   6.399   0.384
 2119SOL    HW1 7256   4.260   6.498   0.395
 2119SOL    HW2 7257   4.342   6.357   0.396
 2120SOL     OW 7258   7.024   3.805   2.002
 2120SOL    HW1 7259   0.002   3.900   2.032
 2120SOL    HW2 7260   6.928   3.778   1.988
 2121SOL     OW 7261   0.213   3.628   5.300
 2121SOL    HW1 7262   0.307   3.595   5.287
 2121SOL    HW2 7263   0.211   3.692   5.377
 2122SOL     OW 7264   4.305   4.883   5.260
 2122SOL    HW1 7265   4.303   4.952   5.333
 2122SOL    HW2 7266   4.358   4.804   5.291
 2123SOL     OW 7267   4.744   5.703   3.219
 2123SOL    HW1 7268   4.777   5.709   3.313
 2123SOL    HW2 7269   4.771   5.616   3.179
 2124SOL     OW 7270   2.841   2.307   1.430
 2124SOL    HW1 7271   2.894   2.284   1.511
 2124SOL    HW2 7272   2.898   2.298   1.348
 2125SOL     OW 7273   5.073   6.304   0.569
 2125SOL    HW1 7274   5.136   6.227   0.578
 2125SOL    HW2 7275   5.053   6.318   0.472
 2126SOL     OW 7276   2.984   1.596   1.472
 2126SOL    HW1 7277   3.007   1.663   1.402
 2126SOL    HW2 7278   2.969   1.507   1.430
 2127SOL     OW 7279   5.524   2.699   4.564
 2127SOL    HW1 7280   5.490   2.754   4.489
 2127SOL    HW2 7281   5.560   2.758   4.636
 2128SOL     OW 7282   0.251   3.644   4.510
 2128SOL    HW1 7283   0.288   3.587   4.583
 2128SOL    HW2 7284   0.208   3.586   4.441
 2129SOL     OW 7285   4.530   2.272   4.983
 2129SOL    HW1 7286   4.556   2.202   4.916
 2129SOL    HW2 7287   4.584   2.355   4.967
 2130SOL     OW 7288   4.949   0.075   3.498
 2130SOL    HW1 7289   4.894   0.099   3.578
 2130SOL    HW2 7290   4.897   0.091   3.415
 2131SOL     OW 7291   5.163   2.030   6.619
 2131SOL    HW1 7292   5.215   2.111   6.594
 2131SOL    HW2 7293   5.113   1.997   6.539
 2132SOL     OW 7294   1.944   3.683   0.833
 2132SOL    HW1 7295   1.961   3.774   0.869
 2132SOL    HW2 7296   1.896   3.628   0.901
 2133SOL     OW 7297   2.156   4.471   6.277
 2133SOL    HW1 7298   2.219   4.511   6.209
 2133SOL    HW2 7299   2.142   4.536   6.351
 2134SOL     OW 7300   0.112   6.978   0.267
 2134SOL    HW1 7301   0.044   6.904   0.266
 2134SOL    HW2 7302   0.201   6.940   0.292
 2135SOL     OW 7303   6.531   5.070   5.524
 2135SOL    HW1 7304   6.548   4.972   5.520
 2135SOL    HW2 7305   6.579   5.109   5.602
 2136SOL     OW 7306   1.420   5.589   6.875
 2136SOL    HW1 7307   1.373   5.640   6.803
 2136SOL    HW2 7308   1.491   5.647   6.916
 2137SOL     OW 7309   1.387   6.416   3.813
 2137SOL    HW1 7310   1.445   6.473   3.872
 2137SOL    HW2 7311   1.333   6.474   3.752
 2138SOL     OW 7312   5.122   2.034   1.681
 2138SOL    HW1 7313   5.062   2.090   1.623
 2138SOL    HW2 7314   5.111   1.938   1.656
 2139SOL     OW 7315   3.232   6.071   5.482
 2139SOL    HW1 7316   3.181   6.060   5.567
 2139SOL    HW2 7317   3.299   5.996   5.473
 2140SOL     OW 7318   2.062   2.103   3.408
 2140SOL    HW1 7319   2.018   2.164   3.474
 2140SOL    HW2 7320   2.161   2.119   3.408
 2141SOL     OW 7321   6.768   3.181   3.280
 2141SOL    HW1 7322   6.841   3.143   3.223
 2141SOL    HW2 7323   6.680   3.170   3.234
 2142SOL     OW 7324   1.816   2.594   2.114
 2142SOL    HW1 7325   1.909   2.585   2.077
 2142SOL    HW2 7326   1.820   2.644   2.201
 2143SOL     OW 7327   6.743   5.632   5.481
 2143SOL    HW1 7328   6.758   5.551   5.537
 2143SOL    HW2 7329   6.694   5.606   5.398
 2144SOL     OW 7330   6.442   4.726   2.769
 2144SOL    HW1 7331   6.393   4.644   2.738
 2144SOL    HW2 7332   6.385   4.775   2.835
 2145SOL     OW 7333   4.162   1.431   2.933
 2145SOL    HW1 7334   4.212   1.513   2.906
 2145SOL    HW2 7335   4.066   1.440   2.906
 2146SOL     OW 7336   1.946   1.788   6.572
 2146SOL    HW1 7337   1.868   1.843   6.545
 2146SOL    HW2 7338   2.020   1.847   6.603
 2147SOL     OW 7339   6.033   6.996   4.949
 2147SOL    HW1 7340   5.982   6.991   5.035
 2147SOL    HW2 7341   5.969   7.000   4.872
 2148SOL     OW 7342   1.035   2.375   4.979
 2148SOL    HW1 7343   1.133   2.395   4.981
 2148SOL    HW2 7344   1.003   2.376   4.885
 2149SOL     OW 7345   0.277   6.467   0.060
 2149SOL    HW1 7346   0.225   6.382   0.066
 2149SOL    HW2 7347   0.240   6.524   7.011
 2150SOL     OW 7348   1.632   2.675   0.756
 2150SOL    HW1 7349   1.567   2.695   0.682
 2150SOL    HW2 7350   1.689   2.598   0.729
 2151SOL     OW 7351   0.817   4.757   6.820
 2151SOL    HW1 7352   0.742   4.695   6.844
 2151SOL    HW2 7353   0.904   4.708   6.823
 2152SOL     OW 7354   5.127   6.061   4.181
 2152SOL    HW1 7355   5.085   5.971   4.186
 2152SOL    HW2 7356   5.224   6.052   4.160
 2153SOL     OW 7357   4.762   6.974   3.891
 2153SOL    HW1 7358   4.665   6.963   3.914
 2153SOL    HW2 7359   4.800   6.887   3.860
 2154SOL     OW 7360   2.660   6.756   2.640
 2154SOL    HW1 7361   2.594   6.681   2.637
 2154SOL    HW2 7362   2.656   6.800   2.729
 2155SOL     OW 7363   4.579   0.970   1.293
 2155SOL    HW1 7364   4.555   1.067   1.296
 2155SOL    HW2 7365   4.606   0.946   1.200
 2156SOL     OW 7366   6.040   2.011   5.284
 2156SOL    HW1 7367   5.952   1.974   5.314
 2156SOL    HW2 7368   6.063   1.976   5.193
 2157SOL     OW 7369   4.247   6.268   3.938
 2157SOL    HW1 7370   4.166   6.312   3.976
 2157SOL    HW2 7371   4.222   6.180   3.898
 2158SOL     OW 7372   2.848   6.773   0.773
 2158SOL    HW1 7373   2.753   6.754   0.797
 2158SOL    HW2 7374   2.882   6.703   0.711
 2159SOL     OW 7375   0.188   1.012   5.675
 2159SOL    HW1 7376   0.130   1.024   5.756
 2159SOL    HW2 7377   0.136   1.033   5.593
 2160SOL     OW 7378   5.643   6.998   6.786
 2160SOL    HW1 7379   5.575   6.952   6.729
 2160SOL    HW2 7380   5.615   6.993   6.882
 2161SOL     OW 7381   1.623   3.834   0.597
 2161SOL    HW1 7382   1.699   3.770   0.591
 2161SOL    HW2 7383   1.634   3.890   0.679
 2162SOL     OW 7384   1.689   0.259   0.412
 2162SOL    HW1 7385   1.676   0.196   0.489
 2162SOL    HW2 7386   1.601   0.280   0.370
 2163SOL     OW 7387   1.144   2.869   4.011
 2163SOL    HW1 7388   1.050   2.875   4.045
 2163SOL    HW2 7389   1.208   2.865   4.088
 2164SOL     OW 7390   2.160   4.242   2.191
 2164SOL    HW1 7391   2.079   4.297   2.214
 2164SOL    HW2 7392   2.225   4.298   2.140
 2165SOL     OW 7393   6.109   1.309   5.012
 2165SOL    HW1 7394   6.017   1.347   5.014
 2165SOL    HW2 7395   6.105   1.212   5.038
 2166SOL     OW 7396   0.439   2.719   1.720
 2166SOL    HW1 7397   0.457   2.622   1.703
 2166SOL    HW2 7398   0.521   2.762   1.757
 2167SOL     OW 7399   1.411   2.536   3.233
 2167SOL    HW1 7400   1.450   2.497   3.317
 2167SOL    HW2 7401   1.468   2.511   3.155
 2168SOL     OW 7402   1.680   2.593   3.006
 2168SOL    HW1 7403   1.695   2.651   3.086
 2168SOL    HW2 7404   1.714   2.640   2.924
 2169SOL     OW 7405   6.912   0.351   1.239
 2169SOL    HW1 7406   6.915   0.320   1.144
 2169SOL    HW2 7407   6.836   0.307   1.286
 2170SOL     OW 7408   1.617   2.861   6.554
 2170SOL    HW1 7409   1.714   2.885   6.543
 2170SOL    HW2 7410   1.561   2.943   6.545
 2171SOL     OW 7411   6.714   6.056   1.609
 2171SOL    HW1 7412   6.643   6.010   1.663
 2171SOL    HW2 7413   6.674   6.133   1.560
 2172SOL     OW 7414   2.913   2.295   4.756
 2172SOL    HW1 7415   2.999   2.345   4.748
 2172SOL    HW2 7416   2.870   2.316   4.844
 2173SOL     OW 7417   4.837   0.599   4.525
 2173SOL    HW1 7418   4.798   0.684   4.559
 2173SOL    HW2 7419   4.817   0.589   4.427
 2174SOL     OW 7420   5.163   0.243   6.103
 2174SOL    HW1 7421   5.198   0.149   6.102
 2174SOL    HW2 7422   5.088   0.251   6.037
 2175SOL     OW 7423   3.747   2.911   5.859
 2175SOL    HW1 7424   3.689   2.834   5.832
 2175SOL    HW2 7425   3.723   2.991   5.804
 2176SOL     OW 7426   6.612   2.335   2.927
 2176SOL    HW1 7427   6.569   2.425   2.919
 2176SOL    HW2 7428   6.589   2.281   2.846
 2177SOL     OW 7429   0.848   0.734   5.933
 2177SOL    HW1 7430   0.823   0.713   5.839
 2177SOL    HW2 7431   0.940   0.773   5.935
 2178SOL     OW 7432   1.847   2.750   2.338
 2178SOL    HW1 7433   1.876   2.845   2.326
 2178SOL    HW2 7434   1.798   2.740   2.424
 2179SOL     OW 7435   1.105   4.189   0.222
 2179SOL    HW1 7436   1.072   4.281   0.201
 2179SOL    HW2 7437   1.167   4.192   0.300
 2180SOL     OW 7438   0.387   5.350   3.161
 2180SOL    HW1 7439   0.416   5.427   3.218
 2180SOL    HW2 7440   0.299   5.371   3.118
 2181SOL     OW 7441   4.224   4.952   4.067
 2181SOL    HW1 7442   4.199   4.868   4.018
 2181SOL    HW2 7443   4.305   4.936   4.122
 2182SOL     OW 7444   6.916   6.480   1.451
 2182SOL    HW1 7445   6.909   6.479   1.550
 2182SOL    HW2 7446   6.919   6.575   1.418
 2183SOL     OW 7447   3.478   3.328   6.875
 2183SOL    HW1 7448   3.544   3.393   6.914
 2183SOL    HW2 7449   3.405   3.378   6.830
 2184SOL     OW 7450   6.318   1.752   0.102
 2184SOL    HW1 7451   6.406   1.788   0.134
 2184SOL    HW2 7452   6.299   1.665   0.148
 2185SOL     OW 7453   0.932   1.795   6.299
 2185SOL    HW1 7454   0.873   1.825   6.224
 2185SOL    HW2 7455   0.998   1.728   6.265
 2186SOL     OW 7456   6.881   6.409   5.347
 2186SOL    HW1 7457   6.848   6.379   5.257
 2186SOL    HW2 7458   6.941   6.339   5.385
 2187SOL     OW 7459   5.831   4.562   1.549
 2187SOL    HW1 7460   5.930   4.554   1.561
 2187SOL    HW2 7461   5.785   4.484   1.592
 2188SOL     OW 7462   3.016   0.862   0.679
 2188SOL    HW1 7463   3.070   0.826   0.756
 2188SOL    HW2 7464   2.919   0.840   0.693
 2189SOL     OW 7465   1.882   0.429   2.514
 2189SOL    HW1 7466   1.954   0.405   2.579
 2189SOL    HW2 7467   1.792   0.413   2.556
 2190SOL     OW 7468   6.567   4.924   2.124
 2190SOL    HW1 7469   6.493   4.859   2.107
 2190SOL    HW2 7470   6.561   4.999   2.059
 2191SOL     OW 7471   3.830   6.888   7.024
 2191SOL    HW1 7472   3.822   6.789   7.015
 2191SOL    HW2 7473   3.766   6.920   0.070
 2192SOL     OW 7474   4.570   2.011   1.942
 2192SOL    HW1 7475   4.608   2.103   1.956
 2192SOL    HW2 7476   4.635   1.957   1.887
 2193SOL     OW 7477   1.653   0.839   4.550
 2193SOL    HW1 7478   1.580   0.786   4.594
 2193SOL    HW2 7479   1.742   0.797   4.570
 2194SOL     OW 7480   0.730   4.626   5.143
 2194SOL    HW1 7481   0.641   4.672   5.151
 2194SOL    HW2 7482   0.735   4.552   5.209
 2195SOL     OW 7483   0.272   3.525   5.647
 2195SOL    HW1 7484   0.191   3.511   5.591
 2195SOL    HW2 7485   0.328   3.442   5.647
 2196SOL     OW 7486   3.850   1.035   6.816
 2196SOL    HW1 7487   3.801   0.957   6.777
 2196SOL    HW2 7488   3.924   1.062   6.754
 2197SOL     OW 7489   3.875   5.328   6.717
 2197SOL    HW1 7490   3.797   5.266   6.721
 2197SOL    HW2 7491   3.846   5.417   6.683
 2198SOL     OW 7492   1.665   1.431   6.314
 2198SOL    HW1 7493   1.713   1.355   6.356
 2198SOL    HW2 7494   1.566   1.413   6.316
 2199SOL     OW 7495   3.813   6.426   3.838
 2199SOL    HW1 7496   3.852   6.402   3.750
 2199SOL    HW2 7497   3.881   6.414   3.910
 2200SOL     OW 7498   2.337   2.425   4.531
 2200SOL    HW1 7499   2.433   2.433   4.506
 2200SOL    HW2 7500   2.328   2.422   4.631
 2201SOL     OW 7501   5.609   3.468   4.886
 2201SOL    HW1 7502   5.586   3.459   4.983
 2201SOL    HW2 7503   5.708   3.477   4.876
 2202SOL     OW 7504   3.688   6.856   4.097
 2202SOL    HW1 7505   3.707   6.840   4.194
 2202SOL    HW2 7506   3.737   6.788   4.042
 2203SOL     OW 7507   2.031   5.492   1.000
 2203SOL    HW1 7508   2.087   5.418   0.964
 2203SOL    HW2 7509   2.090   5.567   1.030
 2204SOL     OW 7510   5.158   3.035   1.042
 2204SOL    HW1 7511   5.077   3.015   0.987
 2204SOL    HW2 7512   5.168   2.965   1.113
 2205SOL     OW 7513   5.862   5.547   1.110
 2205SOL    HW1 7514   5.880   5.585   1.200
 2205SOL    HW2 7515   5.779   5.492   1.113
 2206SOL     OW 7516   3.601   2.692   5.743
 2206SOL    HW1 7517   3.582   2.764   5.677
 2206SOL    HW2 7518   3.607   2.604   5.695
 2207SOL     OW 7519   4.571   5.622   2.185
 2207SOL    HW1 7520   4.630   5.544   2.208
 2207SOL    HW2 7521   4.536   5.611   2.092
 2208SOL     OW 7522   6.741   6.531   3.047
 2208SOL    HW1 7523   6.689   6.448   3.070
 2208SOL    HW2 7524   6.727   6.553   2.951
 2209SOL     OW 7525   2.540   5.290   3.760
 2209SOL    HW1 7526   2.506   5.381   3.736
 2209SOL    HW2 7527   2.515   5.226   3.687
 2210SOL     OW 7528   5.188   6.507   1.859
 2210SOL    HW1 7529   5.259   6.540   1.922
 2210SOL    HW2 7530   5.102   6.498   1.909
 2211SOL     OW 7531   1.258   1.386   1.753
 2211SOL    HW1 7532   1.214   1.308   1.709
 2211SOL    HW2 7533   1.188   1.453   1.780
 2212SOL     OW 7534   2.868   5.881   5.951
 2212SOL    HW1 7535   2.894   5.972   5.917
 2212SOL    HW2 7536   2.948   5.821   5.949
 2213SOL     OW 7537   3.513   1.422   4.336
 2213SOL    HW1 7538   3.456   1.344   4.311
 2213SOL    HW2 7539   3.459   1.484   4.394
 2214SOL     OW 7540   4.269   4.457   6.539
 2214SOL    HW1 7541   4.216   4.409   6.469
 2214SOL    HW2 7542   4.231   4.435   6.629
 2215SOL     OW 7543   5.396   5.520   6.758
 2215SOL    HW1 7544   5.309   5.563   6.735
 2215SOL    HW2 7545   5.470   5.569   6.714
 2216SOL     OW 7546   0.267   5.814   0.174
 2216SOL    HW1 7547   0.323   5.894   0.194
 2216SOL    HW2 7548   0.323   5.743   0.132
 2217SOL     OW 7549   4.228   1.224   3.584
 2217SOL    HW1 7550   4.249   1.243   3.679
 2217SOL    HW2 7551   4.147   1.166   3.579
 2218SOL     OW 7552   6.339   5.573   5.514
 2218SOL    HW1 7553   6.409   5.618   5.568
 2218SOL    HW2 7554   6.329   5.620   5.426
 2219SOL     OW 7555   5.632   2.092   0.730
 2219SOL    HW1 7556   5.582   2.012   0.698
 2219SOL    HW2 7557   5.662   2.147   0.652
 2220SOL     OW 7558   6.754   6.578   4.236
 2220SOL    HW1 7559   6.747   6.600   4.138
 2220SOL    HW2 7560   6.665   6.550   4.270
 2221SOL     OW 7561   5.805   0.870   4.258
 2221SOL    HW1 7562   5.764   0.825   4.338
 2221SOL    HW2 7563   5.844   0.801   4.197
 2222SOL     OW 7564   3.512   1.153   3.631
 2222SOL    HW1 7565   3.484   1.178   3.538
 2222SOL    HW2 7566   3.473   1.218   3.696
 2223SOL     OW 7567   0.710   0.160   5.266
 2223SOL    HW1 7568   0.744   0.120   5.181
 2223SOL    HW2 7569   0.654   0.092   5.314
 2224SOL     OW 7570   5.498   4.238   6.677
 2224SOL    HW1 7571   5.425   4.200   6.733
 2224SOL    HW2 7572   5.537   4.166   6.619
 2225SOL     OW 7573   6.808   6.667   1.062
 2225SOL    HW1 7574   6.898   6.686   1.023
 2225SOL    HW2 7575   6.757   6.753   1.070
 2226SOL     OW 7576   2.609   3.248   0.135
 2226SOL    HW1 7577   2.691   3.257   0.078
 2226SOL    HW2 7578   2.635   3.210   0.224
 2227SOL     OW 7579   4.037   2.052   1.904
 2227SOL    HW1 7580   4.051   2.097   1.993
 2227SOL    HW2 7581   4.124   2.017   1.871
 2228SOL     OW 7582   5.143   6.770   6.723
 2228SOL    HW1 7583   5.139   6.699   6.793
 2228SOL    HW2 7584   5.217   6.749   6.659
 2229SOL     OW 7585   2.878   3.475   4.448
 2229SOL    HW1 7586   2.882   3.468   4.548
 2229SOL    HW2 7587   2.884   3.571   4.421
 2230SOL     OW 7588   6.639   0.876   6.390
 2230SOL    HW1 7589   6.552   0.869   6.439
 2230SOL    HW2 7590   6.691   0.792   6.404
 2231SOL     OW 7591   1.313   6.956   6.286
 2231SOL    HW1 7592   1.247   6.922   6.352
 2231SOL    HW2 7593   1.267   6.979   6.200
 2232SOL     OW 7594   1.838   0.662   6.484
 2232SOL    HW1 7595   1.772   0.692   6.553
 2232SOL    HW2 7596   1.931   0.667   6.521
 2233SOL     OW 7597   2.776   4.966   0.845
 2233SOL    HW1 7598   2.869   5.002   0.842
 2233SOL    HW2 7599   2.758   4.912   0.762
 2234SOL     OW 7600   4.779   2.155   1.417
 2234SOL    HW1 7601   4.719   2.231   1.441
 2234SOL    HW2 7602   4.748   2.073   1.465
 2235SOL     OW 7603   0.702   1.879   3.044
 2235SOL    HW1 7604   0.721   1.803   2.982
 2235SOL    HW2 7605   0.628   1.935   3.007
 2236SOL     OW 7606   2.739   4.777   5.225
 2236SOL    HW1 7607   2.813   4.837   5.256
 2236SOL    HW2 7608   2.772   4.716   5.154
 2237SOL     OW 7609   5.868   6.859   6.099
 2237SOL    HW1 7610   5.794   6.792   6.098
 2237SOL    HW2 7611   5.837   6.944   6.142
 2238SOL     OW 7612   5.802   3.861   2.253
 2238SOL    HW1 7613   5.896   3.843   2.222
 2238SOL    HW2 7614   5.766   3.941   2.205
 2239SOL     OW 7615   4.051   0.065   2.965
 2239SOL    HW1 7616   4.149   0.044   2.963
 2239SOL    HW2 7617   4.003   0.007   2.900
 2240SOL     OW 7618   4.749   5.216   2.075
 2240SOL    HW1 7619   4.696   5.150   2.128
 2240SOL    HW2 7620   4.845   5.211   2.102
 2241SOL     OW 7621   0.895   1.772   3.193
 2241SOL    HW1 7622   0.829   1.699   3.182
 2241SOL    HW2 7623   0.863   1.854   3.147
 2242SOL     OW 7624   5.635   2.556   4.201
 2242SOL    HW1 7625   5.694   2.589   4.274
 2242SOL    HW2 7626   5.680   2.568   4.113
 2243SOL     OW 7627   2.357   0.336   0.501
 2243SOL    HW1 7628   2.437   0.280   0.478
 2243SOL    HW2 7629   2.296   0.339   0.421
 2244SOL     OW 7630   2.974   1.886   1.085
 2244SOL    HW1 7631   3.038   1.853   1.016
 2244SOL    HW2 7632   2.941   1.977   1.059
 2245SOL     OW 7633   0.115   0.847   0.209
 2245SOL    HW1 7634   0.151   0.928   0.162
 2245SOL    HW2 7635   0.054   0.797   0.147
 2246SOL     OW 7636   5.346   0.915   5.902
 2246SOL    HW1 7637   5.315   0.899   5.809
 2246SOL    HW2 7638   5.320   0.837   5.960
 2247SOL     OW 7639   2.801   3.421   1.606
 2247SOL    HW1 7640   2.787   3.326   1.634
 2247SOL    HW2 7641   2.759   3.481   1.674
 2248SOL     OW 7642   4.897   3.088   4.473
 2248SOL    HW1 7643   4.825   3.021   4.492
 2248SOL    HW2 7644   4.891   3.118   4.378
 2249SOL     OW 7645   2.043   6.531   3.831
 2249SOL    HW1 7646   1.965   6.471   3.846
 2249SOL    HW2 7647   2.120   6.501   3.888
 2250SOL     OW 7648   4.518   5.780   6.359
 2250SOL    HW1 7649   4.556   5.863   6.320
 2250SOL    HW2 7650   4.431   5.800   6.404
 2251SOL     OW 7651   3.930   6.797   4.821
 2251SOL    HW1 7652   3.879   6.831   4.742
 2251SOL    HW2 7653   3.990   6.722   4.792
 2252SOL     OW 7654   3.910   1.262   2.682
 2252SOL    HW1 7655   3.902   1.356   2.716
 2252SOL    HW2 7656   3.926   1.264   2.583
 2253SOL     OW 7657   0.905   3.172   1.940
 2253SOL    HW1 7658   0.859   3.108   2.001
 2253SOL    HW2 7659   0.974   3.223   1.992
 2254SOL     OW 7660   3.373   2.831   3.270
 2254SOL    HW1 7661   3.463   2.866   3.241
 2254SOL    HW2 7662   3.381   2.792   3.362
 2255SOL     OW 7663   1.541   2.579   5.926
 2255SOL    HW1 7664   1.544   2.569   6.025
 2255SOL    HW2 7665   1.477   2.513   5.887
 2256SOL     OW 7666   4.839   0.415   1.534
 2256SOL    HW1 7667   4.879   0.379   1.618
 2256SOL    HW2 7668   4.839   0.515   1.537
 2257SOL     OW 7669   0.473   0.449   6.051
 2257SOL    HW1 7670   0.439   0.530   6.003
 2257SOL    HW2 7671   0.531   0.477   6.127
 2258SOL     OW 7672   1.948   6.991   3.664
 2258SOL    HW1 7673   2.035   0.016   3.667
 2258SOL    HW2 7674   1.944   6.927   3.741
 2259SOL     OW 7675   5.722   0.210   4.742
 2259SOL    HW1 7676   5.796   0.259   4.788
 2259SOL    HW2 7677   5.707   0.248   4.651
 2260SOL     OW 7678   1.582   3.616   1.214
 2260SOL    HW1 7679   1.503   3.674   1.194
 2260SOL    HW2 7680   1.661   3.674   1.233
 2261SOL     OW 7681   5.244   4.146   6.281
 2261SOL    HW1 7682   5.182   4.068   6.289
 2261SOL    HW2 7683   5.198   4.219   6.231
 2262SOL     OW 7684   0.062   6.731   3.827
 2262SOL    HW1 7685   0.098   6.771   3.911
 2262SOL    HW2 7686   0.043   6.804   3.761
 2263SOL     OW 7687   2.528   4.565   6.547
 2263SOL    HW1 7688   2.538   4.564   6.448
 2263SOL    HW2 7689   2.520   4.659   6.580
 2264SOL     OW 7690   2.203   0.219   6.711
 2264SOL    HW1 7691   2.144   0.210   6.791
 2264SOL    HW2 7692   2.298   0.233   6.741
 2265SOL     OW 7693   0.106   6.456   3.656
 2265SOL    HW1 7694   0.099   6.440   3.558
 2265SOL    HW2 7695   0.060   6.542   3.679
 2266SOL     OW 7696   4.725   3.812   6.134
 2266SOL    HW1 7697   4.812   3.787   6.176
 2266SOL    HW2 7698   4.659   3.739   6.147
 2267SOL     OW 7699   5.422   3.027   4.044
 2267SOL    HW1 7700   5.327   3.040   4.071
 2267SOL    HW2 7701   5.453   2.937   4.075
 2268SOL     OW 7702   0.899   6.268   5.106
 2268SOL    HW1 7703   0.917   6.217   5.190
 2268SOL    HW2 7704   0.963   6.345   5.099
 2269SOL     OW 7705   2.225   2.569   5.834
 2269SOL    HW1 7706   2.242   2.478   5.871
 2269SOL    HW2 7707   2.277   2.637   5.886
 2270SOL     OW 7708   5.483   2.222   6.238
 2270SOL    HW1 7709   5.391   2.226   6.276
 2270SOL    HW2 7710   5.478   2.195   6.142
 2271SOL     OW 7711   3.959   5.527   5.267
 2271SOL    HW1 7712   4.044   5.500   5.222
 2271SOL    HW2 7713   3.973   5.532   5.366
 2272SOL     OW 7714   5.868   1.351   6.237
 2272SOL    HW1 7715   5.780   1.311   6.212
 2272SOL    HW2 7716   5.876   1.442   6.197
 2273SOL     OW 7717   0.699   2.519   3.956
 2273SOL    HW1 7718   0.646   2.518   4.040
 2273SOL    HW2 7719   0.671   2.597   3.900
 2274SOL     OW 7720   1.011   1.076   6.970
 2274SOL    HW1 7721   1.092   1.120   7.010
 2274SOL    HW2 7722   0.986   1.123   6.886
 2275SOL     OW 7723   5.776   3.742   3.634
 2275SOL    HW1 7724   5.811   3.824   3.588
 2275SOL    HW2 7725   5.822   3.662   3.596
 2276SOL     OW 7726   1.819   1.791   1.162
 2276SOL    HW1 7727   1.802   1.696   1.187
 2276SOL    HW2 7728   1.799   1.804   1.065
 2277SOL     OW 7729   3.661   3.411   3.467
 2277SOL    HW1 7730   3.569   3.411   3.427
 2277SOL    HW2 7731   3.658   3.455   3.557
 2278SOL     OW 7732   6.793   3.164   3.859
 2278SOL    HW1 7733   6.827   3.070   3.859
 2278SOL    HW2 7734   6.696   3.164   3.835
 2279SOL     OW 7735   1.317   4.980   5.781
 2279SOL    HW1 7736   1.332   4.969   5.880
 2279SOL    HW2 7737   1.317   4.890   5.737
 2280SOL     OW 7738   4.843   2.529   5.513
 2280SOL    HW1 7739   4.760   2.526   5.569
 2280SOL    HW2 7740   4.894   2.444   5.524
 2281SOL     OW 7741   5.049   6.989   2.220
 2281SOL    HW1 7742   4.953   6.966   2.236
 2281SOL    HW2 7743   5.058   0.007   2.130
 2282SOL     OW 7744   3.601   5.498   6.007
 2282SOL    HW1 7745   3.660   5.433   5.960
 2282SOL    HW2 7746   3.524   5.522   5.948
 2283SOL     OW 7747   0.068   0.877   4.848
 2283SOL    HW1 7748   0.017   0.791   4.855
 2283SOL    HW2 7749   0.020   0.948   4.898
 2284SOL     OW 7750   1.894   3.840   6.518
 2284SOL    HW1 7751   1.797   3.864   6.516
 2284SOL    HW2 7752   1.904   3.742   6.501
 2285SOL     OW 7753   1.390   4.782   6.229
 2285SOL    HW1 7754   1.434   4.692   6.225
 2285SOL    HW2 7755   1.300   4.773   6.272
 2286SOL     OW 7756   4.482   4.517   2.822
 2286SOL    HW1 7757   4.411   4.588   2.820
 2286SOL    HW2 7758   4.438   4.427   2.825
 2287SOL     OW 7759   1.355   1.786   4.612
 2287SOL    HW1 7760   1.297   1.764   4.534
 2287SOL    HW2 7761   1.451   1.791   4.583
 2288SOL     OW 7762   6.734   5.485   2.559
 2288SOL    HW1 7763   6.709   5.577   2.529
 2288SOL    HW2 7764   6.833   5.472   2.550
 2289SOL     OW 7765   0.355   5.225   0.343
 2289SOL    HW1 7766   0.321   5.315   0.370
 2289SOL    HW2 7767   0.394   5.231   0.251
 2290SOL     OW 7768   0.697   5.494   6.462
 2290SOL    HW1 7769   0.764   5.513   6.534
 2290SOL    HW2 7770   0.637   5.419   6.490
 2291SOL     OW 7771   2.146   1.582   6.923
 2291SOL    HW1 7772   2.106   1.659   6.973
 2291SOL    HW2 7773   2.176   1.613   6.833
 2292SOL     OW 7774   1.807   1.116   4.216
 2292SOL    HW1 7775   1.739   1.189   4.227
 2292SOL    HW2 7776   1.820   1.069   4.304
 2293SOL     OW 7777   5.820   3.888   2.890
 2293SOL    HW1 7778   5.877   3.844   2.821
 2293SOL    HW2 7779   5.723   3.877   2.866
 2294SOL     OW 7780   4.283   6.683   0.257
 2294SOL    HW1 7781   4.362   6.730   0.218
 2294SOL    HW2 7782   4.244   6.739   0.330
 2295SOL     OW 7783   1.015   1.087   2.108
 2295SOL    HW1 7784   1.098   1.119   2.152
 2295SOL    HW2 7785   0.980   1.159   2.048
 2296SOL     OW 7786   3.323   6.230   0.528
 2296SOL    HW1 7787   3.376   6.277   0.599
 2296SOL    HW2 7788   3.324   6.132   0.545
 2297SOL     OW 7789   4.419   6.936   6.867
 2297SOL    HW1 7790   4.486   6.906   6.799
 2297SOL    HW2 7791   4.328   6.904   6.841
 2298SOL     OW 7792   3.942   3.278   6.685
 2298SOL    HW1 7793   3.898   3.338   6.751
 2298SOL    HW2 7794   4.019   3.327   6.642
 2299SOL     OW 7795   4.316   0.092   0.586
 2299SOL    HW1 7796   4.237   0.032   0.589
 2299SOL    HW2 7797   4.358   0.087   0.495
 2300SOL     OW 7798   1.330   4.703   1.311
 2300SOL    HW1 7799   1.415   4.723   1.261
 2300SOL    HW2 7800   1.353   4.671   1.403
 2301SOL     OW 7801   3.790   3.852   1.882
 2301SOL    HW1 7802   3.753   3.945   1.873
 2301SOL    HW2 7803   3.718   3.786   1.861
 2302SOL     OW 7804   2.304   5.144   2.969
 2302SOL    HW1 7805   2.389   5.192   2.990
 2302SOL    HW2 7806   2.324   5.052   2.936
 2303SOL     OW 7807   6.955   2.999   6.247
 2303SOL    HW1 7808   0.019   2.958   6.272
 2303SOL    HW2 7809   6.962   3.042   6.158
 2304SOL     OW 7810   2.077   1.416   4.640
 2304SOL    HW1 7811   1.998   1.416   4.579
 2304SOL    HW2 7812   2.061   1.479   4.716
 2305SOL     OW 7813   4.196   4.697   1.887
 2305SOL    HW1 7814   4.237   4.700   1.978
 2305SOL    HW2 7815   4.220   4.610   1.843
 2306SOL     OW 7816   0.520   4.349   0.476
 2306SOL    HW1 7817   0.476   4.427   0.431
 2306SOL    HW2 7818   0.540   4.373   0.571
 2307SOL     OW 7819   0.791   1.566   2.902
 2307SOL    HW1 7820   0.719   1.600   2.842
 2307SOL    HW2 7821   0.751   1.528   2.985
 2308SOL     OW 7822   1.020   7.007   0.315
 2308SOL    HW1 7823   1.015   0.062   0.375
 2308SOL    HW2 7824   1.101   6.953   0.338
 2309SOL     OW 7825   2.421   5.262   5.952
 2309SOL    HW1 7826   2.426   5.176   5.902
 2309SOL    HW2 7827   2.384   5.334   5.893
 2310SOL     OW 7828   5.496   1.562   3.245
 2310SOL    HW1 7829   5.433   1.568   3.322
 2310SOL    HW2 7830   5.585   1.529   3.277
 2311SOL     OW 7831   2.864   0.607   2.630
 2311SOL    HW1 7832   2.824   0.643   2.546
 2311SOL    HW2 7833   2.955   0.569   2.610
 2312SOL     OW 7834   2.431   0.952   2.511
 2312SOL    HW1 7835   2.495   0.895   2.562
 2312SOL    HW2 7836   2.410   1.034   2.565
 2313SOL     OW 7837   5.069   4.236   1.865
 2313SOL    HW1 7838   5.087   4.195   1.955
 2313SOL    HW2 7839   4.973   4.261   1.859
 2314SOL     OW 7840   6.265   6.600   2.974
 2314SOL    HW1 7841   6.204   6.521   2.967
 2314SOL    HW2 7842   6.252   6.659   2.894
 2315SOL     OW 7843   4.508   6.037   4.966
 2315SOL    HW1 7844   4.468   6.030   4.875
 2315SOL    HW2 7845   4.572   5.961   4.980
 2316SOL     OW 7846   3.063   1.221   5.895
 2316SOL    HW1 7847   3.096   1.289   5.830
 2316SOL    HW2 7848   3.023   1.144   5.845
 2317SOL     OW 7849   6.969   5.269   2.862
 2317SOL    HW1 7850   6.886   5.265   2.917
 2317SOL    HW2 7851   7.007   5.362   2.867
 2318SOL     OW 7852   0.663   4.344   4.138
 2318SOL    HW1 7853   0.601   4.390   4.075
 2318SOL    HW2 7854   0.747   4.397   4.147
 2319SOL     OW 7855   1.528   5.531   3.478
 2319SOL    HW1 7856   1.457   5.587   3.522
 2319SOL    HW2 7857   1.613   5.539   3.529
 2320SOL     OW 7858   1.065   1.735   5.487
 2320SOL    HW1 7859   1.091   1.823   5.527
 2320SOL    HW2 7860   0.991   1.749   5.421
 2321SOL     OW 7861   1.884   5.079   5.292
 2321SOL    HW1 7862   1.950   5.028   5.347
 2321SOL    HW2 7863   1.847   5.020   5.220
 2322SOL     OW 7864   1.783   3.807   1.850
 2322SOL    HW1 7865   1.748   3.719   1.819
 2322SOL    HW2 7866   1.845   3.792   1.927
 2323SOL     OW 7867   2.785   5.450   0.707
 2323SOL    HW1 7868   2.744   5.359   0.697
 2323SOL    HW2 7869   2.716   5.514   0.741
 2324SOL     OW 7870   6.923   5.178   2.518
 2324SOL    HW1 7871   6.966   5.266   2.537
 2324SOL    HW2 7872   6.987   5.121   2.467
 2325SOL     OW 7873   6.554   5.353   2.394
 2325SOL    HW1 7874   6.499   5.427   2.355
 2325SOL    HW2 7875   6.619   5.391   2.459
 2326SOL     OW 7876   1.897   0.409   0.077
 2326SOL    HW1 7877   1.896   0.464   7.018
 2326SOL    HW2 7878   1.852   0.322   0.060
 2327SOL     OW 7879   6.853   6.889   2.234
 2327SOL    HW1 7880   6.824   6.793   2.234
 2327SOL    HW2 7881   6.862   6.920   2.140
 2328SOL     OW 7882   1.867   3.993   2.260
 2328SOL    HW1 7883   1.948   3.942   2.232
 2328SOL    HW2 7884   1.885   4.038   2.348
 2329SOL     OW 7885   0.440   4.858   3.060
 2329SOL    HW1 7886   0.456   4.942   3.009
 2329SOL    HW2 7887   0.351   4.820   3.036
 2330SOL     OW 7888   6.147   3.158   0.882
 2330SOL    HW1 7889   6.204   3.171   0.963
 2330SOL    HW2 7890   6.172   3.227   0.813
 2331SOL     OW 7891   4.926   5.801   1.186
 2331SOL    HW1 7892   4.847   5.862   1.194
 2331SOL    HW2 7893   5.007   5.847   1.224
 2332SOL     OW 7894   5.738   6.976   5.865
 2332SOL    HW1 7895   5.651   6.971   5.914
 2332SOL    HW2 7896   5.809   7.012   5.925
 2333SOL     OW 7897   0.927   4.407   2.262
 2333SOL    HW1 7898   0.857   4.452   2.207
 2333SOL    HW2 7899   1.001   4.472   2.281
 2334SOL     OW 7900   3.017   1.401   6.381
 2334SOL    HW1 7901   2.943   1.460   6.416
 2334SOL    HW2 7902   3.028   1.416   6.283
 2335SOL     OW 7903   6.732   1.612   3.296
 2335SOL    HW1 7904   6.749   1.581   3.203
 2335SOL    HW2 7905   6.769   1.704   3.307
 2336SOL     OW 7906   1.565   1.877   3.618
 2336SOL    HW1 7907   1.494   1.933   3.662
 2336SOL    HW2 7908   1.655   1.911   3.646
 2337SOL     OW 7909   3.997   1.432   1.583
 2337SOL    HW1 7910   3.973   1.521   1.622
 2337SOL    HW2 7911   3.934   1.362   1.618
 2338SOL     OW 7912   6.873   3.560   3.985
 2338SOL    HW1 7913   6.885   3.463   4.006
 2338SOL    HW2 7914   6.816   3.602   4.055
 2339SOL     OW 7915   3.431   2.945   3.547
 2339SOL    HW1 7916   3.500   3.018   3.550
 2339SOL    HW2 7917   3.377   2.954   3.463
 2340SOL     OW 7918   2.500   4.388   6.911
 2340SOL    HW1 7919   2.582   4.376   6.855
 2340SOL    HW2 7920   2.421   4.407   6.852
 2341SOL     OW 7921   2.420   4.338   4.181
 2341SOL    HW1 7922   2.486   4.354   4.108
 2341SOL    HW2 7923   2.445   4.395   4.260
 2342SOL     OW 7924   3.244   1.092   4.114
 2342SOL    HW1 7925   3.333   1.047   4.109
 2342SOL    HW2 7926   3.250   1.170   4.177
 2343SOL     OW 7927   0.701   0.166   1.608
 2343SOL    HW1 7928   0.618   0.195   1.657
 2343SOL    HW2 7929   0.675   0.114   1.527
 2344SOL     OW 7930   5.656   4.414   0.228
 2344SOL    HW1 7931   5.752   4.390   0.239
 2344SOL    HW2 7932   5.635   4.492   0.287
 2345SOL     OW 7933   3.737   6.112   4.837
 2345SOL    HW1 7934   3.666   6.058   4.793
 2345SOL    HW2 7935   3.791   6.159   4.767
 2346SOL     OW 7936   4.781   3.758   0.308
 2346SOL    HW1 7937   4.699   3.732   0.257
 2346SOL    HW2 7938   4.773   3.725   0.402
 2347SOL     OW 7939   2.073   2.034   1.403
 2347SOL    HW1 7940   2.071   1.996   1.311
 2347SOL    HW2 7941   2.163   2.016   1.444
 2348SOL     OW 7942   0.435   5.046   2.344
 2348SOL    HW1 7943   0.407   5.018   2.252
 2348SOL    HW2 7944   0.533   5.067   2.345
 2349SOL     OW 7945   1.031   4.517   5.210
 2349SOL    HW1 7946   1.087   4.465   5.275
 2349SOL    HW2 7947   1.052   4.486   5.117
 2350SOL     OW 7948   5.015   3.569   0.187
 2350SOL    HW1 7949   4.926   3.601   0.221
 2350SOL    HW2 7950   5.088   3.626   0.226
 2351SOL     OW 7951   2.464   5.991   1.873
 2351SOL    HW1 7952   2.418   5.914   1.829
 2351SOL    HW2 7953   2.561   5.969   1.887
 2352SOL     OW 7954   7.017   2.529   3.528
 2352SOL    HW1 7955   0.013   2.587   3.448
 2352SOL    HW2 7956   6.920   2.504   3.526
 2353SOL     OW 7957   2.891   5.095   4.268
 2353SOL    HW1 7958   2.864   5.168   4.330
 2353SOL    HW2 7959   2.927   5.134   4.183
 2354SOL     OW 7960   2.390   2.530   4.091
 2354SOL    HW1 7961   2.401   2.444   4.141
 2354SOL    HW2 7962   2.294   2.558   4.093
 2355SOL     OW 7963   2.643   5.697   5.184
 2355SOL    HW1 7964   2.597   5.724   5.099
 2355SOL    HW2 7965   2.637   5.598   5.195
 2356SOL     OW 7966   6.754   2.951   6.893
 2356SOL    HW1 7967   6.750   2.855   6.866
 2356SOL    HW2 7968   6.813   2.961   6.973
 2357SOL     OW 7969   2.170   6.544   3.014
 2357SOL    HW1 7970   2.077   6.517   2.990
 2357SOL    HW2 7971   2.177   6.558   3.112
 2358SOL     OW 7972   3.462   4.547   5.708
 2358SOL    HW1 7973   3.444   4.472   5.645
 2358SOL    HW2 7974   3.536   4.522   5.769
 2359SOL     OW 7975   1.903   0.319   4.562
 2359SOL    HW1 7976   1.883   0.223   4.582
 2359SOL    HW2 7977   1.818   0.367   4.542
 2360SOL     OW 7978   6.677   4.472   0.029
 2360SOL    HW1 7979   6.618   4.530   0.085
 2360SOL    HW2 7980   6.655   4.485   6.957
 2361SOL     OW 7981   3.458   1.187   0.100
 2361SOL    HW1 7982   3.515   1.105   0.101
 2361SOL    HW2 7983   3.379   1.171   0.040
 2362SOL     OW 7984   2.924   5.732   3.334
 2362SOL    HW1 7985   2.941   5.818   3.382
 2362SOL    HW2 7986   2.858   5.748   3.261
 2363SOL     OW 7987   4.009   0.609   4.044
 2363SOL    HW1 7988   4.062   0.672   4.100
 2363SOL    HW2 7989   3.912   0.626   4.057
 2364SOL     OW 7990   1.310   2.525   1.441
 2364SOL    HW1 7991   1.377   2.577   1.389
 2364SOL    HW2 7992   1.220   2.568   1.433
 2365SOL     OW 7993   4.754   2.084   6.851
 2365SOL    HW1 7994   4.680   2.023   6.879
 2365SOL    HW2 7995   4.793   2.128   6.931
 2366SOL     OW 7996   4.432   5.494   0.685
 2366SOL    HW1 7997   4.456   5.429   0.613
 2366SOL    HW2 7998   4.423   5.445   0.772
 2367SOL     OW 7999   2.261   3.740   5.960
 2367SOL    HW1 8000   2.301   3.730   5.869
 2367SOL    HW2 8001   2.165   3.769   5.951
 2368SOL     OW 8002   6.325   6.087   2.324
 2368SOL    HW1 8003   6.262   6.085   2.246
 2368SOL    HW2 8004   6.303   6.012   2.387
 2369SOL     OW 8005   2.379   0.966   3.278
 2369SOL    HW1 8006   2.343   0.886   3.229
 2369SOL    HW2 8007   2.304   1.029   3.298
 2370SOL     OW 8008   6.282   2.728   6.254
 2370SOL    HW1 8009   6.340   2.680   6.188
 2370SOL    HW2 8010   6.190   2.690   6.251
 2371SOL     OW 8011   2.468   6.299   1.663
 2371SOL    HW1 8012   2.497   6.271   1.754
 2371SOL    HW2 8013   2.548   6.303   1.602
 2372SOL     OW 8014   6.454   3.239   2.711
 2372SOL    HW1 8015   6.467   3.171   2.638
 2372SOL    HW2 8016   6.497   3.325   2.684
 2373SOL     OW 8017   2.640   3.417   6.462
 2373SOL    HW1 8018   2.653   3.507   6.419
 2373SOL    HW2 8019   2.727   3.368   6.462
 2374SOL     OW 8020   5.634   2.949   4.696
 2374SOL    HW1 8021   5.670   2.984   4.609
 2374SOL    HW2 8022   5.598   3.025   4.749
 2375SOL     OW 8023   1.944   0.090   5.515
 2375SOL    HW1 8024   2.032   0.121   5.481
 2375SOL    HW2 8025   1.958   0.022   5.588
 2376SOL     OW 8026   6.379   2.696   4.556
 2376SOL    HW1 8027   6.328   2.761   4.499
 2376SOL    HW2 8028   6.474   2.725   4.563
 2377SOL     OW 8029   3.657   2.882   3.814
 2377SOL    HW1 8030   3.560   2.886   3.839
 2377SOL    HW2 8031   3.665   2.889   3.714
 2378SOL     OW 8032   5.306   2.775   0.496
 2378SOL    HW1 8033   5.322   2.759   0.593
 2378SOL    HW2 8034   5.248   2.702   0.459
 2379SOL     OW 8035   6.878   6.985   6.420
 2379SOL    HW1 8036   6.917   0.053   6.422
 2379SOL    HW2 8037   6.797   6.984   6.362
 2380SOL     OW 8038   6.423   2.120   2.462
 2380SOL    HW1 8039   6.496   2.052   2.469
 2380SOL    HW2 8040   6.381   2.133   2.552
 2381SOL     OW 8041   1.740   6.440   3.081
 2381SOL    HW1 8042   1.794   6.483   3.008
 2381SOL    HW2 8043   1.753   6.492   3.166
 2382SOL     OW 8044   1.444   3.525   5.503
 2382SOL    HW1 8045   1.427   3.442   5.556
 2382SOL    HW2 8046   1.515   3.507   5.434
 2383SOL     OW 8047   5.908   5.897   2.238
 2383SOL    HW1 8048   5.867   5.836   2.171
 2383SOL    HW2 8049   5.909   5.852   2.327
 2384SOL     OW 8050   4.184   1.549   1.759
 2384SOL    HW1 8051   4.206   1.549   1.856
 2384SOL    HW2 8052   4.222   1.467   1.716
 2385SOL     OW 8053   0.635   2.620   0.092
 2385SOL    HW1 8054   0.630   2.695   0.026
 2385SOL    HW2 8055   0.600   2.652   0.180
 2386SOL     OW 8056   4.481   5.356   3.924
 2386SOL    HW1 8057   4.511   5.305   4.005
 2386SOL    HW2 8058   4.438   5.293   3.860
 2387SOL     OW 8059   1.473   1.417   2.882
 2387SOL    HW1 8060   1.568   1.428   2.914
 2387SOL    HW2 8061   1.450   1.492   2.820
 2388SOL     OW 8062   6.756   1.819   4.082
 2388SOL    HW1 8063   6.730   1.835   4.178
 2388SOL    HW2 8064   6.759   1.907   4.034
 2389SOL     OW 8065   3.526   6.322   2.482
 2389SOL    HW1 8066   3.615   6.352   2.446
 2389SOL    HW2 8067   3.521   6.341   2.580
 2390SOL     OW 8068   3.168   4.196   1.081
 2390SOL    HW1 8069   3.267   4.205   1.091
 2390SOL    HW2 8070   3.141   4.102   1.105
 2391SOL     OW 8071   4.188   5.468   5.081
 2391SOL    HW1 8072   4.151   5.547   5.033
 2391SOL    HW2 8073   4.285   5.485   5.102
 2392SOL     OW 8074   4.005   1.124   6.607
 2392SOL    HW1 8075   3.985   1.218   6.577
 2392SOL    HW2 8076   4.088   1.124   6.662
 2393SOL     OW 8077   3.291   5.173   5.116
 2393SOL    HW1 8078   3.371   5.206   5.066
 2393SOL    HW2 8079   3.320   5.111   5.188
 2394SOL     OW 8080   6.895   4.585   5.771
 2394SOL    HW1 8081   6.960   4.650   5.811
 2394SOL    HW2 8082   6.944   4.518   5.716
 2395SOL     OW 8083   4.676   6.765   6.455
 2395SOL    HW1 8084   4.747   6.743   6.389
 2395SOL    HW2 8085   4.592   6.717   6.431
 2396SOL     OW 8086   3.520   5.435   0.734
 2396SOL    HW1 8087   3.440   5.475   0.778
 2396SOL    HW2 8088   3.499   5.341   0.705
 2397SOL     OW 8089   0.116   3.528   4.315
 2397SOL    HW1 8090   0.162   3.442   4.337
 2397SOL    HW2 8091   0.106   3.537   4.216
 2398SOL     OW 8092   4.793   3.751   5.308
 2398SOL    HW1 8093   4.760   3.735   5.402
 2398SOL    HW2 8094   4.763   3.676   5.249
 2399SOL     OW 8095   4.301   2.451   1.494
 2399SOL    HW1 8096   4.210   2.488   1.474
 2399SOL    HW2 8097   4.297   2.351   1.493
 2400SOL     OW 8098   1.638   4.923   0.325
 2400SOL    HW1 8099   1.575   4.985   0.371
 2400SOL    HW2 8100   1.647   4.950   0.229
 2401SOL     OW 8101   6.841   6.199   6.016
 2401SOL    HW1 8102   6.847   6.267   6.089
 2401SOL    HW2 8103   6.911   6.219   5.947
 2402SOL     OW 8104   6.659   6.426   3.772
 2402SOL    HW1 8105   6.740   6.366   3.770
 2402SOL    HW2 8106   6.614   6.424   3.683
 2403SOL     OW 8107   0.770   1.350   5.017
 2403SOL    HW1 8108   0.713   1.327   4.939
 2403SOL    HW2 8109   0.765   1.449   5.035
 2404SOL     OW 8110   1.315   0.785   0.284
 2404SOL    HW1 8111   1.404   0.786   0.239
 2404SOL    HW2 8112   1.266   0.702   0.257
 2405SOL     OW 8113   2.717   4.102   1.365
 2405SOL    HW1 8114   2.687   4.022   1.314
 2405SOL    HW2 8115   2.805   4.133   1.329
 2406SOL     OW 8116   4.804   0.956   1.471
 2406SOL    HW1 8117   4.821   1.034   1.532
 2406SOL    HW2 8118   4.718   0.971   1.422
 2407SOL     OW 8119   5.168   6.937   3.506
 2407SOL    HW1 8120   5.091   7.000   3.495
 2407SOL    HW2 8121   5.149   6.874   3.582
 2408SOL     OW 8122   4.366   4.930   2.133
 2408SOL    HW1 8123   4.447   4.901   2.082
 2408SOL    HW2 8124   4.323   4.850   2.176
 2409SOL     OW 8125   1.437   4.281   0.479
 2409SOL    HW1 8126   1.345   4.291   0.518
 2409SOL    HW2 8127   1.459   4.184   0.472
 2410SOL     OW 8128   3.611   2.966   3.251
 2410SOL    HW1 8129   3.634   3.025   3.327
 2410SOL    HW2 8130   3.657   2.997   3.168
 2411SOL     OW 8131   4.355   0.382   4.093
 2411SOL    HW1 8132   4.326   0.472   4.061
 2411SOL    HW2 8133   4.454   0.382   4.108
 2412SOL     OW 8134   4.176   3.579   1.248
 2412SOL    HW1 8135   4.145   3.579   1.153
 2412SOL    HW2 8136   4.256   3.520   1.257
 2413SOL     OW 8137   4.320   0.092   2.984
 2413SOL    HW1 8138   4.378   0.032   3.040
 2413SOL    HW2 8139   4.356   0.185   2.988
 2414SOL     OW 8140   5.230   3.257   4.253
 2414SOL    HW1 8141   5.202   3.182   4.194
 2414SOL    HW2 8142   5.217   3.344   4.205
 2415SOL     OW 8143   4.408   1.003   3.220
 2415SOL    HW1 8144   4.363   0.981   3.133
 2415SOL    HW2 8145   4.339   1.038   3.284
 2416SOL     OW 8146   5.636   2.206   6.589
 2416SOL    HW1 8147   5.704   2.163   6.648
 2416SOL    HW2 8148   5.666   2.298   6.565
 2417SOL     OW 8149   3.325   4.116   5.457
 2417SOL    HW1 8150   3.386   4.097   5.380
 2417SOL    HW2 8151   3.230   4.100   5.429
 2418SOL     OW 8152   3.434   2.953   2.977
 2418SOL    HW1 8153   3.352   2.935   3.030
 2418SOL    HW2 8154   3.514   2.917   3.025
 2419SOL     OW 8155   0.212   0.509   3.302
 2419SOL    HW1 8156   0.261   0.441   3.357
 2419SOL    HW2 8157   0.278   0.571   3.259
 2420SOL     OW 8158   2.098   0.003   1.521
 2420SOL    HW1 8159   2.019   0.064   1.522
 2420SOL    HW2 8160   2.096   6.967   1.601
 2421SOL     OW 8161   3.447   1.700   3.088
 2421SOL    HW1 8162   3.414   1.754   3.166
 2421SOL    HW2 8163   3.369   1.672   3.032
 2422SOL     OW 8164   5.230   1.772   0.788
 2422SOL    HW1 8165   5.310   1.827   0.815
 2422SOL    HW2 8166   5.152   1.833   0.774
 2423SOL     OW 8167   2.072   4.939   2.667
 2423SOL    HW1 8168   2.078   5.022   2.724
 2423SOL    HW2 8169   2.031   4.963   2.579
 2424SOL     OW 8170   6.676   0.464   0.463
 2424SOL    HW1 8171   6.769   0.501   0.472
 2424SOL    HW2 8172   6.669   0.378   0.513
 2425SOL     OW 8173   7.005   6.857   4.504
 2425SOL    HW1 8174   0.020   6.806   4.428
 2425SOL    HW2 8175   6.907   6.871   4.486
 2426SOL     OW 8176   2.270   4.729   4.398
 2426SOL    HW1 8177   2.337   4.712   4.325
 2426SOL    HW2 8178   2.198   4.660   4.393
 2427SOL     OW 8179   6.277   0.173   5.759
 2427SOL    HW1 8180   6.281   0.160   5.858
 2427SOL    HW2 8181   6.185   0.151   5.726
 2428SOL     OW 8182   5.445   1.164   0.604
 2428SOL    HW1 8183   5.453   1.171   0.703
 2428SOL    HW2 8184   5.530   1.128   0.566
 2429SOL     OW 8185   4.739   5.089   2.536
 2429SOL    HW1 8186   4.836   5.084   2.516
 2429SOL    HW2 8187   4.686   5.081   2.451
 2430SOL     OW 8188   4.684   6.821   2.796
 2430SOL    HW1 8189   4.668   6.723   2.784
 2430SOL    HW2 8190   4.655   6.849   2.887
 2431SOL     OW 8191   4.218   6.921   2.312
 2431SOL    HW1 8192   4.217   6.860   2.392
 2431SOL    HW2 8193   4.208   7.016   2.343
 2432SOL     OW 8194   2.384   6.304   2.303
 2432SOL    HW1 8195   2.477   6.317   2.268
 2432SOL    HW2 8196   2.321   6.361   2.250
 2433SOL     OW 8197   4.964   0.491   0.698
 2433SOL    HW1 8198   4.918   0.558   0.640
 2433SOL    HW2 8199   5.031   0.440   0.644
 2434SOL     OW 8200   3.365   3.080   4.227
 2434SOL    HW1 8201   3.396   3.144   4.297
 2434SOL    HW2 8202   3.434   3.009   4.214
 2435SOL     OW 8203   5.741   6.054   6.272
 2435SOL    HW1 8204   5.797   5.971   6.280
 2435SOL    HW2 8205   5.742   6.104   6.358
 2436SOL     OW 8206   2.753   4.543   0.823
 2436SOL    HW1 8207   2.760   4.515   0.919
 2436SOL    HW2 8208   2.833   4.512   0.773
 2437SOL     OW 8209   6.597   0.862   5.624
 2437SOL    HW1 8210   6.697   0.858   5.627
 2437SOL    HW2 8211   6.559   0.789   5.681
 2438SOL     OW 8212   3.588   3.363   0.749
 2438SOL    HW1 8213   3.542   3.282   0.785
 2438SOL    HW2 8214   3.560   3.444   0.802
 2439SOL     OW 8215   6.217   4.585   6.293
 2439SOL    HW1 8216   6.213   4.528   6.211
 2439SOL    HW2 8217   6.295   4.647   6.287
 2440SOL     OW 8218   6.142   5.145   5.672
 2440SOL    HW1 8219   6.160   5.121   5.767
 2440SOL    HW2 8220   6.206   5.216   5.643
 2441SOL     OW 8221   6.396   2.285   0.599
 2441SOL    HW1 8222   6.398   2.281   0.699
 2441SOL    HW2 8223   6.359   2.200   0.563
 2442SOL     OW 8224   6.849   2.049   4.851
 2442SOL    HW1 8225   6.913   2.108   4.802
 2442SOL    HW2 8226   6.819   2.094   4.935
 2443SOL     OW 8227   2.833   4.916   5.476
 2443SOL    HW1 8228   2.779   4.986   5.429
 2443SOL    HW2 8229   2.775   4.867   5.541
 2444SOL     OW 8230   3.750   2.660   6.104
 2444SOL    HW1 8231   3.800   2.727   6.049
 2444SOL    HW2 8232   3.729   2.580   6.048
 2445SOL     OW 8233   1.287   0.208   0.696
 2445SOL    HW1 8234   1.248   0.284   0.748
 2445SOL    HW2 8235   1.329   0.244   0.612
 2446SOL     OW 8236   4.700   3.133   6.378
 2446SOL    HW1 8237   4.745   3.090   6.456
 2446SOL    HW2 8238   4.681   3.063   6.308
 2447SOL     OW 8239   1.142   3.550   6.289
 2447SOL    HW1 8240   1.092   3.509   6.213
 2447SOL    HW2 8241   1.229   3.587   6.256
 2448SOL     OW 8242   6.777   0.315   4.660
 2448SOL    HW1 8243   6.827   0.398   4.636
 2448SOL    HW2 8244   6.822   0.269   4.736
 2449SOL     OW 8245   0.207   2.951   5.428
 2449SOL    HW1 8246   0.194   3.030   5.488
 2449SOL    HW2 8247   0.305   2.930   5.421
 2450SOL     OW 8248   2.382   3.549   1.407
 2450SOL    HW1 8249   2.457   3.550   1.474
 2450SOL    HW2 8250   2.324   3.629   1.420
 2451SOL     OW 8251   1.679   5.540   3.994
 2451SOL    HW1 8252   1.760   5.571   4.043
 2451SOL    HW2 8253   1.662   5.444   4.015
 2452SOL     OW 8254   2.541   2.264   5.069
 2452SOL    HW1 8255   2.450   2.241   5.035
 2452SOL    HW2 8256   2.551   2.363   5.074
 2453SOL     OW 8257   0.281   3.923   1.016
 2453SOL    HW1 8258   0.279   3.824   1.000
 2453SOL    HW2 8259   0.317   3.969   0.935
 2454SOL     OW 8260   1.273   0.195   2.098
 2454SOL    HW1 8261   1.262   0.102   2.063
 2454SOL    HW2 8262   1.306   0.255   2.025
 2455SOL     OW 8263   5.498   3.582   1.181
 2455SOL    HW1 8264   5.598   3.585   1.180
 2455SOL    HW2 8265   5.467   3.488   1.165
 2456SOL     OW 8266   2.686   6.652   1.435
 2456SOL    HW1 8267   2.679   6.749   1.461
 2456SOL    HW2 8268   2.695   6.596   1.517
 2457SOL     OW 8269   5.766   5.977   1.282
 2457SOL    HW1 8270   5.787   6.021   1.195
 2457SOL    HW2 8271   5.674   5.936   1.278
 2458SOL     OW 8272   0.634   6.558   1.506
 2458SOL    HW1 8273   0.606   6.579   1.600
 2458SOL    HW2 8274   0.717   6.503   1.507
 2459SOL     OW 8275   1.202   1.513   0.426
 2459SOL    HW1 8276   1.286   1.485   0.379
 2459SOL    HW2 8277   1.124   1.492   0.368
 2460SOL     OW 8278   2.609   4.324   1.266
 2460SOL    HW1 8279   2.545   4.315   1.188
 2460SOL    HW2 8280   2.622   4.234   1.308
 2461SOL     OW 8281   4.396   1.570   3.228
 2461SOL    HW1 8282   4.353   1.632   3.294
 2461SOL    HW2 8283   4.376   1.475   3.252
 2462SOL     OW 8284   2.912   4.037   6.229
 2462SOL    HW1 8285   2.958   4.050   6.317
 2462SOL    HW2 8286   2.917   4.122   6.176
 2463SOL     OW 8287   1.059   2.777   5.187
 2463SOL    HW1 8288   1.106   2.797   5.101
 2463SOL    HW2 8289   1.125   2.775   5.262
 2464SOL     OW 8290   0.831   3.300   0.555
 2464SOL    HW1 8291   0.768   3.272   0.628
 2464SOL    HW2 8292   0.896   3.367   0.592
 2465SOL     OW 8293   6.250   4.923   2.820
 2465SOL    HW1 8294   6.279   4.987   2.749
 2465SOL    HW2 8295   6.163   4.953   2.859
 2466SOL     OW 8296   3.621   1.788   1.476
 2466SOL    HW1 8297   3.532   1.755   1.505
 2466SOL    HW2 8298   3.641   1.754   1.384
 2467SOL     OW 8299   0.738   1.026   4.791
 2467SOL    HW1 8300   0.730   0.999   4.695
 2467SOL    HW2 8301   0.759   0.946   4.847
 2468SOL     OW 8302   6.079   5.133   6.680
 2468SOL    HW1 8303   5.999   5.140   6.621
 2468SOL    HW2 8304   6.153   5.190   6.644
 2469SOL     OW 8305   2.930   2.666   5.961
 2469SOL    HW1 8306   2.928   2.577   5.915
 2469SOL    HW2 8307   2.854   2.722   5.928
 2470SOL     OW 8308   5.202   2.860   1.236
 2470SOL    HW1 8309   5.245   2.865   1.326
 2470SOL    HW2 8310   5.105   2.835   1.248
 2471SOL     OW 8311   0.238   1.084   2.859
 2471SOL    HW1 8312   0.168   1.073   2.788
 2471SOL    HW2 8313   0.216   1.163   2.915
 2472SOL     OW 8314   6.298   0.582   3.614
 2472SOL    HW1 8315   6.349   0.531   3.683
 2472SOL    HW2 8316   6.361   0.634   3.556
 2473SOL     OW 8317   0.322   5.951   5.195
 2473SOL    HW1 8318   0.407   5.910   5.162
 2473SOL    HW2 8319   0.253   5.946   5.124
 2474SOL     OW 8320   6.560   6.713   4.538
 2474SOL    HW1 8321   6.490   6.675   4.599
 2474SOL    HW2 8322   6.570   6.811   4.555
 2475SOL     OW 8323   3.894   2.277   6.084
 2475SOL    HW1 8324   3.866   2.281   6.180
 2475SOL    HW2 8325   3.819   2.309   6.026
 2476SOL     OW 8326   0.665   1.421   3.413
 2476SOL    HW1 8327   0.608   1.463   3.484
 2476SOL    HW2 8328   0.760   1.420   3.444
 2477SOL     OW 8329   4.444   4.520   2.535
 2477SOL    HW1 8330   4.436   4.557   2.628
 2477SOL    HW2 8331   4.394   4.579   2.471
 2478SOL     OW 8332   6.792   0.329   2.262
 2478SOL    HW1 8333   6.846   0.367   2.338
 2478SOL    HW2 8334   6.746   0.404   2.214
 2479SOL     OW 8335   1.225   3.165   0.257
 2479SOL    HW1 8336   1.245   3.092   0.193
 2479SOL    HW2 8337   1.266   3.251   0.224
 2480SOL     OW 8338   6.651   5.590   1.654
 2480SOL    HW1 8339   6.592   5.620   1.578
 2480SOL    HW2 8340   6.747   5.598   1.627
 2481SOL     OW 8341   4.167   4.781   2.569
 2481SOL    HW1 8342   4.087   4.833   2.539
 2481SOL    HW2 8343   4.223   4.758   2.490
 2482SOL     OW 8344   4.227   2.286   4.486
 2482SOL    HW1 8345   4.167   2.214   4.451
 2482SOL    HW2 8346   4.197   2.313   4.577
 2483SOL     OW 8347   1.278   3.431   0.149
 2483SOL    HW1 8348   1.244   3.422   0.055
 2483SOL    HW2 8349   1.357   3.492   0.149
 2484SOL     OW 8350   3.621   4.441   5.891
 2484SOL    HW1 8351   3.641   4.420   5.986
 2484SOL    HW2 8352   3.609   4.356   5.839
 2485SOL     OW 8353   0.729   5.488   6.991
 2485SOL    HW1 8354   0.801   5.488   6.922
 2485SOL    HW2 8355   0.668   5.410   6.975
 2486SOL     OW 8356   0.624   5.545   3.508
 2486SOL    HW1 8357   0.538   5.507   3.542
 2486SOL    HW2 8358   0.668   5.598   3.580
 2487SOL     OW 8359   3.132   1.299   1.287
 2487SOL    HW1 8360   3.153   1.380   1.233
 2487SOL    HW2 8361   3.043   1.310   1.331
 2488SOL     OW 8362   2.983   5.617   6.399
 2488SOL    HW1 8363   3.079   5.634   6.425
 2488SOL    HW2 8364   2.944   5.548   6.459
 2489SOL     OW 8365   0.026   5.406   4.406
 2489SOL    HW1 8366   0.050   5.334   4.341
 2489SOL    HW2 8367   0.046   5.495   4.365
 2490SOL     OW 8368   5.919   3.105   1.204
 2490SOL    HW1 8369   5.966   3.183   1.246
 2490SOL    HW2 8370   5.822   3.127   1.193
 2491SOL     OW 8371   6.667   4.102   2.612
 2491SOL    HW1 8372   6.628   4.192   2.635
 2491SOL    HW2 8373   6.761   4.096   2.645
 2492SOL     OW 8374   4.287   1.436   6.897
 2492SOL    HW1 8375   4.243   1.386   6.971
 2492SOL    HW2 8376   4.349   1.505   6.935
 2493SOL     OW 8377   6.233   0.571   5.527
 2493SOL    HW1 8378   6.269   0.662   5.549
 2493SOL    HW2 8379   6.226   0.517   5.611
 2494SOL     OW 8380   5.218   5.184   0.565
 2494SOL    HW1 8381   5.318   5.184   0.567
 2494SOL    HW2 8382   5.182   5.151   0.653
 2495SOL     OW 8383   0.263   1.116   2.444
 2495SOL    HW1 8384   0.256   1.026   2.400
 2495SOL    HW2 8385   0.314   1.108   2.529
 2496SOL     OW 8386   1.997   4.723   0.477
 2496SOL    HW1 8387   1.958   4.635   0.452
 2496SOL    HW2 8388   2.079   4.740   0.423
 2497SOL     OW 8389   6.067   1.177   6.937
 2497SOL    HW1 8390   5.970   1.152   6.935
 2497SOL    HW2 8391   6.080   1.260   6.882
 2498SOL     OW 8392   0.811   2.890   4.501
 2498SOL    HW1 8393   0.830   2.967   4.440
 2498SOL    HW2 8394   0.869   2.896   4.582
 2499SOL     OW 8395   5.179   1.086   6.909
 2499SOL    HW1 8396   5.239   1.140   6.968
 2499SOL    HW2 8397   5.234   1.030   6.848
 2500SOL     OW 8398   5.078   3.486   5.701
 2500SOL    HW1 8399   5.076   3.527   5.793
 2500SOL    HW2 8400   5.139   3.407   5.702
 2501SOL     OW 8401   6.726   4.718   0.993
 2501SOL    HW1 8402   6.760   4.803   1.032
 2501SOL    HW2 8403   6.777   4.696   0.910
 2502SOL     OW 8404   1.070   6.966   3.266
 2502SOL    HW1 8405   1.126   6.969   3.183
 2502SOL    HW2 8406   1.115   6.909   3.335
 2503SOL     OW 8407   5.481   6.588   4.208
 2503SOL    HW1 8408   5.502   6.669   4.261
 2503SOL    HW2 8409   5.507   6.506   4.259
 2504SOL     OW 8410   2.462   4.741   3.049
 2504SOL    HW1 8411   2.425   4.813   2.991
 2504SOL    HW2 8412   2.555   4.720   3.022
 2505SOL     OW 8413   5.188   4.045   4.754
 2505SOL    HW1 8414   5.187   4.003   4.663
 2505SOL    HW2 8415   5.109   4.106   4.763
 2506SOL     OW 8416   0.738   0.897   0.534
 2506SOL    HW1 8417   0.822   0.844   0.540
 2506SOL    HW2 8418   0.659   0.836   0.548
 2507SOL     OW 8419   6.536   6.520   0.281
 2507SOL    HW1 8420   6.564   6.610   0.248
 2507SOL    HW2 8421   6.570   6.506   0.374
 2508SOL     OW 8422   1.921   1.819   1.623
 2508SOL    HW1 8423   1.909   1.837   1.721
 2508SOL    HW2 8424   1.935   1.905   1.575
 2509SOL     OW 8425   6.184   0.051   3.889
 2509SOL    HW1 8426   6.179   7.011   3.813
 2509SOL    HW2 8427   6.181   0.002   3.976
 2510SOL     OW 8428   3.742   6.053   2.494
 2510SOL    HW1 8429   3.751   5.966   2.541
 2510SOL    HW2 8430   3.725   6.126   2.560
 2511SOL     OW 8431   0.674   6.015   3.850
 2511SOL    HW1 8432   0.689   6.054   3.759
 2511SOL    HW2 8433   0.577   5.994   3.862
 2512SOL     OW 8434   5.922   3.387   4.608
 2512SOL    HW1 8435   5.939   3.323   4.682
 2512SOL    HW2 8436   5.840   3.359   4.557
 2513SOL     OW 8437   0.102   5.007   1.131
 2513SOL    HW1 8438   0.142   5.044   1.215
 2513SOL    HW2 8439   0.069   5.082   1.074
 2514SOL     OW 8440   6.727   2.064   3.944
 2514SOL    HW1 8441   6.638   2.095   3.910
 2514SOL    HW2 8442   6.784   2.143   3.967
 2515SOL     OW 8443   0.965   4.329   6.309
 2515SOL    HW1 8444   0.910   4.293   6.384
 2515SOL    HW2 8445   1.039   4.385   6.345
 2516SOL     OW 8446   4.516   6.754   4.128
 2516SOL    HW1 8447   4.510   6.843   4.173
 2516SOL    HW2 8448   4.608   6.742   4.089
 2517SOL     OW 8449   2.622   5.670   0.853
 2517SOL    HW1 8450   2.527   5.702   0.861
 2517SOL    HW2 8451   2.666   5.673   0.943
 2518SOL     OW 8452   2.068   1.798   0.029
 2518SOL    HW1 8453   2.055   1.874   6.989
 2518SOL    HW2 8454   1.989   1.793   0.090
 2519SOL     OW 8455   5.950   4.136   4.718
 2519SOL    HW1 8456   5.860   4.109   4.684
 2519SOL    HW2 8457   5.955   4.235   4.727
 2520SOL     OW 8458   4.027   5.577   0.658
 2520SOL    HW1 8459   3.969   5.648   0.618
 2520SOL    HW2 8460   3.969   5.510   0.705
 2521SOL     OW 8461   5.634   6.642   5.971
 2521SOL    HW1 8462   5.540   6.669   5.954
 2521SOL    HW2 8463   5.690   6.664   5.891
 2522SOL     OW 8464   2.496   4.602   4.967
 2522SOL    HW1 8465   2.408   4.624   5.009
 2522SOL    HW2 8466   2.569   4.614   5.035
 2523SOL     OW 8467   0.644   2.251   6.406
 2523SOL    HW1 8468   0.624   2.347   6.385
 2523SOL    HW2 8469   0.688   2.245   6.495
 2524SOL     OW 8470   1.608   0.256   4.547
 2524SOL    HW1 8471   1.541   0.199   4.595
 2524SOL    HW2 8472   1.561   0.328   4.497
 2525SOL     OW 8473   2.774   4.691   2.301
 2525SOL    HW1 8474   2.765   4.671   2.203
 2525SOL    HW2 8475   2.685   4.721   2.337
 2526SOL     OW 8476   1.926   2.931   4.678
 2526SOL    HW1 8477   2.007   2.934   4.619
 2526SOL    HW2 8478   1.954   2.905   4.770
 2527SOL     OW 8479   0.030   6.490   3.974
 2527SOL    HW1 8480   6.957   6.473   3.988
 2527SOL    HW2 8481   0.045   6.586   3.951
 2528SOL     OW 8482   5.439   5.274   0.925
 2528SOL    HW1 8483   5.400   5.265   1.017
 2528SOL    HW2 8484   5.437   5.370   0.898
 2529SOL     OW 8485   5.137   4.165   5.278
 2529SOL    HW1 8486   5.135   4.111   5.194
 2529SOL    HW2 8487   5.180   4.111   5.350
 2530SOL     OW 8488   1.366   6.479   3.437
 2530SOL    HW1 8489   1.340   6.399   3.384
 2530SOL    HW2 8490   1.452   6.461   3.484
 2531SOL     OW 8491   5.898   2.138   6.352
 2531SOL    HW1 8492   5.963   2.097   6.288
 2531SOL    HW2 8493   5.810   2.151   6.306
 2532SOL     OW 8494   0.502   5.681   6.058
 2532SOL    HW1 8495   0.593   5.692   6.017
 2532SOL    HW2 8496   0.493   5.588   6.093
 2533SOL     OW 8497   5.743   0.771   4.618
 2533SOL    HW1 8498   5.785   0.687   4.654
 2533SOL    HW2 8499   5.656   0.748   4.575
 2534SOL     OW 8500   6.390   1.227   3.021
 2534SOL    HW1 8501   6.311   1.185   2.977
 2534SOL    HW2 8502   6.375   1.326   3.030
 2535SOL     OW 8503   2.881   0.665   1.958
 2535SOL    HW1 8504   2.925   0.666   1.869
 2535SOL    HW2 8505   2.939   0.714   2.024
 2536SOL     OW 8506   1.008   0.215   3.463
 2536SOL    HW1 8507   1.094   0.168   3.484
 2536SOL    HW2 8508   1.001   0.297   3.520
 2537SOL     OW 8509   2.167   6.452   2.129
 2537SOL    HW1 8510   2.156   6.550   2.142
 2537SOL    HW2 8511   2.081   6.413   2.095
 2538SOL     OW 8512   0.040   5.309   5.205
 2538SOL    HW1 8513   0.072   5.403   5.211
 2538SOL    HW2 8514   0.039   5.280   5.109
 2539SOL     OW 8515   1.244   0.348   5.467
 2539SOL    HW1 8516   1.271   0.253   5.450
 2539SOL    HW2 8517   1.240   0.364   5.565
 2540SOL     OW 8518   5.082   2.412   2.035
 2540SOL    HW1 8519   5.145   2.395   1.959
 2540SOL    HW2 8520   4.990   2.426   1.998
 2541SOL     OW 8521   1.521   1.100   7.021
 2541SOL    HW1 8522   1.593   1.038   6.987
 2541SOL    HW2 8523   1.537   1.192   6.986
 2542SOL     OW 8524   4.212   1.977   2.694
 2542SOL    HW1 8525   4.297   1.940   2.659
 2542SOL    HW2 8526   4.143   1.978   2.621
 2543SOL     OW 8527   6.038   6.776   5.226
 2543SOL    HW1 8528   6.048   6.701   5.161
 2543SOL    HW2 8529   5.967   6.839   5.193
 2544SOL     OW 8530   0.150   0.478   0.472
 2544SOL    HW1 8531   0.224   0.447   0.531
 2544SOL    HW2 8532   0.151   0.427   0.386
 2545SOL     OW 8533   6.944   1.774   0.325
 2545SOL    HW1 8534   6.961   1.841   0.396
 2545SOL    HW2 8535   6.869   1.713   0.353
 2546SOL     OW 8536   6.163   3.401   2.587
 2546SOL    HW1 8537   6.079   3.352   2.564
 2546SOL    HW2 8538   6.208   3.433   2.504
 2547SOL     OW 8539   5.631   3.901   1.216
 2547SOL    HW1 8540   5.633   3.999   1.196
 2547SOL    HW2 8541   5.651   3.849   1.133
 2548SOL     OW 8542   6.408   0.232   5.534
 2548SOL    HW1 8543   6.361   0.228   5.622
 2548SOL    HW2 8544   6.487   0.293   5.541
 2549SOL     OW 8545   2.910   5.202   6.927
 2549SOL    HW1 8546   2.974   5.134   6.891
 2549SOL    HW2 8547   2.834   5.155   6.973
 2550SOL     OW 8548   4.027   0.366   0.796
 2550SOL    HW1 8549   4.022   0.447   0.855
 2550SOL    HW2 8550   4.055   0.287   0.851
 2551SOL     OW 8551   3.825   4.302   1.188
 2551SOL    HW1 8552   3.834   4.225   1.252
 2551SOL    HW2 8553   3.750   4.361   1.218
 2552SOL     OW 8554   2.931   5.396   1.482
 2552SOL    HW1 8555   3.028   5.383   1.461
 2552SOL    HW2 8556   2.922   5.428   1.576
 2553SOL     OW 8557   4.574   1.682   0.653
 2553SOL    HW1 8558   4.538   1.677   0.559
 2553SOL    HW2 8559   4.531   1.610   0.708
 2554SOL     OW 8560   1.042   6.007   0.909
 2554SOL    HW1 8561   0.998   5.950   0.978
 2554SOL    HW2 8562   0.972   6.062   0.862
 2555SOL     OW 8563   0.799   6.603   5.221
 2555SOL    HW1 8564   0.890   6.593   5.260
 2555SOL    HW2 8565   0.749   6.517   5.231
 2556SOL     OW 8566   5.915   0.322   1.193
 2556SOL    HW1 8567   5.897   0.341   1.289
 2556SOL    HW2 8568   6.014   0.315   1.178
 2557SOL     OW 8569   2.743   1.202   6.791
 2557SOL    HW1 8570   2.698   1.125   6.747
 2557SOL    HW2 8571   2.805   1.169   6.862
 2558SOL     OW 8572   6.033   2.945   0.999
 2558SOL    HW1 8573   6.077   3.013   0.940
 2558SOL    HW2 8574   6.001   2.989   1.083
 2559SOL     OW 8575   6.144   4.982   3.587
 2559SOL    HW1 8576   6.220   4.916   3.592
 2559SOL    HW2 8577   6.073   4.946   3.526
 2560SOL     OW 8578   4.222   2.745   1.651
 2560SOL    HW1 8579   4.171   2.699   1.579
 2560SOL    HW2 8580   4.311   2.700   1.663
 2561SOL     OW 8581   3.639   0.270   4.430
 2561SOL    HW1 8582   3.600   0.334   4.496
 2561SOL    HW2 8583   3.572   0.199   4.409
 2562SOL     OW 8584   1.562   6.399   5.030
 2562SOL    HW1 8585   1.490   6.448   5.080
 2562SOL    HW2 8586   1.520   6.332   4.969
 2563SOL     OW 8587   4.404   2.711   6.404
 2563SOL    HW1 8588   4.314   2.746   6.432
 2563SOL    HW2 8589   4.444   2.772   6.336
 2564SOL     OW 8590   1.462   1.461   1.381
 2564SOL    HW1 8591   1.532   1.476   1.451
 2564SOL    HW2 8592   1.416   1.547   1.360
 2565SOL     OW 8593   6.985   0.532   1.042
 2565SOL    HW1 8594   6.966   0.478   0.960
 2565SOL    HW2 8595   0.052   0.512   1.076
 2566SOL     OW 8596   2.577   1.129   0.293
 2566SOL    HW1 8597   2.636   1.116   0.372
 2566SOL    HW2 8598   2.564   1.042   0.246
 2567SOL     OW 8599   2.257   0.780   6.248
 2567SOL    HW1 8600   2.303   0.857   6.293
 2567SOL    HW2 8601   2.158   0.790   6.258
 2568SOL     OW 8602   2.896   6.111   0.788
 2568SOL    HW1 8603   2.932   6.122   0.696
 2568SOL    HW2 8604   2.877   6.014   0.805
 2569SOL     OW 8605   2.630   6.111   6.590
 2569SOL    HW1 8606   2.648   6.034   6.651
 2569SOL    HW2 8607   2.652   6.085   6.496
 2570SOL     OW 8608   0.198   0.106   3.420
 2570SOL    HW1 8609   0.103   0.131   3.438
 2570SOL    HW2 8610   0.226   0.141   3.331
 2571SOL     OW 8611   3.496   3.402   2.713
 2571SOL    HW1 8612   3.429   3.441   2.776
 2571SOL    HW2 8613   3.448   3.355   2.638
 2572SOL     OW 8614   2.742   6.077   2.188
 2572SOL    HW1 8615   2.725   6.019   2.109
 2572SOL    HW2 8616   2.676   6.056   2.260
 2573SOL     OW 8617   6.599   0.673   2.922
 2573SOL    HW1 8618   6.617   0.734   2.999
 2573SOL    HW2 8619   6.643   0.708   2.840
 2574SOL     OW 8620   0.348   4.189   2.127
 2574SOL    HW1 8621   0.339   4.224   2.034
 2574SOL    HW2 8622   0.365   4.265   2.190
 2575SOL     OW 8623   4.505   3.537   5.348
 2575SOL    HW1 8624   4.548   3.528   5.258
 2575SOL    HW2 8625   4.484   3.446   5.384
 2576SOL     OW 8626   0.387   0.385   2.655
 2576SOL    HW1 8627   0.346   0.336   2.732
 2576SOL    HW2 8628   0.339   0.472   2.641
 2577SOL     OW 8629   1.860   4.365   0.653
 2577SOL    HW1 8630   1.906   4.304   0.717
 2577SOL    HW2 8631   1.904   4.358   0.563
 2578SOL     OW 8632   4.345   2.473   4.767
 2578SOL    HW1 8633   4.345   2.554   4.825
 2578SOL    HW2 8634   4.291   2.401   4.810
 2579SOL     OW 8635   6.965   1.735   6.391
 2579SOL    HW1 8636   6.986   1.670   6.463
 2579SOL    HW2 8637   6.902   1.694   6.326
 2580SOL     OW 8638   1.840   1.894   5.743
 2580SOL    HW1 8639   1.931   1.865   5.772
 2580SOL    HW2 8640   1.781   1.905   5.822
 2581SOL     OW 8641   5.219   6.677   4.293
 2581SOL    HW1 8642   5.302   6.627   4.267
 2581SOL    HW2 8643   5.139   6.621   4.270
 2582SOL     OW 8644   6.413   4.069   3.117
 2582SOL    HW1 8645   6.370   3.997   3.172
 2582SOL    HW2 8646   6.342   4.129   3.080
 2583SOL     OW 8647   2.498   0.874   0.191
 2583SOL    HW1 8648   2.485   0.776   0.211
 2583SOL    HW2 8649   2.552   0.883   0.107
 2584SOL     OW 8650   3.839   0.142   3.132
 2584SOL    HW1 8651   3.935   0.144   3.104
 2584SOL    HW2 8652   3.780   0.133   3.052
 2585SOL     OW 8653   3.723   0.790   2.444
 2585SOL    HW1 8654   3.724   0.854   2.368
 2585SOL    HW2 8655   3.683   0.835   2.524
 2586SOL     OW 8656   1.094   1.761   4.521
 2586SOL    HW1 8657   1.098   1.731   4.617
 2586SOL    HW2 8658   1.035   1.842   4.515
 2587SOL     OW 8659   6.529   4.971   3.085
 2587SOL    HW1 8660   6.588   4.920   3.148
 2587SOL    HW2 8661   6.565   4.962   2.992
 2588SOL     OW 8662   3.699   6.924   2.924
 2588SOL    HW1 8663   3.650   7.010   2.907
 2588SOL    HW2 8664   3.705   6.908   3.022
 2589SOL     OW 8665   4.587   6.610   2.255
 2589SOL    HW1 8666   4.526   6.530   2.245
 2589SOL    HW2 8667   4.682   6.579   2.256
 2590SOL     OW 8668   4.594   5.720   3.579
 2590SOL    HW1 8669   4.531   5.649   3.611
 2590SOL    HW2 8670   4.641   5.760   3.658
 2591SOL     OW 8671   6.180   0.246   1.155
 2591SOL    HW1 8672   6.210   0.318   1.218
 2591SOL    HW2 8673   6.235   0.250   1.072
 2592SOL     OW 8674   2.871   4.745   1.687
 2592SOL    HW1 8675   2.889   4.672   1.753
 2592SOL    HW2 8676   2.903   4.717   1.597
 2593SOL     OW 8677   2.653   0.270   3.663
 2593SOL    HW1 8678   2.578   0.229   3.611
 2593SOL    HW2 8679   2.665   0.219   3.749
 2594SOL     OW 8680   2.283   5.995   6.612
 2594SOL    HW1 8681   2.279   6.087   6.572
 2594SOL    HW2 8682   2.360   5.945   6.573
 2595SOL     OW 8683   6.329   3.099   4.655
 2595SOL    HW1 8684   6.299   3.024   4.714
 2595SOL    HW2 8685   6.413   3.072   4.608
 2596SOL     OW 8686   4.855   1.583   0.949
 2596SOL    HW1 8687   4.759   1.584   0.977
 2596SOL    HW2 8688   4.914   1.604   1.027
 2597SOL     OW 8689   2.788   2.082   6.173
 2597SOL    HW1 8690   2.730   2.157   6.205
 2597SOL    HW2 8691   2.785   2.077   6.073
 2598SOL     OW 8692   6.470   0.941   2.663
 2598SOL    HW1 8693   6.485   0.931   2.565
 2598SOL    HW2 8694   6.447   0.851   2.702
 2599SOL     OW 8695   5.287   5.770   6.259
 2599SOL    HW1 8696   5.375   5.784   6.213
 2599SOL    HW2 8697   5.279   5.675   6.287
 2600SOL     OW 8698   0.494   2.861   4.721
 2600SOL    HW1 8699   0.538   2.779   4.684
 2600SOL    HW2 8700   0.467   2.921   4.646
 2601SOL     OW 8701   3.873   4.454   5.478
 2601SOL    HW1 8702   3.889   4.552   5.486
 2601SOL    HW2 8703   3.901   4.409   5.563
 2602SOL     OW 8704   5.887   6.717   6.633
 2602SOL    HW1 8705   5.970   6.759   6.671
 2602SOL    HW2 8706   5.847   6.780   6.566
 2603SOL     OW 8707   1.637   1.895   6.883
 2603SOL    HW1 8708   1.727   1.938   6.885
 2603SOL    HW2 8709   1.629   1.841   6.800
 2604SOL     OW 8710   5.549   1.718   1.347
 2604SOL    HW1 8711   5.510   1.627   1.332
 2604SOL    HW2 8712   5.643   1.720   1.315
 2605SOL     OW 8713   5.335   2.936   4.916
 2605SOL    HW1 8714   5.427   2.962   4.889
 2605SOL    HW2 8715   5.284   3.017   4.944
 2606SOL     OW 8716   6.583   4.619   1.814
 2606SOL    HW1 8717   6.580   4.667   1.726
 2606SOL    HW2 8718   6.671   4.573   1.824
 2607SOL     OW 8719   0.992   1.071   3.608
 2607SOL    HW1 8720   1.054   1.014   3.662
 2607SOL    HW2 8721   0.974   1.027   3.520
 2608SOL     OW 8722   4.244   0.726   6.854
 2608SOL    HW1 8723   4.251   0.659   6.927
 2608SOL    HW2 8724   4.261   0.681   6.766
 2609SOL     OW 8725   0.839   3.423   3.357
 2609SOL    HW1 8726   0.857   3.510   3.311
 2609SOL    HW2 8727   0.857   3.348   3.293
 2610SOL     OW 8728   4.953   5.540   4.631
 2610SOL    HW1 8729   5.021   5.609   4.608
 2610SOL    HW2 8730   4.908   5.508   4.548
 2611SOL     OW 8731   2.759   6.010   1.914
 2611SOL    HW1 8732   2.804   6.089   1.873
 2611SOL    HW2 8733   2.757   5.935   1.849
 2612SOL     OW 8734   0.689   0.053   4.965
 2612SOL    HW1 8735   0.648   6.987   4.978
 2612SOL    HW2 8736   0.622   0.114   4.924
 2613SOL     OW 8737   3.523   1.377   6.803
 2613SOL    HW1 8738   3.612   1.397   6.842
 2613SOL    HW2 8739   3.506   1.278   6.807
 2614SOL     OW 8740   6.229   6.743   6.462
 2614SOL    HW1 8741   6.313   6.739   6.515
 2614SOL    HW2 8742   6.251   6.765   6.367
 2615SOL     OW 8743   6.982   4.115   1.385
 2615SOL    HW1 8744   0.046   4.114   1.431
 2615SOL    HW2 8745   6.909   4.116   1.454
 2616SOL     OW 8746   3.706   4.120   1.909
 2616SOL    HW1 8747   3.642   4.090   1.838
 2616SOL    HW2 8748   3.786   4.162   1.866
 2617SOL     OW 8749   2.419   6.604   1.177
 2617SOL    HW1 8750   2.484   6.532   1.155
 2617SOL    HW2 8751   2.326   6.572   1.160
 2618SOL     OW 8752   0.802   6.231   0.445
 2618SOL    HW1 8753   0.797   6.298   0.371
 2618SOL    HW2 8754   0.709   6.206   0.473
 2619SOL     OW 8755   6.053   1.519   1.907
 2619SOL    HW1 8756   5.992   1.534   1.829
 2619SOL    HW2 8757   6.130   1.581   1.901
 2620SOL     OW 8758   1.294   5.548   4.204
 2620SOL    HW1 8759   1.202   5.585   4.214
 2620SOL    HW2 8760   1.358   5.622   4.184
 2621SOL     OW 8761   0.821   6.214   4.735
 2621SOL    HW1 8762   0.792   6.215   4.831
 2621SOL    HW2 8763   0.780   6.292   4.688
 2622SOL     OW 8764   2.585   2.541   4.555
 2622SOL    HW1 8765   2.575   2.496   4.644
 2622SOL    HW2 8766   2.589   2.640   4.568
 2623SOL     OW 8767   3.272   7.023   6.434
 2623SOL    HW1 8768   3.309   0.012   6.342
 2623SOL    HW2 8769   3.331   6.962   6.486
 2624SOL     OW 8770   5.281   1.956   4.521
 2624SOL    HW1 8771   5.203   1.910   4.479
 2624SOL    HW2 8772   5.248   2.029   4.582
 2625SOL     OW 8773   2.618   6.683   6.348
 2625SOL    HW1 8774   2.522   6.663   6.333
 2625SOL    HW2 8775   2.669   6.669   6.263
 2626SOL     OW 8776   2.562   6.793   3.281
 2626SOL    HW1 8777   2.527   6.876   3.237
 2626SOL    HW2 8778   2.636   6.756   3.226
 2627SOL     OW 8779   1.183   0.067   4.796
 2627SOL    HW1 8780   1.097   0.051   4.844
 2627SOL    HW2 8781   1.197   7.019   4.728
 2628SOL     OW 8782   4.674   5.565   0.176
 2628SOL    HW1 8783   4.705   5.611   0.092
 2628SOL    HW2 8784   4.580   5.535   0.164
 2629SOL     OW 8785   2.809   3.641   1.880
 2629SOL    HW1 8786   2.815   3.546   1.910
 2629SOL    HW2 8787   2.884   3.694   1.919
 2630SOL     OW 8788   3.214   1.906   2.314
 2630SOL    HW1 8789   3.267   1.933   2.234
 2630SOL    HW2 8790   3.118   1.934   2.301
 2631SOL     OW 8791   3.203   6.523   4.362
 2631SOL    HW1 8792   3.261   6.465   4.305
 2631SOL    HW2 8793   3.251   6.546   4.446
 2632SOL     OW 8794   4.550   1.405   1.525
 2632SOL    HW1 8795   4.454   1.410   1.553
 2632SOL    HW2 8796   4.604   1.464   1.584
 2633SOL     OW 8797   6.763   2.641   0.135
 2633SOL    HW1 8798   6.684   2.581   0.121
 2633SOL    HW2 8799   6.842   2.605   0.084
 2634SOL     OW 8800   2.777   4.783   0.219
 2634SOL    HW1 8801   2.714   4.770   0.296
 2634SOL    HW2 8802   2.812   4.694   0.190
 2635SOL     OW 8803   6.322   4.442   3.724
 2635SOL    HW1 8804   6.283   4.395   3.803
 2635SOL    HW2 8805   6.419   4.420   3.716
 2636SOL     OW 8806   5.367   5.483   5.103
 2636SOL    HW1 8807   5.406   5.479   5.195
 2636SOL    HW2 8808   5.432   5.529   5.042
 2637SOL     OW 8809   5.383   5.864   2.531
 2637SOL    HW1 8810   5.383   5.963   2.516
 2637SOL    HW2 8811   5.347   5.818   2.450
 2638SOL     OW 8812   5.393   5.468   0.379
 2638SOL    HW1 8813   5.296   5.442   0.373
 2638SOL    HW2 8814   5.448   5.386   0.392
 2639SOL     OW 8815   6.947   0.205   6.919
 2639SOL    HW1 8816   6.914   0.268   6.989
 2639SOL    HW2 8817   6.954   0.113   6.957
 2640SOL     OW 8818   6.723   6.294   6.860
 2640SOL    HW1 8819   6.703   6.339   6.773
 2640SOL    HW2 8820   6.722   6.362   6.934
 2641SOL     OW 8821   0.194   5.447   1.005
 2641SOL    HW1 8822   0.247   5.375   1.051
 2641SOL    HW2 8823   0.103   5.413   0.984
 2642SOL     OW 8824   6.560   0.215   4.242
 2642SOL    HW1 8825   6.568   0.175   4.151
 2642SOL    HW2 8826   6.575   0.314   4.237
 2643SOL     OW 8827   2.229   0.398   2.158
 2643SOL    HW1 8828   2.229   0.385   2.059
 2643SOL    HW2 8829   2.135   0.400   2.192
 2644SOL     OW 8830   6.164   6.387   4.555
 2644SOL    HW1 8831   6.225   6.310   4.536
 2644SOL    HW2 8832   6.217   6.464   4.591
 2645SOL     OW 8833   5.296   6.169   0.225
 2645SOL    HW1 8834   5.335   6.161   0.133
 2645SOL    HW2 8835   5.246   6.085   0.247
 2646SOL     OW 8836   5.589   5.853   6.053
 2646SOL    HW1 8837   5.506   5.908   6.048
 2646SOL    HW2 8838   5.600   5.817   6.146
 2647SOL     OW 8839   3.369   3.874   0.648
 2647SOL    HW1 8840   3.329   3.894   0.737
 2647SOL    HW2 8841   3.393   3.960   0.602
 2648SOL     OW 8842   4.015   1.285   3.827
 2648SOL    HW1 8843   4.009   1.186   3.844
 2648SOL    HW2 8844   3.978   1.305   3.736
 2649SOL     OW 8845   3.110   4.080   5.129
 2649SOL    HW1 8846   3.022   4.093   5.175
 2649SOL    HW2 8847   3.151   3.993   5.157
 2650SOL     OW 8848   0.617   6.903   2.825
 2650SOL    HW1 8849   0.606   7.002   2.817
 2650SOL    HW2 8850   0.709   6.882   2.858
 2651SOL     OW 8851   1.120   7.008   2.975
 2651SOL    HW1 8852   1.171   6.968   2.898
 2651SOL    HW2 8853   1.108   0.081   2.960
 2652SOL     OW 8854   2.951   3.124   2.397
 2652SOL    HW1 8855   3.041   3.124   2.441
 2652SOL    HW2 8856   2.882   3.097   2.464
 2653SOL     OW 8857   6.785   6.387   0.995
 2653SOL    HW1 8858   6.848   6.356   0.923
 2653SOL    HW2 8859   6.803   6.484   1.014
 2654SOL     OW 8860   6.720   2.713   5.871
 2654SOL    HW1 8861   6.703   2.650   5.796
 2654SOL    HW2 8862   6.811   2.754   5.860
 2655SOL     OW 8863   5.800   5.157   4.191
 2655SOL    HW1 8864   5.819   5.074   4.242
 2655SOL    HW2 8865   5.860   5.231   4.222
 2656SOL     OW 8866   6.301   3.209   5.247
 2656SOL    HW1 8867   6.313   3.179   5.341
 2656SOL    HW2 8868   6.222   3.269   5.240
 2657SOL     OW 8869   4.289   2.328   5.504
 2657SOL    HW1 8870   4.234   2.305   5.585
 2657SOL    HW2 8871   4.270   2.422   5.477
 2658SOL     OW 8872   6.671   3.946   5.321
 2658SOL    HW1 8873   6.724   3.868   5.354
 2658SOL    HW2 8874   6.709   3.978   5.234
 2659SOL     OW 8875   6.540   1.272   3.761
 2659SOL    HW1 8876   6.450   1.229   3.766
 2659SOL    HW2 8877   6.600   1.219   3.701
 2660SOL     OW 8878   0.841   2.081   3.938
 2660SOL    HW1 8879   0.859   2.174   3.905
 2660SOL    HW2 8880   0.811   2.024   3.861
 2661SOL     OW 8881   3.324   6.782   3.161
 2661SOL    HW1 8882   3.323   6.850   3.087
 2661SOL    HW2 8883   3.388   6.709   3.138
 2662SOL     OW 8884   3.756   1.438   3.956
 2662SOL    HW1 8885   3.746   1.404   3.863
 2662SOL    HW2 8886   3.668   1.429   4.004
 2663SOL     OW 8887   0.966   4.387   2.761
 2663SOL    HW1 8888   0.926   4.336   2.838
 2663SOL    HW2 8889   0.922   4.358   2.676
 2664SOL     OW 8890   4.599   4.431   1.748
 2664SOL    HW1 8891   4.539   4.375   1.806
 2664SOL    HW2 8892   4.694   4.412   1.770
 2665SOL     OW 8893   4.683   0.707   4.731
 2665SOL    HW1 8894   4.604   0.722   4.671
 2665SOL    HW2 8895   4.700   0.789   4.785
 2666SOL     OW 8896   5.186   5.750   1.502
 2666SOL    HW1 8897   5.163   5.831   1.555
 2666SOL    HW2 8898   5.103   5.697   1.485
 2667SOL     OW 8899   2.305   4.811   2.628
 2667SOL    HW1 8900   2.293   4.712   2.624
 2667SOL    HW2 8901   2.219   4.854   2.654
 2668SOL     OW 8902   6.641   2.555   5.663
 2668SOL    HW1 8903   6.579   2.572   5.587
 2668SOL    HW2 8904   6.721   2.506   5.631
 2669SOL     OW 8905   4.019   5.962   4.562
 2669SOL    HW1 8906   3.946   5.964   4.494
 2669SOL    HW2 8907   3.999   5.892   4.630
 2670SOL     OW 8908   2.418   6.404   4.279
 2670SOL    HW1 8909   2.335   6.364   4.239
 2670SOL    HW2 8910   2.393   6.464   4.355
 2671SOL     OW 8911   3.050   3.976   6.916
 2671SOL    HW1 8912   3.051   3.886   6.961
 2671SOL    HW2 8913   2.959   4.017   6.926
 2672SOL     OW 8914   0.537   4.428   0.721
 2672SOL    HW1 8915   0.467   4.410   0.791
 2672SOL    HW2 8916   0.627   4.418   0.762
 2673SOL     OW 8917   3.839   2.130   2.762
 2673SOL    HW1 8918   3.806   2.080   2.842
 2673SOL    HW2 8919   3.885   2.213   2.790
 2674SOL     OW 8920   5.285   5.781   4.775
 2674SOL    HW1 8921   5.239   5.763   4.688
 2674SOL    HW2 8922   5.226   5.752   4.851
 2675SOL     OW 8923   0.120   5.091   5.555
 2675SOL    HW1 8924   0.217   5.078   5.574
 2675SOL    HW2 8925   0.099   5.189   5.557
 2676SOL     OW 8926   4.243   0.679   1.919
 2676SOL    HW1 8927   4.336   0.712   1.903
 2676SOL    HW2 8928   4.242   0.619   1.998
 2677SOL     OW 8929   2.467   4.667   2.028
 2677SOL    HW1 8930   2.566   4.676   2.036
 2677SOL    HW2 8931   2.440   4.683   1.933
 2678SOL     OW 8932   0.470   6.572   6.594
 2678SOL    HW1 8933   0.540   6.549   6.662
 2678SOL    HW2 8934   0.459   6.672   6.590
 2679SOL     OW 8935   2.450   5.166   1.881
 2679SOL    HW1 8936   2.371   5.116   1.845
 2679SOL    HW2 8937   2.418   5.239   1.942
 2680SOL     OW 8938   0.174   2.388   1.200
 2680SOL    HW1 8939   0.174   2.484   1.228
 2680SOL    HW2 8940   0.244   2.339   1.252
 2681SOL     OW 8941   2.233   2.371   1.388
 2681SOL    HW1 8942   2.216   2.455   1.440
 2681SOL    HW2 8943   2.236   2.293   1.451
 2682SOL     OW 8944   0.159   2.542   3.749
 2682SOL    HW1 8945   0.253   2.509   3.745
 2682SOL    HW2 8946   0.120   2.544   3.657
 2683SOL     OW 8947   1.584   0.008   0.510
 2683SOL    HW1 8948   1.509   0.015   0.575
 2683SOL    HW2 8949   1.606   6.936   0.495
 2684SOL     OW 8950   2.116   5.194   2.794
 2684SOL    HW1 8951   2.191   5.169   2.854
 2684SOL    HW2 8952   2.153   5.241   2.713
 2685SOL     OW 8953   5.511   5.228   5.730
 2685SOL    HW1 8954   5.502   5.328   5.728
 2685SOL    HW2 8955   5.602   5.202   5.700
 2686SOL     OW 8956   0.828   3.262   4.991
 2686SOL    HW1 8957   0.925   3.246   5.010
 2686SOL    HW2 8958   0.812   3.361   4.985
 2687SOL     OW 8959   4.848   5.421   3.150
 2687SOL    HW1 8960   4.824   5.393   3.243
 2687SOL    HW2 8961   4.832   5.346   3.087
 2688SOL     OW 8962   3.543   4.680   5.273
 2688SOL    HW1 8963   3.559   4.581   5.277
 2688SOL    HW2 8964   3.452   4.700   5.310
 2689SOL     OW 8965   6.135   1.995   4.212
 2689SOL    HW1 8966   6.086   2.071   4.255
 2689SOL    HW2 8967   6.233   2.005   4.228
 2690SOL     OW 8968   3.163   4.032   3.705
 2690SOL    HW1 8969   3.098   4.082   3.648
 2690SOL    HW2 8970   3.223   3.977   3.647
 2691SOL     OW 8971   1.395   6.139   1.572
 2691SOL    HW1 8972   1.428   6.045   1.583
 2691SOL    HW2 8973   1.295   6.140   1.575
 2692SOL     OW 8974   6.782   3.959   3.821
 2692SOL    HW1 8975   6.818   4.010   3.899
 2692SOL    HW2 8976   6.814   4.002   3.736
 2693SOL     OW 8977   1.563   3.679   2.413
 2693SOL    HW1 8978   1.618   3.597   2.430
 2693SOL    HW2 8979   1.552   3.730   2.498
 2694SOL     OW 8980   2.021   1.714   2.720
 2694SOL    HW1 8981   1.921   1.720   2.725
 2694SOL    HW2 8982   2.047   1.668   2.635
 2695SOL     OW 8983   4.060   2.123   2.150
 2695SOL    HW1 8984   4.124   2.156   2.219
 2695SOL    HW2 8985   3.966   2.145   2.177
 2696SOL     OW 8986   3.740   3.335   6.118
 2696SOL    HW1 8987   3.659   3.282   6.142
 2696SOL    HW2 8988   3.740   3.352   6.019
 2697SOL     OW 8989   2.915   1.176   5.144
 2697SOL    HW1 8990   2.857   1.128   5.210
 2697SOL    HW2 8991   2.864   1.193   5.060
 2698SOL     OW 8992   1.332   1.438   6.915
 2698SOL    HW1 8993   1.419   1.434   6.965
 2698SOL    HW2 8994   1.350   1.440   6.816
 2699SOL     OW 8995   1.327   4.902   3.820
 2699SOL    HW1 8996   1.276   4.831   3.771
 2699SOL    HW2 8997   1.263   4.961   3.869
 2700SOL     OW 8998   2.471   4.444   2.958
 2700SOL    HW1 8999   2.483   4.466   2.861
 2700SOL    HW2 9000   2.460   4.529   3.009
 2701SOL     OW 9001   2.581   0.754   4.988
 2701SOL    HW1 9002   2.665   0.795   5.024
 2701SOL    HW2 9003   2.544   0.812   4.915
 2702SOL     OW 9004   6.157   6.706   3.230
 2702SOL    HW1 9005   6.121   6.617   3.259
 2702SOL    HW2 9006   6.114   6.732   3.144
 2703SOL     OW 9007   1.673   2.334   2.963
 2703SOL    HW1 9008   1.747   2.306   3.024
 2703SOL    HW2 9009   1.649   2.429   2.981
 2704SOL     OW 9010   1.016   6.519   0.420
 2704SOL    HW1 9011   1.085   6.503   0.491
 2704SOL    HW2 9012   1.054   6.494   0.331
 2705SOL     OW 9013   0.171   3.256   2.683
 2705SOL    HW1 9014   0.092   3.300   2.725
 2705SOL    HW2 9015   0.142   3.202   2.604
 2706SOL     OW 9016   6.554   2.714   3.738
 2706SOL    HW1 9017   6.529   2.773   3.662
 2706SOL    HW2 9018   6.537   2.762   3.824
 2707SOL     OW 9019   3.181   1.197   6.813
 2707SOL    HW1 9020   3.234   1.203   6.729
 2707SOL    HW2 9021   3.092   1.241   6.799
 2708SOL     OW 9022   1.406   4.727   6.860
 2708SOL    HW1 9023   1.490   4.707   6.809
 2708SOL    HW2 9024   1.406   4.676   6.946
 2709SOL     OW 9025   4.335   6.726   1.958
 2709SOL    HW1 9026   4.254   6.691   2.005
 2709SOL    HW2 9027   4.384   6.789   2.019
 2710SOL     OW 9028   6.335   4.492   2.711
 2710SOL    HW1 9029   6.244   4.452   2.724
 2710SOL    HW2 9030   6.387   4.435   2.648
 2711SOL     OW 9031   1.426   6.502   2.261
 2711SOL    HW1 9032   1.459   6.422   2.211
 2711SOL    HW2 9033   1.326   6.505   2.255
 2712SOL     OW 9034   2.877   5.505   2.842
 2712SOL    HW1 9035   2.918   5.505   2.933
 2712SOL    HW2 9036   2.783   5.538   2.848
 2713SOL     OW 9037   1.922   3.145   5.683
 2713SOL    HW1 9038   1.856   3.172   5.614
 2713SOL    HW2 9039   2.014   3.173   5.655
 2714SOL     OW 9040   5.713   0.223   0.169
 2714SOL    HW1 9041   5.688   0.295   0.104
 2714SOL    HW2 9042   5.655   0.231   0.251
 2715SOL     OW 9043   6.104   0.627   0.489
 2715SOL    HW1 9044   6.191   0.648   0.445
 2715SOL    HW2 9045   6.119   0.561   0.563
 2716SOL     OW 9046   6.127   6.425   2.102
 2716SOL    HW1 9047   6.034   6.388   2.095
 2716SOL    HW2 9048   6.136   6.478   2.186
 2717SOL     OW 9049   0.415   6.862   3.156
 2717SOL    HW1 9050   0.385   6.801   3.083
 2717SOL    HW2 9051   0.476   6.812   3.217
 2718SOL     OW 9052   6.981   3.710   3.131
 2718SOL    HW1 9053   6.904   3.774   3.121
 2718SOL    HW2 9054   0.024   3.728   3.059
 2719SOL     OW 9055   4.005   4.859   2.866
 2719SOL    HW1 9056   4.051   4.829   2.950
 2719SOL    HW2 9057   3.910   4.883   2.887
 2720SOL     OW 9058   0.537   6.359   4.597
 2720SOL    HW1 9059   0.524   6.282   4.659
 2720SOL    HW2 9060   0.614   6.340   4.536
 2721SOL     OW 9061   5.273   6.337   3.435
 2721SOL    HW1 9062   5.225   6.400   3.375
 2721SOL    HW2 9063   5.365   6.320   3.399
 2722SOL     OW 9064   0.581   5.596   2.228
 2722SOL    HW1 9065   0.587   5.696   2.238
 2722SOL    HW2 9066   0.660   5.554   2.273
 2723SOL     OW 9067   1.742   2.232   4.451
 2723SOL    HW1 9068   1.704   2.294   4.381
 2723SOL    HW2 9069   1.798   2.285   4.515
 2724SOL     OW 9070   4.691   5.841   6.029
 2724SOL    HW1 9071   4.592   5.857   6.032
 2724SOL    HW2 9072   4.733   5.878   6.112
 2725SOL     OW 9073   2.400   4.850   3.288
 2725SOL    HW1 9074   2.421   4.947   3.294
 2725SOL    HW2 9075   2.444   4.812   3.206
 2726SOL     OW 9076   4.186   6.118   2.694
 2726SOL    HW1 9077   4.228   6.120   2.784
 2726SOL    HW2 9078   4.213   6.034   2.646
 2727SOL     OW 9079   2.036   5.864   4.253
 2727SOL    HW1 9080   2.125   5.820   4.266
 2727SOL    HW2 9081   1.970   5.796   4.220
 2728SOL     OW 9082   2.558   6.706   5.413
 2728SOL    HW1 9083   2.611   6.790   5.423
 2728SOL    HW2 9084   2.578   6.644   5.489
 2729SOL     OW 9085   0.441   4.809   2.703
 2729SOL    HW1 9086   0.504   4.886   2.690
 2729SOL    HW2 9087   0.365   4.818   2.639
 2730SOL     OW 9088   1.461   4.294   1.302
 2730SOL    HW1 9089   1.522   4.260   1.231
 2730SOL    HW2 9090   1.504   4.370   1.350
 2731SOL     OW 9091   2.444   3.430   0.299
 2731SOL    HW1 9092   2.492   3.518   0.308
 2731SOL    HW2 9093   2.424   3.395   0.391
 2732SOL     OW 9094   5.529   3.214   4.230
 2732SOL    HW1 9095   5.496   3.147   4.163
 2732SOL    HW2 9096   5.452   3.254   4.278
 2733SOL     OW 9097   2.141   0.492   0.172
 2733SOL    HW1 9098   2.053   0.466   0.131
 2733SOL    HW2 9099   2.175   0.417   0.229
 2734SOL     OW 9100   1.712   6.761   4.672
 2734SOL    HW1 9101   1.631   6.800   4.628
 2734SOL    HW2 9102   1.785   6.830   4.674
 2735SOL     OW 9103   1.896   5.166   1.323
 2735SOL    HW1 9104   1.810   5.119   1.301
 2735SOL    HW2 9105   1.891   5.260   1.292
 2736SOL     OW 9106   4.347   0.005   6.573
 2736SOL    HW1 9107   4.389   6.948   6.612
 2736SOL    HW2 9108   4.249   7.015   6.561
 2737SOL     OW 9109   4.158   3.982   5.478
 2737SOL    HW1 9110   4.087   3.937   5.424
 2737SOL    HW2 9111   4.115   4.042   5.546
 2738SOL     OW 9112   6.659   3.992   4.219
 2738SOL    HW1 9113   6.728   4.026   4.156
 2738SOL    HW2 9114   6.688   4.009   4.313
 2739SOL     OW 9115   4.500   3.848   6.919
 2739SOL    HW1 9116   4.599   3.859   6.933
 2739SOL    HW2 9117   4.466   3.774   6.978
 2740SOL     OW 9118   5.962   2.639   4.423
 2740SOL    HW1 9119   5.891   2.608   4.487
 2740SOL    HW2 9120   5.927   2.717   4.371
 2741SOL     OW 9121   2.171   3.367   5.556
 2741SOL    HW1 9122   2.245   3.313   5.516
 2741SOL    HW2 9123   2.198   3.399   5.647
 2742SOL     OW 9124   3.089   6.086   5.694
 2742SOL    HW1 9125   3.011   6.025   5.678
 2742SOL    HW2 9126   3.068   6.177   5.657
 2743SOL     OW 9127   5.963   4.449   6.295
 2743SOL    HW1 9128   6.047   4.495   6.323
 2743SOL    HW2 9129   5.903   4.437   6.374
 2744SOL     OW 9130   5.014   0.038   0.970
 2744SOL    HW1 9131   4.984   6.997   1.040
 2744SOL    HW2 9132   4.946   0.041   0.896
 2745SOL     OW 9133   3.174   6.022   2.089
 2745SOL    HW1 9134   3.195   5.925   2.081
 2745SOL    HW2 9135   3.138   6.056   2.002
 2746SOL     OW 9136   1.178   2.244   6.716
 2746SOL    HW1 9137   1.155   2.153   6.679
 2746SOL    HW2 9138   1.265   2.238   6.764
 2747SOL     OW 9139   5.206   6.124   3.785
 2747SOL    HW1 9140   5.125   6.168   3.746
 2747SOL    HW2 9141   5.281   6.189   3.788
 2748SOL     OW 9142   5.390   1.163   4.887
 2748SOL    HW1 9143   5.416   1.220   4.809
 2748SOL    HW2 9144   5.421   1.206   4.972
 2749SOL     OW 9145   5.719   4.684   3.124
 2749SOL    HW1 9146   5.749   4.745   3.051
 2749SOL    HW2 9147   5.723   4.590   3.091
 2750SOL     OW 9148   0.876   6.906   6.951
 2750SOL    HW1 9149   0.842   6.999   6.932
 2750SOL    HW2 9150   0.800   6.848   6.978
 2751SOL     OW 9151   1.455   0.214   6.606
 2751SOL    HW1 9152   1.469   0.120   6.637
 2751SOL    HW2 9153   1.446   0.215   6.506
 2752SOL     OW 9154   0.553   6.677   6.339
 2752SOL    HW1 9155   0.532   6.616   6.262
 2752SOL    HW2 9156   0.507   6.643   6.421
 2753SOL     OW 9157   2.953   5.318   4.439
 2753SOL    HW1 9158   3.052   5.330   4.431
 2753SOL    HW2 9159   2.917   5.383   4.506
 2754SOL     OW 9160   1.017   5.644   4.224
 2754SOL    HW1 9161   0.989   5.574   4.290
 2754SOL    HW2 9162   1.028   5.731   4.270
 2755SOL     OW 9163   4.576   6.564   2.724
 2755SOL    HW1 9164   4.515   6.606   2.791
 2755SOL    HW2 9165   4.604   6.473   2.756
 2756SOL     OW 9166   0.042   2.767   5.152
 2756SOL    HW1 9167   0.007   2.856   5.181
 2756SOL    HW2 9168   0.104   2.732   5.223
 2757SOL     OW 9169   5.226   3.865   5.754
 2757SOL    HW1 9170   5.284   3.945   5.734
 2757SOL    HW2 9171   5.227   3.803   5.675
 2758SOL     OW 9172   0.366   6.492   1.852
 2758SOL    HW1 9173   0.279   6.455   1.818
 2758SOL    HW2 9174   0.400   6.435   1.926
 2759SOL     OW 9175   3.793   3.652   5.101
 2759SOL    HW1 9176   3.759   3.625   5.010
 2759SOL    HW2 9177   3.834   3.743   5.095
 2760SOL     OW 9178   5.249   5.481   2.895
 2760SOL    HW1 9179   5.334   5.451   2.853
 2760SOL    HW2 9180   5.217   5.565   2.851
 2761SOL     OW 9181   1.758   3.363   4.148
 2761SOL    HW1 9182   1.856   3.369   4.134
 2761SOL    HW2 9183   1.722   3.453   4.174
 2762SOL     OW 9184   4.585   1.397   2.368
 2762SOL    HW1 9185   4.530   1.480   2.381
 2762SOL    HW2 9186   4.649   1.387   2.445
 2763SOL     OW 9187   5.297   0.985   4.169
 2763SOL    HW1 9188   5.289   0.932   4.085
 2763SOL    HW2 9189   5.282   0.926   4.248
 2764SOL     OW 9190   6.710   2.074   3.187
 2764SOL    HW1 9191   6.627   2.123   3.214
 2764SOL    HW2 9192   6.781   2.140   3.161
 2765SOL     OW 9193   0.223   6.607   6.849
 2765SOL    HW1 9194   0.201   6.703   6.832
 2765SOL    HW2 9195   0.216   6.556   6.764
 2766SOL     OW 9196   4.865   0.517   0.399
 2766SOL    HW1 9197   4.958   0.552   0.382
 2766SOL    HW2 9198   4.799   0.584   0.365
 2767SOL     OW 9199   0.566   6.171   6.039
 2767SOL    HW1 9200   0.506   6.095   6.061
 2767SOL    HW2 9201   0.538   6.252   6.090
 2768SOL     OW 9202   4.156   0.165   1.882
 2768SOL    HW1 9203   4.103   0.250   1.875
 2768SOL    HW2 9204   4.096   0.087   1.862
 2769SOL     OW 9205   0.521   4.875   5.793
 2769SOL    HW1 9206   0.460   4.798   5.813
 2769SOL    HW2 9207   0.606   4.841   5.753
 2770SOL     OW 9208   2.405   6.431   0.890
 2770SOL    HW1 9209   2.338   6.395   0.825
 2770SOL    HW2 9210   2.389   6.389   0.980
 2771SOL     OW 9211   4.013   6.581   5.398
 2771SOL    HW1 9212   3.945   6.538   5.458
 2771SOL    HW2 9213   3.998   6.551   5.304
 2772SOL     OW 9214   6.012   1.898   3.112
 2772SOL    HW1 9215   6.074   1.921   3.038
 2772SOL    HW2 9216   6.044   1.815   3.158
 2773SOL     OW 9217   5.346   1.588   6.297
 2773SOL    HW1 9218   5.390   1.568   6.385
 2773SOL    HW2 9219   5.318   1.503   6.254
 2774SOL     OW 9220   6.743   0.215   3.620
 2774SOL    HW1 9221   6.777   0.299   3.663
 2774SOL    HW2 9222   6.653   0.231   3.581
 2775SOL     OW 9223   6.706   2.354   4.328
 2775SOL    HW1 9224   6.639   2.422   4.358
 2775SOL    HW2 9225   6.660   2.266   4.314
 2776SOL     OW 9226   4.918   3.789   5.764
 2776SOL    HW1 9227   4.899   3.834   5.677
 2776SOL    HW2 9228   5.001   3.828   5.804
 2777SOL     OW 9229   1.438   1.699   0.245
 2777SOL    HW1 9230   1.398   1.622   0.295
 2777SOL    HW2 9231   1.476   1.666   0.158
 2778SOL     OW 9232   2.690   6.805   5.943
 2778SOL    HW1 9233   2.598   6.802   5.983
 2778SOL    HW2 9234   2.752   6.850   6.008
 2779SOL     OW 9235   5.173   0.979   3.155
 2779SOL    HW1 9236   5.156   0.993   3.253
 2779SOL    HW2 9237   5.245   0.912   3.143
 2780SOL     OW 9238   0.842   0.779   5.235
 2780SOL    HW1 9239   0.922   0.729   5.202
 2780SOL    HW2 9240   0.868   0.874   5.255
 2781SOL     OW 9241   0.021   0.373   2.755
 2781SOL    HW1 9242   0.111   0.350   2.791
 2781SOL    HW2 9243   7.006   0.447   2.809
 2782SOL     OW 9244   5.842   6.980   4.723
 2782SOL    HW1 9245   5.770   0.024   4.730
 2782SOL    HW2 9246   5.861   6.961   4.627
 2783SOL     OW 9247   6.375   2.987   1.898
 2783SOL    HW1 9248   6.343   3.005   1.805
 2783SOL    HW2 9249   6.475   2.981   1.898
 2784SOL     OW 9250   0.998   2.157   1.620
 2784SOL    HW1 9251   1.096   2.175   1.617
 2784SOL    HW2 9252   0.969   2.145   1.714
 2785SOL     OW 9253   5.648   3.808   3.889
 2785SOL    HW1 9254   5.582   3.883   3.876
 2785SOL    HW2 9255   5.684   3.779   3.800
 2786SOL     OW 9256   6.900   5.523   0.757
 2786SOL    HW1 9257   6.900   5.430   0.721
 2786SOL    HW2 9258   6.979   5.573   0.721
 2787SOL     OW 9259   0.467   6.904   5.940
 2787SOL    HW1 9260   0.395   6.940   5.882
 2787SOL    HW2 9261   0.457   6.940   6.033
 2788SOL     OW 9262   2.919   6.402   0.327
 2788SOL    HW1 9263   2.828   6.363   0.344
 2788SOL    HW2 9264   2.910   6.496   0.293
 2789SOL     OW 9265   1.986   1.993   3.992
 2789SOL    HW1 9266   2.040   1.909   4.005
 2789SOL    HW2 9267   2.047   2.072   3.995
 2790SOL     OW 9268   0.346   5.109   1.639
 2790SOL    HW1 9269   0.442   5.084   1.645
 2790SOL    HW2 9270   0.290   5.033   1.673
 2791SOL     OW 9271   0.332   3.335   5.339
 2791SOL    HW1 9272   0.300   3.270   5.407
 2791SOL    HW2 9273   0.407   3.389   5.377
 2792SOL     OW 9274   3.174   2.588   6.604
 2792SOL    HW1 9275   3.251   2.614   6.545
 2792SOL    HW2 9276   3.209   2.544   6.687
 2793SOL     OW 9277   3.955   3.632   6.259
 2793SOL    HW1 9278   3.869   3.620   6.308
 2793SOL    HW2 9279   3.950   3.715   6.204
 2794SOL     OW 9280   1.559   1.781   6.645
 2794SOL    HW1 9281   1.601   1.829   6.568
 2794SOL    HW2 9282   1.537   1.688   6.618
 2795SOL     OW 9283   1.030   0.132   0.554
 2795SOL    HW1 9284   1.109   0.163   0.607
 2795SOL    HW2 9285   0.968   0.081   0.613
 2796SOL     OW 9286   3.097   6.366   6.957
 2796SOL    HW1 9287   3.147   6.304   7.018
 2796SOL    HW2 9288   3.047   6.434   7.012
 2797SOL     OW 9289   4.966   4.251   4.527
 2797SOL    HW1 9290   4.986   4.153   4.518
 2797SOL    HW2 9291   4.946   4.289   4.437
 2798SOL     OW 9292   5.309   2.800   1.477
 2798SOL    HW1 9293   5.408   2.790   1.480
 2798SOL    HW2 9294   5.273   2.810   1.570
 2799SOL     OW 9295   3.212   6.876   4.494
 2799SOL    HW1 9296   3.240   6.868   4.399
 2799SOL    HW2 9297   3.122   6.834   4.506
 2800SOL     OW 9298   4.823   1.358   6.695
 2800SOL    HW1 9299   4.777   1.405   6.620
 2800SOL    HW2 9300   4.864   1.274   6.661
 2801SOL     OW 9301   6.839   4.051   3.572
 2801SOL    HW1 9302   6.826   4.104   3.488
 2801SOL    HW2 9303   6.937   4.036   3.587
 2802SOL     OW 9304   1.440   4.247   4.140
 2802SOL    HW1 9305   1.529   4.292   4.144
 2802SOL    HW2 9306   1.443   4.162   4.192
 2803SOL     OW 9307   3.628   2.922   6.716
 2803SOL    HW1 9308   3.717   2.877   6.711
 2803SOL    HW2 9309   3.629   2.992   6.787
 2804SOL     OW 9310   5.888   2.421   3.596
 2804SOL    HW1 9311   5.950   2.449   3.523
 2804SOL    HW2 9312   5.794   2.436   3.567
 2805SOL     OW 9313   3.762   5.187   0.663
 2805SOL    HW1 9314   3.857   5.215   0.649
 2805SOL    HW2 9315   3.704   5.227   0.592
 2806SOL     OW 9316   0.515   3.038   4.489
 2806SOL    HW1 9317   0.609   3.005   4.486
 2806SOL    HW2 9318   0.494   3.086   4.403
 2807SOL     OW 9319   4.327   1.339   3.820
 2807SOL    HW1 9320   4.254   1.341   3.889
 2807SOL    HW2 9321   4.406   1.290   3.858
 2808SOL     OW 9322   1.069   5.995   6.493
 2808SOL    HW1 9323   1.045   6.089   6.470
 2808SOL    HW2 9324   1.133   5.959   6.425
 2809SOL     OW 9325   1.288   6.220   0.967
 2809SOL    HW1 9326   1.313   6.149   1.034
 2809SOL    HW2 9327   1.353   6.296   0.974
 2810SOL     OW 9328   0.721   6.064   2.767
 2810SOL    HW1 9329   0.763   6.154   2.752
 2810SOL    HW2 9330   0.787   5.992   2.748
 2811SOL     OW 9331   0.983   0.437   0.553
 2811SOL    HW1 9332   1.016   0.417   0.645
 2811SOL    HW2 9333   0.956   0.352   0.508
 2812SOL     OW 9334   1.722   1.132   1.180
 2812SOL    HW1 9335   1.678   1.216   1.148
 2812SOL    HW2 9336   1.712   1.125   1.280
 2813SOL     OW 9337   6.418   2.463   1.114
 2813SOL    HW1 9338   6.377   2.546   1.151
 2813SOL    HW2 9339   6.516   2.463   1.132
 2814SOL     OW 9340   2.272   4.473   6.768
 2814SOL    HW1 9341   2.197   4.539   6.770
 2814SOL    HW2 9342   2.283   4.438   6.675
 2815SOL     OW 9343   6.632   6.127   4.866
 2815SOL    HW1 9344   6.584   6.161   4.946
 2815SOL    HW2 9345   6.707   6.189   4.843
 2816SOL     OW 9346   0.960   4.969   4.790
 2816SOL    HW1 9347   1.000   4.903   4.727
 2816SOL    HW2 9348   0.962   4.932   4.883
 2817SOL     OW 9349   2.485   0.792   1.991
 2817SOL    HW1 9350   2.452   0.787   2.085
 2817SOL    HW2 9351   2.413   0.829   1.932
 2818SOL     OW 9352   1.816   1.121   0.493
 2818SOL    HW1 9353   1.910   1.127   0.460
 2818SOL    HW2 9354   1.782   1.028   0.480
 2819SOL     OW 9355   6.260   0.454   6.821
 2819SOL    HW1 9356   6.273   0.502   6.908
 2819SOL    HW2 9357   6.169   0.476   6.784
 2820SOL     OW 9358   1.838   1.554   0.112
 2820SOL    HW1 9359   1.857   1.598   0.200
 2820SOL    HW2 9360   1.918   1.502   0.083
 2821SOL     OW 9361   3.666   1.902   5.803
 2821SOL    HW1 9362   3.725   1.962   5.856
 2821SOL    HW2 9363   3.672   1.809   5.839
 2822SOL     OW 9364   4.320   2.757   1.160
 2822SOL    HW1 9365   4.225   2.758   1.189
 2822SOL    HW2 9366   4.341   2.671   1.113
 2823SOL     OW 9367   5.683   4.150   2.866
 2823SOL    HW1 9368   5.706   4.053   2.855
 2823SOL    HW2 9369   5.603   4.172   2.811
 2824SOL     OW 9370   0.727   4.176   5.188
 2824SOL    HW1 9371   0.677   4.116   5.250
 2824SOL    HW2 9372   0.674   4.188   5.104
 2825SOL     OW 9373   4.943   2.449   5.197
 2825SOL    HW1 9374   5.017   2.382   5.188
 2825SOL    HW2 9375   4.911   2.452   5.291
 2826SOL     OW 9376   2.876   3.306   0.095
 2826SOL    HW1 9377   2.946   3.249   0.052
 2826SOL    HW2 9378   2.915   3.353   0.175
 2827SOL     OW 9379   6.525   1.689   0.276
 2827SOL    HW1 9380   6.622   1.669   0.262
 2827SOL    HW2 9381   6.485   1.620   0.336
 2828SOL     OW 9382   1.650   4.506   6.973
 2828SOL    HW1 9383   1.698   4.439   0.007
 2828SOL    HW2 9384   1.554   4.510   7.001
 2829SOL     OW 9385   3.535   4.247   1.407
 2829SOL    HW1 9386   3.517   4.243   1.506
 2829SOL    HW2 9387   3.569   4.338   1.383
 2830SOL     OW 9388   2.804   5.598   4.855
 2830SOL    HW1 9389   2.798   5.679   4.796
 2830SOL    HW2 9390   2.723   5.541   4.842
 2831SOL     OW 9391   6.330   1.687   2.029
 2831SOL    HW1 9392   6.249   1.722   2.077
 2831SOL    HW2 9393   6.405   1.675   2.095
 2832SOL     OW 9394   1.701   4.051   1.280
 2832SOL    HW1 9395   1.742   3.960   1.278
 2832SOL    HW2 9396   1.610   4.045   1.322
 2833SOL     OW 9397   6.513   2.726   3.239
 2833SOL    HW1 9398   6.429   2.728   3.185
 2833SOL    HW2 9399   6.541   2.631   3.254
 2834SOL     OW 9400   3.041   0.531   4.166
 2834SOL    HW1 9401   3.003   0.594   4.233
 2834SOL    HW2 9402   3.025   0.437   4.197
 2835SOL     OW 9403   6.513   1.595   0.773
 2835SOL    HW1 9404   6.471   1.573   0.861
 2835SOL    HW2 9405   6.559   1.684   0.779
 2836SOL     OW 9406   3.398   5.892   1.518
 2836SOL    HW1 9407   3.453   5.810   1.504
 2836SOL    HW2 9408   3.405   5.952   1.438
 2837SOL     OW 9409   5.383   4.054   3.010
 2837SOL    HW1 9410   5.286   4.052   3.035
 2837SOL    HW2 9411   5.396   4.108   2.927
 2838SOL     OW 9412   0.052   3.776   5.888
 2838SOL    HW1 9413   0.040   3.798   5.985
 2838SOL    HW2 9414   0.134   3.720   5.876
 2839SOL     OW 9415   5.693   2.640   6.333
 2839SOL    HW1 9416   5.730   2.667   6.423
 2839SOL    HW2 9417   5.594   2.648   6.335
 2840SOL     OW 9418   6.453   6.225   5.062
 2840SOL    HW1 9419   6.381   6.286   5.027
 2840SOL    HW2 9420   6.413   6.163   5.130
 2841SOL     OW 9421   5.437   3.642   3.240
 2841SOL    HW1 9422   5.484   3.726   3.267
 2841SOL    HW2 9423   5.422   3.586   3.321
 2842SOL     OW 9424   0.578   6.369   3.666
 2842SOL    HW1 9425   0.496   6.369   3.723
 2842SOL    HW2 9426   0.654   6.411   3.716
 2843SOL     OW 9427   1.276   2.871   4.263
 2843SOL    HW1 9428   1.373   2.850   4.250
 2843SOL    HW2 9429   1.259   2.896   4.358
 2844SOL     OW 9430   5.392   4.004   6.803
 2844SOL    HW1 9431   5.458   3.929   6.793
 2844SOL    HW2 9432   5.350   3.999   6.893
 2845SOL     OW 9433   3.722   1.700   1.230
 2845SOL    HW1 9434   3.803   1.689   1.287
 2845SOL    HW2 9435   3.743   1.762   1.154
 2846SOL     OW 9436   5.153   0.016   6.647
 2846SOL    HW1 9437   5.098   0.020   6.564
 2846SOL    HW2 9438   5.141   6.951   6.690
 2847SOL     OW 9439   5.801   4.909   2.275
 2847SOL    HW1 9440   5.878   4.922   2.337
 2847SOL    HW2 9441   5.826   4.941   2.184
 2848SOL     OW 9442   0.666   3.448   0.124
 2848SOL    HW1 9443   0.757   3.431   0.162
 2848SOL    HW2 9444   0.600   3.454   0.200
 2849SOL     OW 9445   5.308   0.780   1.324
 2849SOL    HW1 9446   5.347   0.790   1.233
 2849SOL    HW2 9447   5.264   0.865   1.351
 2850SOL     OW 9448   0.031   0.946   0.684
 2850SOL    HW1 9449   6.972   1.000   0.684
 2850SOL    HW2 9450   0.101   0.994   0.630
 2851SOL     OW 9451   3.765   3.395   2.264
 2851SOL    HW1 9452   3.682   3.440   2.231
 2851SOL    HW2 9453   3.764   3.391   2.364
 2852SOL     OW 9454   0.623   4.951   4.880
 2852SOL    HW1 9455   0.603   5.048   4.896
 2852SOL    HW2 9456   0.540   4.906   4.845
 2853SOL     OW 9457   0.619   4.515   5.952
 2853SOL    HW1 9458   0.688   4.588   5.959
 2853SOL    HW2 9459   0.611   4.469   6.040
 2854SOL     OW 9460   2.781   0.169   6.669
 2854SOL    HW1 9461   2.871   0.164   6.624
 2854SOL    HW2 9462   2.774   0.255   6.719
 2855SOL     OW 9463   2.714   2.145   4.267
 2855SOL    HW1 9464   2.681   2.198   4.346
 2855SOL    HW2 9465   2.639   2.091   4.230
 2856SOL     OW 9466   1.638   5.291   4.653
 2856SOL    HW1 9467   1.615   5.361   4.721
 2856SOL    HW2 9468   1.721   5.243   4.682
 2857SOL     OW 9469   0.513   4.471   0.107
 2857SOL    HW1 9470   0.537   4.543   0.042
 2857SOL    HW2 9471   0.581   4.469   0.181
 2858SOL     OW 9472   5.663   4.608   4.106
 2858SOL    HW1 9473   5.756   4.584   4.078
 2858SOL    HW2 9474   5.617   4.655   4.030
 2859SOL     OW 9475   0.016   4.880   1.738
 2859SOL    HW1 9476   0.046   4.843   1.650
 2859SOL    HW2 9477   0.006   4.979   1.732
 2860SOL     OW 9478   1.514   6.846   3.338
 2860SOL    HW1 9479   1.436   6.829   3.399
 2860SOL    HW2 9480   1.496   6.927   3.282
 2861SOL     OW 9481   5.504   3.232   5.451
 2861SOL    HW1 9482   5.535   3.327   5.457
 2861SOL    HW2 9483   5.414   3.229   5.409
 2862SOL     OW 9484   4.874   1.278   0.314
 2862SOL    HW1 9485   4.933   1.222   0.256
 2862SOL    HW2 9486   4.807   1.220   0.360
 2863SOL     OW 9487   5.569   1.743   6.209
 2863SOL    HW1 9488   5.484   1.699   6.240
 2863SOL    HW2 9489   5.637   1.739   6.282
 2864SOL     OW 9490   4.205   4.734   0.891
 2864SOL    HW1 9491   4.274   4.762   0.958
 2864SOL    HW2 9492   4.139   4.808   0.878
 2865SOL     OW 9493   5.688   4.677   6.446
 2865SOL    HW1 9494   5.655   4.745   6.511
 2865SOL    HW2 9495   5.612   4.641   6.393
 2866SOL     OW 9496   4.577   5.788   0.919
 2866SOL    HW1 9497   4.582   5.799   0.820
 2866SOL    HW2 9498   4.546   5.695   0.940
 2867SOL     OW 9499   0.608   6.069   3.078
 2867SOL    HW1 9500   0.577   6.089   2.986
 2867SOL    HW2 9501   0.530   6.073   3.141
 2868SOL     OW 9502   6.633   0.419   5.553
 2868SOL    HW1 9503   6.722   0.438   5.511
 2868SOL    HW2 9504   6.640   0.433   5.652
 2869SOL     OW 9505   5.601   4.588   5.244
 2869SOL    HW1 9506   5.624   4.575   5.148
 2869SOL    HW2 9507   5.682   4.570   5.300
 2870SOL     OW 9508   0.229   1.394   1.286
 2870SOL    HW1 9509   0.167   1.433   1.218
 2870SOL    HW2 9510   0.176   1.363   1.365
 2871SOL     OW 9511   4.703   1.189   3.535
 2871SOL    HW1 9512   4.788   1.188   3.589
 2871SOL    HW2 9513   4.725   1.211   3.440
 2872SOL     OW 9514   3.600   1.721   2.611
 2872SOL    HW1 9515   3.552   1.793   2.561
 2872SOL    HW2 9516   3.534   1.657   2.650
 2873SOL     OW 9517   0.103   0.039   2.890
 2873SOL    HW1 9518   0.016   0.086   2.901
 2873SOL    HW2 9519   0.086   6.966   2.874
 2874SOL     OW 9520   1.793   1.019   2.601
 2874SOL    HW1 9521   1.802   1.097   2.663
 2874SOL    HW2 9522   1.722   1.039   2.533
 2875SOL     OW 9523   3.027   0.539   2.413
 2875SOL    HW1 9524   2.966   0.545   2.333
 2875SOL    HW2 9525   3.121   0.532   2.382
 2876SOL     OW 9526   1.237   6.921   1.001
 2876SOL    HW1 9527   1.232   7.008   1.050
 2876SOL    HW2 9528   1.213   6.846   1.062
 2877SOL     OW 9529   1.529   3.524   6.653
 2877SOL    HW1 9530   1.472   3.442   6.651
 2877SOL    HW2 9531   1.485   3.597   6.600
 2878SOL     OW 9532   3.665   3.597   4.873
 2878SOL    HW1 9533   3.610   3.514   4.879
 2878SOL    HW2 9534   3.730   3.590   4.797
 2879SOL     OW 9535   6.319   5.817   0.457
 2879SOL    HW1 9536   6.364   5.806   0.369
 2879SOL    HW2 9537   6.335   5.736   0.513
 2880SOL     OW 9538   1.528   1.967   2.823
 2880SOL    HW1 9539   1.552   2.056   2.783
 2880SOL    HW2 9540   1.527   1.975   2.922
 2881SOL     OW 9541   5.163   4.918   7.008
 2881SOL    HW1 9542   5.222   4.843   0.014
 2881SOL    HW2 9543   5.214   4.976   6.944
 2882SOL     OW 9544   5.248   6.604   0.176
 2882SOL    HW1 9545   5.161   6.618   0.224
 2882SOL    HW2 9546   5.256   6.671   0.102
 2883SOL     OW 9547   4.969   6.215   2.885
 2883SOL    HW1 9548   5.003   6.127   2.853
 2883SOL    HW2 9549   4.941   6.208   2.981
 2884SOL     OW 9550   6.303   5.128   3.372
 2884SOL    HW1 9551   6.375   5.061   3.391
 2884SOL    HW2 9552   6.219   5.100   3.419
 2885SOL     OW 9553   0.571   3.469   3.372
 2885SOL    HW1 9554   0.557   3.567   3.355
 2885SOL    HW2 9555   0.670   3.450   3.377
 2886SOL     OW 9556   2.139   4.194   4.906
 2886SOL    HW1 9557   2.201   4.122   4.939
 2886SOL    HW2 9558   2.053   4.189   4.956
 2887SOL     OW 9559   6.996   4.633   2.991
 2887SOL    HW1 9560   6.928   4.562   3.011
 2887SOL    HW2 9561   6.987   4.662   2.896
 2888SOL     OW 9562   4.403   5.851   6.708
 2888SOL    HW1 9563   4.334   5.873   6.777
 2888SOL    HW2 9564   4.478   5.918   6.713
 2889SOL     OW 9565   3.919   5.617   4.352
 2889SOL    HW1 9566   4.002   5.578   4.314
 2889SOL    HW2 9567   3.856   5.544   4.379
 2890SOL     OW 9568   1.657   2.336   0.930
 2890SOL    HW1 9569   1.583   2.284   0.887
 2890SOL    HW2 9570   1.722   2.366   0.860
 2891SOL     OW 9571   1.897   1.681   5.534
 2891SOL    HW1 9572   1.815   1.623   5.541
 2891SOL    HW2 9573   1.915   1.724   5.623
 2892SOL     OW 9574   5.975   4.117   2.019
 2892SOL    HW1 9575   6.013   4.125   1.927
 2892SOL    HW2 9576   6.008   4.032   2.061
 2893SOL     OW 9577   6.814   6.051   5.274
 2893SOL    HW1 9578   6.837   6.102   5.190
 2893SOL    HW2 9579   6.883   6.068   5.343
 2894SOL     OW 9580   1.897   5.455   1.269
 2894SOL    HW1 9581   1.963   5.475   1.197
 2894SOL    HW2 9582   1.824   5.524   1.268
 2895SOL     OW 9583   5.067   6.510   6.346
 2895SOL    HW1 9584   5.008   6.529   6.425
 2895SOL    HW2 9585   5.012   6.510   6.263
 2896SOL     OW 9586   6.522   6.985   6.022
 2896SOL    HW1 9587   6.427   7.012   6.003
 2896SOL    HW2 9588   6.560   6.939   5.942
 2897SOL     OW 9589   3.175   5.947   3.455
 2897SOL    HW1 9590   3.217   5.871   3.506
 2897SOL    HW2 9591   3.247   6.010   3.425
 2898SOL     OW 9592   5.156   2.288   2.457
 2898SOL    HW1 9593   5.105   2.236   2.526
 2898SOL    HW2 9594   5.152   2.238   2.370
 2899SOL     OW 9595   6.568   2.787   1.245
 2899SOL    HW1 9596   6.652   2.766   1.296
 2899SOL    HW2 9597   6.490   2.742   1.290
 2900SOL     OW 9598   3.256   2.891   4.997
 2900SOL    HW1 9599   3.219   2.865   5.086
 2900SOL    HW2 9600   3.180   2.914   4.935
 2901SOL     OW 9601   1.475   3.497   1.442
 2901SOL    HW1 9602   1.526   3.520   1.358
 2901SOL    HW2 9603   1.379   3.481   1.419
 2902SOL     OW 9604   5.527   6.167   3.319
 2902SOL    HW1 9605   5.616   6.188   3.360
 2902SOL    HW2 9606   5.501   6.073   3.341
 2903SOL     OW 9607   0.791   5.613   0.937
 2903SOL    HW1 9608   0.887   5.591   0.957
 2903SOL    HW2 9609   0.773   5.599   0.840
 2904SOL     OW 9610   2.716   4.809   4.360
 2904SOL    HW1 9611   2.782   4.867   4.408
 2904SOL    HW2 9612   2.640   4.787   4.421
 2905SOL     OW 9613   1.400   4.392   1.721
 2905SOL    HW1 9614   1.489   4.411   1.762
 2905SOL    HW2 9615   1.329   4.392   1.792
 2906SOL     OW 9616   6.610   6.127   6.145
 2906SOL    HW1 9617   6.704   6.131   6.111
 2906SOL    HW2 9618   6.577   6.033   6.142
 2907SOL     OW 9619   6.558   0.944   6.123
 2907SOL    HW1 9620   6.580   0.907   6.213
 2907SOL    HW2 9621   6.635   0.927   6.061
 2908SOL     OW 9622   3.897   5.969   3.636
 2908SOL    HW1 9623   3.952   6.002   3.713
 2908SOL    HW2 9624   3.800   5.975   3.659
 2909SOL     OW 9625   0.480   6.734   0.806
 2909SOL    HW1 9626   0.399   6.768   0.757
 2909SOL    HW2 9627   0.483   6.635   0.800
 2910SOL     OW 9628   1.213   0.709   4.463
 2910SOL    HW1 9629   1.154   0.774   4.415
 2910SOL    HW2 9630   1.159   0.657   4.529
 2911SOL     OW 9631   6.390   3.538   3.747
 2911SOL    HW1 9632   6.394   3.604   3.822
 2911SOL    HW2 9633   6.482   3.505   3.726
 2912SOL     OW 9634   0.431   1.087   2.674
 2912SOL    HW1 9635   0.518   1.122   2.708
 2912SOL    HW2 9636   0.363   1.088   2.748
 2913SOL     OW 9637   1.086   6.411   4.513
 2913SOL    HW1 9638   1.000   6.380   4.552
 2913SOL    HW2 9639   1.072   6.498   4.465
 2914SOL     OW 9640   3.671   4.477   0.810
 2914SOL    HW1 9641   3.634   4.567   0.789
 2914SOL    HW2 9642   3.681   4.424   0.726
 2915SOL     OW 9643   2.346   0.618   3.614
 2915SOL    HW1 9644   2.254   0.658   3.625
 2915SOL    HW2 9645   2.385   0.600   3.704
 2916SOL     OW 9646   0.360   5.791   6.372
 2916SOL    HW1 9647   0.352   5.750   6.281
 2916SOL    HW2 9648   0.376   5.718   6.439
 2917SOL     OW 9649   1.932   0.863   3.408
 2917SOL    HW1 9650   1.852   0.915   3.378
 2917SOL    HW2 9651   2.011   0.924   3.417
 2918SOL     OW 9652   5.204   1.921   1.101
 2918SOL    HW1 9653   5.293   1.923   1.056
 2918SOL    HW2 9654   5.216   1.935   1.199
 2919SOL     OW 9655   0.661   5.893   5.160
 2919SOL    HW1 9656   0.690   5.917   5.253
 2919SOL    HW2 9657   0.709   5.810   5.130
 2920SOL     OW 9658   2.720   2.268   1.833
 2920SOL    HW1 9659   2.769   2.283   1.918
 2920SOL    HW2 9660   2.723   2.351   1.777
 2921SOL     OW 9661   0.216   5.548   3.328
 2921SOL    HW1 9662   0.237   5.534   3.231
 2921SOL    HW2 9663   0.237   5.642   3.354
 2922SOL     OW 9664   4.089   5.197   3.415
 2922SOL    HW1 9665   4.116   5.287   3.449
 2922SOL    HW2 9666   4.156   5.165   3.348
 2923SOL     OW 9667   0.911   4.876   3.740
 2923SOL    HW1 9668   0.921   4.967   3.699
 2923SOL    HW2 9669   0.879   4.885   3.834
 2924SOL     OW 9670   5.205   1.518   6.843
 2924SOL    HW1 9671   5.203   1.597   6.782
 2924SOL    HW2 9672   5.287   1.520   6.899
 2925SOL     OW 9673   5.228   6.842   4.797
 2925SOL    HW1 9674   5.318   6.841   4.753
 2925SOL    HW2 9675   5.222   6.919   4.860
 2926SOL     OW 9676   6.657   2.811   4.606
 2926SOL    HW1 9677   6.729   2.824   4.538
 2926SOL    HW2 9678   6.681   2.734   4.665
 2927SOL     OW 9679   1.040   2.123   2.628
 2927SOL    HW1 9680   1.054   2.170   2.715
 2927SOL    HW2 9681   0.942   2.110   2.612
 2928SOL     OW 9682   5.059   4.869   0.403
 2928SOL    HW1 9683   5.138   4.814   0.375
 2928SOL    HW2 9684   4.999   4.814   0.461
 2929SOL     OW 9685   2.014   2.044   3.147
 2929SOL    HW1 9686   2.037   2.025   3.242
 2929SOL    HW2 9687   1.967   2.132   3.140
 2930SOL     OW 9688   0.463   3.103   4.232
 2930SOL    HW1 9689   0.437   3.194   4.198
 2930SOL    HW2 9690   0.382   3.045   4.237
 2931SOL     OW 9691   6.249   4.074   5.983
 2931SOL    HW1 9692   6.185   4.130   5.931
 2931SOL    HW2 9693   6.233   4.087   6.081
 2932SOL     OW 9694   6.782   6.861   0.549
 2932SOL    HW1 9695   6.813   6.775   0.589
 2932SOL    HW2 9696   6.819   6.937   0.603
 2933SOL     OW 9697   0.683   0.408   0.125
 2933SOL    HW1 9698   0.662   0.448   0.214
 2933SOL    HW2 9699   0.781   0.387   0.120
 2934SOL     OW 9700   5.525   4.929   2.383
 2934SOL    HW1 9701   5.601   4.909   2.320
 2934SOL    HW2 9702   5.444   4.879   2.354
 2935SOL     OW 9703   0.953   3.950   5.837
 2935SOL    HW1 9704   0.905   3.973   5.921
 2935SOL    HW2 9705   1.046   3.919   5.858
 2936SOL     OW 9706   4.178   6.415   2.411
 2936SOL    HW1 9707   4.084   6.391   2.437
 2936SOL    HW2 9708   4.242   6.360   2.464
 2937SOL     OW 9709   6.110   3.438   3.401
 2937SOL    HW1 9710   6.130   3.412   3.307
 2937SOL    HW2 9711   6.026   3.393   3.431
 2938SOL     OW 9712   0.713   5.225   1.223
 2938SOL    HW1 9713   0.739   5.170   1.144
 2938SOL    HW2 9714   0.676   5.313   1.193
 2939SOL     OW 9715   5.878   6.298   2.002
 2939SOL    HW1 9716   5.895   6.243   1.920
 2939SOL    HW2 9717   5.856   6.238   2.079
 2940SOL     OW 9718   5.008   5.914   3.643
 2940SOL    HW1 9719   4.920   5.920   3.595
 2940SOL    HW2 9720   5.033   6.005   3.676
 2941SOL     OW 9721   2.661   4.997   2.804
 2941SOL    HW1 9722   2.656   4.981   2.706
 2941SOL    HW2 9723   2.701   5.087   2.822
 2942SOL     OW 9724   3.194   1.945   1.500
 2942SOL    HW1 9725   3.274   2.004   1.488
 2942SOL    HW2 9726   3.161   1.952   1.594
 2943SOL     OW 9727   0.639   3.813   3.526
 2943SOL    HW1 9728   0.727   3.783   3.563
 2943SOL    HW2 9729   0.565   3.773   3.581
 2944SOL     OW 9730   1.023   5.475   3.287
 2944SOL    HW1 9731   1.010   5.517   3.377
 2944SOL    HW2 9732   1.117   5.441   3.280
 2945SOL     OW 9733   5.810   4.020   0.435
 2945SOL    HW1 9734   5.828   4.115   0.407
 2945SOL    HW2 9735   5.897   3.974   0.452
 2946SOL     OW 9736   3.697   4.128   4.650
 2946SOL    HW1 9737   3.600   4.110   4.638
 2946SOL    HW2 9738   3.730   4.186   4.575
 2947SOL     OW 9739   6.482   6.133   0.245
 2947SOL    HW1 9740   6.385   6.154   0.235
 2947SOL    HW2 9741   6.529   6.148   0.159
 2948SOL     OW 9742   6.353   4.687   0.539
 2948SOL    HW1 9743   6.373   4.594   0.509
 2948SOL    HW2 9744   6.376   4.696   0.636
 2949SOL     OW 9745   2.053   5.985   0.844
 2949SOL    HW1 9746   2.037   6.075   0.885
 2949SOL    HW2 9747   2.144   5.983   0.802
 2950SOL     OW 9748   5.473   5.464   2.118
 2950SOL    HW1 9749   5.470   5.382   2.060
 2950SOL    HW2 9750   5.440   5.441   2.209
 2951SOL     OW 9751   0.546   2.121   1.135
 2951SOL    HW1 9752   0.585   2.041   1.180
 2951SOL    HW2 9753   0.595   2.138   1.050
 2952SOL     OW 9754   0.534   1.795   4.471
 2952SOL    HW1 9755   0.492   1.838   4.391
 2952SOL    HW2 9756   0.496   1.835   4.554
 2953SOL     OW 9757   1.426   5.893   3.072
 2953SOL    HW1 9758   1.423   5.806   3.023
 2953SOL    HW2 9759   1.424   5.968   3.007
 2954SOL     OW 9760   0.825   4.220   6.516
 2954SOL    HW1 9761   0.896   4.154   6.539
 2954SOL    HW2 9762   0.745   4.172   6.479
 2955SOL     OW 9763   1.798   4.629   6.364
 2955SOL    HW1 9764   1.888   4.640   6.408
 2955SOL    HW2 9765   1.803   4.664   6.271
 2956SOL     OW 9766   5.866   3.515   4.890
 2956SOL    HW1 9767   5.912   3.432   4.923
 2956SOL    HW2 9768   5.926   3.563   4.826
 2957SOL     OW 9769   1.561   5.104   2.733
 2957SOL    HW1 9770   1.525   5.171   2.798
 2957SOL    HW2 9771   1.568   5.146   2.642
 2958SOL     OW 9772   1.648   4.274   1.113
 2958SOL    HW1 9773   1.639   4.239   1.020
 2958SOL    HW2 9774   1.702   4.210   1.168
 2959SOL     OW 9775   0.202   4.459   4.203
 2959SOL    HW1 9776   0.249   4.399   4.268
 2959SOL    HW2 9777   0.229   4.554   4.220
 2960SOL     OW 9778   4.967   6.431   0.987
 2960SOL    HW1 9779   5.042   6.394   1.043
 2960SOL    HW2 9780   4.882   6.384   1.010
 2961SOL     OW 9781   5.627   2.203   1.008
 2961SOL    HW1 9782   5.634   2.150   0.923
 2961SOL    HW2 9783   5.703   2.179   1.068
 2962SOL     OW 9784   0.265   0.293   3.715
 2962SOL    HW1 9785   0.330   0.325   3.784
 2962SOL    HW2 9786   0.294   0.325   3.625
 2963SOL     OW 9787   2.072   2.269   5.471
 2963SOL    HW1 9788   2.087   2.214   5.553
 2963SOL    HW2 9789   1.978   2.255   5.439
 2964SOL     OW 9790   1.291   1.362   5.836
 2964SOL    HW1 9791   1.215   1.298   5.845
 2964SOL    HW2 9792   1.274   1.425   5.760
 2965SOL     OW 9793   6.156   0.327   6.478
 2965SOL    HW1 9794   6.243   0.338   6.525
 2965SOL    HW2 9795   6.098   0.264   6.529
 2966SOL     OW 9796   3.352   6.330   2.982
 2966SOL    HW1 9797   3.299   6.378   2.913
 2966SOL    HW2 9798   3.310   6.241   3.000
 2967SOL     OW 9799   6.328   7.001   4.763
 2967SOL    HW1 9800   6.294   6.919   4.810
 2967SOL    HW2 9801   6.401   6.975   4.699
 2968SOL     OW 9802   1.524   3.787   1.987
 2968SOL    HW1 9803   1.555   3.863   1.929
 2968SOL    HW2 9804   1.598   3.760   2.049
 2969SOL     OW 9805   4.579   2.398   4.671
 2969SOL    HW1 9806   4.654   2.418   4.733
 2969SOL    HW2 9807   4.495   2.439   4.706
 2970SOL     OW 9808   3.210   2.523   6.017
 2970SOL    HW1 9809   3.116   2.552   6.034
 2970SOL    HW2 9810   3.210   2.432   5.976
 2971SOL     OW 9811   4.315   3.410   5.942
 2971SOL    HW1 9812   4.342   3.330   5.994
 2971SOL    HW2 9813   4.225   3.442   5.974
 2972SOL     OW 9814   0.496   6.245   6.556
 2972SOL    HW1 9815   0.571   6.305   6.526
 2972SOL    HW2 9816   0.433   6.296   6.614
 2973SOL     OW 9817   6.049   0.470   4.029
 2973SOL    HW1 9818   6.105   0.453   4.110
 2973SOL    HW2 9819   6.035   0.384   3.979
 2974SOL     OW 9820   5.130   6.036   2.591
 2974SOL    HW1 9821   5.193   6.112   2.608
 2974SOL    HW2 9822   5.109   5.990   2.678
 2975SOL     OW 9823   6.586   4.087   4.926
 2975SOL    HW1 9824   6.640   4.075   5.009
 2975SOL    HW2 9825   6.492   4.058   4.944
 2976SOL     OW 9826   4.014   0.588   1.365
 2976SOL    HW1 9827   4.067   0.573   1.281
 2976SOL    HW2 9828   3.953   0.510   1.380
 2977SOL     OW 9829   1.783   1.553   2.390
 2977SOL    HW1 9830   1.806   1.456   2.392
 2977SOL    HW2 9831   1.862   1.607   2.419
 2978SOL     OW 9832   3.821   6.157   0.217
 2978SOL    HW1 9833   3.791   6.250   0.197
 2978SOL    HW2 9834   3.920   6.157   0.233
 2979SOL     OW 9835   2.179   1.565   5.708
 2979SOL    HW1 9836   2.122   1.486   5.729
 2979SOL    HW2 9837   2.252   1.537   5.646
 2980SOL     OW 9838   3.080   3.040   3.931
 2980SOL    HW1 9839   3.171   3.080   3.920
 2980SOL    HW2 9840   3.081   2.945   3.901
 2981SOL     OW 9841   2.888   2.090   1.668
 2981SOL    HW1 9842   2.952   2.166   1.674
 2981SOL    HW2 9843   2.795   2.123   1.687
 2982SOL     OW 9844   1.228   0.583   1.706
 2982SOL    HW1 9845   1.309   0.615   1.757
 2982SOL    HW2 9846   1.175   0.663   1.676
 2983SOL     OW 9847   6.437   2.544   6.419
 2983SOL    HW1 9848   6.393   2.623   6.377
 2983SOL    HW2 9849   6.534   2.565   6.435
 2984SOL     OW 9850   0.585   6.570   1.071
 2984SOL    HW1 9851   0.541   6.544   0.985
 2984SOL    HW2 9852   0.683   6.581   1.056
 2985SOL     OW 9853   6.707   6.923   5.446
 2985SOL    HW1 9854   6.611   6.949   5.447
 2985SOL    HW2 9855   6.744   6.932   5.539
 2986SOL     OW 9856   4.181   3.481   2.806
 2986SOL    HW1 9857   4.267   3.481   2.754
 2986SOL    HW2 9858   4.137   3.392   2.797
 2987SOL     OW 9859   2.578   5.962   5.274
 2987SOL    HW1 9860   2.614   6.042   5.226
 2987SOL    HW2 9861   2.618   5.879   5.235
 2988SOL     OW 9862   0.543   1.877   6.498
 2988SOL    HW1 9863   0.643   1.869   6.498
 2988SOL    HW2 9864   0.511   1.895   6.405
 2989SOL     OW 9865   5.703   3.593   5.930
 2989SOL    HW1 9866   5.686   3.563   6.024
 2989SOL    HW2 9867   5.654   3.678   5.912
 2990SOL     OW 9868   4.696   1.177   4.774
 2990SOL    HW1 9869   4.705   1.091   4.824
 2990SOL    HW2 9870   4.627   1.168   4.703
 2991SOL     OW 9871   6.790   3.324   0.476
 2991SOL    HW1 9872   6.793   3.346   0.379
 2991SOL    HW2 9873   6.720   3.381   0.520
 2992SOL     OW 9874   1.481   4.058   4.935
 2992SOL    HW1 9875   1.410   4.082   5.002
 2992SOL    HW2 9876   1.442   4.062   4.843
 2993SOL     OW 9877   3.584   4.437   6.538
 2993SOL    HW1 9878   3.590   4.528   6.580
 2993SOL    HW2 9879   3.661   4.381   6.568
 2994SOL     OW 9880   2.723   5.008   4.599
 2994SOL    HW1 9881   2.655   4.934   4.598
 2994SOL    HW2 9882   2.814   4.969   4.591
 2995SOL     OW 9883   5.048   0.083   1.970
 2995SOL    HW1 9884   4.974   0.139   2.008
 2995SOL    HW2 9885   5.010   0.003   1.924
 2996SOL     OW 9886   0.415   0.765   4.124
 2996SOL    HW1 9887   0.320   0.792   4.139
 2996SOL    HW2 9888   0.439   0.776   4.028
 2997SOL     OW 9889   4.584   5.957   3.845
 2997SOL    HW1 9890   4.656   5.920   3.904
 2997SOL    HW2 9891   4.625   5.992   3.761
 2998SOL     OW 9892   2.489   0.137   2.321
 2998SOL    HW1 9893   2.437   0.112   2.239
 2998SOL    HW2 9894   2.525   0.054   2.364
 2999SOL     OW 9895   1.929   4.986   0.390
 2999SOL    HW1 9896   1.963   4.903   0.435
 2999SOL    HW2 9897   1.834   4.971   0.362
 3000SOL     OW 9898   1.809   3.885   5.904
 3000SOL    HW1 9899   1.869   3.870   5.983
 3000SOL    HW2 9900   1.793   3.983   5.892
 3001SOL     OW 9901   3.589   0.254   6.496
 3001SOL    HW1 9902   3.593   0.353   6.515
 3001SOL    HW2 9903   3.532   0.210   6.565
 3002SOL     OW 9904   1.216   2.328   2.072
 3002SOL    HW1 9905   1.214   2.319   1.973
 3002SOL    HW2 9906   1.187   2.420   2.097
 3003SOL     OW 9907   1.786   6.055   0.294
 3003SOL    HW1 9908   1.729   6.135   0.277
 3003SOL    HW2 9909   1.860   6.080   0.357
 3004SOL     OW 9910   3.006   0.579   4.513
 3004SOL    HW1 9911   2.939   0.646   4.481
 3004SOL    HW2 9912   2.958   0.496   4.544
 3005SOL     OW 9913   2.803   1.815   0.224
 3005SOL    HW1 9914   2.810   1.738   0.160
 3005SOL    HW2 9915   2.722   1.804   0.281
 3006SOL     OW 9916   5.556   0.748   6.155
 3006SOL    HW1 9917   5.504   0.664   6.151
 3006SOL    HW2 9918   5.651   0.727   6.179
 3007SOL     OW 9919   6.028   5.781   5.646
 3007SOL    HW1 9920   6.015   5.684   5.668
 3007SOL    HW2 9921   6.124   5.797   5.623
 3008SOL     OW 9922   5.507   3.924   5.627
 3008SOL    HW1 9923   5.510   3.839   5.574
 3008SOL    HW2 9924   5.547   3.909   5.717
 3009SOL     OW 9925   5.515   3.854   1.724
 3009SOL    HW1 9926   5.417   3.860   1.742
 3009SOL    HW2 9927   5.549   3.767   1.759
 3010SOL     OW 9928   4.359   4.777   1.426
 3010SOL    HW1 9929   4.457   4.765   1.444
 3010SOL    HW2 9930   4.341   4.872   1.400
 3011SOL     OW 9931   5.929   6.968   0.532
 3011SOL    HW1 9932   5.844   6.998   0.488
 3011SOL    HW2 9933   5.922   6.983   0.631
 3012SOL     OW 9934   2.602   1.333   4.616
 3012SOL    HW1 9935   2.672   1.300   4.679
 3012SOL    HW2 9936   2.542   1.257   4.590
 3013SOL     OW 9937   0.330   5.583   5.234
 3013SOL    HW1 9938   0.354   5.496   5.276
 3013SOL    HW2 9939   0.230   5.589   5.225
 3014SOL     OW 9940   4.175   0.631   0.344
 3014SOL    HW1 9941   4.101   0.669   0.288
 3014SOL    HW2 9942   4.207   0.545   0.305
 3015SOL     OW 9943   2.224   6.391   6.489
 3015SOL    HW1 9944   2.248   6.479   6.447
 3015SOL    HW2 9945   2.156   6.406   6.561
 3016SOL     OW 9946   3.284   0.750   4.537
 3016SOL    HW1 9947   3.190   0.725   4.515
 3016SOL    HW2 9948   3.344   0.670   4.523
 3017SOL     OW 9949   1.376   5.969   0.535
 3017SOL    HW1 9950   1.463   5.921   0.522
 3017SOL    HW2 9951   1.322   5.921   0.605
 3018SOL     OW 9952   2.578   2.704   1.705
 3018SOL    HW1 9953   2.525   2.660   1.631
 3018SOL    HW2 9954   2.541   2.676   1.793
 3019SOL     OW 9955   1.096   0.866   5.973
 3019SOL    HW1 9956   1.147   0.893   6.054
 3019SOL    HW2 9957   1.108   0.936   5.902
 3020SOL     OW 9958   5.405   4.345   6.440
 3020SOL    HW1 9959   5.339   4.285   6.394
 3020SOL    HW2 9960   5.454   4.294   6.510
 3021SOL     OW 9961   4.443   6.498   4.265
 3021SOL    HW1 9962   4.458   6.590   4.228
 3021SOL    HW2 9963   4.393   6.505   4.352
 3022SOL     OW 9964   3.685   6.853   3.197
 3022SOL    HW1 9965   3.681   6.942   3.243
 3022SOL    HW2 9966   3.774   6.811   3.214
 3023SOL     OW 9967   5.313   4.243   4.470
 3023SOL    HW1 9968   5.285   4.254   4.565
 3023SOL    HW2 9969   5.247   4.184   4.423
 3024SOL     OW 9970   6.185   1.448   6.858
 3024SOL    HW1 9971   6.225   1.533   6.824
 3024SOL    HW2 9972   6.257   1.391   6.897
 3025SOL     OW 9973   4.045   5.231   0.681
 3025SOL    HW1 9974   4.085   5.250   0.770
 3025SOL    HW2 9975   4.113   5.249   0.610
 3026SOL     OW 9976   0.104   6.953   2.550
 3026SOL    HW1 9977   0.152   6.988   2.470
 3026SOL    HW2 9978   0.171   6.923   2.619
 3027SOL     OW 9979   4.490   0.300   0.645
 3027SOL    HW1 9980   4.441   0.376   0.689
 3027SOL    HW2 9981   4.424   0.230   0.618
 3028SOL     OW 9982   4.136   3.313   4.127
 3028SOL    HW1 9983   4.235   3.304   4.132
 3028SOL    HW2 9984   4.101   3.260   4.050
 3029SOL     OW 9985   6.511   2.520   4.387
 3029SOL    HW1 9986   6.538   2.611   4.356
 3029SOL    HW2 9987   6.472   2.527   4.479
 3030SOL     OW 9988   0.347   3.842   6.499
 3030SOL    HW1 9989   0.312   3.884   6.415
 3030SOL    HW2 9990   0.420   3.777   6.476
 3031SOL     OW 9991   0.355   4.711   6.790
 3031SOL    HW1 9992   0.282   4.736   6.853
 3031SOL    HW2 9993   0.364   4.781   6.720
 3032SOL     OW 9994   3.500   7.019   4.023
 3032SOL    HW1 9995   3.559   0.075   4.016
 3032SOL    HW2 9996   3.551   6.943   4.063
 3033SOL     OW 9997   2.161   0.865   6.712
 3033SOL    HW1 9998   2.229   0.864   6.786
 3033SOL    HW2 9999   2.196   0.918   6.636
 3034SOL     OW10000   5.478   3.235   3.236
 3034SOL    HW110001   5.513   3.150   3.277
 3034SOL    HW210002   5.392   3.216   3.189
 3035SOL     OW10003   6.690   4.223   6.295
 3035SOL    HW110004   6.785   4.254   6.295
 3035SOL    HW210005   6.686   4.130   6.258
 3036SOL     OW10006   3.372   2.412   6.239
 3036SOL    HW110007   3.398   2.438   6.146
 3036SOL    HW210008   3.275   2.388   6.241
 3037SOL     OW10009   0.334   5.450   5.900
 3037SOL    HW110010   0.304   5.380   5.964
 3037SOL    HW210011   0.288   5.537   5.921
 3038SOL     OW10012   5.678   4.825   5.538
 3038SOL    HW110013   5.650   4.904   5.483
 3038SOL    HW210014   5.715   4.857   5.625
 3039SOL     OW10015   6.073   3.327   6.672
 3039SOL    HW110016   6.082   3.369   6.582
 3039SOL    HW210017   5.991   3.363   6.717
 3040SOL     OW10018   4.333   6.357   6.586
 3040SOL    HW110019   4.413   6.414   6.606
 3040SOL    HW210020   4.282   6.396   6.510
 3041SOL     OW10021   2.289   5.901   6.272
 3041SOL    HW110022   2.362   5.875   6.335
 3041SOL    HW210023   2.277   6.000   6.274
 3042SOL     OW10024   0.380   5.413   3.996
 3042SOL    HW110025   0.471   5.383   3.968
 3042SOL    HW210026   0.336   5.341   4.049
 3043SOL     OW10027   2.470   3.735   1.086
 3043SOL    HW110028   2.371   3.724   1.085
 3043SOL    HW210029   2.502   3.749   1.180
 3044SOL     OW10030   3.872   3.496   4.258
 3044SOL    HW110031   3.933   3.575   4.264
 3044SOL    HW210032   3.792   3.520   4.202
 3045SOL     OW10033   6.072   0.292   3.099
 3045SOL    HW110034   6.124   0.287   3.184
 3045SOL    HW210035   5.974   0.292   3.119
 3046SOL     OW10036   6.684   5.897   1.249
 3046SOL    HW110037   6.585   5.913   1.252
 3046SOL    HW210038   6.702   5.799   1.237
 3047SOL     OW10039   4.529   1.695   3.584
 3047SOL    HW110040   4.547   1.738   3.495
 3047SOL    HW210041   4.497   1.765   3.648
 3048SOL     OW10042   4.537   5.349   0.952
 3048SOL    HW110043   4.442   5.320   0.968
 3048SOL    HW210044   4.589   5.274   0.913
 3049SOL     OW10045   0.407   0.673   1.174
 3049SOL    HW110046   0.424   0.676   1.076
 3049SOL    HW210047   0.494   0.671   1.223
 3050SOL     OW10048   3.851   2.371   5.605
 3050SOL    HW110049   3.756   2.385   5.633
 3050SOL    HW210050   3.884   2.452   5.556
 3051SOL     OW10051   1.825   4.168   5.976
 3051SOL    HW110052   1.913   4.128   5.951
 3051SOL    HW210053   1.839   4.261   6.009
 3052SOL     OW10054   6.124   6.030   3.970
 3052SOL    HW110055   6.057   6.027   4.043
 3052SOL    HW210056   6.133   5.939   3.929
 3053SOL     OW10057   0.421   5.956   6.122
 3053SOL    HW110058   0.355   5.952   6.196
 3053SOL    HW210059   0.479   5.875   6.124
 3054SOL     OW10060   6.090   6.563   3.533
 3054SOL    HW110061   6.188   6.584   3.524
 3054SOL    HW210062   6.038   6.621   3.470
 3055SOL     OW10063   5.108   6.741   0.619
 3055SOL    HW110064   5.058   6.746   0.705
 3055SOL    HW210065   5.160   6.655   0.615
 3056SOL     OW10066   4.143   1.634   0.784
 3056SOL    HW110067   4.075   1.579   0.831
 3056SOL    HW210068   4.125   1.731   0.801
 3057SOL     OW10069   6.842   2.974   3.096
 3057SOL    HW110070   6.809   3.046   3.034
 3057SOL    HW210071   6.941   2.966   3.086
 3058SOL     OW10072   5.735   3.571   6.601
 3058SOL    HW110073   5.811   3.633   6.582
 3058SOL    HW210074   5.763   3.477   6.581
 3059SOL     OW10075   1.729   2.530   3.513
 3059SOL    HW110076   1.828   2.527   3.500
 3059SOL    HW210077   1.695   2.620   3.487
 3060SOL     OW10078   5.738   3.186   3.833
 3060SOL    HW110079   5.652   3.210   3.787
 3060SOL    HW210080   5.767   3.263   3.890
 3061SOL     OW10081   5.434   6.521   2.696
 3061SOL    HW110082   5.410   6.440   2.750
 3061SOL    HW210083   5.498   6.577   2.747
 3062SOL     OW10084   3.545   5.248   0.164
 3062SOL    HW110085   3.520   5.152   0.177
 3062SOL    HW210086   3.630   5.254   0.112
 3063SOL     OW10087   6.480   5.293   0.731
 3063SOL    HW110088   6.515   5.204   0.762
 3063SOL    HW210089   6.526   5.366   0.781
 3064SOL     OW10090   4.905   0.895   5.921
 3064SOL    HW110091   4.912   0.887   5.821
 3064SOL    HW210092   4.838   0.967   5.943
 3065SOL     OW10093   5.112   0.883   6.589
 3065SOL    HW110094   5.193   0.926   6.628
 3065SOL    HW210095   5.071   0.821   6.656
 3066SOL     OW10096   4.903   6.608   5.533
 3066SOL    HW110097   4.825   6.582   5.477
 3066SOL    HW210098   4.985   6.612   5.476
 3067SOL     OW10099   1.485   2.455   4.602
 3067SOL    HW110100   1.391   2.428   4.622
 3067SOL    HW210101   1.494   2.554   4.613
 3068SOL     OW10102   5.920   0.021   0.806
 3068SOL    HW110103   5.830   0.062   0.816
 3068SOL    HW210104   5.950   7.008   0.894
 3069SOL     OW10105   5.855   6.045   3.612
 3069SOL    HW110106   5.877   5.949   3.628
 3069SOL    HW210107   5.918   6.103   3.662
 3070SOL     OW10108   2.649   1.535   0.888
 3070SOL    HW110109   2.639   1.610   0.953
 3070SOL    HW210110   2.746   1.520   0.867
 3071SOL     OW10111   5.792   4.540   4.513
 3071SOL    HW110112   5.863   4.490   4.463
 3071SOL    HW210113   5.820   4.551   4.608
 3072SOL     OW10114   1.974   6.405   4.847
 3072SOL    HW110115   2.000   6.335   4.912
 3072SOL    HW210116   1.881   6.387   4.813
 3073SOL     OW10117   0.276   5.076   3.388
 3073SOL    HW110118   0.192   5.130   3.380
 3073SOL    HW210119   0.355   5.137   3.390
 3074SOL     OW10120   3.406   3.080   2.117
 3074SOL    HW110121   3.320   3.067   2.069
 3074SOL    HW210122   3.476   3.022   2.076
 3075SOL     OW10123   3.662   4.805   0.443
 3075SOL    HW110124   3.731   4.786   0.374
 3075SOL    HW210125   3.578   4.756   0.422
 3076SOL     OW10126   1.665   1.348   4.163
 3076SOL    HW110127   1.625   1.403   4.236
 3076SOL    HW210128   1.758   1.380   4.144
 3077SOL     OW10129   6.780   3.413   2.582
 3077SOL    HW110130   6.839   3.493   2.595
 3077SOL    HW210131   6.685   3.439   2.594
 3078SOL     OW10132   6.183   4.263   1.241
 3078SOL    HW110133   6.171   4.258   1.340
 3078SOL    HW210134   6.166   4.357   1.211
 3079SOL     OW10135   0.385   4.063   2.789
 3079SOL    HW110136   0.361   4.155   2.820
 3079SOL    HW210137   0.479   4.062   2.757
 3080SOL     OW10138   3.734   4.660   1.609
 3080SOL    HW110139   3.817   4.607   1.627
 3080SOL    HW210140   3.675   4.658   1.689
 3081SOL     OW10141   1.724   2.878   6.290
 3081SOL    HW110142   1.681   2.789   6.306
 3081SOL    HW210143   1.728   2.896   6.191
 3082SOL     OW10144   5.910   4.038   5.045
 3082SOL    HW110145   5.930   4.130   5.080
 3082SOL    HW210146   5.971   4.017   4.969
 3083SOL     OW10147   3.869   5.997   1.289
 3083SOL    HW110148   3.808   6.077   1.293
 3083SOL    HW210149   3.963   6.027   1.275
 3084SOL     OW10150   0.012   5.238   4.180
 3084SOL    HW110151   7.019   5.140   4.184
 3084SOL    HW210152   0.106   5.254   4.149
 3085SOL     OW10153   6.475   5.530   6.007
 3085SOL    HW110154   6.382   5.513   6.041
 3085SOL    HW210155   6.470   5.561   5.912
 3086SOL     OW10156   6.015   6.178   6.072
 3086SOL    HW110157   6.055   6.255   6.021
 3086SOL    HW210158   5.967   6.211   6.153
 3087SOL     OW10159   3.063   0.196   1.581
 3087SOL    HW110160   3.162   0.186   1.568
 3087SOL    HW210161   3.018   0.190   1.492
 3088SOL     OW10162   2.368   3.167   5.415
 3088SOL    HW110163   2.441   3.188   5.480
 3088SOL    HW210164   2.404   3.117   5.337
 3089SOL     OW10165   3.859   7.015   0.345
 3089SOL    HW110166   3.826   6.950   0.414
 3089SOL    HW210167   3.789   0.002   0.275
 3090SOL     OW10168   1.665   2.707   2.546
 3090SOL    HW110169   1.597   2.779   2.562
 3090SOL    HW210170   1.628   2.638   2.485
 3091SOL     OW10171   1.540   2.521   6.211
 3091SOL    HW110172   1.587   2.520   6.300
 3091SOL    HW210173   1.495   2.433   6.196
 3092SOL     OW10174   4.893   2.049   3.146
 3092SOL    HW110175   4.795   2.045   3.166
 3092SOL    HW210176   4.923   1.960   3.110
 3093SOL     OW10177   6.167   5.506   6.697
 3093SOL    HW110178   6.237   5.438   6.721
 3093SOL    HW210179   6.196   5.596   6.728
 3094SOL     OW10180   2.606   0.817   5.678
 3094SOL    HW110181   2.567   0.862   5.597
 3094SOL    HW210182   2.544   0.744   5.708
 3095SOL     OW10183   1.967   3.858   6.154
 3095SOL    HW110184   2.023   3.785   6.195
 3095SOL    HW210185   1.970   3.939   6.213
 3096SOL     OW10186   1.959   3.238   3.749
 3096SOL    HW110187   2.035   3.173   3.745
 3096SOL    HW210188   1.875   3.190   3.774
 3097SOL     OW10189   5.473   2.829   6.238
 3097SOL    HW110190   5.532   2.773   6.179
 3097SOL    HW210191   5.420   2.892   6.181
 3098SOL     OW10192   1.714   3.761   2.192
 3098SOL    HW110193   1.679   3.734   2.282
 3098SOL    HW210194   1.758   3.850   2.199
 3099SOL     OW10195   0.273   0.025   5.781
 3099SOL    HW110196   0.346   0.093   5.773
 3099SOL    HW210197   0.218   0.044   5.862
 3100SOL     OW10198   6.434   3.917   2.608
 3100SOL    HW110199   6.403   3.846   2.671
 3100SOL    HW210200   6.493   3.981   2.657
 3101SOL     OW10201   5.361   0.775   3.960
 3101SOL    HW110202   5.430   0.811   3.897
 3101SOL    HW210203   5.392   0.688   3.997
 3102SOL     OW10204   5.895   3.757   3.128
 3102SOL    HW110205   5.853   3.810   3.054
 3102SOL    HW210206   5.915   3.665   3.096
 3103SOL     OW10207   1.288   1.112   2.616
 3103SOL    HW110208   1.246   1.184   2.672
 3103SOL    HW210209   1.234   1.098   2.534
 3104SOL     OW10210   5.781   1.743   6.397
 3104SOL    HW110211   5.803   1.657   6.443
 3104SOL    HW210212   5.864   1.783   6.359
 3105SOL     OW10213   5.884   4.205   0.682
 3105SOL    HW110214   5.878   4.159   0.771
 3105SOL    HW210215   5.913   4.139   0.613
 3106SOL     OW10216   5.170   2.089   5.546
 3106SOL    HW110217   5.233   2.058   5.475
 3106SOL    HW210218   5.216   2.086   5.635
 3107SOL     OW10219   4.095   2.236   4.764
 3107SOL    HW110220   4.150   2.156   4.786
 3107SOL    HW210221   4.102   2.303   4.839
 3108SOL     OW10222   1.965   4.194   3.948
 3108SOL    HW110223   1.983   4.099   3.924
 3108SOL    HW210224   2.052   4.243   3.957
 3109SOL     OW10225   0.208   5.338   3.665
 3109SOL    HW110226   0.131   5.328   3.728
 3109SOL    HW210227   0.177   5.326   3.571
 3110SOL     OW10228   1.322   5.876   4.196
 3110SOL    HW110229   1.392   5.852   4.129
 3110SOL    HW210230   1.340   5.829   4.282
 3111SOL     OW10231   6.733   3.665   4.199
 3111SOL    HW110232   6.724   3.720   4.282
 3111SOL    HW210233   6.649   3.614   4.183
 3112SOL     OW10234   4.365   0.759   1.249
 3112SOL    HW110235   4.402   0.668   1.231
 3112SOL    HW210236   4.396   0.791   1.338
 3113SOL     OW10237   1.227   6.729   4.236
 3113SOL    HW110238   1.155   6.695   4.297
 3113SOL    HW210239   1.266   6.653   4.184
 3114SOL     OW10240   5.042   5.694   5.533
 3114SOL    HW110241   4.957   5.746   5.525
 3114SOL    HW210242   5.092   5.725   5.614
 3115SOL     OW10243   4.886   6.081   5.036
 3115SOL    HW110244   4.813   6.026   4.996
 3115SOL    HW210245   4.965   6.081   4.975
 3116SOL     OW10246   1.053   2.401   6.499
 3116SOL    HW110247   1.087   2.488   6.533
 3116SOL    HW210248   1.067   2.330   6.569
 3117SOL     OW10249   4.352   0.194   1.699
 3117SOL    HW110250   4.437   0.152   1.733
 3117SOL    HW210251   4.280   0.183   1.767
 3118SOL     OW10252   1.017   2.217   3.284
 3118SOL    HW110253   1.088   2.271   3.238
 3118SOL    HW210254   0.927   2.255   3.262
 3119SOL     OW10255   4.545   6.596   3.796
 3119SOL    HW110256   4.575   6.512   3.842
 3119SOL    HW210257   4.483   6.646   3.857
 3120SOL     OW10258   3.655   6.369   6.308
 3120SOL    HW110259   3.560   6.375   6.338
 3120SOL    HW210260   3.712   6.426   6.367
 3121SOL     OW10261   3.691   1.909   3.043
 3121SOL    HW110262   3.776   1.874   3.003
 3121SOL    HW210263   3.618   1.841   3.031
 3122SOL     OW10264   5.650   3.503   6.181
 3122SOL    HW110265   5.614   3.417   6.217
 3122SOL    HW210266   5.601   3.580   6.223
 3123SOL     OW10267   2.121   3.152   2.339
 3123SOL    HW110268   2.137   3.193   2.250
 3123SOL    HW210269   2.150   3.056   2.339
 3124SOL     OW10270   4.810   6.671   5.787
 3124SOL    HW110271   4.817   6.652   5.689
 3124SOL    HW210272   4.757   6.599   5.831
 3125SOL     OW10273   1.587   1.958   5.095
 3125SOL    HW110274   1.605   1.974   5.192
 3125SOL    HW210275   1.555   1.864   5.082
 3126SOL     OW10276   4.757   4.489   5.568
 3126SOL    HW110277   4.818   4.448   5.500
 3126SOL    HW210278   4.662   4.462   5.548
 3127SOL     OW10279   6.013   1.885   5.848
 3127SOL    HW110280   6.021   1.927   5.938
 3127SOL    HW210281   6.046   1.790   5.852
 3128SOL     OW10282   4.253   1.346   1.220
 3128SOL    HW110283   4.162   1.330   1.181
 3128SOL    HW210284   4.245   1.408   1.298
 3129SOL     OW10285   4.387   4.772   0.102
 3129SOL    HW110286   4.304   4.828   0.098
 3129SOL    HW210287   4.467   4.832   0.095
 3130SOL     OW10288   6.906   5.889   2.474
 3130SOL    HW110289   6.925   5.901   2.377
 3130SOL    HW210290   6.942   5.967   2.525
 3131SOL     OW10291   6.928   2.205   3.384
 3131SOL    HW110292   6.861   2.238   3.449
 3131SOL    HW210293   7.000   2.155   3.432
 3132SOL     OW10294   4.467   3.863   6.447
 3132SOL    HW110295   4.479   3.784   6.386
 3132SOL    HW210296   4.403   3.839   6.520
 3133SOL     OW10297   6.008   6.212   3.779
 3133SOL    HW110298   6.077   6.277   3.812
 3133SOL    HW210299   5.980   6.153   3.854
 3134SOL     OW10300   4.448   5.162   2.756
 3134SOL    HW110301   4.362   5.214   2.755
 3134SOL    HW210302   4.437   5.079   2.703
 3135SOL     OW10303   3.689   0.740   6.253
 3135SOL    HW110304   3.722   0.827   6.288
 3135SOL    HW210305   3.765   0.677   6.242
 3136SOL     OW10306   6.495   6.595   2.220
 3136SOL    HW110307   6.449   6.583   2.308
 3136SOL    HW210308   6.497   6.693   2.197
 3137SOL     OW10309   5.152   4.325   6.671
 3137SOL    HW110310   5.164   4.259   6.597
 3137SOL    HW210311   5.097   4.285   6.744
 3138SOL     OW10312   6.759   6.537   4.616
 3138SOL    HW110313   6.854   6.568   4.614
 3138SOL    HW210314   6.700   6.607   4.577
 3139SOL     OW10315   1.011   4.756   2.034
 3139SOL    HW110316   0.934   4.804   2.075
 3139SOL    HW210317   1.079   4.822   2.003
 3140SOL     OW10318   5.077   5.986   0.225
 3140SOL    HW110319   5.091   5.909   0.287
 3140SOL    HW210320   4.981   5.988   0.196
 3141SOL     OW10321   6.005   2.191   0.355
 3141SOL    HW110322   6.009   2.285   0.324
 3141SOL    HW210323   5.931   2.181   0.422
 3142SOL     OW10324   4.658   0.693   3.937
 3142SOL    HW110325   4.704   0.609   3.909
 3142SOL    HW210326   4.561   0.676   3.950
 3143SOL     OW10327   6.190   1.681   0.686
 3143SOL    HW110328   6.187   1.623   0.604
 3143SOL    HW210329   6.201   1.624   0.767
 3144SOL     OW10330   3.873   4.897   6.510
 3144SOL    HW110331   3.972   4.907   6.501
 3144SOL    HW210332   3.827   4.976   6.471
 3145SOL     OW10333   0.805   6.067   5.732
 3145SOL    HW110334   0.820   6.149   5.677
 3145SOL    HW210335   0.777   6.094   5.824
 3146SOL     OW10336   6.597   1.755   4.306
 3146SOL    HW110337   6.515   1.786   4.353
 3146SOL    HW210338   6.584   1.661   4.275
 3147SOL     OW10339   4.459   6.984   0.796
 3147SOL    HW110340   4.505   0.037   0.839
 3147SOL    HW210341   4.405   7.016   0.719
 3148SOL     OW10342   5.872   5.071   0.282
 3148SOL    HW110343   5.886   5.000   0.212
 3148SOL    HW210344   5.952   5.074   0.343
 3149SOL     OW10345   3.834   3.250   0.026
 3149SOL    HW110346   3.903   3.316   7.020
 3149SOL    HW210347   3.801   3.275   0.117
 3150SOL     OW10348   0.307   0.167   5.142
 3150SOL    HW110349   0.335   0.199   5.232
 3150SOL    HW210350   0.267   0.243   5.090
 3151SOL     OW10351   0.077   1.269   6.155
 3151SOL    HW110352   0.022   1.331   6.099
 3151SOL    HW210353   0.055   1.282   6.252
 3152SOL     OW10354   2.970   2.070   5.704
 3152SOL    HW110355   2.922   1.992   5.664
 3152SOL    HW210356   2.982   2.141   5.634
 3153SOL     OW10357   6.254   5.797   1.845
 3153SOL    HW110358   6.237   5.750   1.932
 3153SOL    HW210359   6.308   5.737   1.786
 3154SOL     OW10360   3.388   2.238   0.862
 3154SOL    HW110361   3.336   2.166   0.909
 3154SOL    HW210362   3.334   2.272   0.785
 3155SOL     OW10363   0.503   5.995   6.733
 3155SOL    HW110364   0.474   5.900   6.744
 3155SOL    HW210365   0.558   6.004   6.650
 3156SOL     OW10366   3.189   3.764   0.925
 3156SOL    HW110367   3.246   3.846   0.931
 3156SOL    HW210368   3.101   3.787   0.885
 3157SOL     OW10369   1.337   1.267   3.807
 3157SOL    HW110370   1.326   1.365   3.821
 3157SOL    HW210371   1.331   1.246   3.710
 3158SOL     OW10372   2.615   0.475   6.297
 3158SOL    HW110373   2.712   0.466   6.276
 3158SOL    HW210374   2.604   0.502   6.393
 3159SOL     OW10375   4.612   6.176   1.318
 3159SOL    HW110376   4.550   6.222   1.255
 3159SOL    HW210377   4.560   6.139   1.395
 3160SOL     OW10378   2.531   0.945   5.423
 3160SOL    HW110379   2.524   0.849   5.396
 3160SOL    HW210380   2.497   1.002   5.348
 3161SOL     OW10381   1.803   2.684   1.553
 3161SOL    HW110382   1.824   2.587   1.553
 3161SOL    HW210383   1.873   2.733   1.606
 3162SOL     OW10384   1.138   5.740   1.852
 3162SOL    HW110385   1.206   5.722   1.781
 3162SOL    HW210386   1.089   5.824   1.832
 3163SOL     OW10387   5.182   4.436   1.291
 3163SOL    HW110388   5.139   4.485   1.215
 3163SOL    HW210389   5.114   4.419   1.362
 3164SOL     OW10390   2.354   0.511   3.876
 3164SOL    HW110391   2.262   0.500   3.839
 3164SOL    HW210392   2.411   0.434   3.849
 3165SOL     OW10393   0.379   5.767   6.838
 3165SOL    HW110394   0.425   5.714   6.768
 3165SOL    HW210395   0.280   5.753   6.831
 3166SOL     OW10396   3.762   1.660   4.847
 3166SOL    HW110397   3.814   1.735   4.887
 3166SOL    HW210398   3.786   1.575   4.893
 3167SOL     OW10399   6.664   3.312   1.959
 3167SOL    HW110400   6.669   3.321   1.860
 3167SOL    HW210401   6.725   3.238   1.989
 3168SOL     OW10402   5.285   1.249   0.902
 3168SOL    HW110403   5.218   1.272   0.973
 3168SOL    HW210404   5.238   1.218   0.819
 3169SOL     OW10405   0.783   2.595   2.055
 3169SOL    HW110406   0.787   2.623   2.151
 3169SOL    HW210407   0.836   2.511   2.043
 3170SOL     OW10408   2.197   4.370   4.025
 3170SOL    HW110409   2.283   4.378   4.074
 3170SOL    HW210410   2.191   4.443   3.956
 3171SOL     OW10411   5.360   1.477   5.027
 3171SOL    HW110412   5.284   1.477   5.092
 3171SOL    HW210413   5.362   1.564   4.979
 3172SOL     OW10414   5.942   3.971   1.208
 3172SOL    HW110415   5.926   4.057   1.255
 3172SOL    HW210416   5.882   3.965   1.128
 3173SOL     OW10417   4.947   4.158   0.326
 3173SOL    HW110418   4.950   4.248   0.282
 3173SOL    HW210419   4.906   4.092   0.264
 3174SOL     OW10420   2.720   3.039   6.749
 3174SOL    HW110421   2.733   3.137   6.762
 3174SOL    HW210422   2.774   2.988   6.817
 3175SOL     OW10423   6.076   5.832   5.303
 3175SOL    HW110424   6.087   5.737   5.333
 3175SOL    HW210425   6.132   5.892   5.360
 3176SOL     OW10426   0.039   5.030   3.633
 3176SOL    HW110427   0.128   5.075   3.626
 3176SOL    HW210428   0.053   4.931   3.637
 3177SOL     OW10429   5.374   2.649   1.969
 3177SOL    HW110430   5.348   2.708   2.045
 3177SOL    HW210431   5.294   2.629   1.912
 3178SOL     OW10432   1.068   0.712   2.906
 3178SOL    HW110433   1.140   0.749   2.847
 3178SOL    HW210434   1.102   0.706   3.000
 3179SOL     OW10435   0.946   3.756   2.520
 3179SOL    HW110436   0.928   3.745   2.423
 3179SOL    HW210437   0.926   3.671   2.568
 3180SOL     OW10438   5.954   0.274   6.867
 3180SOL    HW110439   5.997   0.332   6.798
 3180SOL    HW210440   5.860   0.253   6.839
 3181SOL     OW10441   0.286   6.473   4.944
 3181SOL    HW110442   0.350   6.397   4.957
 3181SOL    HW210443   0.199   6.439   4.909
 3182SOL     OW10444   1.556   0.013   1.342
 3182SOL    HW110445   1.519   6.951   1.375
 3182SOL    HW210446   1.552   0.015   1.242
 3183SOL     OW10447   4.322   4.054   0.216
 3183SOL    HW110448   4.314   4.058   0.117
 3183SOL    HW210449   4.417   4.069   0.243
 3184SOL     OW10450   6.336   0.989   4.146
 3184SOL    HW110451   6.267   1.055   4.179
 3184SOL    HW210452   6.296   0.897   4.146
 3185SOL     OW10453   1.836   6.971   5.880
 3185SOL    HW110454   1.784   6.928   5.953
 3185SOL    HW210455   1.825   0.046   5.884
 3186SOL     OW10456   0.515   1.934   5.607
 3186SOL    HW110457   0.558   1.964   5.692
 3186SOL    HW210458   0.464   1.850   5.623
 3187SOL     OW10459   5.220   0.188   3.273
 3187SOL    HW110460   5.152   0.216   3.206
 3187SOL    HW210461   5.240   0.265   3.334
 3188SOL     OW10462   1.468   5.873   1.574
 3188SOL    HW110463   1.536   5.800   1.573
 3188SOL    HW210464   1.396   5.852   1.507
 3189SOL     OW10465   2.736   1.534   6.087
 3189SOL    HW110466   2.684   1.522   6.002
 3189SOL    HW210467   2.683   1.590   6.150
 3190SOL     OW10468   5.998   6.286   4.844
 3190SOL    HW110469   5.908   6.255   4.812
 3190SOL    HW210470   6.064   6.212   4.835
 3191SOL     OW10471   4.089   4.986   1.107
 3191SOL    HW110472   4.071   4.961   1.012
 3191SOL    HW210473   4.062   5.081   1.122
 3192SOL     OW10474   5.780   0.299   3.126
 3192SOL    HW110475   5.685   0.297   3.095
 3192SOL    HW210476   5.790   0.366   3.199
 3193SOL     OW10477   3.535   5.567   4.861
 3193SOL    HW110478   3.453   5.620   4.881
 3193SOL    HW210479   3.535   5.541   4.764
 3194SOL     OW10480   2.360   6.488   5.222
 3194SOL    HW110481   2.384   6.584   5.239
 3194SOL    HW210482   2.265   6.484   5.190
 3195SOL     OW10483   0.513   5.647   0.813
 3195SOL    HW110484   0.587   5.654   0.880
 3195SOL    HW210485   0.425   5.658   0.859
 3196SOL     OW10486   6.224   0.005   2.514
 3196SOL    HW110487   6.134   0.016   2.557
 3196SOL    HW210488   6.290   0.064   2.559
 3197SOL     OW10489   2.917   0.764   0.004
 3197SOL    HW110490   2.886   0.719   0.087
 3197SOL    HW210491   3.010   0.799   0.018
 3198SOL     OW10492   5.328   3.931   4.040
 3198SOL    HW110493   5.247   3.962   4.089
 3198SOL    HW210494   5.338   3.832   4.051
 3199SOL     OW10495   4.895   3.674   3.762
 3199SOL    HW110496   4.956   3.753   3.762
 3199SOL    HW210497   4.858   3.661   3.670
 3200SOL     OW10498   6.307   3.478   4.896
 3200SOL    HW110499   6.370   3.402   4.909
 3200SOL    HW210500   6.306   3.534   4.979
 3201SOL     OW10501   6.527   3.510   2.627
 3201SOL    HW110502   6.493   3.579   2.692
 3201SOL    HW210503   6.470   3.511   2.545
 3202SOL     OW10504   2.902   2.692   6.260
 3202SOL    HW110505   2.938   2.733   6.176
 3202SOL    HW210506   2.922   2.752   6.338
 3203SOL     OW10507   3.231   6.550   1.665
 3203SOL    HW110508   3.236   6.589   1.573
 3203SOL    HW210509   3.316   6.504   1.687
 3204SOL     OW10510   5.024   0.625   3.675
 3204SOL    HW110511   5.013   0.708   3.620
 3204SOL    HW210512   5.032   0.546   3.615
 3205SOL     OW10513   4.489   3.009   7.006
 3205SOL    HW110514   4.573   3.062   7.018
 3205SOL    HW210515   4.511   2.921   6.964
 3206SOL     OW10516   2.993   4.880   0.397
 3206SOL    HW110517   2.914   4.876   0.336
 3206SOL    HW210518   3.072   4.840   0.351
 3207SOL     OW10519   2.053   6.555   3.555
 3207SOL    HW110520   2.070   6.549   3.653
 3207SOL    HW210521   2.038   6.650   3.529
 3208SOL     OW10522   0.073   3.876   6.956
 3208SOL    HW110523   0.145   3.887   6.888
 3208SOL    HW210524   0.053   3.779   6.968
 3209SOL     OW10525   4.979   0.257   5.123
 3209SOL    HW110526   5.071   0.295   5.116
 3209SOL    HW210527   4.977   0.165   5.082
 3210SOL     OW10528   5.008   5.076   2.475
 3210SOL    HW110529   4.984   4.980   2.466
 3210SOL    HW210530   5.106   5.084   2.491
 3211SOL     OW10531   2.487   6.601   6.891
 3211SOL    HW110532   2.483   6.657   6.809
 3211SOL    HW210533   2.417   6.631   6.955
 3212SOL     OW10534   3.572   6.677   4.308
 3212SOL    HW110535   3.598   6.581   4.295
 3212SOL    HW210536   3.580   6.702   4.404
 3213SOL     OW10537   2.127   0.666   5.794
 3213SOL    HW110538   2.114   0.697   5.888
 3213SOL    HW210539   2.056   0.706   5.735
 3214SOL     OW10540   3.172   0.485   2.893
 3214SOL    HW110541   3.268   0.503   2.915
 3214SOL    HW210542   3.151   0.520   2.802
 3215SOL     OW10543   2.175   3.047   1.923
 3215SOL    HW110544   2.150   3.124   1.980
 3215SOL    HW210545   2.245   3.075   1.857
 3216SOL     OW10546   5.968   4.532   0.490
 3216SOL    HW110547   5.992   4.618   0.534
 3216SOL    HW210548   5.876   4.504   0.519
 3217SOL     OW10549   6.520   6.040   3.138
 3217SOL    HW110550   6.525   6.059   3.236
 3217SOL    HW210551   6.487   6.121   3.090
 3218SOL     OW10552   5.732   1.500   3.391
 3218SOL    HW110553   5.818   1.486   3.343
 3218SOL    HW210554   5.743   1.572   3.460
 3219SOL     OW10555   5.154   1.861   4.239
 3219SOL    HW110556   5.229   1.876   4.175
 3219SOL    HW210557   5.080   1.925   4.219
 3220SOL     OW10558   0.053   3.447   5.479
 3220SOL    HW110559   0.106   3.513   5.427
 3220SOL    HW210560   0.045   3.362   5.427
 3221SOL     OW10561   3.839   1.274   2.355
 3221SOL    HW110562   3.931   1.275   2.317
 3221SOL    HW210563   3.792   1.359   2.332
 3222SOL     OW10564   2.976   1.057   3.876
 3222SOL    HW110565   2.971   1.012   3.965
 3222SOL    HW210566   2.884   1.078   3.843
 3223SOL     OW10567   1.567   5.567   0.597
 3223SOL    HW110568   1.555   5.595   0.692
 3223SOL    HW210569   1.661   5.536   0.583
 3224SOL     OW10570   4.448   2.509   3.969
 3224SOL    HW110571   4.439   2.493   3.870
 3224SOL    HW210572   4.442   2.422   4.017
 3225SOL     OW10573   4.422   1.512   4.689
 3225SOL    HW110574   4.504   1.486   4.639
 3225SOL    HW210575   4.400   1.607   4.671
 3226SOL     OW10576   5.919   0.861   0.749
 3226SOL    HW110577   5.867   0.895   0.828
 3226SOL    HW210578   5.856   0.835   0.676
 3227SOL     OW10579   5.637   4.168   5.567
 3227SOL    HW110580   5.668   4.144   5.475
 3227SOL    HW210581   5.630   4.086   5.623
 3228SOL     OW10582   2.136   4.430   0.413
 3228SOL    HW110583   2.134   4.331   0.426
 3228SOL    HW210584   2.186   4.472   0.489
 3229SOL     OW10585   1.278   1.118   1.056
 3229SOL    HW110586   1.271   1.204   1.006
 3229SOL    HW210587   1.187   1.079   1.069
 3230SOL     OW10588   3.346   6.608   5.224
 3230SOL    HW110589   3.331   6.705   5.243
 3230SOL    HW210590   3.277   6.554   5.272
 3231SOL     OW10591   2.541   2.450   2.554
 3231SOL    HW110592   2.503   2.459   2.646
 3231SOL    HW210593   2.588   2.362   2.545
 3232SOL     OW10594   2.873   4.748   3.487
 3232SOL    HW110595   2.802   4.682   3.514
 3232SOL    HW210596   2.868   4.828   3.548
 3233SOL     OW10597   2.682   0.301   6.021
 3233SOL    HW110598   2.623   0.271   6.096
 3233SOL    HW210599   2.768   0.335   6.057
 3234SOL     OW10600   3.485   3.624   0.855
 3234SOL    HW110601   3.406   3.562   0.852
 3234SOL    HW210602   3.470   3.692   0.926
 3235SOL     OW10603   0.147   1.501   2.678
 3235SOL    HW110604   0.150   1.448   2.593
 3235SOL    HW210605   0.200   1.585   2.667
 3236SOL     OW10606   5.683   0.087   0.432
 3236SOL    HW110607   5.611   0.053   0.493
 3236SOL    HW210608   5.703   0.183   0.455
 3237SOL     OW10609   6.049   1.390   5.504
 3237SOL    HW110610   6.059   1.330   5.425
 3237SOL    HW210611   5.973   1.358   5.561
 3238SOL     OW10612   0.051   5.183   0.927
 3238SOL    HW110613   0.140   5.173   0.882
 3238SOL    HW210614   7.005   5.136   0.873
 3239SOL     OW10615   6.284   0.478   5.282
 3239SOL    HW110616   6.316   0.384   5.274
 3239SOL    HW210617   6.258   0.497   5.376
 3240SOL     OW10618   1.063   1.854   1.838
 3240SOL    HW110619   0.964   1.850   1.826
 3240SOL    HW210620   1.108   1.828   1.752
 3241SOL     OW10621   0.167   3.028   5.907
 3241SOL    HW110622   0.225   3.032   5.989
 3241SOL    HW210623   0.218   3.065   5.829
 3242SOL     OW10624   0.084   4.826   5.625
 3242SOL    HW110625   7.018   4.786   5.611
 3242SOL    HW210626   0.078   4.925   5.618
 3243SOL     OW10627   6.019   5.629   4.422
 3243SOL    HW110628   6.071   5.674   4.349
 3243SOL    HW210629   5.932   5.677   4.435
 3244SOL     OW10630   4.687   0.253   6.620
 3244SOL    HW110631   4.756   0.264   6.548
 3244SOL    HW210632   4.633   0.171   6.602
 3245SOL     OW10633   2.539   5.888   4.124
 3245SOL    HW110634   2.539   5.961   4.056
 3245SOL    HW210635   2.605   5.818   4.098
 3246SOL     OW10636   6.581   5.436   3.093
 3246SOL    HW110637   6.516   5.501   3.054
 3246SOL    HW210638   6.565   5.428   3.192
 3247SOL     OW10639   2.068   4.360   4.259
 3247SOL    HW110640   2.104   4.338   4.168
 3247SOL    HW210641   2.039   4.456   4.260
 3248SOL     OW10642   6.193   2.700   3.320
 3248SOL    HW110643   6.202   2.714   3.418
 3248SOL    HW210644   6.146   2.778   3.279
 3249SOL     OW10645   3.984   3.951   4.465
 3249SOL    HW110646   3.938   3.907   4.542
 3249SOL    HW210647   4.051   4.017   4.500
 3250SOL     OW10648   4.704   6.033   3.622
 3250SOL    HW110649   4.641   5.989   3.559
 3250SOL    HW210650   4.732   6.122   3.586
 3251SOL     OW10651   2.382   1.902   2.413
 3251SOL    HW110652   2.306   1.900   2.348
 3251SOL    HW210653   2.397   1.995   2.444
 3252SOL     OW10654   1.733   1.777   2.687
 3252SOL    HW110655   1.749   1.807   2.594
 3252SOL    HW210656   1.695   1.852   2.741
 3253SOL     OW10657   6.696   4.046   0.889
 3253SOL    HW110658   6.646   4.132   0.893
 3253SOL    HW210659   6.794   4.064   0.892
 3254SOL     OW10660   6.083   6.734   0.510
 3254SOL    HW110661   6.030   6.817   0.525
 3254SOL    HW210662   6.095   6.718   0.412
 3255SOL     OW10663   3.758   4.928   2.937
 3255SOL    HW110664   3.675   4.900   2.986
 3255SOL    HW210665   3.733   4.955   2.844
 3256SOL     OW10666   5.577   2.747   1.573
 3256SOL    HW110667   5.636   2.800   1.512
 3256SOL    HW210668   5.632   2.703   1.644
 3257SOL     OW10669   2.498   0.977   3.005
 3257SOL    HW110670   2.405   0.944   3.026
 3257SOL    HW210671   2.557   0.960   3.084
 3258SOL     OW10672   0.626   5.353   3.925
 3258SOL    HW110673   0.676   5.294   3.989
 3258SOL    HW210674   0.663   5.446   3.930
 3259SOL     OW10675   6.036   5.461   3.745
 3259SOL    HW110676   6.023   5.371   3.788
 3259SOL    HW210677   5.947   5.506   3.736
 3260SOL     OW10678   1.598   4.436   3.612
 3260SOL    HW110679   1.676   4.499   3.610
 3260SOL    HW210680   1.622   4.354   3.664
 3261SOL     OW10681   6.220   6.612   3.927
 3261SOL    HW110682   6.291   6.640   3.861
 3261SOL    HW210683   6.253   6.629   4.019
 3262SOL     OW10684   2.894   2.089   2.954
 3262SOL    HW110685   2.852   2.122   2.869
 3262SOL    HW210686   2.914   2.166   3.014
 3263SOL     OW10687   5.513   0.041   1.703
 3263SOL    HW110688   5.524   0.098   1.621
 3263SOL    HW210689   5.588   7.000   1.709
 3264SOL     OW10690   0.991   4.742   6.238
 3264SOL    HW110691   0.893   4.762   6.243
 3264SOL    HW210692   1.017   4.727   6.143
 3265SOL     OW10693   7.021   6.367   5.840
 3265SOL    HW110694   0.068   6.341   5.775
 3265SOL    HW210695   0.038   6.419   5.915
 3266SOL     OW10696   3.505   4.651   6.084
 3266SOL    HW110697   3.505   4.689   5.991
 3266SOL    HW210698   3.429   4.586   6.093
 3267SOL     OW10699   3.240   0.367   0.925
 3267SOL    HW110700   3.328   0.398   0.961
 3267SOL    HW210701   3.198   0.304   0.990
 3268SOL     OW10702   5.317   4.329   2.180
 3268SOL    HW110703   5.280   4.360   2.268
 3268SOL    HW210704   5.251   4.269   2.135
 3269SOL     OW10705   2.271   5.099   1.017
 3269SOL    HW110706   2.328   5.058   1.088
 3269SOL    HW210707   2.175   5.100   1.046
 3270SOL     OW10708   1.662   3.291   6.331
 3270SOL    HW110709   1.725   3.366   6.314
 3270SOL    HW210710   1.711   3.204   6.325
 3271SOL     OW10711   1.026   3.690   1.298
 3271SOL    HW110712   0.944   3.690   1.355
 3271SOL    HW210713   1.098   3.742   1.343
 3272SOL     OW10714   3.888   0.183   1.130
 3272SOL    HW110715   3.885   0.104   1.069
 3272SOL    HW210716   3.979   0.223   1.128
 3273SOL     OW10717   4.144   3.579   6.662
 3273SOL    HW110718   4.176   3.505   6.723
 3273SOL    HW210719   4.162   3.553   6.567
 3274SOL     OW10720   4.279   0.229   2.154
 3274SOL    HW110721   4.240   0.183   2.075
 3274SOL    HW210722   4.213   0.230   2.228
 3275SOL     OW10723   5.541   0.724   2.059
 3275SOL    HW110724   5.442   0.725   2.051
 3275SOL    HW210725   5.583   0.743   1.970
 3276SOL     OW10726   5.736   5.389   0.294
 3276SOL    HW110727   5.720   5.330   0.215
 3276SOL    HW210728   5.715   5.484   0.269
 3277SOL     OW10729   3.208   1.478   2.530
 3277SOL    HW110730   3.235   1.519   2.443
 3277SOL    HW210731   3.290   1.455   2.583
 3278SOL     OW10732   5.232   1.765   6.724
 3278SOL    HW110733   5.201   1.729   6.636
 3278SOL    HW210734   5.233   1.865   6.721
 3279SOL     OW10735   4.058   0.357   2.481
 3279SOL    HW110736   4.075   0.309   2.395
 3279SOL    HW210737   3.980   0.418   2.470
 3280SOL     OW10738   6.605   2.774   4.263
 3280SOL    HW110739   6.686   2.730   4.224
 3280SOL    HW210740   6.622   2.872   4.273
 3281SOL     OW10741   5.877   2.949   1.900
 3281SOL    HW110742   5.785   2.940   1.860
 3281SOL    HW210743   5.929   3.017   1.847
 3282SOL     OW10744   6.438   4.460   4.787
 3282SOL    HW110745   6.452   4.539   4.846
 3282SOL    HW210746   6.375   4.396   4.830
 3283SOL     OW10747   2.988   1.372   0.498
 3283SOL    HW110748   3.072   1.399   0.453
 3283SOL    HW210749   2.993   1.276   0.526
 3284SOL     OW10750   2.148   0.822   5.422
 3284SOL    HW110751   2.235   0.775   5.436
 3284SOL    HW210752   2.163   0.920   5.426
 3285SOL     OW10753   4.050   2.160   3.865
 3285SOL    HW110754   4.037   2.068   3.827
 3285SOL    HW210755   4.008   2.165   3.956
 3286SOL     OW10756   1.288   3.622   3.027
 3286SOL    HW110757   1.306   3.650   3.122
 3286SOL    HW210758   1.368   3.572   2.992
 3287SOL     OW10759   2.788   1.130   0.053
 3287SOL    HW110760   2.722   1.192   0.010
 3287SOL    HW210761   2.834   1.177   0.128
 3288SOL     OW10762   3.129   5.374   1.921
 3288SOL    HW110763   3.221   5.374   1.882
 3288SOL    HW210764   3.084   5.287   1.903
 3289SOL     OW10765   4.659   0.618   6.981
 3289SOL    HW110766   4.562   0.596   6.986
 3289SOL    HW210767   4.682   0.646   6.888
 3290SOL     OW10768   0.641   5.158   7.014
 3290SOL    HW110769   0.574   5.126   6.949
 3290SOL    HW210770   0.732   5.125   6.988
 3291SOL     OW10771   4.973   6.382   5.640
 3291SOL    HW110772   5.069   6.364   5.618
 3291SOL    HW210773   4.947   6.472   5.606
 3292SOL     OW10774   0.204   3.206   0.417
 3292SOL    HW110775   0.255   3.182   0.334
 3292SOL    HW210776   0.194   3.305   0.422
 3293SOL     OW10777   6.589   4.416   2.582
 3293SOL    HW110778   6.608   4.498   2.638
 3293SOL    HW210779   6.666   4.400   2.521
 3294SOL     OW10780   4.086   2.736   5.468
 3294SOL    HW110781   4.126   2.783   5.547
 3294SOL    HW210782   4.154   2.679   5.424
 3295SOL     OW10783   1.388   3.036   3.334
 3295SOL    HW110784   1.378   2.939   3.310
 3295SOL    HW210785   1.363   3.048   3.430
 3296SOL     OW10786   2.298   0.652   0.031
 3296SOL    HW110787   2.242   0.593   0.090
 3296SOL    HW210788   2.343   0.596   6.986
 3297SOL     OW10789   3.224   0.429   5.788
 3297SOL    HW110790   3.253   0.384   5.703
 3297SOL    HW210791   3.244   0.526   5.783
 3298SOL     OW10792   3.578   4.136   6.007
 3298SOL    HW110793   3.611   4.050   5.968
 3298SOL    HW210794   3.478   4.141   5.997
 3299SOL     OW10795   2.548   0.151   4.405
 3299SOL    HW110796   2.484   0.206   4.352
 3299SOL    HW210797   2.499   0.101   4.476
 3300SOL     OW10798   1.619   1.214   3.485
 3300SOL    HW110799   1.537   1.166   3.454
 3300SOL    HW210800   1.618   1.218   3.585
 3301SOL     OW10801   1.293   1.110   2.196
 3301SOL    HW110802   1.363   1.172   2.230
 3301SOL    HW210803   1.282   1.033   2.260
 3302SOL     OW10804   1.258   4.417   5.044
 3302SOL    HW110805   1.309   4.450   4.964
 3302SOL    HW210806   1.283   4.322   5.062
 3303SOL     OW10807   4.220   3.689   0.484
 3303SOL    HW110808   4.215   3.757   0.411
 3303SOL    HW210809   4.143   3.700   0.546
 3304SOL     OW10810   2.408   3.487   0.942
 3304SOL    HW110811   2.427   3.570   0.995
 3304SOL    HW210812   2.332   3.505   0.879
 3305SOL     OW10813   3.030   2.905   6.921
 3305SOL    HW110814   3.063   2.990   6.879
 3305SOL    HW210815   3.108   2.856   6.959
 3306SOL     OW10816   2.784   0.379   1.137
 3306SOL    HW110817   2.836   0.434   1.203
 3306SOL    HW210818   2.686   0.395   1.149
 3307SOL     OW10819   2.290   5.730   4.670
 3307SOL    HW110820   2.219   5.684   4.723
 3307SOL    HW210821   2.365   5.666   4.652
 3308SOL     OW10822   4.778   5.506   0.869
 3308SOL    HW110823   4.794   5.542   0.961
 3308SOL    HW210824   4.680   5.492   0.855
 3309SOL     OW10825   5.880   3.644   3.984
 3309SOL    HW110826   5.963   3.692   4.015
 3309SOL    HW210827   5.804   3.708   3.981
 3310SOL     OW10828   6.665   4.443   6.459
 3310SOL    HW110829   6.736   4.513   6.450
 3310SOL    HW210830   6.699   4.357   6.421
 3311SOL     OW10831   2.241   2.475   6.965
 3311SOL    HW110832   2.271   2.515   6.879
 3311SOL    HW210833   2.256   2.541   0.015
 3312SOL     OW10834   4.814   3.504   0.501
 3312SOL    HW110835   4.911   3.529   0.500
 3312SOL    HW210836   4.798   3.430   0.436
 3313SOL     OW10837   0.724   6.967   4.185
 3313SOL    HW110838   0.753   6.969   4.089
 3313SOL    HW210839   0.787   6.912   4.238
 3314SOL     OW10840   3.279   6.273   3.545
 3314SOL    HW110841   3.339   6.314   3.613
 3314SOL    HW210842   3.332   6.215   3.484
 3315SOL     OW10843   0.808   6.598   4.202
 3315SOL    HW110844   0.856   6.662   4.141
 3315SOL    HW210845   0.716   6.581   4.168
 3316SOL     OW10846   3.138   1.970   0.089
 3316SOL    HW110847   3.158   1.995   7.019
 3316SOL    HW210848   3.156   2.048   0.149
 3317SOL     OW10849   5.784   2.404   1.212
 3317SOL    HW110850   5.845   2.380   1.288
 3317SOL    HW210851   5.698   2.441   1.249
 3318SOL     OW10852   4.075   2.862   0.769
 3318SOL    HW110853   4.065   2.937   0.834
 3318SOL    HW210854   4.043   2.776   0.811
 3319SOL     OW10855   6.751   6.629   3.957
 3319SOL    HW110856   6.689   6.707   3.966
 3319SOL    HW210857   6.716   6.567   3.886
 3320SOL     OW10858   6.298   0.441   2.198
 3320SOL    HW110859   6.331   0.407   2.286
 3320SOL    HW210860   6.361   0.414   2.126
 3321SOL     OW10861   5.024   1.988   6.859
 3321SOL    HW110862   5.080   2.001   6.777
 3321SOL    HW210863   4.936   2.035   6.847
 3322SOL     OW10864   5.772   3.540   1.174
 3322SOL    HW110865   5.808   3.518   1.083
 3322SOL    HW210866   5.847   3.537   1.240
 3323SOL     OW10867   1.490   0.858   2.021
 3323SOL    HW110868   1.499   0.918   2.101
 3323SOL    HW210869   1.399   0.866   1.983
 3324SOL     OW10870   6.284   5.383   5.840
 3324SOL    HW110871   6.225   5.463   5.855
 3324SOL    HW210872   6.333   5.393   5.753
 3325SOL     OW10873   3.151   5.457   5.950
 3325SOL    HW110874   3.090   5.384   5.920
 3325SOL    HW210875   3.166   5.448   6.049
 3326SOL     OW10876   3.590   1.981   1.955
 3326SOL    HW110877   3.618   1.950   1.864
 3326SOL    HW210878   3.618   2.076   1.968
 3327SOL     OW10879   1.707   6.396   5.804
 3327SOL    HW110880   1.783   6.407   5.740
 3327SOL    HW210881   1.735   6.336   5.880
 3328SOL     OW10882   4.679   3.104   5.355
 3328SOL    HW110883   4.718   3.169   5.290
 3328SOL    HW210884   4.664   3.016   5.309
 3329SOL     OW10885   6.541   6.584   5.705
 3329SOL    HW110886   6.590   6.588   5.792
 3329SOL    HW210887   6.589   6.522   5.643
 3330SOL     OW10888   6.842   2.298   2.729
 3330SOL    HW110889   6.815   2.272   2.822
 3330SOL    HW210890   6.780   2.255   2.664
 3331SOL     OW10891   1.709   3.020   0.667
 3331SOL    HW110892   1.772   2.944   0.650
 3331SOL    HW210893   1.653   3.035   0.586
 3332SOL     OW10894   0.420   3.980   1.819
 3332SOL    HW110895   0.446   4.013   1.728
 3332SOL    HW210896   0.453   3.886   1.830
 3333SOL     OW10897   3.208   5.791   5.260
 3333SOL    HW110898   3.216   5.693   5.276
 3333SOL    HW210899   3.130   5.827   5.311
 3334SOL     OW10900   1.356   2.926   1.353
 3334SOL    HW110901   1.394   2.858   1.291
 3334SOL    HW210902   1.419   2.938   1.430
 3335SOL     OW10903   5.390   4.411   4.261
 3335SOL    HW110904   5.379   4.352   4.341
 3335SOL    HW210905   5.443   4.492   4.288
 3336SOL     OW10906   3.553   6.437   5.904
 3336SOL    HW110907   3.459   6.451   5.932
 3336SOL    HW210908   3.562   6.455   5.806
 3337SOL     OW10909   3.908   1.794   0.559
 3337SOL    HW110910   4.007   1.779   0.554
 3337SOL    HW210911   3.872   1.751   0.642
 3338SOL     OW10912   6.801   5.402   6.952
 3338SOL    HW110913   6.746   5.404   0.012
 3338SOL    HW210914   6.745   5.369   6.877
 3339SOL     OW10915   0.715   4.828   6.158
 3339SOL    HW110916   0.760   4.908   6.196
 3339SOL    HW210917   0.748   4.812   6.065
 3340SOL     OW10918   4.021   0.408   1.871
 3340SOL    HW110919   4.058   0.456   1.792
 3340SOL    HW210920   4.050   0.454   1.955
 3341SOL     OW10921   0.763   0.338   0.389
 3341SOL    HW110922   0.752   0.258   0.331
 3341SOL    HW210923   0.753   0.312   0.485
 3342SOL     OW10924   2.539   0.229   5.152
 3342SOL    HW110925   2.542   0.194   5.059
 3342SOL    HW210926   2.557   0.328   5.152
 3343SOL     OW10927   6.981   2.340   1.374
 3343SOL    HW110928   6.925   2.283   1.315
 3343SOL    HW210929   0.043   2.360   1.329
 3344SOL     OW10930   1.280   2.716   6.274
 3344SOL    HW110931   1.348   2.689   6.206
 3344SOL    HW210932   1.190   2.683   6.245
 3345SOL     OW10933   2.772   3.304   5.857
 3345SOL    HW110934   2.765   3.398   5.825
 3345SOL    HW210935   2.847   3.258   5.809
 3346SOL     OW10936   1.870   6.074   2.411
 3346SOL    HW110937   1.889   5.986   2.454
 3346SOL    HW210938   1.952   6.107   2.365
 3347SOL     OW10939   6.060   3.933   3.870
 3347SOL    HW110940   5.996   3.980   3.808
 3347SOL    HW210941   6.071   3.987   3.953
 3348SOL     OW10942   3.248   4.020   3.165
 3348SOL    HW110943   3.302   3.937   3.180
 3348SOL    HW210944   3.277   4.091   3.229
 3349SOL     OW10945   5.012   2.575   0.135
 3349SOL    HW110946   5.081   2.648   0.129
 3349SOL    HW210947   4.922   2.614   0.115
 3350SOL     OW10948   2.265   2.893   1.113
 3350SOL    HW110949   2.195   2.821   1.123
 3350SOL    HW210950   2.328   2.888   1.190
 3351SOL     OW10951   5.987   2.699   0.473
 3351SOL    HW110952   5.924   2.753   0.417
 3351SOL    HW210953   6.044   2.760   0.527
 3352SOL     OW10954   0.209   3.415   0.061
 3352SOL    HW110955   0.158   3.349   0.117
 3352SOL    HW210956   0.286   3.368   0.017
 3353SOL     OW10957   1.298   6.670   6.062
 3353SOL    HW110958   1.295   6.614   5.980
 3353SOL    HW210959   1.350   6.622   6.133
 3354SOL     OW10960   1.212   0.474   1.957
 3354SOL    HW110961   1.220   0.489   1.858
 3354SOL    HW210962   1.127   0.425   1.977
 3355SOL     OW10963   6.122   0.907   2.518
 3355SOL    HW110964   6.190   0.877   2.585
 3355SOL    HW210965   6.121   1.007   2.514
 3356SOL     OW10966   1.488   3.953   6.807
 3356SOL    HW110967   1.502   4.017   6.732
 3356SOL    HW210968   1.496   4.000   6.894
 3357SOL     OW10969   2.322   5.601   2.264
 3357SOL    HW110970   2.391   5.641   2.204
 3357SOL    HW210971   2.340   5.503   2.274
 3358SOL     OW10972   6.817   3.840   3.343
 3358SOL    HW110973   6.796   3.900   3.420
 3358SOL    HW210974   6.911   3.808   3.351
 3359SOL     OW10975   2.046   1.593   1.540
 3359SOL    HW110976   1.997   1.508   1.561
 3359SOL    HW210977   1.996   1.671   1.578
 3360SOL     OW10978   2.741   0.708   6.058
 3360SOL    HW110979   2.746   0.741   6.153
 3360SOL    HW210980   2.645   0.712   6.028
 3361SOL     OW10981   2.796   1.237   3.099
 3361SOL    HW110982   2.798   1.141   3.126
 3361SOL    HW210983   2.813   1.295   3.179
 3362SOL     OW10984   3.047   1.765   4.756
 3362SOL    HW110985   3.103   1.750   4.837
 3362SOL    HW210986   2.961   1.809   4.782
 3363SOL     OW10987   6.615   0.720   6.942
 3363SOL    HW110988   6.660   0.799   6.983
 3363SOL    HW210989   6.530   0.700   6.991
 3364SOL     OW10990   1.878   5.381   5.225
 3364SOL    HW110991   1.873   5.285   5.254
 3364SOL    HW210992   1.838   5.439   5.295
 3365SOL     OW10993   6.326   2.662   5.267
 3365SOL    HW110994   6.420   2.676   5.299
 3365SOL    HW210995   6.327   2.601   5.188
 3366SOL     OW10996   5.391   0.796   0.381
 3366SOL    HW110997   5.367   0.774   0.476
 3366SOL    HW210998   5.388   0.713   0.326
 3367SOL     OW10999   2.132   0.055   2.720
 3367SOL    HW111000   2.228   0.061   2.695
 3367SOL    HW211001   2.078   0.024   2.642
 3368SOL     OW11002   6.670   1.389   4.540
 3368SOL    HW111003   6.592   1.327   4.553
 3368SOL    HW211004   6.664   1.464   4.606
 3369SOL     OW11005   4.005   5.851   6.501
 3369SOL    HW111006   3.978   5.771   6.554
 3369SOL    HW211007   3.938   5.867   6.428
 3370SOL     OW11008   6.175   0.166   5.086
 3370SOL    HW111009   6.154   0.080   5.038
 3370SOL    HW211010   6.224   0.145   5.171
 3371SOL     OW11011   6.921   4.828   1.350
 3371SOL    HW111012   6.988   4.830   1.425
 3371SOL    HW211013   6.942   4.898   1.283
 3372SOL     OW11014   1.290   2.380   2.782
 3372SOL    HW111015   1.333   2.465   2.812
 3372SOL    HW211016   1.194   2.379   2.812
 3373SOL     OW11017   0.811   2.975   6.471
 3373SOL    HW111018   0.721   3.018   6.484
 3373SOL    HW211019   0.800   2.875   6.473
 3374SOL     OW11020   3.707   6.322   5.011
 3374SOL    HW111021   3.706   6.238   4.957
 3374SOL    HW211022   3.614   6.359   5.017
 3375SOL     OW11023   3.463   3.893   4.688
 3375SOL    HW111024   3.413   3.972   4.654
 3375SOL    HW211025   3.491   3.835   4.611
 3376SOL     OW11026   3.423   3.314   1.818
 3376SOL    HW111027   3.419   3.314   1.918
 3376SOL    HW211028   3.347   3.261   1.781
 3377SOL     OW11029   3.136   5.661   5.565
 3377SOL    HW111030   3.086   5.602   5.629
 3377SOL    HW211031   3.127   5.757   5.593
 3378SOL     OW11032   7.017   1.206   0.516
 3378SOL    HW111033   6.946   1.216   0.585
 3378SOL    HW211034   6.982   1.153   0.439
 3379SOL     OW11035   5.954   5.245   5.465
 3379SOL    HW111036   6.028   5.238   5.531
 3379SOL    HW211037   5.966   5.176   5.394
 3380SOL     OW11038   0.633   3.645   5.704
 3380SOL    HW111039   0.616   3.709   5.780
 3380SOL    HW211040   0.711   3.677   5.651
 3381SOL     OW11041   3.331   2.532   1.662
 3381SOL    HW111042   3.256   2.586   1.701
 3381SOL    HW211043   3.416   2.584   1.670
 3382SOL     OW11044   0.537   6.474   0.512
 3382SOL    HW111045   0.586   6.549   0.557
 3382SOL    HW211046   0.485   6.510   0.435
 3383SOL     OW11047   0.588   3.875   1.266
 3383SOL    HW111048   0.657   3.881   1.338
 3383SOL    HW211049   0.513   3.817   1.298
 3384SOL     OW11050   3.249   3.413   3.670
 3384SOL    HW111051   3.286   3.506   3.676
 3384SOL    HW211052   3.237   3.389   3.574
 3385SOL     OW11053   0.043   3.861   4.098
 3385SOL    HW111054   0.063   3.817   4.011
 3385SOL    HW211055   0.059   3.797   4.173
 3386SOL     OW11056   5.797   4.191   4.365
 3386SOL    HW111057   5.727   4.215   4.297
 3386SOL    HW211058   5.873   4.256   4.359
 3387SOL     OW11059   3.420   1.919   2.489
 3387SOL    HW111060   3.384   1.976   2.563
 3387SOL    HW211061   3.351   1.909   2.418
 3388SOL     OW11062   5.558   2.188   1.286
 3388SOL    HW111063   5.591   2.212   1.195
 3388SOL    HW211064   5.498   2.261   1.320
 3389SOL     OW11065   4.186   5.693   2.828
 3389SOL    HW111066   4.164   5.706   2.732
 3389SOL    HW211067   4.105   5.714   2.884
 3390SOL     OW11068   4.587   1.355   5.534
 3390SOL    HW111069   4.685   1.343   5.551
 3390SOL    HW211070   4.560   1.299   5.455
 3391SOL     OW11071   3.730   2.082   3.943
 3391SOL    HW111072   3.641   2.050   3.976
 3391SOL    HW211073   3.738   2.060   3.846
 3392SOL     OW11074   5.297   6.533   3.689
 3392SOL    HW111075   5.374   6.596   3.680
 3392SOL    HW211076   5.294   6.472   3.610
 3393SOL     OW11077   0.126   6.907   6.830
 3393SOL    HW111078   0.036   6.865   6.844
 3393SOL    HW211079   0.156   6.950   6.915
 3394SOL     OW11080   5.507   1.073   2.622
 3394SOL    HW111081   5.426   1.090   2.678
 3394SOL    HW211082   5.560   1.157   2.615
 3395SOL     OW11083   1.341   3.749   4.749
 3395SOL    HW111084   1.256   3.718   4.790
 3395SOL    HW211085   1.411   3.678   4.759
 3396SOL     OW11086   6.465   3.587   4.182
 3396SOL    HW111087   6.370   3.597   4.151
 3396SOL    HW211088   6.480   3.494   4.213
 3397SOL     OW11089   4.016   5.571   6.179
 3397SOL    HW111090   4.097   5.612   6.138
 3397SOL    HW211091   3.936   5.594   6.125
 3398SOL     OW11092   0.427   1.079   3.310
 3398SOL    HW111093   0.398   0.998   3.259
 3398SOL    HW211094   0.410   1.161   3.255
 3399SOL     OW11095   4.265   5.689   4.371
 3399SOL    HW111096   4.231   5.619   4.309
 3399SOL    HW211097   4.267   5.653   4.464
 3400SOL     OW11098   5.161   2.564   0.388
 3400SOL    HW111099   5.138   2.600   0.298
 3400SOL    HW211100   5.234   2.496   0.379
 3401SOL     OW11101   6.931   4.324   6.342
 3401SOL    HW111102   6.952   4.398   6.279
 3401SOL    HW211103   6.989   4.332   6.423
 3402SOL     OW11104   4.886   4.840   2.395
 3402SOL    HW111105   4.801   4.873   2.436
 3402SOL    HW211106   4.876   4.744   2.369
 3403SOL     OW11107   3.610   1.438   5.670
 3403SOL    HW111108   3.523   1.406   5.707
 3403SOL    HW211109   3.596   1.472   5.577
 3404SOL     OW11110   4.630   6.192   1.752
 3404SOL    HW111111   4.682   6.135   1.815
 3404SOL    HW211112   4.628   6.286   1.786
 3405SOL     OW11113   6.243   4.718   6.882
 3405SOL    HW111114   6.254   4.757   6.791
 3405SOL    HW211115   6.274   4.622   6.882
 3406SOL     OW11116   1.454   3.961   1.439
 3406SOL    HW111117   1.402   3.967   1.354
 3406SOL    HW211118   1.454   4.050   1.485
 3407SOL     OW11119   1.338   5.280   2.935
 3407SOL    HW111120   1.264   5.346   2.920
 3407SOL    HW211121   1.305   5.205   2.992
 3408SOL     OW11122   5.161   3.628   3.098
 3408SOL    HW111123   5.250   3.643   3.141
 3408SOL    HW211124   5.133   3.533   3.113
 3409SOL     OW11125   2.892   0.794   6.308
 3409SOL    HW111126   2.970   0.761   6.256
 3409SOL    HW211127   2.887   0.746   6.395
 3410SOL     OW11128   6.978   2.343   0.215
 3410SOL    HW111129   0.040   2.358   0.167
 3410SOL    HW211130   6.903   2.345   0.149
 3411SOL     OW11131   4.535   2.156   2.563
 3411SOL    HW111132   4.501   2.068   2.530
 3411SOL    HW211133   4.630   2.167   2.535
 3412SOL     OW11134   4.721   5.671   6.948
 3412SOL    HW111135   4.789   5.605   6.913
 3412SOL    HW211136   4.630   5.630   6.943
 3413SOL     OW11137   5.377   1.433   2.437
 3413SOL    HW111138   5.304   1.495   2.408
 3413SOL    HW211139   5.466   1.475   2.421
 3414SOL     OW11140   4.053   0.484   5.483
 3414SOL    HW111141   4.125   0.551   5.503
 3414SOL    HW211142   4.032   0.433   5.566
 3415SOL     OW11143   1.338   5.426   4.482
 3415SOL    HW111144   1.335   5.462   4.389
 3415SOL    HW211145   1.364   5.329   4.479
 3416SOL     OW11146   2.176   4.396   5.740
 3416SOL    HW111147   2.152   4.376   5.835
 3416SOL    HW211148   2.140   4.324   5.681
 3417SOL     OW11149   5.023   0.856   1.344
 3417SOL    HW111150   5.063   0.932   1.294
 3417SOL    HW211151   4.926   0.873   1.361
 3418SOL     OW11152   3.183   2.960   6.288
 3418SOL    HW111153   3.170   2.922   6.197
 3418SOL    HW211154   3.206   3.057   6.281
 3419SOL     OW11155   5.188   3.649   6.482
 3419SOL    HW111156   5.249   3.717   6.521
 3419SOL    HW211157   5.237   3.563   6.469
 3420SOL     OW11158   3.860   1.390   4.501
 3420SOL    HW111159   3.831   1.485   4.517
 3420SOL    HW211160   3.819   1.358   4.415
 3421SOL     OW11161   0.473   6.420   2.525
 3421SOL    HW111162   0.487   6.335   2.575
 3421SOL    HW211163   0.402   6.407   2.456
 3422SOL     OW11164   3.114   2.206   2.637
 3422SOL    HW111165   3.203   2.161   2.636
 3422SOL    HW211166   3.084   2.223   2.544
 3423SOL     OW11167   3.370   0.770   1.520
 3423SOL    HW111168   3.281   0.732   1.495
 3423SOL    HW211169   3.442   0.709   1.487
 3424SOL     OW11170   4.268   1.348   1.593
 3424SOL    HW111171   4.295   1.252   1.597
 3424SOL    HW211172   4.169   1.355   1.608
 3425SOL     OW11173   4.020   4.079   1.814
 3425SOL    HW111174   4.078   4.045   1.740
 3425SOL    HW211175   4.029   4.021   1.894
 3426SOL     OW11176   4.789   3.949   0.833
 3426SOL    HW111177   4.861   3.930   0.900
 3426SOL    HW211178   4.800   3.889   0.754
 3427SOL     OW11179   0.590   1.733   0.806
 3427SOL    HW111180   0.647   1.708   0.885
 3427SOL    HW211181   0.495   1.738   0.835
 3428SOL     OW11182   4.289   5.064   3.184
 3428SOL    HW111183   4.329   5.066   3.275
 3428SOL    HW211184   4.291   5.156   3.145
 3429SOL     OW11185   0.507   2.911   0.594
 3429SOL    HW111186   0.554   2.974   0.532
 3429SOL    HW211187   0.415   2.945   0.613
 3430SOL     OW11188   1.225   5.439   6.469
 3430SOL    HW111189   1.231   5.536   6.447
 3430SOL    HW211190   1.153   5.424   6.538
 3431SOL     OW11191   1.825   6.329   6.661
 3431SOL    HW111192   1.865   6.421   6.658
 3431SOL    HW211193   1.875   6.274   6.728
 3432SOL     OW11194   3.777   1.607   6.557
 3432SOL    HW111195   3.681   1.628   6.578
 3432SOL    HW211196   3.822   1.574   6.639
 3433SOL     OW11197   5.043   0.920   4.357
 3433SOL    HW111198   4.980   0.918   4.435
 3433SOL    HW211199   5.095   0.834   4.354
 3434SOL     OW11200   4.227   1.762   3.320
 3434SOL    HW111201   4.220   1.850   3.273
 3434SOL    HW211202   4.208   1.775   3.417
 3435SOL     OW11203   0.766   1.312   0.519
 3435SOL    HW111204   0.817   1.275   0.441
 3435SOL    HW211205   0.786   1.258   0.600
 3436SOL     OW11206   4.358   6.807   2.649
 3436SOL    HW111207   4.441   6.781   2.600
 3436SOL    HW211208   4.366   6.902   2.678
 3437SOL     OW11209   4.433   0.697   6.434
 3437SOL    HW111210   4.362   0.766   6.448
 3437SOL    HW211211   4.516   0.725   6.482
 3438SOL     OW11212   0.817   5.532   6.112
 3438SOL    HW111213   0.890   5.557   6.175
 3438SOL    HW211214   0.780   5.442   6.137
 3439SOL     OW11215   2.688   0.564   4.206
 3439SOL    HW111216   2.744   0.632   4.253
 3439SOL    HW211217   2.697   0.476   4.254
 3440SOL     OW11218   3.059   1.794   0.282
 3440SOL    HW111219   3.084   1.866   0.217
 3440SOL    HW211220   2.960   1.780   0.281
 3441SOL     OW11221   4.986   0.513   4.054
 3441SOL    HW111222   5.076   0.471   4.038
 3441SOL    HW211223   4.918   0.469   3.996
 3442SOL     OW11224   1.023   5.022   2.983
 3442SOL    HW111225   1.114   5.049   3.014
 3442SOL    HW211226   0.981   5.099   2.933
 3443SOL     OW11227   5.986   6.643   4.273
 3443SOL    HW111228   5.997   6.633   4.372
 3443SOL    HW211229   5.957   6.555   4.234
 3444SOL     OW11230   3.934   5.221   0.275
 3444SOL    HW111231   3.962   5.165   0.353
 3444SOL    HW211232   3.966   5.315   0.289
 3445SOL     OW11233   5.832   5.085   4.803
 3445SOL    HW111234   5.747   5.033   4.806
 3445SOL    HW211235   5.903   5.031   4.758
 3446SOL     OW11236   2.730   6.574   2.151
 3446SOL    HW111237   2.708   6.643   2.221
 3446SOL    HW211238   2.743   6.619   2.063
 3447SOL     OW11239   6.200   4.716   5.344
 3447SOL    HW111240   6.246   4.803   5.363
 3447SOL    HW211241   6.101   4.731   5.345
 3448SOL     OW11242   3.824   3.482   0.679
 3448SOL    HW111243   3.747   3.418   0.673
 3448SOL    HW211244   3.896   3.441   0.734
 3449SOL     OW11245   0.095   6.331   2.691
 3449SOL    HW111246   0.071   6.427   2.703
 3449SOL    HW211247   0.149   6.300   2.769
 3450SOL     OW11248   0.798   1.858   1.801
 3450SOL    HW111249   0.798   1.842   1.702
 3450SOL    HW211250   0.709   1.833   1.839
 3451SOL     OW11251   1.616   4.413   4.300
 3451SOL    HW111252   1.525   4.401   4.338
 3451SOL    HW211253   1.614   4.486   4.231
 3452SOL     OW11254   6.704   1.797   0.689
 3452SOL    HW111255   6.727   1.732   0.616
 3452SOL    HW211256   6.645   1.869   0.652
 3453SOL     OW11257   5.596   6.094   5.419
 3453SOL    HW111258   5.655   6.041   5.479
 3453SOL    HW211259   5.626   6.084   5.324
 3454SOL     OW11260   0.714   1.097   0.712
 3454SOL    HW111261   0.732   1.039   0.632
 3454SOL    HW211262   0.632   1.065   0.758
 3455SOL     OW11263   1.762   3.007   3.772
 3455SOL    HW111264   1.768   2.986   3.674
 3455SOL    HW211265   1.678   2.966   3.809
 3456SOL     OW11266   6.947   0.150   0.280
 3456SOL    HW111267   7.018   0.080   0.271
 3456SOL    HW211268   6.976   0.234   0.234
 3457SOL     OW11269   2.281   6.474   3.932
 3457SOL    HW111270   2.295   6.375   3.931
 3457SOL    HW211271   2.327   6.515   3.853
 3458SOL     OW11272   5.476   5.197   0.445
 3458SOL    HW111273   5.487   5.110   0.494
 3458SOL    HW211274   5.526   5.192   0.359
 3459SOL     OW11275   6.206   6.980   3.220
 3459SOL    HW111276   6.184   7.003   3.125
 3459SOL    HW211277   6.146   6.906   3.250
 3460SOL     OW11278   4.441   2.426   6.922
 3460SOL    HW111279   4.489   2.479   6.852
 3460SOL    HW211280   4.359   2.475   6.951
 3461SOL     OW11281   2.518   5.945   3.008
 3461SOL    HW111282   2.502   6.043   3.002
 3461SOL    HW211283   2.431   5.897   3.016
 3462SOL     OW11284   5.283   2.871   2.713
 3462SOL    HW111285   5.281   2.835   2.620
 3462SOL    HW211286   5.257   2.967   2.713
 3463SOL     OW11287   1.346   3.328   1.148
 3463SOL    HW111288   1.341   3.241   1.099
 3463SOL    HW211289   1.430   3.376   1.121
 3464SOL     OW11290   5.273   1.605   5.896
 3464SOL    HW111291   5.369   1.608   5.926
 3464SOL    HW211292   5.257   1.521   5.844
 3465SOL     OW11293   1.837   4.906   1.577
 3465SOL    HW111294   1.934   4.885   1.584
 3465SOL    HW211295   1.817   4.990   1.628
 3466SOL     OW11296   6.100   4.024   4.337
 3466SOL    HW111297   6.015   3.997   4.381
 3466SOL    HW211298   6.160   4.069   4.403
 3467SOL     OW11299   3.566   2.950   0.696
 3467SOL    HW111300   3.594   2.861   0.732
 3467SOL    HW211301   3.489   2.937   0.634
 3468SOL     OW11302   3.782   1.458   1.123
 3468SOL    HW111303   3.845   1.420   1.192
 3468SOL    HW211304   3.764   1.554   1.143
 3469SOL     OW11305   3.780   5.496   5.053
 3469SOL    HW111306   3.689   5.455   5.059
 3469SOL    HW211307   3.821   5.500   5.144
 3470SOL     OW11308   1.115   2.213   2.295
 3470SOL    HW111309   1.137   2.223   2.198
 3470SOL    HW211310   1.031   2.161   2.305
 3471SOL     OW11311   4.969   3.118   4.725
 3471SOL    HW111312   4.939   3.205   4.764
 3471SOL    HW211313   4.955   3.120   4.626
 3472SOL     OW11314   4.752   1.661   2.581
 3472SOL    HW111315   4.709   1.699   2.499
 3472SOL    HW211316   4.781   1.736   2.641
 3473SOL     OW11317   6.295   4.954   1.822
 3473SOL    HW111318   6.211   4.900   1.830
 3473SOL    HW211319   6.301   4.993   1.730
 3474SOL     OW11320   4.819   4.719   3.765
 3474SOL    HW111321   4.895   4.714   3.700
 3474SOL    HW211322   4.809   4.813   3.798
 3475SOL     OW11323   0.154   4.146   4.397
 3475SOL    HW111324   0.178   4.155   4.301
 3475SOL    HW211325   0.238   4.134   4.451
 3476SOL     OW11326   1.621   1.799   3.132
 3476SOL    HW111327   1.688   1.793   3.206
 3476SOL    HW211328   1.594   1.894   3.119
 3477SOL     OW11329   0.656   3.814   1.625
 3477SOL    HW111330   0.587   3.877   1.588
 3477SOL    HW211331   0.737   3.867   1.653
 3478SOL     OW11332   2.276   0.316   0.779
 3478SOL    HW111333   2.243   0.222   0.787
 3478SOL    HW211334   2.317   0.329   0.688
 3479SOL     OW11335   0.785   4.435   5.316
 3479SOL    HW111336   0.866   4.472   5.271
 3479SOL    HW211337   0.751   4.357   5.263
 3480SOL     OW11338   1.541   4.555   6.291
 3480SOL    HW111339   1.638   4.557   6.317
 3480SOL    HW211340   1.524   4.476   6.231
 3481SOL     OW11341   6.183   0.256   4.618
 3481SOL    HW111342   6.255   0.218   4.559
 3481SOL    HW211343   6.182   0.207   4.705
 3482SOL     OW11344   6.267   3.630   6.747
 3482SOL    HW111345   6.265   3.548   6.805
 3482SOL    HW211346   6.209   3.701   6.789
 3483SOL     OW11347   5.365   2.550   5.347
 3483SOL    HW111348   5.322   2.598   5.424
 3483SOL    HW211349   5.353   2.604   5.263
 3484SOL     OW11350   1.197   3.138   4.739
 3484SOL    HW111351   1.281   3.111   4.786
 3484SOL    HW211352   1.209   3.228   4.698
 3485SOL     OW11353   0.579   2.953   6.800
 3485SOL    HW111354   0.495   2.904   6.822
 3485SOL    HW211355   0.655   2.915   6.853
 3486SOL     OW11356   1.783   6.564   5.354
 3486SOL    HW111357   1.847   6.634   5.322
 3486SOL    HW211358   1.788   6.485   5.293
 3487SOL     OW11359   4.418   1.686   6.959
 3487SOL    HW111360   4.449   1.779   6.939
 3487SOL    HW211361   4.494   1.622   6.946
 3488SOL     OW11362   5.511   6.563   5.077
 3488SOL    HW111363   5.475   6.583   4.986
 3488SOL    HW211364   5.447   6.503   5.125
 3489SOL     OW11365   3.665   5.888   0.786
 3489SOL    HW111366   3.625   5.871   0.696
 3489SOL    HW211367   3.748   5.835   0.797
 3490SOL     OW11368   3.727   6.556   0.907
 3490SOL    HW111369   3.672   6.583   0.828
 3490SOL    HW211370   3.746   6.637   0.964
 3491SOL     OW11371   4.325   4.702   5.840
 3491SOL    HW111372   4.420   4.730   5.852
 3491SOL    HW211373   4.322   4.605   5.815
 3492SOL     OW11374   5.930   4.305   3.261
 3492SOL    HW111375   6.018   4.347   3.240
 3492SOL    HW211376   5.944   4.210   3.290
 3493SOL     OW11377   6.795   3.112   5.861
 3493SOL    HW111378   6.758   3.196   5.823
 3493SOL    HW211379   6.878   3.132   5.912
 3494SOL     OW11380   3.947   1.793   2.014
 3494SOL    HW111381   4.001   1.795   2.098
 3494SOL    HW211382   3.930   1.887   1.984
 3495SOL     OW11383   1.503   3.732   3.470
 3495SOL    HW111384   1.451   3.817   3.476
 3495SOL    HW211385   1.466   3.665   3.534
 3496SOL     OW11386   6.532   5.169   1.270
 3496SOL    HW111387   6.501   5.122   1.188
 3496SOL    HW211388   6.459   5.169   1.338
 3497SOL     OW11389   3.553   0.368   1.660
 3497SOL    HW111390   3.625   0.405   1.602
 3497SOL    HW211391   3.543   0.426   1.741
 3498SOL     OW11392   2.416   2.834   1.333
 3498SOL    HW111393   2.380   2.757   1.385
 3498SOL    HW211394   2.455   2.901   1.396
 3499SOL     OW11395   5.984   6.594   4.554
 3499SOL    HW111396   6.037   6.510   4.564
 3499SOL    HW211397   5.981   6.641   4.642
 3500SOL     OW11398   2.769   2.321   3.724
 3500SOL    HW111399   2.698   2.363   3.668
 3500SOL    HW211400   2.751   2.339   3.821
 3501SOL     OW11401   1.404   6.925   5.975
 3501SOL    HW111402   1.321   6.950   5.925
 3501SOL    HW211403   1.383   6.853   6.041
 3502SOL     OW11404   4.821   2.254   2.351
 3502SOL    HW111405   4.775   2.166   2.338
 3502SOL    HW211406   4.920   2.242   2.338
 3503SOL     OW11407   0.349   6.090   6.396
 3503SOL    HW111408   0.293   6.031   6.454
 3503SOL    HW211409   0.422   6.130   6.450
 3504SOL     OW11410   1.934   0.609   6.922
 3504SOL    HW111411   1.978   0.601   6.832
 3504SOL    HW211412   1.962   0.695   6.965
 3505SOL     OW11413   4.629   3.400   5.841
 3505SOL    HW111414   4.541   3.378   5.798
 3505SOL    HW211415   4.679   3.464   5.782
 3506SOL     OW11416   4.488   4.764   5.036
 3506SOL    HW111417   4.424   4.808   5.100
 3506SOL    HW211418   4.440   4.693   4.985
 3507SOL     OW11419   3.540   1.068   0.638
 3507SOL    HW111420   3.624   1.035   0.681
 3507SOL    HW211421   3.510   1.003   0.568
 3508SOL     OW11422   3.145   1.394   5.712
 3508SOL    HW111423   3.097   1.407   5.625
 3508SOL    HW211424   3.181   1.481   5.744
 3509SOL     OW11425   4.182   5.529   6.687
 3509SOL    HW111426   4.256   5.469   6.715
 3509SOL    HW211427   4.147   5.579   6.766
 3510SOL     OW11428   2.383   1.931   1.379
 3510SOL    HW111429   2.469   1.981   1.390
 3510SOL    HW211430   2.354   1.936   1.283
 3511SOL     OW11431   2.675   4.418   1.715
 3511SOL    HW111432   2.709   4.325   1.703
 3511SOL    HW211433   2.740   4.470   1.772
 3512SOL     OW11434   6.866   5.064   5.886
 3512SOL    HW111435   6.964   5.043   5.887
 3512SOL    HW211436   6.816   4.989   5.843
 3513SOL     OW11437   5.882   2.006   0.881
 3513SOL    HW111438   5.815   1.987   0.809
 3513SOL    HW211439   5.894   2.105   0.890
 3514SOL     OW11440   3.090   1.891   1.761
 3514SOL    HW111441   3.067   1.801   1.797
 3514SOL    HW211442   3.006   1.939   1.735
 3515SOL     OW11443   0.474   4.768   4.760
 3515SOL    HW111444   0.449   4.817   4.677
 3515SOL    HW211445   0.505   4.676   4.736
 3516SOL     OW11446   4.735   0.394   1.128
 3516SOL    HW111447   4.772   0.485   1.148
 3516SOL    HW211448   4.660   0.402   1.062
 3517SOL     OW11449   4.769   0.748   1.718
 3517SOL    HW111450   4.721   0.736   1.631
 3517SOL    HW211451   4.826   0.830   1.714
 3518SOL     OW11452   5.443   0.904   4.915
 3518SOL    HW111453   5.432   0.863   4.825
 3518SOL    HW211454   5.423   1.002   4.911
 3519SOL     OW11455   3.109   1.069   1.126
 3519SOL    HW111456   3.142   1.107   1.212
 3519SOL    HW211457   3.176   1.088   1.054
 3520SOL     OW11458   2.641   5.845   4.439
 3520SOL    HW111459   2.669   5.841   4.343
 3520SOL    HW211460   2.541   5.854   4.443
 3521SOL     OW11461   2.645   2.844   6.425
 3521SOL    HW111462   2.593   2.896   6.357
 3521SOL    HW211463   2.730   2.892   6.446
 3522SOL     OW11464   0.956   6.242   6.482
 3522SOL    HW111465   0.918   6.233   6.574
 3522SOL    HW211466   0.992   6.335   6.470
 3523SOL     OW11467   3.429   6.338   6.951
 3523SOL    HW111468   3.332   6.361   6.948
 3523SOL    HW211469   3.462   6.322   6.857
 3524SOL     OW11470   4.786   1.071   3.935
 3524SOL    HW111471   4.850   1.033   4.002
 3524SOL    HW211472   4.765   1.002   3.866
 3525SOL     OW11473   0.217   3.228   3.473
 3525SOL    HW111474   0.179   3.137   3.492
 3525SOL    HW211475   0.165   3.297   3.524
 3526SOL     OW11476   0.603   6.565   1.798
 3526SOL    HW111477   0.513   6.526   1.817
 3526SOL    HW211478   0.673   6.506   1.837
 3527SOL     OW11479   6.686   3.055   6.631
 3527SOL    HW111480   6.710   3.034   6.726
 3527SOL    HW211481   6.768   3.051   6.574
 3528SOL     OW11482   2.222   5.277   4.536
 3528SOL    HW111483   2.224   5.357   4.476
 3528SOL    HW211484   2.267   5.200   4.491
 3529SOL     OW11485   4.239   4.859   0.620
 3529SOL    HW111486   4.186   4.800   0.558
 3529SOL    HW211487   4.240   4.818   0.712
 3530SOL     OW11488   6.672   6.979   0.960
 3530SOL    HW111489   6.647   6.970   1.056
 3530SOL    HW211490   6.641   6.899   0.909
 3531SOL     OW11491   4.340   2.277   0.345
 3531SOL    HW111492   4.411   2.309   0.283
 3531SOL    HW211493   4.373   2.198   0.396
 3532SOL     OW11494   1.957   0.723   1.717
 3532SOL    HW111495   1.892   0.679   1.778
 3532SOL    HW211496   1.933   0.820   1.707
 3533SOL     OW11497   0.942   1.845   3.474
 3533SOL    HW111498   0.944   1.812   3.379
 3533SOL    HW211499   0.998   1.927   3.483
 3534SOL     OW11500   0.541   0.681   0.916
 3534SOL    HW111501   0.635   0.647   0.908
 3534SOL    HW211502   0.480   0.624   0.861
 3535SOL     OW11503   3.265   5.938   3.896
 3535SOL    HW111504   3.218   5.905   3.977
 3535SOL    HW211505   3.200   5.987   3.837
 3536SOL     OW11506   3.819   1.557   3.106
 3536SOL    HW111507   3.899   1.589   3.157
 3536SOL    HW211508   3.774   1.484   3.157
 3537SOL     OW11509   1.611   0.088   3.732
 3537SOL    HW111510   1.631   0.015   3.666
 3537SOL    HW211511   1.648   0.063   3.822
 3538SOL     OW11512   2.712   5.438   2.020
 3538SOL    HW111513   2.657   5.479   1.947
 3538SOL    HW211514   2.763   5.361   1.984
 3539SOL     OW11515   3.317   3.701   4.407
 3539SOL    HW111516   3.416   3.693   4.399
 3539SOL    HW211517   3.275   3.614   4.382
 3540SOL     OW11518   1.530   2.229   3.825
 3540SOL    HW111519   1.502   2.134   3.809
 3540SOL    HW211520   1.560   2.239   3.920
 3541SOL     OW11521   4.113   3.460   4.506
 3541SOL    HW111522   4.127   3.449   4.605
 3541SOL    HW211523   4.111   3.370   4.463
 3542SOL     OW11524   6.690   5.273   1.051
 3542SOL    HW111525   6.688   5.252   1.149
 3542SOL    HW211526   6.641   5.202   1.001
 3543SOL     OW11527   5.150   2.444   4.636
 3543SOL    HW111528   5.137   2.526   4.581
 3543SOL    HW211529   5.171   2.367   4.576
 3544SOL     OW11530   2.592   6.659   0.190
 3544SOL    HW111531   2.577   6.708   0.276
 3544SOL    HW211532   2.505   6.650   0.142
 3545SOL     OW11533   3.232   4.996   0.639
 3545SOL    HW111534   3.262   4.909   0.600
 3545SOL    HW211535   3.132   4.999   0.641
 3546SOL     OW11536   0.329   4.666   2.295
 3546SOL    HW111537   0.286   4.653   2.205
 3546SOL    HW211538   0.413   4.718   2.285
 3547SOL     OW11539   5.364   4.786   4.416
 3547SOL    HW111540   5.338   4.736   4.499
 3547SOL    HW211541   5.440   4.739   4.371
 3548SOL     OW11542   5.055   3.581   5.958
 3548SOL    HW111543   4.968   3.631   5.955
 3548SOL    HW211544   5.090   3.580   6.051
 3549SOL     OW11545   4.835   3.362   2.593
 3549SOL    HW111546   4.895   3.312   2.530
 3549SOL    HW211547   4.745   3.373   2.550
 3550SOL     OW11548   4.868   1.478   3.304
 3550SOL    HW111549   4.787   1.422   3.290
 3550SOL    HW211550   4.878   1.498   3.402
 3551SOL     OW11551   2.111   6.177   2.670
 3551SOL    HW111552   2.027   6.204   2.718
 3551SOL    HW211553   2.139   6.251   2.608
 3552SOL     OW11554   6.807   4.413   2.992
 3552SOL    HW111555   6.751   4.484   2.950
 3552SOL    HW211556   6.748   4.340   3.026
 3553SOL     OW11557   5.825   1.894   3.314
 3553SOL    HW111558   5.886   1.888   3.235
 3553SOL    HW211559   5.832   1.985   3.355
 3554SOL     OW11560   4.457   5.608   0.005
 3554SOL    HW111561   4.446   5.508   0.005
 3554SOL    HW211562   4.369   5.651   0.025
 3555SOL     OW11563   0.759   2.465   3.522
 3555SOL    HW111564   0.842   2.428   3.482
 3555SOL    HW211565   0.686   2.468   3.454
 3556SOL     OW11566   4.146   1.414   6.654
 3556SOL    HW111567   4.178   1.400   6.748
 3556SOL    HW211568   4.133   1.512   6.637
 3557SOL     OW11569   1.026   0.496   4.378
 3557SOL    HW111570   1.094   0.483   4.450
 3557SOL    HW211571   1.070   0.491   4.289
 3558SOL     OW11572   0.236   6.571   1.566
 3558SOL    HW111573   0.161   6.637   1.566
 3558SOL    HW211574   0.208   6.488   1.613
 3559SOL     OW11575   1.377   0.542   5.886
 3559SOL    HW111576   1.423   0.627   5.862
 3559SOL    HW211577   1.341   0.550   5.980
 3560SOL     OW11578   6.636   6.715   1.691
 3560SOL    HW111579   6.551   6.729   1.741
 3560SOL    HW211580   6.618   6.658   1.610
 3561SOL     OW11581   5.164   4.588   3.706
 3561SOL    HW111582   5.117   4.612   3.621
 3561SOL    HW211583   5.144   4.657   3.775
 3562SOL     OW11584   4.034   2.223   2.949
 3562SOL    HW111585   3.990   2.223   3.039
 3562SOL    HW211586   4.054   2.129   2.922
 3563SOL     OW11587   4.689   6.413   1.412
 3563SOL    HW111588   4.602   6.460   1.429
 3563SOL    HW211589   4.672   6.315   1.402
 3564SOL     OW11590   6.669   4.212   3.145
 3564SOL    HW111591   6.584   4.162   3.129
 3564SOL    HW211592   6.677   4.236   3.242
 3565SOL     OW11593   1.576   1.216   5.218
 3565SOL    HW111594   1.477   1.202   5.215
 3565SOL    HW211595   1.619   1.140   5.267
 3566SOL     OW11596   1.006   4.174   5.674
 3566SOL    HW111597   0.920   4.225   5.668
 3566SOL    HW211598   0.992   4.092   5.729
 3567SOL     OW11599   0.097   2.275   1.597
 3567SOL    HW111600   0.051   2.264   1.509
 3567SOL    HW211601   0.159   2.353   1.594
 3568SOL     OW11602   4.744   4.336   3.360
 3568SOL    HW111603   4.663   4.390   3.338
 3568SOL    HW211604   4.765   4.345   3.457
 3569SOL     OW11605   3.992   3.491   3.505
 3569SOL    HW111606   3.900   3.468   3.536
 3569SOL    HW211607   4.053   3.497   3.584
 3570SOL     OW11608   0.214   2.033   5.340
 3570SOL    HW111609   0.120   2.063   5.354
 3570SOL    HW211610   0.226   1.940   5.375
 3571SOL     OW11611   2.715   6.950   4.316
 3571SOL    HW111612   2.799   6.967   4.265
 3571SOL    HW211613   2.664   0.012   4.326
 3572SOL     OW11614   5.214   4.300   2.464
 3572SOL    HW111615   5.118   4.288   2.438
 3572SOL    HW211616   5.221   4.310   2.563
 3573SOL     OW11617   6.777   4.589   3.967
 3573SOL    HW111618   6.827   4.648   3.904
 3573SOL    HW211619   6.809   4.495   3.956
 3574SOL     OW11620   2.048   1.760   5.846
 3574SOL    HW111621   2.112   1.704   5.793
 3574SOL    HW211622   2.055   1.737   5.943
 3575SOL     OW11623   5.165   0.372   6.374
 3575SOL    HW111624   5.137   0.310   6.300
 3575SOL    HW211625   5.146   0.466   6.348
 3576SOL     OW11626   1.049   2.812   0.550
 3576SOL    HW111627   1.037   2.909   0.570
 3576SOL    HW211628   0.969   2.777   0.501
 3577SOL     OW11629   1.508   3.256   4.670
 3577SOL    HW111630   1.509   3.252   4.570
 3577SOL    HW211631   1.589   3.210   4.706
 3578SOL     OW11632   3.772   2.811   0.464
 3578SOL    HW111633   3.786   2.891   0.522
 3578SOL    HW211634   3.844   2.807   0.395
 3579SOL     OW11635   1.435   3.716   1.582
 3579SOL    HW111636   1.459   3.800   1.534
 3579SOL    HW211637   1.472   3.637   1.532
 3580SOL     OW11638   0.153   3.698   1.700
 3580SOL    HW111639   0.126   3.733   1.790
 3580SOL    HW211640   0.091   3.734   1.630
 3581SOL     OW11641   1.635   0.433   2.672
 3581SOL    HW111642   1.555   0.408   2.617
 3581SOL    HW211643   1.631   0.530   2.694
 3582SOL     OW11644   4.319   5.960   0.059
 3582SOL    HW111645   4.254   5.884   0.057
 3582SOL    HW211646   4.306   6.017   7.002
 3583SOL     OW11647   1.731   5.686   1.237
 3583SOL    HW111648   1.744   5.768   1.180
 3583SOL    HW211649   1.705   5.714   1.329
 3584SOL     OW11650   6.074   4.694   4.963
 3584SOL    HW111651   6.149   4.758   4.982
 3584SOL    HW211652   6.102   4.602   4.990
 3585SOL     OW11653   3.707   2.101   3.611
 3585SOL    HW111654   3.623   2.119   3.662
 3585SOL    HW211655   3.686   2.048   3.529
 3586SOL     OW11656   6.430   2.365   5.703
 3586SOL    HW111657   6.517   2.414   5.702
 3586SOL    HW211658   6.428   2.297   5.630
 3587SOL     OW11659   2.913   0.500   6.030
 3587SOL    HW111660   2.858   0.578   6.060
 3587SOL    HW211661   3.006   0.509   6.066
 3588SOL     OW11662   5.654   4.325   4.148
 3588SOL    HW111663   5.718   4.399   4.131
 3588SOL    HW211664   5.560   4.357   4.134
 3589SOL     OW11665   0.835   0.735   6.199
 3589SOL    HW111666   0.839   0.727   6.099
 3589SOL    HW211667   0.758   0.682   6.234
 3590SOL     OW11668   5.967   5.068   5.263
 3590SOL    HW111669   5.979   5.107   5.172
 3590SOL    HW211670   5.979   4.969   5.259
 3591SOL     OW11671   4.972   1.945   0.765
 3591SOL    HW111672   4.965   1.982   0.858
 3591SOL    HW211673   4.912   1.865   0.756
 3592SOL     OW11674   1.466   5.972   1.112
 3592SOL    HW111675   1.559   5.949   1.084
 3592SOL    HW211676   1.469   6.049   1.176
 3593SOL     OW11677   4.340   3.086   5.879
 3593SOL    HW111678   4.394   3.119   5.956
 3593SOL    HW211679   4.369   3.134   5.796
 3594SOL     OW11680   4.528   4.531   5.277
 3594SOL    HW111681   4.536   4.492   5.368
 3594SOL    HW211682   4.439   4.507   5.238
 3595SOL     OW11683   4.647   6.552   4.944
 3595SOL    HW111684   4.561   6.601   4.958
 3595SOL    HW211685   4.631   6.453   4.947
 3596SOL     OW11686   3.657   2.070   2.464
 3596SOL    HW111687   3.565   2.033   2.477
 3596SOL    HW211688   3.675   2.139   2.534
 3597SOL     OW11689   3.802   4.232   5.321
 3597SOL    HW111690   3.823   4.305   5.387
 3597SOL    HW211691   3.883   4.174   5.309
 3598SOL     OW11692   0.058   5.606   4.866
 3598SOL    HW111693   0.110   5.689   4.847
 3598SOL    HW211694   0.034   5.562   4.780
 3599SOL     OW11695   2.626   1.082   5.113
 3599SOL    HW111696   2.538   1.036   5.124
 3599SOL    HW211697   2.696   1.015   5.090
 3600SOL     OW11698   2.927   4.280   0.513
 3600SOL    HW111699   2.886   4.195   0.545
 3600SOL    HW211700   2.929   4.281   0.413
 3601SOL     OW11701   3.851   0.651   5.437
 3601SOL    HW111702   3.919   0.579   5.455
 3601SOL    HW211703   3.863   0.726   5.502
 3602SOL     OW11704   1.562   2.428   1.172
 3602SOL    HW111705   1.595   2.384   1.089
 3602SOL    HW211706   1.539   2.359   1.241
 3603SOL     OW11707   1.855   0.112   6.142
 3603SOL    HW111708   1.816   0.163   6.066
 3603SOL    HW211709   1.790   0.041   6.172
 3604SOL     OW11710   6.557   0.729   3.595
 3604SOL    HW111711   6.625   0.732   3.667
 3604SOL    HW211712   6.558   0.815   3.544
 3605SOL     OW11713   1.515   0.236   5.063
 3605SOL    HW111714   1.574   0.245   4.983
 3605SOL    HW211715   1.500   0.326   5.105
 3606SOL     OW11716   2.424   6.897   2.918
 3606SOL    HW111717   2.521   6.890   2.941
 3606SOL    HW211718   2.373   6.924   3.000
 3607SOL     OW11719   6.264   1.343   3.423
 3607SOL    HW111720   6.297   1.327   3.517
 3607SOL    HW211721   6.309   1.278   3.362
 3608SOL     OW11722   4.048   1.954   5.523
 3608SOL    HW111723   4.134   1.957   5.471
 3608SOL    HW211724   4.067   1.975   5.619
 3609SOL     OW11725   3.329   0.104   5.356
 3609SOL    HW111726   3.374   0.192   5.370
 3609SOL    HW211727   3.242   0.118   5.310
 3610SOL     OW11728   1.960   0.637   5.507
 3610SOL    HW111729   1.935   0.551   5.463
 3610SOL    HW211730   2.032   0.682   5.454
 3611SOL     OW11731   5.456   4.015   3.529
 3611SOL    HW111732   5.356   4.008   3.525
 3611SOL    HW211733   5.485   4.016   3.625
 3612SOL     OW11734   4.736   1.487   0.206
 3612SOL    HW111735   4.778   1.409   0.253
 3612SOL    HW211736   4.808   1.545   0.167
 3613SOL     OW11737   3.722   0.358   2.477
 3613SOL    HW111738   3.726   0.273   2.424
 3613SOL    HW211739   3.754   0.342   2.570
 3614SOL     OW11740   3.935   5.481   0.336
 3614SOL    HW111741   4.024   5.526   0.320
 3614SOL    HW211742   3.896   5.515   0.421
 3615SOL     OW11743   5.408   2.757   5.130
 3615SOL    HW111744   5.503   2.731   5.140
 3615SOL    HW211745   5.397   2.812   5.046
 3616SOL     OW11746   1.368   1.743   0.870
 3616SOL    HW111747   1.411   1.831   0.889
 3616SOL    HW211748   1.349   1.735   0.772
 3617SOL     OW11749   4.138   5.229   4.974
 3617SOL    HW111750   4.047   5.198   5.000
 3617SOL    HW211751   4.151   5.323   5.005
 3618SOL     OW11752   0.858   5.472   4.377
 3618SOL    HW111753   0.772   5.507   4.413
 3618SOL    HW211754   0.901   5.411   4.444
 3619SOL     OW11755   6.593   1.857   2.433
 3619SOL    HW111756   6.509   1.860   2.378
 3619SOL    HW211757   6.647   1.777   2.409
 3620SOL     OW11758   4.895   6.108   5.467
 3620SOL    HW111759   4.957   6.175   5.425
 3620SOL    HW211760   4.907   6.110   5.566
 3621SOL     OW11761   3.354   2.904   3.832
 3621SOL    HW111762   3.377   2.910   3.735
 3621SOL    HW211763   3.361   2.995   3.873
 3622SOL     OW11764   2.481   5.657   6.150
 3622SOL    HW111765   2.409   5.711   6.193
 3622SOL    HW211766   2.570   5.698   6.171
 3623SOL     OW11767   1.480   6.253   5.756
 3623SOL    HW111768   1.512   6.178   5.697
 3623SOL    HW211769   1.552   6.321   5.764
 3624SOL     OW11770   2.623   1.413   2.718
 3624SOL    HW111771   2.592   1.350   2.790
 3624SOL    HW211772   2.544   1.443   2.664
 3625SOL     OW11773   6.112   2.808   1.543
 3625SOL    HW111774   6.200   2.840   1.579
 3625SOL    HW211775   6.079   2.732   1.598
 3626SOL     OW11776   1.117   3.014   6.043
 3626SOL    HW111777   1.067   3.084   6.094
 3626SOL    HW211778   1.094   2.923   6.079
 3627SOL     OW11779   3.200   1.164   2.678
 3627SOL    HW111780   3.187   1.186   2.775
 3627SOL    HW211781   3.120   1.195   2.626
 3628SOL     OW11782   6.627   1.265   1.287
 3628SOL    HW111783   6.561   1.247   1.360
 3628SOL    HW211784   6.688   1.340   1.314
 3629SOL     OW11785   1.862   0.979   4.465
 3629SOL    HW111786   1.926   0.970   4.542
 3629SOL    HW211787   1.780   0.924   4.483
 3630SOL     OW11788   6.714   2.192   2.493
 3630SOL    HW111789   6.630   2.242   2.470
 3630SOL    HW211790   6.788   2.221   2.432
 3631SOL     OW11791   2.106   5.615   2.482
 3631SOL    HW111792   2.050   5.570   2.413
 3631SOL    HW211793   2.170   5.677   2.437
 3632SOL     OW11794   5.008   3.263   2.395
 3632SOL    HW111795   5.106   3.252   2.411
 3632SOL    HW211796   4.984   3.224   2.306
 3633SOL     OW11797   4.400   4.962   6.427
 3633SOL    HW111798   4.468   5.008   6.484
 3633SOL    HW211799   4.387   4.868   6.459
 3634SOL     OW11800   3.340   5.398   6.353
 3634SOL    HW111801   3.256   5.376   6.304
 3634SOL    HW211802   3.392   5.467   6.302
 3635SOL     OW11803   1.679   0.008   2.977
 3635SOL    HW111804   1.614   0.084   2.975
 3635SOL    HW211805   1.772   0.044   2.971
 3636SOL     OW11806   6.968   5.908   4.751
 3636SOL    HW111807   6.921   5.993   4.728
 3636SOL    HW211808   6.915   5.830   4.717
 3637SOL     OW11809   5.549   2.460   6.500
 3637SOL    HW111810   5.637   2.458   6.452
 3637SOL    HW211811   5.476   2.482   6.435
 3638SOL     OW11812   0.754   2.844   3.450
 3638SOL    HW111813   0.805   2.930   3.445
 3638SOL    HW211814   0.780   2.794   3.532
 3639SOL     OW11815   4.079   3.199   4.363
 3639SOL    HW111816   4.102   3.256   4.284
 3639SOL    HW211817   4.019   3.124   4.334
 3640SOL     OW11818   4.814   1.404   2.569
 3640SOL    HW111819   4.812   1.504   2.568
 3640SOL    HW211820   4.884   1.374   2.634
 3641SOL     OW11821   0.205   3.431   1.828
 3641SOL    HW111822   0.211   3.522   1.787
 3641SOL    HW211823   0.110   3.412   1.852
 3642SOL     OW11824   4.756   4.424   6.442
 3642SOL    HW111825   4.662   4.406   6.471
 3642SOL    HW211826   4.810   4.453   6.522
 3643SOL     OW11827   4.223   6.030   4.714
 3643SOL    HW111828   4.158   5.991   4.649
 3643SOL    HW211829   4.175   6.058   4.796
 3644SOL     OW11830   3.131   1.129   2.322
 3644SOL    HW111831   3.174   1.190   2.255
 3644SOL    HW211832   3.083   1.184   2.390
 3645SOL     OW11833   2.181   4.226   3.320
 3645SOL    HW111834   2.085   4.256   3.324
 3645SOL    HW211835   2.194   4.169   3.240
 3646SOL     OW11836   2.120   5.249   5.375
 3646SOL    HW111837   2.102   5.269   5.279
 3646SOL    HW211838   2.122   5.150   5.388
 3647SOL     OW11839   3.516   0.116   0.895
 3647SOL    HW111840   3.440   0.056   0.871
 3647SOL    HW211841   3.536   0.178   0.820
 3648SOL     OW11842   5.365   4.941   3.232
 3648SOL    HW111843   5.388   4.864   3.172
 3648SOL    HW211844   5.449   4.986   3.263
 3649SOL     OW11845   5.365   2.370   0.316
 3649SOL    HW111846   5.322   2.284   0.288
 3649SOL    HW211847   5.463   2.365   0.299
 3650SOL     OW11848   5.412   6.558   6.733
 3650SOL    HW111849   5.477   6.482   6.728
 3650SOL    HW211850   5.395   6.581   6.829
 3651SOL     OW11851   1.183   1.933   6.402
 3651SOL    HW111852   1.140   1.877   6.472
 3651SOL    HW211853   1.114   1.967   6.338
 3652SOL     OW11854   5.638   1.892   2.435
 3652SOL    HW111855   5.722   1.839   2.446
 3652SOL    HW211856   5.658   1.976   2.385
 3653SOL     OW11857   2.341   1.234   0.743
 3653SOL    HW111858   2.259   1.221   0.798
 3653SOL    HW211859   2.339   1.172   0.664
 3654SOL     OW11860   4.243   6.286   1.594
 3654SOL    HW111861   4.313   6.357   1.597
 3654SOL    HW211862   4.155   6.326   1.567
 3655SOL     OW11863   1.362   0.584   4.264
 3655SOL    HW111864   1.309   0.601   4.181
 3655SOL    HW211865   1.316   0.625   4.342
 3656SOL     OW11866   0.339   0.425   0.678
 3656SOL    HW111867   0.382   0.358   0.738
 3656SOL    HW211868   0.317   0.507   0.731
 3657SOL     OW11869   6.063   4.910   6.357
 3657SOL    HW111870   6.014   4.977   6.413
 3657SOL    HW211871   6.006   4.881   6.280
 3658SOL     OW11872   1.755   4.690   5.519
 3658SOL    HW111873   1.814   4.630   5.573
 3658SOL    HW211874   1.707   4.753   5.581
 3659SOL     OW11875   0.434   2.148   6.993
 3659SOL    HW111876   0.486   2.063   6.982
 3659SOL    HW211877   0.406   2.159   0.063
 3660SOL     OW11878   4.178   4.817   4.913
 3660SOL    HW111879   4.228   4.731   4.902
 3660SOL    HW211880   4.131   4.818   5.001
 3661SOL     OW11881   1.115   1.449   5.086
 3661SOL    HW111882   1.032   1.468   5.138
 3661SOL    HW211883   1.124   1.515   5.012
 3662SOL     OW11884   4.085   2.236   5.659
 3662SOL    HW111885   3.994   2.274   5.642
 3662SOL    HW211886   4.079   2.165   5.728
 3663SOL     OW11887   1.616   2.274   5.719
 3663SOL    HW111888   1.649   2.366   5.701
 3663SOL    HW211889   1.661   2.209   5.657
 3664SOL     OW11890   2.443   1.502   0.704
 3664SOL    HW111891   2.518   1.507   0.770
 3664SOL    HW211892   2.398   1.413   0.712
 3665SOL     OW11893   0.098   6.322   4.798
 3665SOL    HW111894   0.086   6.226   4.825
 3665SOL    HW211895   0.176   6.330   4.736
 3666SOL     OW11896   2.036   3.517   4.965
 3666SOL    HW111897   2.086   3.597   4.933
 3666SOL    HW211898   2.062   3.497   5.060
 3667SOL     OW11899   2.189   6.680   1.425
 3667SOL    HW111900   2.195   6.648   1.520
 3667SOL    HW211901   2.251   6.627   1.368
 3668SOL     OW11902   5.008   1.408   0.574
 3668SOL    HW111903   4.975   1.340   0.639
 3668SOL    HW211904   4.934   1.434   0.512
 3669SOL     OW11905   6.695   0.865   1.864
 3669SOL    HW111906   6.691   0.961   1.834
 3669SOL    HW211907   6.608   0.821   1.845
 3670SOL     OW11908   2.030   0.092   2.410
 3670SOL    HW111909   2.098   0.022   2.388
 3670SOL    HW211910   2.025   0.158   2.336
 3671SOL     OW11911   0.815   0.321   5.450
 3671SOL    HW111912   0.785   0.283   5.362
 3671SOL    HW211913   0.789   0.417   5.455
 3672SOL     OW11914   3.579   0.643   3.606
 3672SOL    HW111915   3.550   0.624   3.699
 3672SOL    HW211916   3.502   0.680   3.553
 3673SOL     OW11917   3.292   1.388   1.565
 3673SOL    HW111918   3.202   1.430   1.554
 3673SOL    HW211919   3.362   1.448   1.527
 3674SOL     OW11920   7.016   4.709   5.970
 3674SOL    HW111921   6.939   4.755   6.014
 3674SOL    HW211922   0.034   4.645   6.034
 3675SOL     OW11923   6.466   0.535   5.088
 3675SOL    HW111924   6.549   0.493   5.125
 3675SOL    HW211925   6.399   0.546   5.161
 3676SOL     OW11926   2.225   0.993   5.687
 3676SOL    HW111927   2.219   0.991   5.787
 3676SOL    HW211928   2.298   1.055   5.659
 3677SOL     OW11929   1.206   0.770   4.888
 3677SOL    HW111930   1.172   0.863   4.870
 3677SOL    HW211931   1.296   0.776   4.932
 3678SOL     OW11932   2.769   0.520   3.622
 3678SOL    HW111933   2.866   0.542   3.618
 3678SOL    HW211934   2.758   0.421   3.633
 3679SOL     OW11935   2.992   1.186   1.911
 3679SOL    HW111936   3.079   1.197   1.959
 3679SOL    HW211937   2.942   1.108   1.950
 3680SOL     OW11938   4.285   1.709   3.937
 3680SOL    HW111939   4.365   1.767   3.953
 3680SOL    HW211940   4.277   1.689   3.839
 3681SOL     OW11941   1.126   5.700   3.792
 3681SOL    HW111942   1.083   5.688   3.881
 3681SOL    HW211943   1.116   5.795   3.763
 3682SOL     OW11944   5.143   1.320   1.880
 3682SOL    HW111945   5.153   1.398   1.942
 3682SOL    HW211946   5.233   1.278   1.866
 3683SOL     OW11947   6.474   1.947   1.182
 3683SOL    HW111948   6.547   1.967   1.248
 3683SOL    HW211949   6.514   1.932   1.091
 3684SOL     OW11950   2.878   5.945   5.560
 3684SOL    HW111951   2.905   5.902   5.474
 3684SOL    HW211952   2.787   5.913   5.586
 3685SOL     OW11953   1.980   0.298   3.131
 3685SOL    HW111954   1.901   0.359   3.130
 3685SOL    HW211955   1.998   0.268   3.225
 3686SOL     OW11956   0.719   4.722   0.538
 3686SOL    HW111957   0.803   4.700   0.588
 3686SOL    HW211958   0.648   4.750   0.603
 3687SOL     OW11959   6.826   4.542   4.742
 3687SOL    HW111960   6.805   4.570   4.836
 3687SOL    HW211961   6.846   4.444   4.741
 3688SOL     OW11962   6.973   2.996   1.775
 3688SOL    HW111963   0.011   3.049   1.718
 3688SOL    HW211964   6.879   3.026   1.758
 3689SOL     OW11965   1.863   1.735   5.051
 3689SOL    HW111966   1.816   1.765   5.134
 3689SOL    HW211967   1.799   1.737   4.974
 3690SOL     OW11968   6.976   5.334   2.046
 3690SOL    HW111969   6.909   5.291   2.106
 3690SOL    HW211970   0.032   5.275   2.037
 3691SOL     OW11971   2.096   1.991   0.336
 3691SOL    HW111972   2.191   1.959   0.341
 3691SOL    HW211973   2.075   2.046   0.417
 3692SOL     OW11974   0.870   3.054   5.599
 3692SOL    HW111975   0.953   3.035   5.547
 3692SOL    HW211976   0.813   3.119   5.549
 3693SOL     OW11977   0.520   1.720   2.848
 3693SOL    HW111978   0.475   1.632   2.866
 3693SOL    HW211979   0.479   1.791   2.905
 3694SOL     OW11980   0.062   6.581   2.112
 3694SOL    HW111981   0.069   6.481   2.120
 3694SOL    HW211982   0.098   6.623   2.195
 3695SOL     OW11983   6.099   3.396   3.967
 3695SOL    HW111984   6.119   3.484   4.010
 3695SOL    HW211985   6.008   3.365   3.996
 3696SOL     OW11986   4.509   0.076   4.106
 3696SOL    HW111987   4.517   0.067   4.007
 3696SOL    HW211988   4.414   0.097   4.131
 3697SOL     OW11989   6.079   4.835   3.211
 3697SOL    HW111990   6.178   4.819   3.211
 3697SOL    HW211991   6.035   4.769   3.272
 3698SOL     OW11992   1.142   0.316   4.221
 3698SOL    HW111993   1.079   0.296   4.296
 3698SOL    HW211994   1.213   0.246   4.218
 3699SOL     OW11995   2.908   1.903   3.180
 3699SOL    HW111996   2.982   1.940   3.236
 3699SOL    HW211997   2.882   1.971   3.111
 3700SOL     OW11998   0.648   5.114   4.386
 3700SOL    HW111999   0.676   5.084   4.477
 3700SOL    HW212000   0.557   5.155   4.391
 3701SOL     OW12001   6.477   0.406   1.994
 3701SOL    HW112002   6.541   0.476   2.027
 3701SOL    HW212003   6.528   0.328   1.960
 3702SOL     OW12004   6.458   4.692   3.840
 3702SOL    HW112005   6.428   4.787   3.846
 3702SOL    HW212006   6.429   4.643   3.922
 3703SOL     OW12007   0.499   2.369   3.455
 3703SOL    HW112008   0.525   2.283   3.497
 3703SOL    HW212009   0.400   2.370   3.439
 3704SOL     OW12010   6.299   6.860   1.052
 3704SOL    HW112011   6.369   6.812   1.000
 3704SOL    HW212012   6.303   6.833   1.148
 3705SOL     OW12013   6.575   3.788   3.770
 3705SOL    HW112014   6.494   3.796   3.829
 3705SOL    HW212015   6.651   3.838   3.811
 3706SOL     OW12016   0.620   5.994   6.344
 3706SOL    HW112017   0.627   5.941   6.428
 3706SOL    HW212018   0.524   6.000   6.316
 3707SOL     OW12019   0.229   4.423   3.269
 3707SOL    HW112020   0.158   4.484   3.304
 3707SOL    HW212021   0.319   4.457   3.297
 3708SOL     OW12022   1.622   5.824   0.566
 3708SOL    HW112023   1.711   5.863   0.542
 3708SOL    HW212024   1.628   5.725   0.565
 3709SOL     OW12025   0.831   1.720   1.549
 3709SOL    HW112026   0.772   1.641   1.568
 3709SOL    HW212027   0.862   1.717   1.454
 3710SOL     OW12028   2.024   3.930   5.515
 3710SOL    HW112029   1.991   4.024   5.525
 3710SOL    HW212030   2.031   3.908   5.418
 3711SOL     OW12031   1.734   4.954   5.114
 3711SOL    HW112032   1.640   4.986   5.125
 3711SOL    HW212033   1.735   4.871   5.059
 3712SOL     OW12034   2.801   4.746   4.105
 3712SOL    HW112035   2.879   4.687   4.123
 3712SOL    HW212036   2.762   4.777   4.192
 3713SOL     OW12037   5.944   0.231   5.729
 3713SOL    HW112038   5.947   0.204   5.633
 3713SOL    HW212039   5.849   0.245   5.756
 3714SOL     OW12040   0.284   5.265   0.733
 3714SOL    HW112041   0.341   5.214   0.797
 3714SOL    HW212042   0.221   5.202   0.687
 3715SOL     OW12043   6.015   4.713   2.817
 3715SOL    HW112044   6.013   4.635   2.755
 3715SOL    HW212045   6.104   4.759   2.809
 3716SOL     OW12046   5.491   5.518   5.374
 3716SOL    HW112047   5.494   5.618   5.375
 3716SOL    HW212048   5.579   5.482   5.406
 3717SOL     OW12049   4.621   0.149   1.217
 3717SOL    HW112050   4.629   0.184   1.310
 3717SOL    HW212051   4.671   0.209   1.154
 3718SOL     OW12052   5.535   6.625   6.395
 3718SOL    HW112053   5.609   6.579   6.347
 3718SOL    HW212054   5.448   6.604   6.349
 3719SOL     OW12055   2.624   4.468   0.217
 3719SOL    HW112056   2.637   4.518   0.302
 3719SOL    HW212057   2.537   4.493   0.175
 3720SOL     OW12058   0.428   2.116   0.706
 3720SOL    HW112059   0.411   2.066   0.791
 3720SOL    HW212060   0.478   2.200   0.726
 3721SOL     OW12061   6.266   0.092   6.023
 3721SOL    HW112062   6.229   0.014   5.973
 3721SOL    HW212063   6.231   0.091   6.117
 3722SOL     OW12064   5.597   6.292   1.170
 3722SOL    HW112065   5.679   6.347   1.154
 3722SOL    HW212066   5.601   6.251   1.261
 3723SOL     OW12067   4.701   4.021   5.962
 3723SOL    HW112068   4.680   3.981   5.873
 3723SOL    HW212069   4.693   3.951   6.033
 3724SOL     OW12070   6.114   4.447   5.026
 3724SOL    HW112071   6.164   4.395   4.957
 3724SOL    HW212072   6.170   4.452   5.110
 3725SOL     OW12073   0.119   6.306   0.591
 3725SOL    HW112074   0.104   6.248   0.671
 3725SOL    HW212075   0.202   6.276   0.543
 3726SOL     OW12076   6.082   3.394   5.201
 3726SOL    HW112077   6.085   3.349   5.112
 3726SOL    HW212078   5.988   3.418   5.224
 3727SOL     OW12079   6.807   1.878   4.487
 3727SOL    HW112080   6.798   1.784   4.455
 3727SOL    HW212081   6.738   1.896   4.557
 3728SOL     OW12082   1.690   4.635   0.354
 3728SOL    HW112083   1.680   4.726   0.394
 3728SOL    HW212084   1.768   4.635   0.291
 3729SOL     OW12085   6.976   0.311   6.166
 3729SOL    HW112086   0.003   0.395   6.180
 3729SOL    HW212087   6.963   0.265   6.254
 3730SOL     OW12088   5.414   4.537   4.998
 3730SOL    HW112089   5.374   4.557   5.087
 3730SOL    HW212090   5.361   4.464   4.954
 3731SOL     OW12091   6.729   1.753   1.548
 3731SOL    HW112092   6.667   1.716   1.618
 3731SOL    HW212093   6.816   1.704   1.551
 3732SOL     OW12094   3.656   2.520   0.482
 3732SOL    HW112095   3.741   2.471   0.503
 3732SOL    HW212096   3.666   2.569   0.395
 3733SOL     OW12097   1.675   1.470   3.324
 3733SOL    HW112098   1.586   1.474   3.370
 3733SOL    HW212099   1.708   1.375   3.324
 3734SOL     OW12100   3.728   0.974   1.604
 3734SOL    HW112101   3.812   0.933   1.570
 3734SOL    HW212102   3.736   1.074   1.602
 3735SOL     OW12103   4.227   1.173   2.763
 3735SOL    HW112104   4.196   1.268   2.758
 3735SOL    HW212105   4.148   1.113   2.780
 3736SOL     OW12106   0.931   1.628   0.324
 3736SOL    HW112107   1.024   1.656   0.345
 3736SOL    HW212108   0.874   1.636   0.406
 3737SOL     OW12109   5.340   1.863   4.021
 3737SOL    HW112110   5.283   1.851   3.939
 3737SOL    HW212111   5.370   1.774   4.054
 3738SOL     OW12112   0.494   0.756   0.549
 3738SOL    HW112113   0.448   0.835   0.591
 3738SOL    HW212114   0.442   0.725   0.470
 3739SOL     OW12115   3.256   4.531   6.785
 3739SOL    HW112116   3.295   4.507   6.874
 3739SOL    HW212117   3.259   4.631   6.774
 3740SOL     OW12118   6.141   6.378   6.919
 3740SOL    HW112119   6.193   6.365   6.835
 3740SOL    HW212120   6.106   6.471   6.923
 3741SOL     OW12121   6.644   4.499   6.733
 3741SOL    HW112122   6.630   4.503   6.634
 3741SOL    HW212123   6.738   4.525   6.754
 3742SOL     OW12124   5.072   5.030   1.733
 3742SOL    HW112125   5.008   4.954   1.747
 3742SOL    HW212126   5.124   5.015   1.650
 3743SOL     OW12127   2.509   3.970   0.955
 3743SOL    HW112128   2.525   3.891   1.015
 3743SOL    HW212129   2.466   4.043   1.008
 3744SOL     OW12130   6.694   5.944   2.811
 3744SOL    HW112131   6.735   6.033   2.827
 3744SOL    HW212132   6.626   5.951   2.738
 3745SOL     OW12133   5.812   1.701   2.485
 3745SOL    HW112134   5.898   1.714   2.435
 3745SOL    HW212135   5.832   1.661   2.575
 3746SOL     OW12136   5.015   7.002   5.146
 3746SOL    HW112137   5.051   6.973   5.235
 3746SOL    HW212138   4.916   6.990   5.144
 3747SOL     OW12139   1.920   5.677   5.703
 3747SOL    HW112140   2.010   5.635   5.701
 3747SOL    HW212141   1.924   5.763   5.754
 3748SOL     OW12142   5.069   2.188   3.309
 3748SOL    HW112143   5.099   2.127   3.382
 3748SOL    HW212144   5.001   2.142   3.252
 3749SOL     OW12145   5.789   6.377   1.657
 3749SOL    HW112146   5.886   6.372   1.636
 3749SOL    HW212147   5.761   6.295   1.708
 3750SOL     OW12148   5.882   4.101   1.676
 3750SOL    HW112149   5.911   4.195   1.696
 3750SOL    HW212150   5.943   4.036   1.720
 3751SOL     OW12151   1.651   4.805   0.677
 3751SOL    HW112152   1.710   4.725   0.682
 3751SOL    HW212153   1.564   4.780   0.634
 3752SOL     OW12154   1.067   6.969   6.142
 3752SOL    HW112155   0.998   6.967   6.214
 3752SOL    HW212156   1.048   6.897   6.075
 3753SOL     OW12157   1.046   1.203   5.940
 3753SOL    HW112158   0.996   1.280   5.901
 3753SOL    HW212159   1.071   1.139   5.867
 3754SOL     OW12160   6.565   6.291   1.743
 3754SOL    HW112161   6.501   6.238   1.799
 3754SOL    HW212162   6.520   6.376   1.713
 3755SOL     OW12163   4.742   2.595   2.864
 3755SOL    HW112164   4.801   2.524   2.824
 3755SOL    HW212165   4.651   2.588   2.824
 3756SOL     OW12166   3.390   0.066   0.493
 3756SOL    HW112167   3.444   0.135   0.541
 3756SOL    HW212168   3.338   0.109   0.419
 3757SOL     OW12169   3.044   4.322   5.746
 3757SOL    HW112170   2.993   4.314   5.661
 3757SOL    HW212171   3.027   4.412   5.787
 3758SOL     OW12172   0.041   0.797   1.726
 3758SOL    HW112173   7.007   0.874   1.753
 3758SOL    HW212174   0.069   0.808   1.631
 3759SOL     OW12175   4.667   4.469   0.642
 3759SOL    HW112176   4.726   4.540   0.680
 3759SOL    HW212177   4.662   4.392   0.705
 3760SOL     OW12178   1.765   1.588   5.970
 3760SOL    HW112179   1.864   1.596   5.983
 3760SOL    HW212180   1.718   1.622   6.052
 3761SOL     OW12181   6.525   6.027   4.290
 3761SOL    HW112182   6.540   5.964   4.366
 3761SOL    HW212183   6.431   6.019   4.259
 3762SOL     OW12184   0.499   3.329   0.615
 3762SOL    HW112185   0.560   3.279   0.677
 3762SOL    HW212186   0.446   3.396   0.667
 3763SOL     OW12187   7.018   3.043   4.589
 3763SOL    HW112188   6.956   3.067   4.664
 3763SOL    HW212189   0.009   3.123   4.531
 3764SOL     OW12190   1.922   0.125   3.980
 3764SOL    HW112191   1.993   0.124   4.051
 3764SOL    HW212192   1.958   0.168   3.897
 3765SOL     OW12193   6.296   0.904   3.636
 3765SOL    HW112194   6.383   0.930   3.596
 3765SOL    HW212195   6.230   0.884   3.562
 3766SOL     OW12196   2.284   1.218   4.984
 3766SOL    HW112197   2.193   1.221   5.026
 3766SOL    HW212198   2.349   1.176   5.048
 3767SOL     OW12199   0.240   4.640   0.873
 3767SOL    HW112200   0.247   4.689   0.960
 3767SOL    HW212201   0.281   4.549   0.882
 3768SOL     OW12202   4.635   6.633   1.010
 3768SOL    HW112203   4.661   6.537   1.011
 3768SOL    HW212204   4.715   6.689   1.034
 3769SOL     OW12205   4.079   6.599   4.696
 3769SOL    HW112206   4.168   6.601   4.742
 3769SOL    HW212207   4.093   6.603   4.597
 3770SOL     OW12208   1.686   2.601   0.330
 3770SOL    HW112209   1.627   2.578   0.408
 3770SOL    HW212210   1.629   2.624   0.251
 3771SOL     OW12211   4.602   1.556   5.902
 3771SOL    HW112212   4.656   1.607   5.835
 3771SOL    HW212213   4.522   1.610   5.928
 3772SOL     OW12214   5.263   0.856   2.596
 3772SOL    HW112215   5.311   0.940   2.573
 3772SOL    HW212216   5.171   0.858   2.556
 3773SOL     OW12217   6.577   2.595   0.790
 3773SOL    HW112218   6.528   2.600   0.877
 3773SOL    HW212219   6.513   2.570   0.718
 3774SOL     OW12220   1.212   1.720   1.632
 3774SOL    HW112221   1.237   1.718   1.535
 3774SOL    HW212222   1.274   1.661   1.684
 3775SOL     OW12223   5.055   2.494   3.298
 3775SOL    HW112224   5.088   2.588   3.309
 3775SOL    HW212225   5.132   2.431   3.293
 3776SOL     OW12226   3.200   2.072   6.525
 3776SOL    HW112227   3.110   2.109   6.501
 3776SOL    HW212228   3.195   1.972   6.526
 3777SOL     OW12229   1.225   4.166   3.318
 3777SOL    HW112230   1.302   4.142   3.259
 3777SOL    HW212231   1.245   4.252   3.366
 3778SOL     OW12232   2.068   0.672   1.998
 3778SOL    HW112233   1.982   0.624   1.980
 3778SOL    HW212234   2.063   0.764   1.961
 3779SOL     OW12235   1.433   5.104   6.605
 3779SOL    HW112236   1.442   5.203   6.607
 3779SOL    HW212237   1.476   5.068   6.522
 3780SOL     OW12238   1.819   6.924   4.292
 3780SOL    HW112239   1.744   6.990   4.291
 3780SOL    HW212240   1.793   6.842   4.240
 3781SOL     OW12241   2.726   5.194   4.794
 3781SOL    HW112242   2.741   5.132   4.717
 3781SOL    HW212243   2.814   5.222   4.832
 3782SOL     OW12244   2.462   1.394   2.222
 3782SOL    HW112245   2.398   1.368   2.150
 3782SOL    HW212246   2.545   1.339   2.215
 3783SOL     OW12247   5.286   4.682   4.634
 3783SOL    HW112248   5.187   4.672   4.644
 3783SOL    HW212249   5.326   4.707   4.722
 3784SOL     OW12250   4.866   2.400   4.475
 3784SOL    HW112251   4.833   2.425   4.566
 3784SOL    HW212252   4.848   2.474   4.410
 3785SOL     OW12253   0.824   0.311   2.071
 3785SOL    HW112254   0.760   0.366   2.125
 3785SOL    HW212255   0.900   0.282   2.130
 3786SOL     OW12256   2.703   6.142   1.562
 3786SOL    HW112257   2.766   6.072   1.528
 3786SOL    HW212258   2.706   6.221   1.501
 3787SOL     OW12259   4.953   0.874   3.638
 3787SOL    HW112260   4.860   0.870   3.675
 3787SOL    HW212261   4.951   0.917   3.547
 3788SOL     OW12262   6.569   3.424   2.235
 3788SOL    HW112263   6.648   3.486   2.235
 3788SOL    HW212264   6.556   3.386   2.143
 3789SOL     OW12265   1.700   5.341   1.985
 3789SOL    HW112266   1.798   5.324   1.971
 3789SOL    HW212267   1.686   5.385   2.073
 3790SOL     OW12268   1.673   3.445   2.557
 3790SOL    HW112269   1.586   3.420   2.601
 3790SOL    HW212270   1.684   3.394   2.472
 3791SOL     OW12271   6.792   0.731   2.717
 3791SOL    HW112272   6.806   0.633   2.728
 3791SOL    HW212273   6.853   0.781   2.779
 3792SOL     OW12274   0.986   5.697   6.262
 3792SOL    HW112275   1.073   5.743   6.244
 3792SOL    HW212276   0.982   5.668   6.357
 3793SOL     OW12277   0.339   5.691   2.581
 3793SOL    HW112278   0.372   5.666   2.672
 3793SOL    HW212279   0.322   5.607   2.528
 3794SOL     OW12280   4.415   0.352   3.798
 3794SOL    HW112281   4.385   0.339   3.892
 3794SOL    HW212282   4.511   0.327   3.790
 3795SOL     OW12283   5.701   0.358   0.776
 3795SOL    HW112284   5.795   0.340   0.804
 3795SOL    HW212285   5.645   0.278   0.795
 3796SOL     OW12286   6.899   2.649   1.265
 3796SOL    HW112287   6.869   2.718   1.331
 3796SOL    HW212288   6.999   2.652   1.258
 3797SOL     OW12289   0.288   5.306   2.819
 3797SOL    HW112290   0.210   5.253   2.787
 3797SOL    HW212291   0.276   5.328   2.916
 3798SOL     OW12292   1.410   4.584   0.075
 3798SOL    HW112293   1.424   4.632   0.162
 3798SOL    HW212294   1.404   4.486   0.092
 3799SOL     OW12295   1.467   0.773   5.509
 3799SOL    HW112296   1.513   0.841   5.454
 3799SOL    HW212297   1.396   0.727   5.454
 3800SOL     OW12298   5.039   2.442   4.895
 3800SOL    HW112299   5.088   2.447   4.808
 3800SOL    HW212300   5.012   2.534   4.923
 3801SOL     OW12301   6.669   0.402   5.822
 3801SOL    HW112302   6.612   0.342   5.879
 3801SOL    HW212303   6.764   0.372   5.827
 3802SOL     OW12304   1.657   2.341   5.183
 3802SOL    HW112305   1.697   2.371   5.096
 3802SOL    HW212306   1.670   2.411   5.253
 3803SOL     OW12307   4.232   1.528   1.405
 3803SOL    HW112308   4.152   1.578   1.440
 3803SOL    HW212309   4.247   1.447   1.462
 3804SOL     OW12310   5.220   3.659   4.956
 3804SOL    HW112311   5.173   3.617   4.878
 3804SOL    HW212312   5.153   3.675   5.029
 3805SOL     OW12313   1.785   3.783   1.292
 3805SOL    HW112314   1.780   3.734   1.379
 3805SOL    HW212315   1.880   3.808   1.273
 3806SOL     OW12316   3.427   0.772   0.029
 3806SOL    HW112317   3.427   0.684   0.075
 3806SOL    HW212318   3.375   0.838   0.083
 3807SOL     OW12319   1.531   6.869   2.807
 3807SOL    HW112320   1.549   6.942   2.872
 3807SOL    HW212321   1.610   6.807   2.803
 3808SOL     OW12322   3.892   0.991   0.336
 3808SOL    HW112323   3.885   1.090   0.327
 3808SOL    HW212324   3.805   0.953   0.365
 3809SOL     OW12325   4.296   1.054   0.263
 3809SOL    HW112326   4.366   0.984   0.279
 3809SOL    HW212327   4.339   1.144   0.262
 3810SOL     OW12328   1.889   3.843   6.852
 3810SOL    HW112329   1.804   3.790   6.855
 3810SOL    HW212330   1.882   3.913   6.781
 3811SOL     OW12331   6.905   0.686   6.129
 3811SOL    HW112332   6.907   0.768   6.186
 3811SOL    HW212333   6.995   0.642   6.131
 3812SOL     OW12334   4.377   0.471   5.670
 3812SOL    HW112335   4.345   0.555   5.712
 3812SOL    HW212336   4.416   0.491   5.580
 3813SOL     OW12337   3.710   4.964   2.059
 3813SOL    HW112338   3.722   5.029   1.984
 3813SOL    HW212339   3.694   4.872   2.022
 3814SOL     OW12340   2.045   0.651   1.442
 3814SOL    HW112341   2.039   0.628   1.539
 3814SOL    HW212342   2.017   0.746   1.429
 3815SOL     OW12343   5.464   2.218   2.090
 3815SOL    HW112344   5.368   2.227   2.063
 3815SOL    HW212345   5.484   2.280   2.166
 3816SOL     OW12346   0.015   6.522   0.430
 3816SOL    HW112347   0.014   6.524   0.530
 3816SOL    HW212348   0.107   6.541   0.397
 3817SOL     OW12349   5.383   2.023   5.399
 3817SOL    HW112350   5.458   1.992   5.457
 3817SOL    HW212351   5.417   2.091   5.333
 3818SOL     OW12352   3.676   5.637   2.951
 3818SOL    HW112353   3.611   5.626   2.876
 3818SOL    HW212354   3.634   5.690   3.025
 3819SOL     OW12355   5.487   3.642   6.546
 3819SOL    HW112356   5.473   3.667   6.450
 3819SOL    HW212357   5.584   3.624   6.562
 3820SOL     OW12358   4.275   6.256   3.250
 3820SOL    HW112359   4.184   6.215   3.245
 3820SOL    HW212360   4.280   6.317   3.329
 3821SOL     OW12361   0.223   4.441   1.453
 3821SOL    HW112362   0.309   4.437   1.401
 3821SOL    HW212363   0.146   4.443   1.390
 3822SOL     OW12364   0.767   3.689   1.137
 3822SOL    HW112365   0.853   3.674   1.186
 3822SOL    HW212366   0.713   3.759   1.183
 3823SOL     OW12367   2.701   3.639   5.433
 3823SOL    HW112368   2.760   3.558   5.440
 3823SOL    HW212369   2.607   3.613   5.452
 3824SOL     OW12370   0.408   2.057   6.109
 3824SOL    HW112371   0.418   1.960   6.131
 3824SOL    HW212372   0.320   2.071   6.063
 3825SOL     OW12373   0.579   6.523   5.989
 3825SOL    HW112374   0.579   6.488   6.083
 3825SOL    HW212375   0.592   6.447   5.925
 3826SOL     OW12376   6.372   2.019   1.601
 3826SOL    HW112377   6.336   1.937   1.557
 3826SOL    HW212378   6.302   2.058   1.661
 3827SOL     OW12379   5.213   1.905   2.218
 3827SOL    HW112380   5.147   1.831   2.225
 3827SOL    HW212381   5.303   1.868   2.194
 3828SOL     OW12382   3.757   1.261   1.651
 3828SOL    HW112383   3.707   1.282   1.735
 3828SOL    HW212384   3.733   1.329   1.581
 3829SOL     OW12385   0.865   4.916   3.389
 3829SOL    HW112386   0.847   4.832   3.441
 3829SOL    HW212387   0.805   4.989   3.422
 3830SOL     OW12388   2.552   0.516   5.083
 3830SOL    HW112389   2.567   0.610   5.053
 3830SOL    HW212390   2.456   0.504   5.107
 3831SOL     OW12391   4.641   1.744   2.344
 3831SOL    HW112392   4.547   1.711   2.345
 3831SOL    HW212393   4.677   1.740   2.251
 3832SOL     OW12394   6.079   0.010   2.250
 3832SOL    HW112395   6.123   6.986   2.326
 3832SOL    HW212396   6.076   0.108   2.271
 3833SOL     OW12397   1.863   6.480   2.549
 3833SOL    HW112398   1.769   6.500   2.522
 3833SOL    HW212399   1.911   6.566   2.568
 3834SOL     OW12400   3.061   3.249   0.533
 3834SOL    HW112401   3.001   3.259   0.613
 3834SOL    HW212402   3.077   3.152   0.514
 3835SOL     OW12403   2.992   4.828   3.031
 3835SOL    HW112404   3.063   4.795   3.093
 3835SOL    HW212405   2.902   4.814   3.074
 3836SOL     OW12406   1.117   3.126   5.792
 3836SOL    HW112407   1.119   3.052   5.859
 3836SOL    HW212408   1.137   3.089   5.701
 3837SOL     OW12409   2.939   4.395   6.564
 3837SOL    HW112410   2.923   4.358   6.473
 3837SOL    HW212411   3.034   4.376   6.592
 3838SOL     OW12412   6.463   3.599   4.592
 3838SOL    HW112413   6.425   3.655   4.517
 3838SOL    HW212414   6.388   3.566   4.649
 3839SOL     OW12415   0.699   6.248   6.939
 3839SOL    HW112416   0.666   6.153   6.931
 3839SOL    HW212417   0.629   6.303   6.985
 3840SOL     OW12418   2.682   2.413   3.171
 3840SOL    HW112419   2.774   2.383   3.195
 3840SOL    HW212420   2.668   2.404   3.073
 3841SOL     OW12421   0.992   2.997   3.736
 3841SOL    HW112422   1.004   2.903   3.768
 3841SOL    HW212423   0.894   3.015   3.723
 3842SOL     OW12424   1.209   4.911   6.595
 3842SOL    HW112425   1.309   4.920   6.599
 3842SOL    HW212426   1.181   4.831   6.647
 3843SOL     OW12427   0.015   4.527   6.825
 3843SOL    HW112428   0.069   4.513   6.742
 3843SOL    HW212429   7.005   4.438   6.857
 3844SOL     OW12430   2.745   4.558   5.746
 3844SOL    HW112431   2.837   4.560   5.784
 3844SOL    HW212432   2.750   4.557   5.646
 3845SOL     OW12433   3.250   2.961   4.536
 3845SOL    HW112434   3.209   3.045   4.570
 3845SOL    HW212435   3.185   2.913   4.477
 3846SOL     OW12436   0.122   4.483   5.094
 3846SOL    HW112437   0.143   4.422   5.018
 3846SOL    HW212438   0.112   4.577   5.061
 3847SOL     OW12439   1.098   6.735   0.767
 3847SOL    HW112440   1.023   6.688   0.813
 3847SOL    HW212441   1.153   6.785   0.834
 3848SOL     OW12442   3.078   6.238   1.915
 3848SOL    HW112443   3.099   6.322   1.965
 3848SOL    HW212444   2.988   6.247   1.871
 3849SOL     OW12445   2.751   1.606   5.671
 3849SOL    HW112446   2.674   1.583   5.732
 3849SOL    HW212447   2.772   1.527   5.614
 3850SOL     OW12448   1.154   3.409   1.342
 3850SOL    HW112449   1.213   3.380   1.266
 3850SOL    HW212450   1.099   3.487   1.314
 3851SOL     OW12451   2.497   2.758   0.948
 3851SOL    HW112452   2.489   2.694   1.025
 3851SOL    HW212453   2.513   2.850   0.983
 3852SOL     OW12454   4.645   1.020   5.258
 3852SOL    HW112455   4.712   1.087   5.228
 3852SOL    HW212456   4.649   0.939   5.199
 3853SOL     OW12457   0.374   3.792   2.175
 3853SOL    HW112458   0.290   3.739   2.182
 3853SOL    HW212459   0.370   3.852   2.095
 3854SOL     OW12460   1.410   3.484   4.137
 3854SOL    HW112461   1.480   3.545   4.173
 3854SOL    HW212462   1.438   3.450   4.047
 3855SOL     OW12463   6.989   1.679   5.064
 3855SOL    HW112464   6.964   1.738   4.988
 3855SOL    HW212465   0.064   1.672   5.070
 3856SOL     OW12466   1.072   6.223   6.212
 3856SOL    HW112467   0.992   6.163   6.219
 3856SOL    HW212468   1.077   6.282   6.292
 3857SOL     OW12469   0.262   0.432   6.565
 3857SOL    HW112470   0.254   0.349   6.511
 3857SOL    HW212471   0.205   0.425   6.646
 3858SOL     OW12472   3.845   4.960   6.902
 3858SOL    HW112473   3.781   4.884   6.899
 3858SOL    HW212474   3.912   4.951   6.828
 3859SOL     OW12475   6.651   2.608   2.277
 3859SOL    HW112476   6.691   2.697   2.256
 3859SOL    HW212477   6.619   2.607   2.372
 3860SOL     OW12478   2.519   5.745   4.932
 3860SOL    HW112479   2.481   5.834   4.908
 3860SOL    HW212480   2.511   5.683   4.854
 3861SOL     OW12481   2.994   4.400   6.842
 3861SOL    HW112482   3.066   4.470   6.838
 3861SOL    HW212483   2.936   4.408   6.761
 3862SOL     OW12484   0.909   5.813   5.765
 3862SOL    HW112485   0.997   5.850   5.794
 3862SOL    HW212486   0.847   5.889   5.743
 3863SOL     OW12487   2.376   2.895   0.236
 3863SOL    HW112488   2.318   2.967   0.274
 3863SOL    HW212489   2.441   2.864   0.305
 3864SOL     OW12490   3.485   2.260   1.270
 3864SOL    HW112491   3.524   2.265   1.362
 3864SOL    HW212492   3.552   2.221   1.208
 3865SOL     OW12493   3.745   1.005   2.273
 3865SOL    HW112494   3.701   1.071   2.334
 3865SOL    HW212495   3.733   1.034   2.178
 3866SOL     OW12496   4.136   6.549   0.083
 3866SOL    HW112497   4.212   6.518   0.026
 3866SOL    HW212498   4.171   6.604   0.159
 3867SOL     OW12499   1.851   4.935   3.258
 3867SOL    HW112500   1.902   4.981   3.186
 3867SOL    HW212501   1.868   4.981   3.345
 3868SOL     OW12502   1.499   5.292   3.187
 3868SOL    HW112503   1.486   5.307   3.088
 3868SOL    HW212504   1.550   5.208   3.201
 3869SOL     OW12505   0.860   1.645   3.934
 3869SOL    HW112506   0.946   1.616   3.975
 3869SOL    HW212507   0.836   1.583   3.859
 3870SOL     OW12508   3.858   3.905   0.155
 3870SOL    HW112509   3.904   3.817   0.141
 3870SOL    HW212510   3.808   3.904   0.241
 3871SOL     OW12511   3.299   0.685   4.116
 3871SOL    HW112512   3.200   0.678   4.099
 3871SOL    HW212513   3.335   0.596   4.143
 3872SOL     OW12514   4.665   4.253   0.841
 3872SOL    HW112515   4.720   4.172   0.822
 3872SOL    HW212516   4.568   4.228   0.845
 3873SOL     OW12517   6.875   4.611   1.969
 3873SOL    HW112518   6.828   4.694   1.940
 3873SOL    HW212519   6.898   4.555   1.889
 3874SOL     OW12520   5.492   6.366   5.734
 3874SOL    HW112521   5.505   6.268   5.717
 3874SOL    HW212522   5.575   6.415   5.710
 3875SOL     OW12523   3.022   3.403   0.299
 3875SOL    HW112524   3.038   3.329   0.365
 3875SOL    HW212525   3.074   3.484   0.328
 3876SOL     OW12526   5.769   3.955   2.540
 3876SOL    HW112527   5.721   4.040   2.519
 3876SOL    HW212528   5.729   3.880   2.487
 3877SOL     OW12529   4.322   1.971   1.763
 3877SOL    HW112530   4.342   1.954   1.860
 3877SOL    HW212531   4.358   2.061   1.738
 3878SOL     OW12532   4.932   5.873   4.434
 3878SOL    HW112533   5.012   5.903   4.485
 3878SOL    HW212534   4.850   5.887   4.489
 3879SOL     OW12535   2.375   5.794   0.819
 3879SOL    HW112536   2.350   5.885   0.852
 3879SOL    HW212537   2.397   5.799   0.722
 3880SOL     OW12538   6.223   0.959   4.547
 3880SOL    HW112539   6.195   0.932   4.455
 3880SOL    HW212540   6.143   0.996   4.596
 3881SOL     OW12541   0.044   5.993   5.896
 3881SOL    HW112542   0.131   6.029   5.862
 3881SOL    HW212543   7.005   5.984   5.820
 3882SOL     OW12544   0.131   6.225   0.015
 3882SOL    HW112545   0.223   6.203   7.010
 3882SOL    HW212546   0.065   6.175   6.983
 3883SOL     OW12547   4.111   2.075   0.322
 3883SOL    HW112548   4.181   2.144   0.304
 3883SOL    HW212549   4.119   2.000   0.256
 3884SOL     OW12550   3.061   5.715   5.909
 3884SOL    HW112551   3.134   5.771   5.868
 3884SOL    HW212552   3.093   5.621   5.918
 3885SOL     OW12553   0.038   0.877   3.706
 3885SOL    HW112554   0.097   0.927   3.770
 3885SOL    HW212555   6.977   0.853   3.752
 3886SOL     OW12556   6.920   6.223   4.599
 3886SOL    HW112557   6.830   6.265   4.604
 3886SOL    HW212558   6.984   6.274   4.657
 3887SOL     OW12559   6.632   3.003   4.989
 3887SOL    HW112560   6.556   3.060   4.957
 3887SOL    HW212561   6.654   3.028   5.084
 3888SOL     OW12562   5.360   1.256   3.271
 3888SOL    HW112563   5.269   1.236   3.235
 3888SOL    HW212564   5.429   1.214   3.213
 3889SOL     OW12565   6.687   5.842   7.019
 3889SOL    HW112566   6.736   5.768   0.041
 3889SOL    HW212567   6.741   5.876   6.942
 3890SOL     OW12568   6.108   3.411   3.123
 3890SOL    HW112569   6.177   3.376   3.059
 3890SOL    HW212570   6.038   3.461   3.072
 3891SOL     OW12571   3.968   4.297   5.704
 3891SOL    HW112572   3.941   4.340   5.790
 3891SOL    HW212573   4.037   4.227   5.721
 3892SOL     OW12574   5.481   5.788   3.950
 3892SOL    HW112575   5.420   5.832   3.884
 3892SOL    HW212576   5.463   5.690   3.952
 3893SOL     OW12577   2.290   6.191   4.519
 3893SOL    HW112578   2.276   6.245   4.436
 3893SOL    HW212579   2.262   6.244   4.599
 3894SOL     OW12580   5.712   5.528   6.196
 3894SOL    HW112581   5.738   5.455   6.260
 3894SOL    HW212582   5.666   5.601   6.246
 3895SOL     OW12583   1.434   1.917   5.940
 3895SOL    HW112584   1.532   1.903   5.953
 3895SOL    HW212585   1.414   2.015   5.941
 3896SOL     OW12586   6.521   2.809   0.478
 3896SOL    HW112587   6.618   2.828   0.463
 3896SOL    HW212588   6.511   2.719   0.522
 3897SOL     OW12589   2.768   6.991   3.543
 3897SOL    HW112590   2.810   6.974   3.454
 3897SOL    HW212591   2.835   0.009   3.604
 3898SOL     OW12592   2.940   3.789   3.331
 3898SOL    HW112593   2.842   3.768   3.334
 3898SOL    HW212594   2.965   3.819   3.239
 3899SOL     OW12595   4.911   2.011   6.302
 3899SOL    HW112596   4.935   1.935   6.362
 3899SOL    HW212597   4.828   2.055   6.335
 3900SOL     OW12598   1.155   2.729   3.788
 3900SOL    HW112599   1.174   2.776   3.875
 3900SOL    HW212600   1.166   2.630   3.800
 3901SOL     OW12601   3.676   6.267   4.601
 3901SOL    HW112602   3.741   6.312   4.662
 3901SOL    HW212603   3.725   6.203   4.541
 3902SOL     OW12604   3.023   5.079   2.926
 3902SOL    HW112605   3.011   4.986   2.961
 3902SOL    HW212606   2.981   5.145   2.989
 3903SOL     OW12607   3.067   3.707   6.740
 3903SOL    HW112608   2.996   3.778   6.734
 3903SOL    HW212609   3.037   3.625   6.691
 3904SOL     OW12610   2.864   5.814   0.800
 3904SOL    HW112611   2.783   5.762   0.828
 3904SOL    HW212612   2.932   5.751   0.762
 3905SOL     OW12613   4.091   6.918   5.567
 3905SOL    HW112614   4.166   6.947   5.508
 3905SOL    HW212615   4.128   6.869   5.646
 3906SOL     OW12616   6.451   5.696   4.193
 3906SOL    HW112617   6.522   5.721   4.127
 3906SOL    HW212618   6.472   5.734   4.282
 3907SOL     OW12619   1.080   1.767   4.833
 3907SOL    HW112620   0.991   1.723   4.823
 3907SOL    HW212621   1.151   1.698   4.842
 3908SOL     OW12622   2.263   1.880   4.801
 3908SOL    HW112623   2.264   1.810   4.872
 3908SOL    HW212624   2.302   1.843   4.717
 3909SOL     OW12625   6.378   3.524   2.386
 3909SOL    HW112626   6.440   3.485   2.318
 3909SOL    HW212627   6.376   3.623   2.378
 3910SOL     OW12628   2.288   2.492   0.393
 3910SOL    HW112629   2.346   2.441   0.456
 3910SOL    HW212630   2.287   2.445   0.304
 3911SOL     OW12631   5.970   1.307   1.563
 3911SOL    HW112632   5.935   1.279   1.652
 3911SOL    HW212633   6.069   1.290   1.558
 3912SOL     OW12634   4.992   4.486   0.442
 3912SOL    HW112635   4.937   4.567   0.464
 3912SOL    HW212636   4.984   4.465   0.345
 3913SOL     OW12637   4.132   4.397   1.250
 3913SOL    HW112638   4.174   4.309   1.228
 3913SOL    HW212639   4.083   4.431   1.169
 3914SOL     OW12640   0.434   1.097   0.254
 3914SOL    HW112641   0.390   1.126   0.339
 3914SOL    HW212642   0.470   1.004   0.265
 3915SOL     OW12643   4.895   0.298   4.720
 3915SOL    HW112644   4.936   0.368   4.777
 3915SOL    HW212645   4.939   0.298   4.630
 3916SOL     OW12646   2.091   2.599   1.962
 3916SOL    HW112647   2.179   2.645   1.951
 3916SOL    HW212648   2.091   2.547   2.048
 3917SOL     OW12649   4.131   5.606   2.486
 3917SOL    HW112650   4.038   5.589   2.517
 3917SOL    HW212651   4.131   5.680   2.419
 3918SOL     OW12652   3.703   6.973   0.778
 3918SOL    HW112653   3.739   0.035   0.744
 3918SOL    HW212654   3.618   6.989   0.828
 3919SOL     OW12655   4.950   5.022   3.213
 3919SOL    HW112656   4.889   4.950   3.179
 3919SOL    HW212657   5.009   4.985   3.284
 3920SOL     OW12658   4.458   1.226   6.109
 3920SOL    HW112659   4.523   1.152   6.128
 3920SOL    HW212660   4.438   1.230   6.011
 3921SOL     OW12661   0.873   3.197   5.911
 3921SOL    HW112662   0.943   3.178   5.841
 3921SOL    HW212663   0.785   3.165   5.878
 3922SOL     OW12664   5.519   2.194   3.667
 3922SOL    HW112665   5.501   2.096   3.657
 3922SOL    HW212666   5.616   2.208   3.688
 3923SOL     OW12667   5.703   1.069   1.098
 3923SOL    HW112668   5.644   1.022   1.032
 3923SOL    HW212669   5.799   1.049   1.078
 3924SOL     OW12670   5.593   5.090   3.700
 3924SOL    HW112671   5.598   5.183   3.664
 3924SOL    HW212672   5.509   5.079   3.752
 3925SOL     OW12673   3.600   4.332   1.739
 3925SOL    HW112674   3.585   4.428   1.763
 3925SOL    HW212675   3.691   4.321   1.699
 3926SOL     OW12676   1.186   5.743   5.368
 3926SOL    HW112677   1.164   5.841   5.373
 3926SOL    HW212678   1.284   5.730   5.383
 3927SOL     OW12679   6.158   6.299   5.102
 3927SOL    HW112680   6.194   6.223   5.156
 3927SOL    HW212681   6.102   6.263   5.027
 3928SOL     OW12682   4.580   5.343   2.506
 3928SOL    HW112683   4.485   5.366   2.484
 3928SOL    HW212684   4.585   5.248   2.536
 3929SOL     OW12685   2.387   0.966   5.182
 3929SOL    HW112686   2.353   0.881   5.142
 3929SOL    HW212687   2.324   0.999   5.252
 3930SOL     OW12688   2.195   5.498   4.360
 3930SOL    HW112689   2.200   5.502   4.260
 3930SOL    HW212690   2.216   5.588   4.398
 3931SOL     OW12691   0.571   2.161   0.278
 3931SOL    HW112692   0.593   2.198   0.188
 3931SOL    HW212693   0.474   2.138   0.282
 3932SOL     OW12694   1.985   4.664   2.432
 3932SOL    HW112695   1.994   4.590   2.365
 3932SOL    HW212696   1.896   4.708   2.421
 3933SOL     OW12697   1.152   6.694   1.133
 3933SOL    HW112698   1.166   6.622   1.201
 3933SOL    HW212699   1.087   6.662   1.064
 3934SOL     OW12700   1.740   6.969   2.042
 3934SOL    HW112701   1.698   6.878   2.045
 3934SOL    HW212702   1.738   7.003   1.948
 3935SOL     OW12703   0.196   1.106   5.050
 3935SOL    HW112704   0.288   1.070   5.064
 3935SOL    HW212705   0.199   1.179   4.982
 3936SOL     OW12706   6.507   4.912   4.123
 3936SOL    HW112707   6.506   4.900   4.222
 3936SOL    HW212708   6.544   4.829   4.080
 3937SOL     OW12709   1.283   6.141   0.357
 3937SOL    HW112710   1.273   6.096   0.268
 3937SOL    HW212711   1.318   6.076   0.424
 3938SOL     OW12712   0.651   4.921   6.695
 3938SOL    HW112713   0.696   4.983   6.630
 3938SOL    HW212714   0.720   4.876   6.751
 3939SOL     OW12715   2.179   6.258   4.260
 3939SOL    HW112716   2.182   6.236   4.162
 3939SOL    HW212717   2.104   6.208   4.303
 3940SOL     OW12718   2.770   5.933   6.964
 3940SOL    HW112719   2.798   6.025   6.937
 3940SOL    HW212720   2.851   5.877   6.981
 3941SOL     OW12721   5.814   5.567   2.216
 3941SOL    HW112722   5.799   5.546   2.119
 3941SOL    HW212723   5.823   5.482   2.268
 3942SOL     OW12724   0.537   6.354   0.124
 3942SOL    HW112725   0.592   6.413   0.182
 3942SOL    HW212726   0.455   6.403   0.094
 3943SOL     OW12727   0.595   5.317   0.493
 3943SOL    HW112728   0.536   5.243   0.460
 3943SOL    HW212729   0.577   5.332   0.591
 3944SOL     OW12730   5.082   2.931   0.596
 3944SOL    HW112731   5.062   2.855   0.658
 3944SOL    HW212732   5.179   2.931   0.573
 3945SOL     OW12733   0.005   0.858   2.339
 3945SOL    HW112734   6.956   0.924   2.355
 3945SOL    HW212735   7.013   0.811   2.252
 3946SOL     OW12736   5.260   1.386   1.397
 3946SOL    HW112737   5.356   1.408   1.378
 3946SOL    HW212738   5.203   1.425   1.325
 3947SOL     OW12739   5.093   0.634   1.544
 3947SOL    HW112740   5.092   0.554   1.484
 3947SOL    HW212741   5.083   0.717   1.489
 3948SOL     OW12742   1.642   1.783   4.554
 3948SOL    HW112743   1.674   1.794   4.647
 3948SOL    HW212744   1.704   1.831   4.491
 3949SOL     OW12745   6.042   0.142   2.849
 3949SOL    HW112746   6.031   0.189   2.937
 3949SOL    HW212747   6.073   0.208   2.781
 3950SOL     OW12748   2.630   4.887   1.707
 3950SOL    HW112749   2.546   4.832   1.704
 3950SOL    HW212750   2.709   4.826   1.715
 3951SOL     OW12751   6.499   2.827   3.492
 3951SOL    HW112752   6.573   2.894   3.493
 3951SOL    HW212753   6.488   2.790   3.400
 3952SOL     OW12754   5.755   5.271   0.009
 3952SOL    HW112755   5.806   5.344   6.988
 3952SOL    HW212756   5.788   5.182   7.002
 3953SOL     OW12757   3.523   2.814   5.041
 3953SOL    HW112758   3.541   2.717   5.058
 3953SOL    HW212759   3.425   2.828   5.026
 3954SOL     OW12760   0.697   4.521   5.547
 3954SOL    HW112761   0.748   4.507   5.463
 3954SOL    HW212762   0.689   4.434   5.596
 3955SOL     OW12763   5.651   3.455   0.050
 3955SOL    HW112764   5.579   3.443   7.006
 3955SOL    HW212765   5.717   3.523   0.018
 3956SOL     OW12766   6.613   2.680   4.983
 3956SOL    HW112767   6.561   2.755   5.024
 3956SOL    HW212768   6.703   2.714   4.954
 3957SOL     OW12769   2.031   2.987   1.607
 3957SOL    HW112770   2.096   3.049   1.564
 3957SOL    HW212771   2.062   2.893   1.596
 3958SOL     OW12772   5.544   5.731   1.294
 3958SOL    HW112773   5.508   5.740   1.387
 3958SOL    HW212774   5.483   5.673   1.240
 3959SOL     OW12775   3.292   4.949   0.983
 3959SOL    HW112776   3.354   5.008   1.033
 3959SOL    HW212777   3.312   4.956   0.885
 3960SOL     OW12778   5.845   3.249   0.896
 3960SOL    HW112779   5.834   3.339   0.854
 3960SOL    HW212780   5.943   3.230   0.908
 3961SOL     OW12781   6.722   1.461   0.995
 3961SOL    HW112782   6.717   1.427   0.902
 3961SOL    HW212783   6.780   1.401   1.050
 3962SOL     OW12784   0.188   6.617   6.545
 3962SOL    HW112785   0.118   6.663   6.491
 3962SOL    HW212786   0.271   6.607   6.489
 3963SOL     OW12787   5.465   3.259   4.586
 3963SOL    HW112788   5.374   3.232   4.554
 3963SOL    HW212789   5.534   3.209   4.534
 3964SOL     OW12790   5.966   4.630   6.689
 3964SOL    HW112791   6.019   4.702   6.643
 3964SOL    HW212792   5.938   4.562   6.621
 3965SOL     OW12793   2.534   4.564   1.544
 3965SOL    HW112794   2.601   4.514   1.600
 3965SOL    HW212795   2.492   4.501   1.478
 3966SOL     OW12796   0.129   3.304   5.803
 3966SOL    HW112797   0.047   3.360   5.806
 3966SOL    HW212798   0.191   3.331   5.877
 3967SOL     OW12799   1.868   0.420   0.636
 3967SOL    HW112800   1.884   0.516   0.659
 3967SOL    HW212801   1.794   0.413   0.570
 3968SOL     OW12802   4.636   2.995   0.636
 3968SOL    HW112803   4.637   2.938   0.718
 3968SOL    HW212804   4.684   3.081   0.654
 3969SOL     OW12805   6.163   6.170   1.279
 3969SOL    HW112806   6.188   6.113   1.200
 3969SOL    HW212807   6.233   6.241   1.292
 3970SOL     OW12808   5.740   4.090   4.014
 3970SOL    HW112809   5.709   4.172   4.062
 3970SOL    HW212810   5.690   4.080   3.928
 3971SOL     OW12811   0.188   5.918   4.175
 3971SOL    HW112812   0.147   5.963   4.096
 3971SOL    HW212813   0.288   5.926   4.169
 3972SOL     OW12814   0.819   0.849   6.585
 3972SOL    HW112815   0.798   0.775   6.648
 3972SOL    HW212816   0.917   0.850   6.567
 3973SOL     OW12817   4.021   3.128   1.963
 3973SOL    HW112818   3.939   3.180   1.984
 3973SOL    HW212819   4.012   3.086   1.873
 3974SOL     OW12820   5.192   1.274   6.715
 3974SOL    HW112821   5.136   1.226   6.783
 3974SOL    HW212822   5.209   1.368   6.745
 3975SOL     OW12823   6.722   6.122   3.586
 3975SOL    HW112824   6.665   6.081   3.514
 3975SOL    HW212825   6.791   6.181   3.544
 3976SOL     OW12826   0.478   3.019   5.443
 3976SOL    HW112827   0.537   3.100   5.446
 3976SOL    HW212828   0.522   2.949   5.387
 3977SOL     OW12829   2.196   4.780   5.623
 3977SOL    HW112830   2.246   4.702   5.662
 3977SOL    HW212831   2.133   4.816   5.691
 3978SOL     OW12832   4.859   2.851   6.026
 3978SOL    HW112833   4.842   2.903   5.942
 3978SOL    HW212834   4.787   2.782   6.038
 3979SOL     OW12835   0.474   5.496   2.733
 3979SOL    HW112836   0.419   5.417   2.760
 3979SOL    HW212837   0.545   5.513   2.801
 3980SOL     OW12838   4.982   4.427   3.853
 3980SOL    HW112839   5.033   4.356   3.902
 3980SOL    HW212840   5.038   4.465   3.779
 3981SOL     OW12841   6.984   0.861   6.576
 3981SOL    HW112842   6.956   0.768   6.552
 3981SOL    HW212843   0.058   0.871   6.561
 3982SOL     OW12844   2.138   3.145   4.506
 3982SOL    HW112845   2.201   3.223   4.500
 3982SOL    HW212846   2.061   3.169   4.564
 3983SOL     OW12847   2.509   0.835   3.487
 3983SOL    HW112848   2.487   0.738   3.480
 3983SOL    HW212849   2.466   0.884   3.412
 3984SOL     OW12850   1.390   5.935   2.159
 3984SOL    HW112851   1.412   5.988   2.077
 3984SOL    HW212852   1.332   5.990   2.220
 3985SOL     OW12853   1.743   2.677   1.302
 3985SOL    HW112854   1.748   2.691   1.401
 3985SOL    HW212855   1.648   2.686   1.271
 3986SOL     OW12856   0.686   1.545   3.159
 3986SOL    HW112857   0.595   1.583   3.174
 3986SOL    HW212858   0.722   1.509   3.246
 3987SOL     OW12859   1.248   4.383   5.385
 3987SOL    HW112860   1.267   4.285   5.384
 3987SOL    HW212861   1.333   4.433   5.366
 3988SOL     OW12862   5.257   6.250   2.103
 3988SOL    HW112863   5.288   6.273   2.011
 3988SOL    HW212864   5.266   6.152   2.118
 3989SOL     OW12865   4.344   0.589   5.970
 3989SOL    HW112866   4.430   0.640   5.962
 3989SOL    HW212867   4.332   0.559   6.064
 3990SOL     OW12868   6.642   0.156   3.998
 3990SOL    HW112869   6.733   0.193   3.981
 3990SOL    HW212870   6.589   0.159   3.913
 3991SOL     OW12871   6.314   2.350   3.886
 3991SOL    HW112872   6.355   2.378   3.972
 3991SOL    HW212873   6.286   2.254   3.892
 3992SOL     OW12874   5.854   3.337   5.992
 3992SOL    HW112875   5.822   3.390   5.914
 3992SOL    HW212876   5.882   3.246   5.961
 3993SOL     OW12877   1.461   0.929   4.093
 3993SOL    HW112878   1.370   0.927   4.050
 3993SOL    HW212879   1.453   0.964   4.187
 3994SOL     OW12880   3.031   2.179   3.675
 3994SOL    HW112881   3.083   2.263   3.666
 3994SOL    HW212882   2.934   2.201   3.686
 3995SOL     OW12883   1.526   3.235   1.900
 3995SOL    HW112884   1.537   3.280   1.811
 3995SOL    HW212885   1.556   3.297   1.972
 3996SOL     OW12886   0.363   6.281   5.299
 3996SOL    HW112887   0.348   6.186   5.273
 3996SOL    HW212888   0.425   6.325   5.235
 3997SOL     OW12889   5.835   3.197   5.041
 3997SOL    HW112890   5.932   3.215   5.025
 3997SOL    HW212891   5.821   3.175   5.138
 3998SOL     OW12892   3.957   2.169   3.550
 3998SOL    HW112893   3.965   2.249   3.610
 3998SOL    HW212894   3.860   2.142   3.543
 3999SOL     OW12895   4.894   3.572   0.987
 3999SOL    HW112896   4.941   3.660   0.979
 3999SOL    HW212897   4.796   3.587   0.997
 4000SOL     OW12898   2.409   4.914   2.861
 4000SOL    HW112899   2.376   4.860   2.784
 4000SOL    HW212900   2.507   4.931   2.849
 4001SOL     OW12901   0.764   5.912   4.825
 4001SOL    HW112902   0.772   5.942   4.730
 4001SOL    HW212903   0.687   5.959   4.869
 4002SOL     OW12904   3.902   3.903   5.065
 4002SOL    HW112905   3.833   3.960   5.020
 4002SOL    HW212906   3.957   3.856   4.997
 4003SOL     OW12907   2.763   1.398   4.395
 4003SOL    HW112908   2.715   1.356   4.472
 4003SOL    HW212909   2.696   1.428   4.327
 4004SOL     OW12910   1.693   3.753   4.883
 4004SOL    HW112911   1.656   3.805   4.960
 4004SOL    HW212912   1.695   3.656   4.905
 4005SOL     OW12913   5.505   2.968   1.180
 4005SOL    HW112914   5.572   3.038   1.155
 4005SOL    HW212915   5.496   2.902   1.106
 4006SOL     OW12916   7.021   5.754   1.828
 4006SOL    HW112917   0.044   5.680   1.781
 4006SOL    HW212918   0.056   5.793   1.898
 4007SOL     OW12919   0.682   1.403   1.193
 4007SOL    HW112920   0.583   1.417   1.203
 4007SOL    HW212921   0.724   1.487   1.158
 4008SOL     OW12922   4.136   1.060   1.453
 4008SOL    HW112923   4.153   1.099   1.363
 4008SOL    HW212924   4.062   0.993   1.447
 4009SOL     OW12925   3.651   2.629   1.432
 4009SOL    HW112926   3.662   2.549   1.490
 4009SOL    HW212927   3.670   2.712   1.484
 4010SOL     OW12928   1.544   4.741   1.144
 4010SOL    HW112929   1.602   4.785   1.212
 4010SOL    HW212930   1.526   4.805   1.069
 4011SOL     OW12931   5.741   6.846   6.431
 4011SOL    HW112932   5.687   6.763   6.416
 4011SOL    HW212933   5.696   6.924   6.387
 4012SOL     OW12934   5.139   5.321   1.324
 4012SOL    HW112935   5.109   5.349   1.232
 4012SOL    HW212936   5.107   5.227   1.341
 4013SOL     OW12937   6.962   1.773   6.785
 4013SOL    HW112938   6.870   1.811   6.774
 4013SOL    HW212939   0.004   1.839   6.751
 4014SOL     OW12940   3.006   6.362   2.434
 4014SOL    HW112941   2.918   6.345   2.477
 4014SOL    HW212942   3.019   6.297   2.359
 4015SOL     OW12943   3.870   6.455   4.763
 4015SOL    HW112944   3.960   6.497   4.749
 4015SOL    HW212945   3.859   6.432   4.860
 4016SOL     OW12946   4.810   5.152   4.250
 4016SOL    HW112947   4.774   5.114   4.335
 4016SOL    HW212948   4.883   5.093   4.216
 4017SOL     OW12949   1.859   6.259   5.985
 4017SOL    HW112950   1.815   6.210   6.060
 4017SOL    HW212951   1.929   6.320   6.022
 4018SOL     OW12952   5.116   5.210   0.293
 4018SOL    HW112953   5.168   5.197   0.377
 4018SOL    HW212954   5.023   5.240   0.316
 4019SOL     OW12955   0.462   2.219   3.230
 4019SOL    HW112956   0.485   2.279   3.307
 4019SOL    HW212957   0.492   2.126   3.251
 4020SOL     OW12958   6.968   5.792   3.944
 4020SOL    HW112959   0.015   5.722   3.942
 4020SOL    HW212960   6.951   5.820   4.038
 4021SOL     OW12961   4.961   5.242   5.821
 4021SOL    HW112962   5.001   5.177   5.885
 4021SOL    HW212963   5.034   5.299   5.782
 4022SOL     OW12964   3.501   6.817   1.623
 4022SOL    HW112965   3.409   6.852   1.643
 4022SOL    HW212966   3.559   6.827   1.704
 4023SOL     OW12967   0.813   1.833   4.595
 4023SOL    HW112968   0.848   1.906   4.536
 4023SOL    HW212969   0.729   1.796   4.554
 4024SOL     OW12970   0.997   6.697   6.235
 4024SOL    HW112971   1.044   6.762   6.294
 4024SOL    HW212972   0.992   6.733   6.142
 4025SOL     OW12973   0.356   3.837   4.666
 4025SOL    HW112974   0.377   3.929   4.634
 4025SOL    HW212975   0.329   3.780   4.588
 4026SOL     OW12976   0.620   6.618   4.540
 4026SOL    HW112977   0.583   6.545   4.596
 4026SOL    HW212978   0.563   6.630   4.459
 4027SOL     OW12979   2.657   5.243   5.471
 4027SOL    HW112980   2.559   5.237   5.456
 4027SOL    HW212981   2.705   5.204   5.392
 4028SOL     OW12982   4.811   1.621   4.644
 4028SOL    HW112983   4.732   1.672   4.611
 4028SOL    HW212984   4.806   1.527   4.611
 4029SOL     OW12985   1.669   6.635   0.598
 4029SOL    HW112986   1.614   6.555   0.624
 4029SOL    HW212987   1.654   6.707   0.665
 4030SOL     OW12988   1.008   1.257   1.878
 4030SOL    HW112989   1.009   1.331   1.811
 4030SOL    HW212990   0.943   1.187   1.849
 4031SOL     OW12991   5.865   5.652   0.857
 4031SOL    HW112992   5.781   5.696   0.826
 4031SOL    HW212993   5.872   5.660   0.957
 4032SOL     OW12994   4.790   1.858   1.827
 4032SOL    HW112995   4.870   1.798   1.820
 4032SOL    HW212996   4.748   1.867   1.737
 4033SOL     OW12997   1.794   3.480   2.801
 4033SOL    HW112998   1.850   3.400   2.823
 4033SOL    HW212999   1.775   3.482   2.703
 4034SOL     OW13000   2.301   2.402   4.817
 4034SOL    HW113001   2.396   2.380   4.837
 4034SOL    HW213002   2.241   2.330   4.852
 4035SOL     OW13003   3.818   2.442   1.655
 4035SOL    HW113004   3.748   2.404   1.716
 4035SOL    HW213005   3.823   2.541   1.668
 4036SOL     OW13006   4.061   6.161   3.565
 4036SOL    HW113007   4.057   6.165   3.465
 4036SOL    HW213008   4.016   6.078   3.597
 4037SOL     OW13009   1.884   1.295   6.107
 4037SOL    HW113010   1.817   1.344   6.163
 4037SOL    HW213011   1.975   1.328   6.128
 4038SOL     OW13012   3.952   4.785   5.713
 4038SOL    HW113013   3.973   4.817   5.805
 4038SOL    HW213014   3.909   4.859   5.661
 4039SOL     OW13015   6.363   4.459   1.416
 4039SOL    HW113016   6.427   4.489   1.486
 4039SOL    HW213017   6.353   4.360   1.420
 4040SOL     OW13018   2.591   0.164   4.885
 4040SOL    HW113019   2.684   0.194   4.864
 4040SOL    HW213020   2.526   0.214   4.829
 4041SOL     OW13021   1.447   6.326   1.758
 4041SOL    HW113022   1.433   6.280   1.670
 4041SOL    HW213023   1.525   6.286   1.804
 4042SOL     OW13024   0.397   1.400   3.983
 4042SOL    HW113025   0.381   1.405   4.082
 4042SOL    HW213026   0.440   1.312   3.961
 4043SOL     OW13027   4.174   2.370   5.949
 4043SOL    HW113028   4.085   2.347   5.990
 4043SOL    HW213029   4.204   2.459   5.984
 4044SOL     OW13030   4.532   4.512   3.289
 4044SOL    HW113031   4.525   4.563   3.203
 4044SOL    HW213032   4.475   4.556   3.358
 4045SOL     OW13033   4.468   1.228   5.186
 4045SOL    HW113034   4.495   1.133   5.198
 4045SOL    HW213035   4.463   1.249   5.088
 4046SOL     OW13036   4.996   1.273   3.984
 4046SOL    HW113037   4.959   1.365   4.002
 4046SOL    HW213038   4.921   1.212   3.958
 4047SOL     OW13039   3.093   2.334   6.237
 4047SOL    HW113040   3.042   2.342   6.151
 4047SOL    HW213041   3.047   2.386   6.309
 4048SOL     OW13042   4.850   2.306   3.453
 4048SOL    HW113043   4.842   2.403   3.478
 4048SOL    HW213044   4.929   2.294   3.393
 4049SOL     OW13045   4.150   3.955   1.604
 4049SOL    HW113046   4.139   3.906   1.518
 4049SOL    HW213047   4.196   3.896   1.670
 4050SOL     OW13048   6.895   4.968   3.389
 4050SOL    HW113049   6.978   4.936   3.342
 4050SOL    HW213050   6.916   4.986   3.485
 4051SOL     OW13051   6.167   1.192   4.275
 4051SOL    HW113052   6.075   1.157   4.294
 4051SOL    HW213053   6.180   1.279   4.323
 4052SOL     OW13054   4.571   1.894   4.145
 4052SOL    HW113055   4.591   1.817   4.206
 4052SOL    HW213056   4.593   1.980   4.192
 4053SOL     OW13057   0.444   4.740   3.571
 4053SOL    HW113058   0.541   4.766   3.567
 4053SOL    HW213059   0.397   4.774   3.490
 4054SOL     OW13060   4.866   4.053   1.206
 4054SOL    HW113061   4.936   4.124   1.212
 4054SOL    HW213062   4.775   4.094   1.211
 4055SOL     OW13063   0.081   4.612   0.179
 4055SOL    HW113064   0.126   4.528   0.148
 4055SOL    HW213065   7.022   4.588   0.229
 4056SOL     OW13066   4.838   3.983   0.153
 4056SOL    HW113067   4.837   3.904   0.214
 4056SOL    HW213068   4.830   3.952   0.058
 4057SOL     OW13069   0.106   4.325   5.902
 4057SOL    HW113070   0.035   4.292   5.965
 4057SOL    HW213071   0.151   4.404   5.942
 4058SOL     OW13072   3.892   1.022   4.278
 4058SOL    HW113073   3.835   1.104   4.285
 4058SOL    HW213074   3.838   0.941   4.302
 4059SOL     OW13075   1.238   1.595   4.071
 4059SOL    HW113076   1.140   1.577   4.077
 4059SOL    HW213077   1.278   1.539   3.998
 4060SOL     OW13078   0.024   6.492   4.287
 4060SOL    HW113079   6.949   6.485   4.279
 4060SOL    HW213080   0.059   6.409   4.331
 4061SOL     OW13081   1.209   4.176   2.005
 4061SOL    HW113082   1.244   4.166   1.912
 4061SOL    HW213083   1.267   4.123   2.068
 4062SOL     OW13084   2.477   4.537   0.502
 4062SOL    HW113085   2.396   4.547   0.560
 4062SOL    HW213086   2.515   4.445   0.514
 4063SOL     OW13087   3.720   0.791   0.902
 4063SOL    HW113088   3.774   0.744   0.971
 4063SOL    HW213089   3.634   0.822   0.942
 4064SOL     OW13090   2.480   0.886   4.769
 4064SOL    HW113091   2.453   0.801   4.723
 4064SOL    HW213092   2.523   0.947   4.703
 4065SOL     OW13093   2.329   1.471   1.374
 4065SOL    HW113094   2.265   1.456   1.299
 4065SOL    HW213095   2.321   1.566   1.407
 4066SOL     OW13096   0.493   3.593   4.279
 4066SOL    HW113097   0.431   3.631   4.348
 4066SOL    HW213098   0.453   3.509   4.242
 4067SOL     OW13099   6.197   4.641   0.832
 4067SOL    HW113100   6.107   4.682   0.821
 4067SOL    HW213101   6.193   4.544   0.807
 4068SOL     OW13102   1.864   2.884   5.749
 4068SOL    HW113103   1.944   2.828   5.728
 4068SOL    HW213104   1.888   2.981   5.743
 4069SOL     OW13105   4.512   6.855   5.769
 4069SOL    HW113106   4.611   6.851   5.784
 4069SOL    HW213107   4.492   6.914   5.691
 4070SOL     OW13108   1.646   3.615   4.221
 4070SOL    HW113109   1.650   3.708   4.187
 4070SOL    HW213110   1.649   3.615   4.321
 4071SOL     OW13111   1.803   0.580   4.976
 4071SOL    HW113112   1.780   0.671   5.011
 4071SOL    HW213113   1.732   0.550   4.913
 4072SOL     OW13114   2.923   6.788   2.526
 4072SOL    HW113115   2.838   6.742   2.554
 4072SOL    HW213116   2.952   6.851   2.598
 4073SOL     OW13117   4.101   5.257   6.553
 4073SOL    HW113118   4.014   5.288   6.591
 4073SOL    HW213119   4.132   5.322   6.483
 4074SOL     OW13120   1.434   5.999   2.567
 4074SOL    HW113121   1.484   5.923   2.526
 4074SOL    HW213122   1.340   5.970   2.586
 4075SOL     OW13123   5.892   0.896   0.168
 4075SOL    HW113124   5.978   0.900   0.219
 4075SOL    HW213125   5.845   0.984   0.176
 4076SOL     OW13126   1.694   6.013   4.009
 4076SOL    HW113127   1.677   5.959   3.926
 4076SOL    HW213128   1.766   5.970   4.063
 4077SOL     OW13129   2.619   2.065   1.470
 4077SOL    HW113130   2.689   2.134   1.452
 4077SOL    HW213131   2.630   2.029   1.563
 4078SOL     OW13132   4.290   5.234   2.212
 4078SOL    HW113133   4.210   5.248   2.270
 4078SOL    HW213134   4.309   5.318   2.161
 4079SOL     OW13135   0.371   1.920   4.210
 4079SOL    HW113136   0.356   1.851   4.138
 4079SOL    HW213137   0.455   1.970   4.190
 4080SOL     OW13138   6.016   2.187   4.363
 4080SOL    HW113139   6.017   2.279   4.322
 4080SOL    HW213140   5.927   2.170   4.404
 4081SOL     OW13141   6.812   3.704   2.780
 4081SOL    HW113142   6.836   3.700   2.876
 4081SOL    HW213143   6.761   3.789   2.762
 4082SOL     OW13144   0.584   3.191   0.093
 4082SOL    HW113145   0.673   3.151   0.072
 4082SOL    HW213146   0.590   3.290   0.093
 4083SOL     OW13147   6.684   3.400   5.008
 4083SOL    HW113148   6.603   3.369   4.960
 4083SOL    HW213149   6.765   3.382   4.952
 4084SOL     OW13150   5.574   1.016   4.585
 4084SOL    HW113151   5.668   0.986   4.567
 4084SOL    HW213152   5.510   0.950   4.546
 4085SOL     OW13153   3.379   5.557   6.811
 4085SOL    HW113154   3.340   5.615   6.740
 4085SOL    HW213155   3.417   5.474   6.769
 4086SOL     OW13156   0.829   2.917   1.640
 4086SOL    HW113157   0.896   2.887   1.708
 4086SOL    HW213158   0.864   2.997   1.592
 4087SOL     OW13159   1.998   1.185   3.185
 4087SOL    HW113160   2.009   1.153   3.091
 4087SOL    HW213161   2.083   1.170   3.235
 4088SOL     OW13162   0.033   2.143   6.906
 4088SOL    HW113163   6.981   2.205   6.892
 4088SOL    HW213164   0.008   2.072   6.972
 4089SOL     OW13165   0.416   1.077   5.836
 4089SOL    HW113166   0.366   1.033   5.762
 4089SOL    HW213167   0.499   1.026   5.855
 4090SOL     OW13168   3.616   5.311   6.426
 4090SOL    HW113169   3.516   5.309   6.427
 4090SOL    HW213170   3.651   5.220   6.404
 4091SOL     OW13171   4.704   6.704   1.668
 4091SOL    HW113172   4.630   6.752   1.620
 4091SOL    HW213173   4.791   6.749   1.649
 4092SOL     OW13174   1.027   1.499   4.383
 4092SOL    HW113175   1.061   1.588   4.413
 4092SOL    HW213176   0.966   1.461   4.453
 4093SOL     OW13177   5.196   6.944   4.321
 4093SOL    HW113178   5.196   6.852   4.282
 4093SOL    HW213179   5.134   6.947   4.399
 4094SOL     OW13180   3.436   3.438   6.294
 4094SOL    HW113181   3.455   3.428   6.196
 4094SOL    HW213182   3.426   3.535   6.316
 4095SOL     OW13183   1.618   3.624   6.013
 4095SOL    HW113184   1.697   3.562   6.020
 4095SOL    HW213185   1.612   3.659   5.919
 4096SOL     OW13186   4.494   4.918   1.755
 4096SOL    HW113187   4.541   4.958   1.676
 4096SOL    HW213188   4.398   4.945   1.754
 4097SOL     OW13189   3.444   4.115   3.343
 4097SOL    HW113190   3.510   4.084   3.274
 4097SOL    HW213191   3.493   4.164   3.415
 4098SOL     OW13192   1.124   3.317   2.069
 4098SOL    HW113193   1.185   3.337   1.993
 4098SOL    HW213194   1.174   3.272   2.142
 4099SOL     OW13195   2.834   6.264   1.808
 4099SOL    HW113196   2.740   6.265   1.841
 4099SOL    HW213197   2.836   6.289   1.711
 4100SOL     OW13198   3.631   0.158   2.930
 4100SOL    HW113199   3.651   0.238   2.874
 4100SOL    HW213200   3.560   0.180   2.996
 4101SOL     OW13201   4.367   1.731   6.463
 4101SOL    HW113202   4.366   1.730   6.563
 4101SOL    HW213203   4.461   1.738   6.430
 4102SOL     OW13204   4.284   1.541   6.250
 4102SOL    HW113205   4.329   1.580   6.331
 4102SOL    HW213206   4.266   1.444   6.265
 4103SOL     OW13207   7.002   0.531   1.742
 4103SOL    HW113208   6.983   0.629   1.735
 4103SOL    HW213209   0.066   0.511   1.701
 4104SOL     OW13210   2.429   4.390   2.499
 4104SOL    HW113211   2.372   4.469   2.521
 4104SOL    HW213212   2.432   4.378   2.399
 4105SOL     OW13213   6.063   5.630   0.272
 4105SOL    HW113214   6.092   5.537   0.294
 4105SOL    HW213215   5.989   5.627   0.205
 4106SOL     OW13216   6.680   3.766   4.483
 4106SOL    HW113217   6.643   3.834   4.547
 4106SOL    HW213218   6.776   3.788   4.464
 4107SOL     OW13219   0.280   0.651   0.818
 4107SOL    HW113220   0.210   0.664   0.888
 4107SOL    HW213221   0.271   0.723   0.748
 4108SOL     OW13222   6.021   2.355   4.973
 4108SOL    HW113223   6.031   2.256   4.957
 4108SOL    HW213224   6.000   2.400   4.887
 4109SOL     OW13225   2.466   6.361   3.655
 4109SOL    HW113226   2.538   6.319   3.710
 4109SOL    HW213227   2.459   6.458   3.678
 4110SOL     OW13228   4.793   3.298   5.202
 4110SOL    HW113229   4.754   3.388   5.184
 4110SOL    HW213230   4.890   3.298   5.181
 4111SOL     OW13231   4.055   2.837   6.222
 4111SOL    HW113232   3.985   2.897   6.183
 4111SOL    HW213233   4.025   2.742   6.214
 4112SOL     OW13234   4.342   0.287   5.979
 4112SOL    HW113235   4.392   0.240   5.906
 4112SOL    HW213236   4.288   0.362   5.940
 4113SOL     OW13237   3.687   5.188   4.918
 4113SOL    HW113238   3.611   5.124   4.931
 4113SOL    HW213239   3.768   5.153   4.964
 4114SOL     OW13240   3.914   1.806   2.903
 4114SOL    HW113241   3.895   1.815   2.805
 4114SOL    HW213242   3.933   1.711   2.926
 4115SOL     OW13243   4.733   4.129   2.865
 4115SOL    HW113244   4.745   4.228   2.864
 4115SOL    HW213245   4.780   4.089   2.786
 4116SOL     OW13246   3.043   0.901   2.434
 4116SOL    HW113247   3.112   0.869   2.499
 4116SOL    HW213248   3.072   0.988   2.394
 4117SOL     OW13249   0.922   6.045   1.287
 4117SOL    HW113250   0.976   5.969   1.325
 4117SOL    HW213251   0.898   6.023   1.192
 4118SOL     OW13252   1.613   0.028   6.866
 4118SOL    HW113253   1.585   7.002   6.948
 4118SOL    HW213254   1.583   7.002   6.784
 4119SOL     OW13255   5.088   1.595   3.512
 4119SOL    HW113256   5.183   1.567   3.501
 4119SOL    HW213257   5.057   1.572   3.604
 4120SOL     OW13258   5.264   1.159   2.382
 4120SOL    HW113259   5.243   1.093   2.455
 4120SOL    HW213260   5.300   1.243   2.423
 4121SOL     OW13261   6.078   2.421   4.224
 4121SOL    HW113262   6.175   2.438   4.203
 4121SOL    HW213263   6.041   2.498   4.277
 4122SOL     OW13264   2.204   5.218   0.064
 4122SOL    HW113265   2.250   5.287   0.121
 4122SOL    HW213266   2.149   5.264   7.018
 4123SOL     OW13267   4.136   3.540   5.463
 4123SOL    HW113268   4.212   3.575   5.519
 4123SOL    HW213269   4.141   3.581   5.372
 4124SOL     OW13270   4.329   6.036   3.596
 4124SOL    HW113271   4.243   6.087   3.607
 4124SOL    HW213272   4.364   6.010   3.685
 4125SOL     OW13273   4.521   1.249   2.021
 4125SOL    HW113274   4.534   1.336   2.069
 4125SOL    HW213275   4.595   1.237   1.955
 4126SOL     OW13276   1.832   4.252   4.672
 4126SOL    HW113277   1.860   4.185   4.741
 4126SOL    HW213278   1.851   4.216   4.581
 4127SOL     OW13279   5.588   4.632   4.370
 4127SOL    HW113280   5.666   4.592   4.418
 4127SOL    HW213281   5.603   4.626   4.271
 4128SOL     OW13282   0.069   1.843   1.813
 4128SOL    HW113283   0.009   1.854   1.734
 4128SOL    HW213284   0.058   1.921   1.874
 4129SOL     OW13285   6.912   3.062   6.501
 4129SOL    HW113286   6.977   3.123   6.546
 4129SOL    HW213287   6.941   3.046   6.407
 4130SOL     OW13288   6.402   2.308   1.522
 4130SOL    HW113289   6.427   2.381   1.458
 4130SOL    HW213290   6.484   2.256   1.547
 4131SOL     OW13291   6.626   3.436   3.001
 4131SOL    HW113292   6.720   3.441   3.032
 4131SOL    HW213293   6.585   3.527   3.003
 4132SOL     OW13294   4.629   1.697   4.342
 4132SOL    HW113295   4.636   1.599   4.363
 4132SOL    HW213296   4.621   1.749   4.427
 4133SOL     OW13297   2.465   2.542   1.116
 4133SOL    HW113298   2.478   2.520   1.212
 4133SOL    HW213299   2.536   2.498   1.061
 4134SOL     OW13300   1.875   0.844   0.056
 4134SOL    HW113301   1.933   0.813   0.131
 4134SOL    HW213302   1.858   0.942   0.065
 4135SOL     OW13303   1.752   0.554   1.023
 4135SOL    HW113304   1.734   0.458   1.042
 4135SOL    HW213305   1.669   0.608   1.041
 4136SOL     OW13306   0.792   1.844   3.771
 4136SOL    HW113307   0.760   1.798   3.688
 4136SOL    HW213308   0.836   1.778   3.832
 4137SOL     OW13309   4.032   3.114   5.432
 4137SOL    HW113310   4.047   3.129   5.530
 4137SOL    HW213311   4.110   3.149   5.380
 4138SOL     OW13312   4.752   5.547   1.620
 4138SOL    HW113313   4.693   5.554   1.540
 4138SOL    HW213314   4.828   5.486   1.600
 4139SOL     OW13315   3.045   1.934   0.510
 4139SOL    HW113316   2.965   1.903   0.561
 4139SOL    HW213317   3.055   1.881   0.427
 4140SOL     OW13318   4.694   1.863   5.343
 4140SOL    HW113319   4.689   1.884   5.246
 4140SOL    HW213320   4.602   1.860   5.382
 4141SOL     OW13321   5.593   5.805   1.014
 4141SOL    HW113322   5.599   5.782   1.111
 4141SOL    HW213323   5.625   5.899   1.000
 4142SOL     OW13324   6.146   3.492   1.541
 4142SOL    HW113325   6.225   3.489   1.601
 4142SOL    HW213326   6.094   3.576   1.558
 4143SOL     OW13327   0.457   3.117   1.618
 4143SOL    HW113328   0.451   3.046   1.548
 4143SOL    HW213329   0.535   3.098   1.678
 4144SOL     OW13330   3.689   1.061   2.006
 4144SOL    HW113331   3.677   1.113   1.922
 4144SOL    HW213332   3.601   1.022   2.033
 4145SOL     OW13333   3.033   6.876   3.374
 4145SOL    HW113334   3.029   6.893   3.275
 4145SOL    HW213335   3.128   6.854   3.400
 4146SOL     OW13336   4.460   4.643   0.634
 4146SOL    HW113337   4.431   4.659   0.540
 4146SOL    HW213338   4.536   4.578   0.635
 4147SOL     OW13339   2.570   1.802   5.870
 4147SOL    HW113340   2.529   1.849   5.792
 4147SOL    HW213341   2.537   1.707   5.872
 4148SOL     OW13342   0.141   6.913   2.112
 4148SOL    HW113343   0.161   6.997   2.162
 4148SOL    HW213344   0.128   6.837   2.177
 4149SOL     OW13345   4.767   4.234   2.282
 4149SOL    HW113346   4.697   4.212   2.214
 4149SOL    HW213347   4.723   4.266   2.366
 4150SOL     OW13348   4.153   0.223   5.217
 4150SOL    HW113349   4.065   0.271   5.218
 4150SOL    HW213350   4.227   0.289   5.230
 4151SOL     OW13351   0.311   5.693   0.448
 4151SOL    HW113352   0.293   5.747   0.366
 4151SOL    HW213353   0.401   5.651   0.443
 4152SOL     OW13354   3.211   3.917   1.204
 4152SOL    HW113355   3.182   3.861   1.281
 4152SOL    HW213356   3.240   3.858   1.129
 4153SOL     OW13357   6.283   5.755   5.789
 4153SOL    HW113358   6.292   5.851   5.817
 4153SOL    HW213359   6.224   5.707   5.854
 4154SOL     OW13360   4.637   2.762   4.820
 4154SOL    HW113361   4.712   2.826   4.840
 4154SOL    HW213362   4.574   2.759   4.897
 4155SOL     OW13363   1.491   2.713   0.544
 4155SOL    HW113364   1.400   2.708   0.504
 4155SOL    HW213365   1.538   2.794   0.508
 4156SOL     OW13366   6.107   0.636   5.133
 4156SOL    HW113367   6.043   0.689   5.189
 4156SOL    HW213368   6.177   0.596   5.192
 4157SOL     OW13369   3.468   1.182   3.360
 4157SOL    HW113370   3.557   1.142   3.337
 4157SOL    HW213371   3.442   1.248   3.290
 4158SOL     OW13372   1.353   0.432   3.661
 4158SOL    HW113373   1.386   0.360   3.722
 4158SOL    HW213374   1.254   0.425   3.651
 4159SOL     OW13375   0.171   4.382   5.390
 4159SOL    HW113376   0.214   4.470   5.413
 4159SOL    HW213377   0.124   4.389   5.303
 4160SOL     OW13378   0.202   0.845   0.448
 4160SOL    HW113379   0.177   0.829   0.352
 4160SOL    HW213380   0.176   0.765   0.502
 4161SOL     OW13381   6.069   1.996   1.337
 4161SOL    HW113382   6.047   2.092   1.357
 4161SOL    HW213383   6.024   1.969   1.252
 4162SOL     OW13384   0.949   0.023   5.403
 4162SOL    HW113385   0.950   6.987   5.483
 4162SOL    HW213386   0.934   0.117   5.432
 4163SOL     OW13387   6.547   1.588   5.185
 4163SOL    HW113388   6.495   1.657   5.235
 4163SOL    HW213389   6.642   1.587   5.217
 4164SOL     OW13390   3.017   6.723   5.751
 4164SOL    HW113391   2.949   6.651   5.767
 4164SOL    HW213392   3.097   6.685   5.705
 4165SOL     OW13393   2.147   6.222   1.819
 4165SOL    HW113394   2.246   6.205   1.818
 4165SOL    HW213395   2.099   6.139   1.848
 4166SOL     OW13396   5.941   2.183   2.031
 4166SOL    HW113397   5.874   2.153   1.962
 4166SOL    HW213398   6.003   2.250   1.989
 4167SOL     OW13399   2.002   2.728   1.178
 4167SOL    HW113400   2.028   2.648   1.124
 4167SOL    HW213401   1.910   2.717   1.214
 4168SOL     OW13402   2.338   5.614   1.109
 4168SOL    HW113403   2.335   5.524   1.066
 4168SOL    HW213404   2.284   5.679   1.055
 4169SOL     OW13405   6.429   3.700   6.557
 4169SOL    HW113406   6.451   3.631   6.487
 4169SOL    HW213407   6.361   3.662   6.620
 4170SOL     OW13408   3.223   0.813   5.640
 4170SOL    HW113409   3.164   0.757   5.582
 4170SOL    HW213410   3.171   0.843   5.720
 4171SOL     OW13411   6.053   3.729   1.593
 4171SOL    HW113412   6.094   3.809   1.636
 4171SOL    HW213413   5.955   3.729   1.611
 4172SOL     OW13414   2.932   0.879   1.152
 4172SOL    HW113415   2.986   0.960   1.129
 4172SOL    HW213416   2.964   0.841   1.239
 4173SOL     OW13417   4.385   3.620   5.594
 4173SOL    HW113418   4.452   3.620   5.520
 4173SOL    HW213419   4.368   3.714   5.624
 4174SOL     OW13420   5.352   0.695   2.780
 4174SOL    HW113421   5.280   0.626   2.771
 4174SOL    HW213422   5.342   0.763   2.708
 4175SOL     OW13423   2.147   1.473   2.417
 4175SOL    HW113424   2.129   1.424   2.331
 4175SOL    HW213425   2.239   1.452   2.448
 4176SOL     OW13426   5.882   4.437   2.757
 4176SOL    HW113427   5.817   4.369   2.792
 4176SOL    HW213428   5.838   4.527   2.756
 4177SOL     OW13429   6.984   5.307   3.164
 4177SOL    HW113430   6.908   5.366   3.194
 4177SOL    HW213431   6.947   5.227   3.118
 4178SOL     OW13432   4.500   2.192   5.283
 4178SOL    HW113433   4.584   2.156   5.243
 4178SOL    HW213434   4.511   2.200   5.382
 4179SOL     OW13435   6.624   2.121   0.295
 4179SOL    HW113436   6.590   2.208   0.332
 4179SOL    HW213437   6.584   2.045   0.346
 4180SOL     OW13438   5.171   3.887   1.608
 4180SOL    HW113439   5.169   3.840   1.696
 4180SOL    HW213440   5.126   3.976   1.617
 4181SOL     OW13441   6.211   0.951   0.997
 4181SOL    HW113442   6.298   0.964   1.045
 4181SOL    HW213443   6.225   0.962   0.899
 4182SOL     OW13444   6.049   0.732   3.690
 4182SOL    HW113445   6.142   0.706   3.718
 4182SOL    HW213446   6.044   0.733   3.590
 4183SOL     OW13447   1.236   0.817   1.925
 4183SOL    HW113448   1.246   0.718   1.936
 4183SOL    HW213449   1.220   0.838   1.828
 4184SOL     OW13450   4.473   4.755   6.239
 4184SOL    HW113451   4.465   4.835   6.298
 4184SOL    HW213452   4.382   4.717   6.222
 4185SOL     OW13453   0.448   0.433   3.871
 4185SOL    HW113454   0.415   0.421   3.964
 4185SOL    HW213455   0.521   0.502   3.870
 4186SOL     OW13456   3.388   4.167   1.929
 4186SOL    HW113457   3.454   4.242   1.923
 4186SOL    HW213458   3.397   4.122   2.017
 4187SOL     OW13459   4.252   5.008   6.163
 4187SOL    HW113460   4.289   5.011   6.256
 4187SOL    HW213461   4.193   5.087   6.148
 4188SOL     OW13462   4.895   6.048   3.343
 4188SOL    HW113463   4.994   6.059   3.344
 4188SOL    HW213464   4.871   5.957   3.309
 4189SOL     OW13465   1.653   3.217   3.237
 4189SOL    HW113466   1.747   3.205   3.269
 4189SOL    HW213467   1.603   3.131   3.245
 4190SOL     OW13468   2.342   6.906   1.411
 4190SOL    HW113469   2.276   6.964   1.459
 4190SOL    HW213470   2.301   6.816   1.396
 4191SOL     OW13471   0.438   2.425   3.799
 4191SOL    HW113472   0.526   2.411   3.755
 4191SOL    HW213473   0.419   2.348   3.860
 4192SOL     OW13474   5.957   6.682   3.882
 4192SOL    HW113475   5.949   6.739   3.800
 4192SOL    HW213476   6.053   6.657   3.897
 4193SOL     OW13477   1.740   6.709   4.148
 4193SOL    HW113478   1.814   6.642   4.145
 4193SOL    HW213479   1.679   6.688   4.225
 4194SOL     OW13480   5.747   7.000   3.165
 4194SOL    HW113481   5.691   6.922   3.135
 4194SOL    HW213482   5.692   0.059   3.161
 4195SOL     OW13483   4.618   0.486   3.634
 4195SOL    HW113484   4.667   0.485   3.546
 4195SOL    HW213485   4.534   0.539   3.625
 4196SOL     OW13486   4.795   2.498   3.196
 4196SOL    HW113487   4.883   2.473   3.236
 4196SOL    HW213488   4.731   2.524   3.270
 4197SOL     OW13489   5.126   4.025   4.449
 4197SOL    HW113490   5.064   3.948   4.433
 4197SOL    HW213491   5.220   3.991   4.455
 4198SOL     OW13492   6.296   3.274   5.994
 4198SOL    HW113493   6.256   3.221   6.069
 4198SOL    HW213494   6.396   3.273   6.002
 4199SOL     OW13495   2.662   3.929   6.150
 4199SOL    HW113496   2.740   3.989   6.167
 4199SOL    HW213497   2.655   3.910   6.052
 4200SOL     OW13498   3.112   0.457   0.039
 4200SOL    HW113499   3.170   0.524   0.084
 4200SOL    HW213500   3.116   0.370   0.089
 4201SOL     OW13501   6.657   0.005   4.877
 4201SOL    HW113502   6.729   6.989   4.933
 4201SOL    HW213503   6.610   0.077   4.928
 4202SOL     OW13504   5.526   3.169   5.168
 4202SOL    HW113505   5.516   3.136   5.262
 4202SOL    HW213506   5.616   3.144   5.132
 4203SOL     OW13507   3.800   5.360   4.773
 4203SOL    HW113508   3.746   5.294   4.825
 4203SOL    HW213509   3.841   5.426   4.836
 4204SOL     OW13510   1.937   3.916   0.345
 4204SOL    HW113511   1.996   3.922   0.264
 4204SOL    HW213512   1.879   3.997   0.349
 4205SOL     OW13513   2.208   5.680   3.500
 4205SOL    HW113514   2.176   5.618   3.571
 4205SOL    HW213515   2.275   5.743   3.538
 4206SOL     OW13516   4.827   6.513   3.943
 4206SOL    HW113517   4.795   6.428   3.903
 4206SOL    HW213518   4.927   6.514   3.946
 4207SOL     OW13519   1.379   6.057   0.106
 4207SOL    HW113520   1.382   5.999   0.025
 4207SOL    HW213521   1.410   6.149   0.082
 4208SOL     OW13522   0.430   2.256   1.887
 4208SOL    HW113523   0.498   2.196   1.845
 4208SOL    HW213524   0.421   2.339   1.832
 4209SOL     OW13525   3.085   0.141   5.205
 4209SOL    HW113526   3.095   0.071   5.134
 4209SOL    HW213527   2.991   0.140   5.239
 4210SOL     OW13528   3.349   2.915   0.542
 4210SOL    HW113529   3.258   2.875   0.554
 4210SOL    HW213530   3.386   2.886   0.454
 4211SOL     OW13531   5.251   3.546   4.355
 4211SOL    HW113532   5.247   3.448   4.377
 4211SOL    HW213533   5.315   3.591   4.417
 4212SOL     OW13534   6.255   6.999   2.018
 4212SOL    HW113535   6.208   0.028   2.087
 4212SOL    HW213536   6.316   6.933   2.062
 4213SOL     OW13537   0.763   6.842   1.048
 4213SOL    HW113538   0.668   6.872   1.040
 4213SOL    HW213539   0.812   6.899   1.114
 4214SOL     OW13540   2.767   5.594   3.514
 4214SOL    HW113541   2.815   5.517   3.555
 4214SOL    HW213542   2.830   5.648   3.459
 4215SOL     OW13543   1.612   5.763   6.997
 4215SOL    HW113544   1.566   5.849   6.976
 4215SOL    HW213545   1.709   5.771   6.974
 4216SOL     OW13546   2.729   2.724   5.319
 4216SOL    HW113547   2.786   2.806   5.319
 4216SOL    HW213548   2.639   2.747   5.357
 4217SOL     OW13549   6.639   1.099   4.275
 4217SOL    HW113550   6.563   1.159   4.301
 4217SOL    HW213551   6.689   1.071   4.357
 4218SOL     OW13552   3.198   5.606   2.484
 4218SOL    HW113553   3.297   5.591   2.474
 4218SOL    HW213554   3.175   5.697   2.449
 4219SOL     OW13555   5.287   0.252   2.809
 4219SOL    HW113556   5.335   0.213   2.730
 4219SOL    HW213557   5.312   0.202   2.891
 4220SOL     OW13558   6.986   4.395   2.769
 4220SOL    HW113559   6.971   4.469   2.704
 4220SOL    HW213560   6.943   4.417   2.857
 4221SOL     OW13561   5.288   6.439   5.918
 4221SOL    HW113562   5.192   6.418   5.900
 4221SOL    HW213563   5.347   6.376   5.867
 4222SOL     OW13564   2.876   2.702   0.019
 4222SOL    HW113565   2.913   2.777   6.989
 4222SOL    HW213566   2.833   2.739   0.102
 4223SOL     OW13567   3.899   3.940   3.206
 4223SOL    HW113568   3.832   3.866   3.202
 4223SOL    HW213569   3.878   3.999   3.284
 4224SOL     OW13570   3.828   2.118   5.450
 4224SOL    HW113571   3.847   2.196   5.510
 4224SOL    HW213572   3.903   2.052   5.456
 4225SOL     OW13573   5.023   0.208   4.475
 4225SOL    HW113574   4.984   0.118   4.490
 4225SOL    HW213575   5.122   0.200   4.460
 4226SOL     OW13576   2.271   1.939   1.993
 4226SOL    HW113577   2.309   1.857   1.951
 4226SOL    HW213578   2.335   2.015   1.982
 4227SOL     OW13579   5.469   4.021   0.093
 4227SOL    HW113580   5.486   4.062   0.182
 4227SOL    HW213581   5.437   3.927   0.104
 4228SOL     OW13582   4.299   5.454   2.781
 4228SOL    HW113583   4.290   5.441   2.682
 4228SOL    HW213584   4.272   5.548   2.805
 4229SOL     OW13585   3.900   5.143   5.084
 4229SOL    HW113586   3.956   5.060   5.080
 4229SOL    HW213587   3.887   5.170   5.180
 4230SOL     OW13588   2.527   0.953   6.237
 4230SOL    HW113589   2.617   0.974   6.200
 4230SOL    HW213590   2.463   1.026   6.210
 4231SOL     OW13591   3.765   6.489   6.526
 4231SOL    HW113592   3.696   6.492   6.598
 4231SOL    HW213593   3.832   6.417   6.547
 4232SOL     OW13594   1.311   4.089   1.233
 4232SOL    HW113595   1.365   4.173   1.237
 4232SOL    HW213596   1.290   4.068   1.138
 4233SOL     OW13597   5.341   5.640   1.118
 4233SOL    HW113598   5.266   5.582   1.087
 4233SOL    HW213599   5.337   5.728   1.072
 4234SOL     OW13600   3.762   3.516   5.741
 4234SOL    HW113601   3.747   3.579   5.817
 4234SOL    HW213602   3.681   3.512   5.683
 4235SOL     OW13603   0.312   4.080   4.892
 4235SOL    HW113604   0.406   4.096   4.920
 4235SOL    HW213605   0.279   3.994   4.930
 4236SOL     OW13606   0.844   3.807   4.531
 4236SOL    HW113607   0.833   3.877   4.460
 4236SOL    HW213608   0.855   3.852   4.620
 4237SOL     OW13609   5.956   3.718   5.854
 4237SOL    HW113610   5.890   3.661   5.902
 4237SOL    HW213611   6.044   3.672   5.850
 4238SOL     OW13612   4.728   4.874   5.130
 4238SOL    HW113613   4.648   4.930   5.151
 4238SOL    HW213614   4.805   4.934   5.106
 4239SOL     OW13615   5.272   5.522   5.532
 4239SOL    HW113616   5.247   5.618   5.523
 4239SOL    HW213617   5.355   5.504   5.480
 4240SOL     OW13618   2.566   4.935   6.076
 4240SOL    HW113619   2.618   5.014   6.106
 4240SOL    HW213620   2.560   4.869   6.151
 4241SOL     OW13621   3.224   2.151   1.251
 4241SOL    HW113622   3.312   2.198   1.254
 4241SOL    HW213623   3.222   2.079   1.321
 4242SOL     OW13624   2.557   0.586   1.801
 4242SOL    HW113625   2.520   0.649   1.869
 4242SOL    HW213626   2.487   0.568   1.731
 4243SOL     OW13627   1.834   2.361   2.341
 4243SOL    HW113628   1.765   2.314   2.395
 4243SOL    HW213629   1.790   2.432   2.285
 4244SOL     OW13630   2.950   7.012   0.910
 4244SOL    HW113631   2.891   6.936   0.884
 4244SOL    HW213632   2.931   0.014   1.004
 4245SOL     OW13633   0.078   1.323   0.881
 4245SOL    HW113634   0.021   1.294   0.804
 4245SOL    HW213635   0.093   1.422   0.876
 4246SOL     OW13636   4.596   2.245   3.904
 4246SOL    HW113637   4.684   2.222   3.863
 4246SOL    HW213638   4.523   2.194   3.858
 4247SOL     OW13639   2.644   5.628   6.612
 4247SOL    HW113640   2.601   5.715   6.638
 4247SOL    HW213641   2.700   5.595   6.687
 4248SOL     OW13642   2.809   0.130   2.852
 4248SOL    HW113643   2.884   0.102   2.792
 4248SOL    HW213644   2.833   0.215   2.898
 4249SOL     OW13645   6.025   1.204   5.289
 4249SOL    HW113646   6.055   1.133   5.226
 4249SOL    HW213647   5.958   1.263   5.244
 4250SOL     OW13648   0.795   5.651   4.763
 4250SOL    HW113649   0.818   5.746   4.787
 4250SOL    HW213650   0.728   5.651   4.689
 4251SOL     OW13651   4.659   1.931   5.078
 4251SOL    HW113652   4.596   1.872   5.027
 4251SOL    HW213653   4.753   1.907   5.056
 4252SOL     OW13654   0.917   0.035   6.347
 4252SOL    HW113655   0.907   0.071   6.254
 4252SOL    HW213656   0.989   0.085   6.395
 4253SOL     OW13657   4.204   6.765   2.893
 4253SOL    HW113658   4.110   6.799   2.891
 4253SOL    HW213659   4.241   6.765   2.800
 4254SOL     OW13660   1.220   1.424   5.368
 4254SOL    HW113661   1.150   1.419   5.440
 4254SOL    HW213662   1.181   1.391   5.282
 4255SOL     OW13663   1.199   3.151   4.161
 4255SOL    HW113664   1.296   3.131   4.150
 4255SOL    HW213665   1.171   3.137   4.256
 4256SOL     OW13666   6.195   6.316   0.903
 4256SOL    HW113667   6.166   6.315   0.807
 4256SOL    HW213668   6.198   6.222   0.937
 4257SOL     OW13669   0.154   1.099   2.141
 4257SOL    HW113670   0.235   1.152   2.169
 4257SOL    HW213671   0.107   1.066   2.223
 4258SOL     OW13672   2.732   5.842   1.250
 4258SOL    HW113673   2.734   5.754   1.298
 4258SOL    HW213674   2.812   5.848   1.190
 4259SOL     OW13675   0.754   6.497   0.302
 4259SOL    HW113676   0.706   6.579   0.271
 4259SOL    HW213677   0.841   6.523   0.344
 4260SOL     OW13678   0.522   0.532   5.253
 4260SOL    HW113679   0.519   0.605   5.185
 4260SOL    HW213680   0.481   0.449   5.214
 4261SOL     OW13681   2.444   6.638   3.749
 4261SOL    HW113682   2.390   6.694   3.687
 4261SOL    HW213683   2.524   6.690   3.780
 4262SOL     OW13684   1.376   4.038   4.677
 4262SOL    HW113685   1.290   4.059   4.630
 4262SOL    HW213686   1.385   3.939   4.686
 4263SOL     OW13687   3.448   0.435   2.669
 4263SOL    HW113688   3.519   0.479   2.614
 4263SOL    HW213689   3.369   0.496   2.676
 4264SOL     OW13690   4.545   1.858   6.656
 4264SOL    HW113691   4.640   1.845   6.628
 4264SOL    HW213692   4.514   1.949   6.629
 4265SOL     OW13693   3.303   6.766   6.922
 4265SOL    HW113694   3.259   6.852   6.898
 4265SOL    HW213695   3.253   6.690   6.880
 4266SOL     OW13696   1.155   4.581   2.225
 4266SOL    HW113697   1.103   4.654   2.180
 4266SOL    HW213698   1.171   4.607   2.321
 4267SOL     OW13699   1.933   3.463   3.928
 4267SOL    HW113700   1.943   3.534   3.859
 4267SOL    HW213701   1.950   3.373   3.886
 4268SOL     OW13702   1.422   3.941   6.229
 4268SOL    HW113703   1.502   3.881   6.230
 4268SOL    HW213704   1.343   3.891   6.265
 4269SOL     OW13705   1.918   1.413   4.376
 4269SOL    HW113706   1.959   1.363   4.299
 4269SOL    HW213707   1.892   1.505   4.346
 4270SOL     OW13708   4.214   4.146   1.286
 4270SOL    HW113709   4.248   4.052   1.278
 4270SOL    HW213710   4.201   4.168   1.383
 4271SOL     OW13711   0.057   0.447   0.773
 4271SOL    HW113712   0.035   0.544   0.776
 4271SOL    HW213713   0.073   0.419   0.678
 4272SOL     OW13714   6.240   1.615   5.319
 4272SOL    HW113715   6.207   1.539   5.375
 4272SOL    HW213716   6.319   1.657   5.364
 4273SOL     OW13717   3.865   5.164   3.576
 4273SOL    HW113718   3.896   5.167   3.481
 4273SOL    HW213719   3.927   5.217   3.633
 4274SOL     OW13720   6.999   0.594   1.380
 4274SOL    HW113721   6.986   0.511   1.327
 4274SOL    HW213722   6.912   0.623   1.419
 4275SOL     OW13723   6.216   1.458   4.390
 4275SOL    HW113724   6.207   1.533   4.324
 4275SOL    HW213725   6.294   1.475   4.450
 4276SOL     OW13726   1.287   0.851   2.744
 4276SOL    HW113727   1.267   0.935   2.692
 4276SOL    HW213728   1.380   0.857   2.780
 4277SOL     OW13729   6.155   5.484   2.696
 4277SOL    HW113730   6.220   5.560   2.698
 4277SOL    HW213731   6.177   5.420   2.769
 4278SOL     OW13732   0.562   0.024   1.343
 4278SOL    HW113733   0.471   0.003   1.377
 4278SOL    HW213734   0.605   6.966   1.307
 4279SOL     OW13735   0.845   3.464   3.042
 4279SOL    HW113736   0.904   3.505   2.973
 4279SOL    HW213737   0.822   3.532   3.112
 4280SOL     OW13738   3.158   6.296   6.704
 4280SOL    HW113739   3.107   6.213   6.683
 4280SOL    HW213740   3.130   6.331   6.793
 4281SOL     OW13741   6.973   6.554   2.420
 4281SOL    HW113742   6.873   6.555   2.423
 4281SOL    HW213743   7.009   6.589   2.506
 4282SOL     OW13744   5.110   4.606   1.965
 4282SOL    HW113745   5.203   4.598   2.002
 4282SOL    HW213746   5.113   4.604   1.865
 4283SOL     OW13747   6.258   1.442   4.798
 4283SOL    HW113748   6.198   1.410   4.725
 4283SOL    HW213749   6.240   1.390   4.881
 4284SOL     OW13750   4.840   6.197   0.295
 4284SOL    HW113751   4.797   6.268   0.240
 4284SOL    HW213752   4.940   6.209   0.294
 4285SOL     OW13753   2.879   1.293   6.112
 4285SOL    HW113754   2.827   1.378   6.118
 4285SOL    HW213755   2.973   1.313   6.082
 4286SOL     OW13756   5.686   6.142   0.029
 4286SOL    HW113757   5.674   6.143   0.128
 4286SOL    HW213758   5.775   6.182   0.006
 4287SOL     OW13759   4.520   0.384   0.957
 4287SOL    HW113760   4.447   0.322   0.987
 4287SOL    HW213761   4.490   0.436   0.877
 4288SOL     OW13762   0.366   6.676   2.097
 4288SOL    HW113763   0.426   6.611   2.144
 4288SOL    HW213764   0.277   6.632   2.080
 4289SOL     OW13765   0.185   4.113   5.764
 4289SOL    HW113766   0.193   4.142   5.669
 4289SOL    HW213767   0.147   4.187   5.819
 4290SOL     OW13768   0.059   0.985   2.669
 4290SOL    HW113769   0.052   0.946   2.578
 4290SOL    HW213770   7.020   1.062   2.677
 4291SOL     OW13771   4.497   4.858   5.984
 4291SOL    HW113772   4.575   4.911   5.951
 4291SOL    HW213773   4.514   4.828   6.078
 4292SOL     OW13774   6.723   0.218   0.573
 4292SOL    HW113775   6.674   0.162   0.640
 4292SOL    HW213776   6.821   0.210   0.588
 4293SOL     OW13777   3.824   2.958   6.124
 4293SOL    HW113778   3.842   3.040   6.178
 4293SOL    HW213779   3.857   2.971   6.031
 4294SOL     OW13780   3.226   2.172   0.235
 4294SOL    HW113781   3.159   2.195   0.305
 4294SOL    HW213782   3.300   2.119   0.277
 4295SOL     OW13783   3.856   6.578   2.686
 4295SOL    HW113784   3.926   6.508   2.677
 4295SOL    HW213785   3.824   6.581   2.781
 4296SOL     OW13786   2.218   5.559   1.838
 4296SOL    HW113787   2.267   5.641   1.809
 4296SOL    HW213788   2.274   5.507   1.902
 4297SOL     OW13789   4.751   4.664   0.030
 4297SOL    HW113790   4.717   4.570   0.022
 4297SOL    HW213791   4.838   4.672   7.007
 4298SOL     OW13792   2.431   6.183   0.288
 4298SOL    HW113793   2.376   6.142   0.361
 4298SOL    HW213794   2.403   6.279   0.275
 4299SOL     OW13795   0.190   3.460   6.337
 4299SOL    HW113796   0.270   3.472   6.397
 4299SOL    HW213797   0.205   3.509   6.251
 4300SOL     OW13798   3.538   0.865   1.750
 4300SOL    HW113799   3.469   0.832   1.685
 4300SOL    HW213800   3.624   0.881   1.702
 4301SOL     OW13801   1.936   6.121   4.626
 4301SOL    HW113802   2.024   6.080   4.649
 4301SOL    HW213803   1.876   6.119   4.707
 4302SOL     OW13804   4.189   5.003   0.149
 4302SOL    HW113805   4.105   5.048   0.178
 4302SOL    HW213806   4.240   5.065   0.088
 4303SOL     OW13807   4.432   5.075   3.407
 4303SOL    HW113808   4.421   5.174   3.400
 4303SOL    HW213809   4.522   5.053   3.444
 4304SOL     OW13810   3.178   4.199   1.715
 4304SOL    HW113811   3.123   4.282   1.705
 4304SOL    HW213812   3.246   4.213   1.787
 4305SOL     OW13813   0.931   6.919   5.636
 4305SOL    HW113814   0.959   6.897   5.729
 4305SOL    HW213815   0.832   6.909   5.628
 4306SOL     OW13816   5.992   3.724   5.176
 4306SOL    HW113817   6.085   3.716   5.139
 4306SOL    HW213818   5.940   3.788   5.120
 4307SOL     OW13819   6.952   1.579   4.584
 4307SOL    HW113820   0.017   1.617   4.606
 4307SOL    HW213821   6.884   1.613   4.649
 4308SOL     OW13822   4.433   5.685   5.895
 4308SOL    HW113823   4.448   5.651   5.802
 4308SOL    HW213824   4.437   5.785   5.895
 4309SOL     OW13825   3.090   1.995   0.784
 4309SOL    HW113826   3.017   2.062   0.793
 4309SOL    HW213827   3.108   1.979   0.687
 4310SOL     OW13828   6.562   1.471   4.256
 4310SOL    HW113829   6.635   1.447   4.320
 4310SOL    HW213830   6.522   1.388   4.218
 4311SOL     OW13831   1.081   6.769   1.446
 4311SOL    HW113832   1.004   6.795   1.504
 4311SOL    HW213833   1.047   6.717   1.367
 4312SOL     OW13834   0.372   3.088   2.808
 4312SOL    HW113835   0.386   3.075   2.906
 4312SOL    HW213836   0.301   3.156   2.793
 4313SOL     OW13837   1.004   3.200   0.906
 4313SOL    HW113838   0.968   3.288   0.938
 4313SOL    HW213839   1.042   3.150   0.984
 4314SOL     OW13840   2.159   1.407   6.015
 4314SOL    HW113841   2.154   1.504   6.039
 4314SOL    HW213842   2.115   1.393   5.926
 4315SOL     OW13843   2.649   2.375   5.326
 4315SOL    HW113844   2.623   2.316   5.249
 4315SOL    HW213845   2.748   2.380   5.332
 4316SOL     OW13846   4.386   4.580   1.130
 4316SOL    HW113847   4.360   4.502   1.073
 4316SOL    HW213848   4.399   4.550   1.224
 4317SOL     OW13849   5.418   0.496   3.998
 4317SOL    HW113850   5.483   0.419   4.003
 4317SOL    HW213851   5.325   0.460   3.998
 4318SOL     OW13852   1.513   6.225   4.109
 4318SOL    HW113853   1.578   6.170   4.056
 4318SOL    HW213854   1.420   6.191   4.094
 4319SOL     OW13855   2.379   4.670   1.749
 4319SOL    HW113856   2.437   4.635   1.676
 4319SOL    HW213857   2.326   4.594   1.789
 4320SOL     OW13858   3.789   1.537   1.953
 4320SOL    HW113859   3.821   1.631   1.969
 4320SOL    HW213860   3.867   1.475   1.950
 4321SOL     OW13861   6.390   5.900   2.966
 4321SOL    HW113862   6.450   5.946   3.032
 4321SOL    HW213863   6.409   5.936   2.875
 4322SOL     OW13864   2.914   2.036   4.712
 4322SOL    HW113865   2.891   2.129   4.742
 4322SOL    HW213866   2.847   1.972   4.748
 4323SOL     OW13867   5.308   4.210   1.551
 4323SOL    HW113868   5.251   4.181   1.474
 4323SOL    HW213869   5.355   4.131   1.590
 4324SOL     OW13870   6.280   3.844   5.429
 4324SOL    HW113871   6.180   3.847   5.431
 4324SOL    HW213872   6.316   3.895   5.507
 4325SOL     OW13873   1.550   0.693   1.084
 4325SOL    HW113874   1.507   0.752   1.016
 4325SOL    HW213875   1.592   0.749   1.155
 4326SOL     OW13876   4.809   2.505   2.516
 4326SOL    HW113877   4.810   2.427   2.453
 4326SOL    HW213878   4.831   2.473   2.608
 4327SOL     OW13879   2.890   6.580   4.017
 4327SOL    HW113880   2.850   6.577   3.925
 4327SOL    HW213881   2.907   6.486   4.048
 4328SOL     OW13882   6.091   0.278   2.264
 4328SOL    HW113883   6.022   0.297   2.193
 4328SOL    HW213884   6.177   0.322   2.239
 4329SOL     OW13885   5.895   4.294   0.335
 4329SOL    HW113886   5.919   4.350   0.415
 4329SOL    HW213887   5.971   4.294   0.270
 4330SOL     OW13888   2.891   5.831   5.266
 4330SOL    HW113889   2.903   5.867   5.174
 4330SOL    HW213890   2.803   5.784   5.272
 4331SOL     OW13891   6.190   1.573   2.787
 4331SOL    HW113892   6.109   1.553   2.843
 4331SOL    HW213893   6.176   1.539   2.694
 4332SOL     OW13894   7.009   5.600   1.232
 4332SOL    HW113895   6.915   5.635   1.240
 4332SOL    HW213896   7.013   5.533   1.158
 4333SOL     OW13897   3.484   2.893   6.054
 4333SOL    HW113898   3.582   2.878   6.036
 4333SOL    HW213899   3.460   2.850   6.140
 4334SOL     OW13900   0.219   2.273   3.412
 4334SOL    HW113901   0.170   2.325   3.482
 4334SOL    HW213902   0.211   2.175   3.432
 4335SOL     OW13903   1.801   3.606   1.522
 4335SOL    HW113904   1.743   3.542   1.571
 4335SOL    HW213905   1.861   3.556   1.460
 4336SOL     OW13906   2.101   4.928   5.394
 4336SOL    HW113907   2.128   4.871   5.317
 4336SOL    HW213908   2.144   4.893   5.478
 4337SOL     OW13909   6.951   4.264   4.393
 4337SOL    HW113910   6.884   4.195   4.424
 4337SOL    HW213911   0.018   4.225   4.397
 4338SOL     OW13912   3.569   2.893   5.548
 4338SOL    HW113913   3.548   2.838   5.467
 4338SOL    HW213914   3.612   2.978   5.519
 4339SOL     OW13915   3.946   3.843   5.370
 4339SOL    HW113916   3.900   3.865   5.284
 4339SOL    HW213917   3.925   3.749   5.397
 4340SOL     OW13918   6.978   4.185   0.303
 4340SOL    HW113919   0.027   4.135   0.258
 4340SOL    HW213920   6.999   4.283   0.301
 4341SOL     OW13921   6.127   6.430   1.612
 4341SOL    HW113922   6.101   6.458   1.520
 4341SOL    HW213923   6.091   6.496   1.678
 4342SOL     OW13924   4.955   3.462   2.064
 4342SOL    HW113925   4.885   3.473   1.994
 4342SOL    HW213926   4.958   3.366   2.093
 4343SOL     OW13927   4.824   6.969   6.188
 4343SOL    HW113928   4.882   6.921   6.123
 4343SOL    HW213929   4.735   6.987   6.147
 4344SOL     OW13930   1.188   3.668   1.700
 4344SOL    HW113931   1.242   3.677   1.784
 4344SOL    HW213932   1.248   3.684   1.621
 4345SOL     OW13933   4.020   3.242   2.775
 4345SOL    HW113934   3.920   3.232   2.780
 4345SOL    HW213935   4.048   3.250   2.679
 4346SOL     OW13936   0.698   3.589   2.443
 4346SOL    HW113937   0.709   3.512   2.380
 4346SOL    HW213938   0.659   3.556   2.529
 4347SOL     OW13939   6.124   5.976   1.483
 4347SOL    HW113940   6.143   6.060   1.431
 4347SOL    HW213941   6.075   5.911   1.425
 4348SOL     OW13942   6.439   4.288   6.270
 4348SOL    HW113943   6.538   4.274   6.270
 4348SOL    HW213944   6.414   4.341   6.351
 4349SOL     OW13945   0.742   3.651   3.874
 4349SOL    HW113946   0.712   3.676   3.782
 4349SOL    HW213947   0.818   3.586   3.868
 4350SOL     OW13948   5.413   0.112   3.877
 4350SOL    HW113949   5.502   0.147   3.846
 4350SOL    HW213950   5.393   0.146   3.968
 4351SOL     OW13951   0.399   6.182   0.993
 4351SOL    HW113952   0.493   6.174   1.027
 4351SOL    HW213953   0.336   6.188   1.070
 4352SOL     OW13954   3.441   4.164   1.137
 4352SOL    HW113955   3.481   4.166   1.229
 4352SOL    HW213956   3.500   4.215   1.074
 4353SOL     OW13957   2.199   4.076   0.310
 4353SOL    HW113958   2.257   4.022   0.371
 4353SOL    HW213959   2.223   4.057   0.215
 4354SOL     OW13960   5.496   5.227   1.934
 4354SOL    HW113961   5.470   5.131   1.933
 4354SOL    HW213962   5.586   5.238   1.891
 4355SOL     OW13963   1.722   4.701   3.742
 4355SOL    HW113964   1.745   4.798   3.748
 4355SOL    HW213965   1.783   4.655   3.677
 4356SOL     OW13966   5.576   1.358   5.678
 4356SOL    HW113967   5.588   1.392   5.771
 4356SOL    HW213968   5.478   1.349   5.658
 4357SOL     OW13969   5.168   5.930   2.866
 4357SOL    HW113970   5.182   5.967   2.958
 4357SOL    HW213971   5.163   5.830   2.871
 4358SOL     OW13972   2.653   0.745   1.504
 4358SOL    HW113973   2.561   0.717   1.530
 4358SOL    HW213974   2.719   0.681   1.544
 4359SOL     OW13975   2.702   2.935   1.578
 4359SOL    HW113976   2.758   2.911   1.498
 4359SOL    HW213977   2.641   2.858   1.600
 4360SOL     OW13978   2.950   5.978   3.987
 4360SOL    HW113979   2.982   5.965   3.893
 4360SOL    HW213980   2.897   6.063   3.992
 4361SOL     OW13981   2.027   1.183   6.596
 4361SOL    HW113982   2.096   1.243   6.636
 4361SOL    HW213983   2.003   1.111   6.662
 4362SOL     OW13984   6.994   6.115   2.610
 4362SOL    HW113985   6.897   6.139   2.616
 4362SOL    HW213986   0.025   6.194   2.636
 4363SOL     OW13987   4.015   0.281   2.209
 4363SOL    HW113988   3.973   0.370   2.187
 4363SOL    HW213989   3.945   0.210   2.206
 4364SOL     OW13990   2.924   3.596   3.087
 4364SOL    HW113991   2.886   3.596   2.994
 4364SOL    HW213992   2.954   3.688   3.111
 4365SOL     OW13993   2.583   1.326   1.065
 4365SOL    HW113994   2.589   1.407   1.007
 4365SOL    HW213995   2.644   1.255   1.029
 4366SOL     OW13996   4.723   5.691   4.736
 4366SOL    HW113997   4.777   5.615   4.700
 4366SOL    HW213998   4.683   5.742   4.661
 4367SOL     OW13999   1.742   0.012   1.719
 4367SOL    HW114000   1.800   0.067   1.659
 4367SOL    HW214001   1.671   0.070   1.759
 4368SOL     OW14002   4.959   4.763   4.671
 4368SOL    HW114003   4.986   4.684   4.726
 4368SOL    HW214004   4.878   4.806   4.711
 4369SOL     OW14005   6.393   3.947   4.110
 4369SOL    HW114006   6.386   4.038   4.068
 4369SOL    HW214007   6.485   3.934   4.146
 4370SOL     OW14008   5.035   4.799   1.001
 4370SOL    HW114009   4.979   4.837   1.074
 4370SOL    HW214010   4.983   4.796   0.916
 4371SOL     OW14011   3.637   0.945   3.284
 4371SOL    HW114012   3.691   0.966   3.202
 4371SOL    HW214013   3.646   0.848   3.305
 4372SOL     OW14014   1.849   4.630   5.256
 4372SOL    HW114015   1.936   4.677   5.240
 4372SOL    HW214016   1.807   4.666   5.340
 4373SOL     OW14017   4.569   0.632   0.245
 4373SOL    HW114018   4.549   0.595   0.154
 4373SOL    HW214019   4.603   0.559   0.304
 4374SOL     OW14020   2.288   6.084   0.481
 4374SOL    HW114021   2.269   6.102   0.578
 4374SOL    HW214022   2.205   6.050   0.437
 4375SOL     OW14023   4.960   0.776   6.150
 4375SOL    HW114024   4.946   0.838   6.072
 4375SOL    HW214025   4.898   0.698   6.142
 4376SOL     OW14026   3.350   4.985   6.858
 4376SOL    HW114027   3.416   4.969   6.932
 4376SOL    HW214028   3.258   4.985   6.896
 4377SOL     OW14029   5.631   6.430   7.023
 4377SOL    HW114030   5.695   6.457   6.951
 4377SOL    HW214031   5.649   6.336   0.025
 4378SOL     OW14032   3.241   4.816   1.600
 4378SOL    HW114033   3.281   4.725   1.610
 4378SOL    HW214034   3.285   4.878   1.665
 4379SOL     OW14035   6.589   6.175   0.486
 4379SOL    HW114036   6.557   6.165   0.392
 4379SOL    HW214037   6.689   6.185   0.486
 4380SOL     OW14038   1.823   6.029   4.895
 4380SOL    HW114039   1.819   5.971   4.976
 4380SOL    HW214040   1.741   6.015   4.839
 4381SOL     OW14041   3.513   6.112   4.003
 4381SOL    HW114042   3.441   6.058   3.958
 4381SOL    HW214043   3.511   6.095   4.101
 4382SOL     OW14044   5.513   4.296   3.799
 4382SOL    HW114045   5.429   4.302   3.746
 4382SOL    HW214046   5.590   4.330   3.745
 4383SOL     OW14047   1.221   0.197   0.054
 4383SOL    HW114048   1.199   0.101   0.072
 4383SOL    HW214049   1.191   0.221   6.987
 4384SOL     OW14050   3.837   6.639   2.026
 4384SOL    HW114051   3.898   6.714   1.998
 4384SOL    HW214052   3.792   6.664   2.112
 4385SOL     OW14053   6.178   2.776   4.318
 4385SOL    HW114054   6.124   2.709   4.369
 4385SOL    HW214055   6.223   2.731   4.241
 4386SOL     OW14056   1.848   5.479   7.008
 4386SOL    HW114057   1.791   5.486   6.927
 4386SOL    HW214058   1.845   5.566   0.034
 4387SOL     OW14059   5.943   2.502   1.008
 4387SOL    HW114060   5.873   2.488   1.078
 4387SOL    HW214061   5.926   2.588   0.961
 4388SOL     OW14062   3.986   1.227   5.804
 4388SOL    HW114063   3.938   1.229   5.717
 4388SOL    HW214064   3.958   1.306   5.859
 4389SOL     OW14065   0.791   2.235   2.979
 4389SOL    HW114066   0.843   2.150   2.970
 4389SOL    HW214067   0.701   2.223   2.938
 4390SOL     OW14068   4.548   3.938   1.003
 4390SOL    HW114069   4.583   4.004   1.070
 4390SOL    HW214070   4.598   3.948   0.917
 4391SOL     OW14071   0.539   5.384   0.747
 4391SOL    HW114072   0.449   5.342   0.742
 4391SOL    HW214073   0.529   5.482   0.766
 4392SOL     OW14074   4.953   5.037   5.052
 4392SOL    HW114075   4.933   5.097   5.130
 4392SOL    HW214076   4.916   5.077   4.968
 4393SOL     OW14077   4.788   6.620   3.148
 4393SOL    HW114078   4.749   6.689   3.086
 4393SOL    HW214079   4.790   6.531   3.102
 4394SOL     OW14080   4.518   0.708   2.336
 4394SOL    HW114081   4.529   0.721   2.434
 4394SOL    HW214082   4.500   0.611   2.317
 4395SOL     OW14083   4.470   2.568   0.986
 4395SOL    HW114084   4.464   2.621   0.901
 4395SOL    HW214085   4.403   2.495   0.984
 4396SOL     OW14086   1.766   1.253   2.781
 4396SOL    HW114087   1.679   1.217   2.747
 4396SOL    HW214088   1.756   1.350   2.803
 4397SOL     OW14089   3.998   1.137   7.023
 4397SOL    HW114090   4.049   1.088   0.069
 4397SOL    HW214091   3.945   1.071   6.969
 4398SOL     OW14092   0.768   4.861   4.582
 4398SOL    HW114093   0.856   4.872   4.534
 4398SOL    HW214094   0.776   4.896   4.675
 4399SOL     OW14095   2.758   0.529   1.624
 4399SOL    HW114096   2.695   0.525   1.702
 4399SOL    HW214097   2.849   0.500   1.653
 4400SOL     OW14098   3.407   4.910   2.751
 4400SOL    HW114099   3.360   4.928   2.838
 4400SOL    HW214100   3.340   4.877   2.684
 4401SOL     OW14101   5.076   6.464   4.581
 4401SOL    HW114102   5.172   6.435   4.582
 4401SOL    HW214103   5.024   6.409   4.646
 4402SOL     OW14104   0.164   6.324   1.753
 4402SOL    HW114105   0.068   6.342   1.735
 4402SOL    HW214106   0.174   6.233   1.793
 4403SOL     OW14107   6.400   1.629   3.237
 4403SOL    HW114108   6.431   1.566   3.309
 4403SOL    HW214109   6.420   1.589   3.148
 4404SOL     OW14110   1.527   4.114   2.353
 4404SOL    HW114111   1.516   4.101   2.451
 4404SOL    HW214112   1.612   4.165   2.336
 4405SOL     OW14113   2.673   3.700   6.408
 4405SOL    HW114114   2.594   3.747   6.450
 4405SOL    HW214115   2.668   3.710   6.309
 4406SOL     OW14116   5.735   2.580   2.109
 4406SOL    HW114117   5.685   2.632   2.178
 4406SOL    HW214118   5.671   2.536   2.047
 4407SOL     OW14119   1.177   0.894   0.516
 4407SOL    HW114120   1.227   0.862   0.436
 4407SOL    HW214121   1.159   0.992   0.507
 4408SOL     OW14122   4.122   6.040   1.524
 4408SOL    HW114123   4.024   6.020   1.523
 4408SOL    HW214124   4.142   6.109   1.594
 4409SOL     OW14125   3.568   2.081   2.883
 4409SOL    HW114126   3.598   2.007   2.944
 4409SOL    HW214127   3.557   2.165   2.935
 4410SOL     OW14128   2.064   5.615   0.668
 4410SOL    HW114129   2.040   5.646   0.760
 4410SOL    HW214130   2.163   5.602   0.662
 4411SOL     OW14131   3.390   3.028   2.384
 4411SOL    HW114132   3.398   3.066   2.292
 4411SOL    HW214133   3.462   2.960   2.398
 4412SOL     OW14134   3.391   1.389   6.119
 4412SOL    HW114135   3.335   1.319   6.076
 4412SOL    HW214136   3.478   1.349   6.149
 4413SOL     OW14137   3.789   5.689   3.950
 4413SOL    HW114138   3.791   5.596   3.986
 4413SOL    HW214139   3.756   5.688   3.856
 4414SOL     OW14140   3.441   5.078   2.087
 4414SOL    HW114141   3.513   5.009   2.080
 4414SOL    HW214142   3.470   5.150   2.150
 4415SOL     OW14143   4.038   1.457   2.037
 4415SOL    HW114144   4.064   1.413   1.951
 4415SOL    HW214145   4.108   1.524   2.061
 4416SOL     OW14146   2.738   2.305   4.542
 4416SOL    HW114147   2.722   2.394   4.500
 4416SOL    HW214148   2.803   2.314   4.618
 4417SOL     OW14149   5.510   6.897   1.328
 4417SOL    HW114150   5.452   6.976   1.345
 4417SOL    HW214151   5.605   6.919   1.352
 4418SOL     OW14152   4.422   0.346   3.051
 4418SOL    HW114153   4.502   0.404   3.036
 4418SOL    HW214154   4.380   0.368   3.138
 4419SOL     OW14155   6.241   5.436   6.110
 4419SOL    HW114156   6.294   5.370   6.165
 4419SOL    HW214157   6.155   5.394   6.082
 4420SOL     OW14158   5.458   0.807   1.073
 4420SOL    HW114159   5.503   0.826   0.986
 4420SOL    HW214160   5.519   0.752   1.130
 4421SOL     OW14161   0.136   1.484   3.248
 4421SOL    HW114162   0.151   1.570   3.296
 4421SOL    HW214163   0.041   1.481   3.216
 4422SOL     OW14164   1.561   4.137   5.683
 4422SOL    HW114165   1.528   4.145   5.777
 4422SOL    HW214166   1.552   4.042   5.652
 4423SOL     OW14167   6.966   1.743   5.670
 4423SOL    HW114168   0.005   1.690   5.726
 4423SOL    HW214169   6.873   1.711   5.686
 4424SOL     OW14170   1.290   5.422   3.305
 4424SOL    HW114171   1.335   5.481   3.373
 4424SOL    HW214172   1.358   5.370   3.255
 4425SOL     OW14173   5.012   4.121   1.613
 4425SOL    HW114174   5.037   4.168   1.698
 4425SOL    HW214175   4.921   4.081   1.623
 4426SOL     OW14176   0.221   6.971   6.562
 4426SOL    HW114177   0.165   6.923   6.495
 4426SOL    HW214178   0.179   6.963   6.653
 4427SOL     OW14179   0.802   5.754   3.383
 4427SOL    HW114180   0.879   5.810   3.414
 4427SOL    HW214181   0.758   5.798   3.305
 4428SOL     OW14182   1.257   6.871   2.795
 4428SOL    HW114183   1.231   6.912   2.708
 4428SOL    HW214184   1.357   6.866   2.801
 4429SOL     OW14185   2.900   0.268   2.463
 4429SOL    HW114186   2.801   0.274   2.451
 4429SOL    HW214187   2.941   0.356   2.439
 4430SOL     OW14188   2.118   0.295   1.931
 4430SOL    HW114189   2.169   0.238   1.867
 4430SOL    HW214190   2.020   0.285   1.913
 4431SOL     OW14191   1.943   2.372   2.769
 4431SOL    HW114192   1.912   2.282   2.738
 4431SOL    HW214193   2.028   2.362   2.820
 4432SOL     OW14194   3.426   4.152   4.528
 4432SOL    HW114195   3.344   4.105   4.496
 4432SOL    HW214196   3.481   4.181   4.449
 4433SOL     OW14197   6.681   7.001   1.590
 4433SOL    HW114198   6.593   7.020   1.634
 4433SOL    HW214199   6.699   6.903   1.594
 4434SOL     OW14200   5.651   1.910   5.510
 4434SOL    HW114201   5.624   1.824   5.554
 4434SOL    HW214202   5.699   1.968   5.576
 4435SOL     OW14203   3.689   3.039   1.939
 4435SOL    HW114204   3.733   2.988   2.014
 4435SOL    HW214205   3.718   3.135   1.944
 4436SOL     OW14206   5.986   0.197   0.247
 4436SOL    HW114207   6.024   0.183   0.155
 4436SOL    HW214208   5.895   0.238   0.239
 4437SOL     OW14209   3.447   6.812   5.976
 4437SOL    HW114210   3.394   6.883   6.022
 4437SOL    HW214211   3.471   6.842   5.884
 4438SOL     OW14212   3.540   2.393   0.039
 4438SOL    HW114213   3.541   2.440   6.975
 4438SOL    HW214214   3.571   2.299   0.027
 4439SOL     OW14215   1.401   4.326   2.864
 4439SOL    HW114216   1.333   4.314   2.791
 4439SOL    HW214217   1.442   4.417   2.856
 4440SOL     OW14218   6.302   1.078   0.634
 4440SOL    HW114219   6.227   1.138   0.663
 4440SOL    HW214220   6.263   0.991   0.603
 4441SOL     OW14221   0.036   0.664   3.991
 4441SOL    HW114222   0.028   0.573   4.031
 4441SOL    HW214223   0.049   0.732   4.063
 4442SOL     OW14224   1.910   5.505   2.338
 4442SOL    HW114225   1.852   5.479   2.261
 4442SOL    HW214226   1.854   5.547   2.410
 4443SOL     OW14227   2.103   1.197   0.855
 4443SOL    HW114228   2.081   1.213   0.951
 4443SOL    HW214229   2.069   1.107   0.828
 4444SOL     OW14230   4.803   1.761   3.280
 4444SOL    HW114231   4.834   1.674   3.241
 4444SOL    HW214232   4.882   1.812   3.315
 4445SOL     OW14233   0.655   2.058   6.221
 4445SOL    HW114234   0.571   2.059   6.166
 4445SOL    HW214235   0.639   2.107   6.307
 4446SOL     OW14236   6.698   4.919   4.627
 4446SOL    HW114237   6.684   4.973   4.710
 4446SOL    HW214238   6.643   4.836   4.631
 4447SOL     OW14239   4.891   3.865   5.073
 4447SOL    HW114240   4.871   3.785   5.016
 4447SOL    HW214241   4.886   3.840   5.169
 4448SOL     OW14242   2.501   3.439   6.869
 4448SOL    HW114243   2.568   3.514   6.867
 4448SOL    HW214244   2.494   3.398   6.778
 4449SOL     OW14245   0.010   1.081   5.490
 4449SOL    HW114246   7.016   1.049   5.397
 4449SOL    HW214247   6.951   1.120   5.528
 4450SOL     OW14248   3.801   3.531   3.264
 4450SOL    HW114249   3.887   3.571   3.294
 4450SOL    HW214250   3.739   3.522   3.343
 4451SOL     OW14251   0.414   4.848   1.023
 4451SOL    HW114252   0.499   4.797   1.036
 4451SOL    HW214253   0.346   4.819   1.090
 4452SOL     OW14254   0.349   3.534   6.858
 4452SOL    HW114255   0.262   3.547   6.906
 4452SOL    HW214256   0.375   3.438   6.862
 4453SOL     OW14257   5.909   0.366   1.452
 4453SOL    HW114258   5.925   0.333   1.545
 4453SOL    HW214259   5.986   0.424   1.424
 4454SOL     OW14260   5.877   3.225   1.506
 4454SOL    HW114261   5.935   3.278   1.443
 4454SOL    HW214262   5.800   3.282   1.536
 4455SOL     OW14263   4.483   2.545   2.804
 4455SOL    HW114264   4.426   2.476   2.760
 4455SOL    HW214265   4.425   2.608   2.856
 4456SOL     OW14266   0.482   5.923   2.473
 4456SOL    HW114267   0.435   6.011   2.488
 4456SOL    HW214268   0.428   5.850   2.513
 4457SOL     OW14269   4.373   2.484   6.256
 4457SOL    HW114270   4.378   2.566   6.313
 4457SOL    HW214271   4.450   2.484   6.192
 4458SOL     OW14272   4.705   1.501   1.279
 4458SOL    HW114273   4.644   1.498   1.359
 4458SOL    HW214274   4.650   1.495   1.196
 4459SOL     OW14275   5.799   5.860   5.888
 4459SOL    HW114276   5.735   5.841   5.962
 4459SOL    HW214277   5.756   5.838   5.800
 4460SOL     OW14278   1.413   1.383   0.276
 4460SOL    HW114279   1.372   1.314   0.336
 4460SOL    HW214280   1.512   1.371   0.275
 4461SOL     OW14281   1.956   0.609   3.028
 4461SOL    HW114282   1.923   0.686   2.973
 4461SOL    HW214283   2.019   0.554   2.974
 4462SOL     OW14284   6.637   3.922   0.660
 4462SOL    HW114285   6.674   3.965   0.742
 4462SOL    HW214286   6.594   3.836   0.684
 4463SOL     OW14287   0.595   4.672   6.928
 4463SOL    HW114288   0.598   4.735   7.005
 4463SOL    HW214289   0.515   4.691   6.872
 4464SOL     OW14290   6.951   2.965   0.077
 4464SOL    HW114291   6.968   2.888   0.139
 4464SOL    HW214292   6.981   3.050   0.120
 4465SOL     OW14293   6.026   5.319   1.158
 4465SOL    HW114294   6.002   5.403   1.110
 4465SOL    HW214295   6.055   5.340   1.251
 4466SOL     OW14296   6.821   2.671   3.754
 4466SOL    HW114297   6.722   2.666   3.736
 4466SOL    HW214298   6.856   2.579   3.771
 4467SOL     OW14299   1.107   0.559   4.702
 4467SOL    HW114300   1.154   0.472   4.693
 4467SOL    HW214301   1.150   0.613   4.775
 4468SOL     OW14302   1.319   1.299   0.850
 4468SOL    HW114303   1.232   1.336   0.817
 4468SOL    HW214304   1.392   1.325   0.787
 4469SOL     OW14305   5.064   7.011   0.565
 4469SOL    HW114306   4.975   0.023   0.539
 4469SOL    HW214307   5.055   6.914   0.589
 4470SOL     OW14308   4.662   4.684   1.459
 4470SOL    HW114309   4.753   4.651   1.484
 4470SOL    HW214310   4.603   4.606   1.438
 4471SOL     OW14311   5.757   2.649   1.753
 4471SOL    HW114312   5.711   2.584   1.814
 4471SOL    HW214313   5.851   2.619   1.737
 4472SOL     OW14314   2.485   5.289   1.329
 4472SOL    HW114315   2.420   5.363   1.345
 4472SOL    HW214316   2.539   5.274   1.412
 4473SOL     OW14317   5.977   0.354   0.815
 4473SOL    HW114318   6.032   0.272   0.797
 4473SOL    HW214319   6.036   0.434   0.819
 4474SOL     OW14320   6.214   0.804   4.798
 4474SOL    HW114321   6.204   0.871   4.724
 4474SOL    HW214322   6.224   0.713   4.760
 4475SOL     OW14323   1.625   3.344   0.257
 4475SOL    HW114324   1.618   3.359   0.355
 4475SOL    HW214325   1.582   3.420   0.208
 4476SOL     OW14326   3.694   6.157   2.765
 4476SOL    HW114327   3.742   6.140   2.851
 4476SOL    HW214328   3.647   6.245   2.770
 4477SOL     OW14329   1.950   2.061   0.799
 4477SOL    HW114330   1.989   2.042   0.889
 4477SOL    HW214331   1.866   2.008   0.787
 4478SOL     OW14332   1.081   4.637   1.025
 4478SOL    HW114333   1.107   4.733   1.017
 4478SOL    HW214334   1.162   4.582   1.045
 4479SOL     OW14335   1.821   6.815   6.116
 4479SOL    HW114336   1.745   6.754   6.093
 4479SOL    HW214337   1.908   6.768   6.099
 4480SOL     OW14338   6.653   3.611   3.380
 4480SOL    HW114339   6.726   3.543   3.382
 4480SOL    HW214340   6.693   3.701   3.358
 4481SOL     OW14341   0.977   1.133   4.409
 4481SOL    HW114342   0.910   1.207   4.411
 4481SOL    HW214343   1.062   1.163   4.453
 4482SOL     OW14344   0.765   3.746   2.876
 4482SOL    HW114345   0.729   3.708   2.961
 4482SOL    HW214346   0.691   3.756   2.810
 4483SOL     OW14347   5.835   3.853   0.754
 4483SOL    HW114348   5.744   3.886   0.726
 4483SOL    HW214349   5.889   3.831   0.673
 4484SOL     OW14350   3.302   3.839   6.815
 4484SOL    HW114351   3.234   3.912   6.815
 4484SOL    HW214352   3.258   3.752   6.835
 4485SOL     OW14353   4.314   6.915   6.012
 4485SOL    HW114354   4.224   6.950   6.038
 4485SOL    HW214355   4.310   6.882   5.917
 4486SOL     OW14356   5.954   2.968   3.992
 4486SOL    HW114357   6.030   2.916   3.952
 4486SOL    HW214358   5.891   2.997   3.920
 4487SOL     OW14359   3.120   3.293   5.958
 4487SOL    HW114360   3.067   3.233   5.897
 4487SOL    HW214361   3.129   3.383   5.915
 4488SOL     OW14362   6.900   2.316   6.784
 4488SOL    HW114363   6.804   2.294   6.770
 4488SOL    HW214364   6.953   2.286   6.704
 4489SOL     OW14365   0.609   0.914   2.975
 4489SOL    HW114366   0.636   0.851   2.902
 4489SOL    HW214367   0.649   0.883   3.062
 4490SOL     OW14368   6.662   2.083   4.274
 4490SOL    HW114369   6.694   2.031   4.353
 4490SOL    HW214370   6.732   2.080   4.203
 4491SOL     OW14371   1.501   4.270   2.057
 4491SOL    HW114372   1.439   4.348   2.044
 4491SOL    HW214373   1.471   4.216   2.135
 4492SOL     OW14374   5.322   3.659   5.912
 4492SOL    HW114375   5.264   3.582   5.937
 4492SOL    HW214376   5.266   3.734   5.878
 4493SOL     OW14377   6.137   4.484   3.188
 4493SOL    HW114378   6.180   4.469   3.277
 4493SOL    HW214379   6.134   4.583   3.169
 4494SOL     OW14380   4.997   2.103   1.933
 4494SOL    HW114381   4.914   2.084   1.881
 4494SOL    HW214382   5.076   2.104   1.871
 4495SOL     OW14383   5.650   5.246   1.609
 4495SOL    HW114384   5.650   5.340   1.643
 4495SOL    HW214385   5.572   5.197   1.646
 4496SOL     OW14386   6.101   3.462   5.941
 4496SOL    HW114387   6.171   3.392   5.948
 4496SOL    HW214388   6.010   3.419   5.935
 4497SOL     OW14389   6.833   6.195   1.191
 4497SOL    HW114390   6.825   6.269   1.125
 4497SOL    HW214391   6.753   6.196   1.252
 4498SOL     OW14392   1.055   4.000   6.225
 4498SOL    HW114393   0.961   3.990   6.191
 4498SOL    HW214394   1.073   3.930   6.294
 4499SOL     OW14395   5.604   3.973   0.652
 4499SOL    HW114396   5.568   3.914   0.579
 4499SOL    HW214397   5.662   4.044   0.613
 4500SOL     OW14398   3.678   3.991   2.146
 4500SOL    HW114399   3.765   3.949   2.170
 4500SOL    HW214400   3.693   4.062   2.077
 4501SOL     OW14401   1.434   5.425   4.987
 4501SOL    HW114402   1.463   5.514   5.020
 4501SOL    HW214403   1.500   5.391   4.919
 4502SOL     OW14404   5.520   2.514   0.506
 4502SOL    HW114405   5.507   2.511   0.605
 4502SOL    HW214406   5.460   2.448   0.462
 4503SOL     OW14407   0.605   3.155   2.472
 4503SOL    HW114408   0.616   3.239   2.525
 4503SOL    HW214409   0.556   3.087   2.526
 4504SOL     OW14410   4.410   2.376   4.294
 4504SOL    HW114411   4.358   2.366   4.209
 4504SOL    HW214412   4.350   2.363   4.372
 4505SOL     OW14413   2.629   5.335   0.436
 4505SOL    HW114414   2.601   5.379   0.350
 4505SOL    HW214415   2.710   5.279   0.419
 4506SOL     OW14416   3.503   6.930   5.718
 4506SOL    HW114417   3.431   7.000   5.717
 4506SOL    HW214418   3.578   6.959   5.658
 4507SOL     OW14419   6.380   3.798   2.373
 4507SOL    HW114420   6.409   3.859   2.300
 4507SOL    HW214421   6.403   3.839   2.462
 4508SOL     OW14422   2.039   4.188   0.494
 4508SOL    HW114423   2.094   4.127   0.436
 4508SOL    HW214424   2.052   4.163   0.590
 4509SOL     OW14425   0.726   2.625   3.275
 4509SOL    HW114426   0.774   2.538   3.278
 4509SOL    HW214427   0.760   2.685   3.347
 4510SOL     OW14428   2.681   6.556   6.603
 4510SOL    HW114429   2.613   6.489   6.575
 4510SOL    HW214430   2.683   6.631   6.537
 4511SOL     OW14431   0.418   2.456   0.160
 4511SOL    HW114432   0.402   2.498   0.249
 4511SOL    HW214433   0.489   2.506   0.111
 4512SOL     OW14434   2.575   4.203   0.237
 4512SOL    HW114435   2.547   4.157   0.152
 4512SOL    HW214436   2.591   4.300   0.218
 4513SOL     OW14437   6.629   1.625   2.881
 4513SOL    HW114438   6.643   1.708   2.935
 4513SOL    HW214439   6.677   1.634   2.794
 4514SOL     OW14440   2.500   0.365   4.716
 4514SOL    HW114441   2.546   0.421   4.648
 4514SOL    HW214442   2.410   0.337   4.683
 4515SOL     OW14443   6.959   5.005   0.402
 4515SOL    HW114444   6.880   5.064   0.383
 4515SOL    HW214445   7.006   4.984   0.317
 4516SOL     OW14446   0.696   7.003   3.913
 4516SOL    HW114447   0.681   0.012   3.820
 4516SOL    HW214448   0.651   6.915   3.925
 4517SOL     OW14449   2.651   1.023   6.612
 4517SOL    HW114450   2.669   0.931   6.648
 4517SOL    HW214451   2.708   1.038   6.531
 4518SOL     OW14452   1.529   0.577   3.494
 4518SOL    HW114453   1.553   0.530   3.409
 4518SOL    HW214454   1.466   0.521   3.547
 4519SOL     OW14455   7.015   2.217   4.671
 4519SOL    HW114456   0.084   2.182   4.659
 4519SOL    HW214457   7.015   2.316   4.659
 4520SOL     OW14458   6.946   3.353   2.801
 4520SOL    HW114459   6.904   3.380   2.887
 4520SOL    HW214460   6.877   3.354   2.728
 4521SOL     OW14461   5.215   1.797   6.412
 4521SOL    HW114462   5.258   1.711   6.387
 4521SOL    HW214463   5.277   1.873   6.392
 4522SOL     OW14464   5.428   6.937   3.391
 4522SOL    HW114465   5.452   6.840   3.389
 4522SOL    HW214466   5.339   6.949   3.435
 4523SOL     OW14467   4.740   1.798   5.917
 4523SOL    HW114468   4.731   1.869   5.987
 4523SOL    HW214469   4.728   1.839   5.826
 4524SOL     OW14470   5.867   0.680   5.589
 4524SOL    HW114471   5.928   0.713   5.661
 4524SOL    HW214472   5.917   0.616   5.530
 4525SOL     OW14473   6.823   1.315   3.874
 4525SOL    HW114474   6.819   1.335   3.972
 4525SOL    HW214475   6.736   1.274   3.845
 4526SOL     OW14476   2.827   1.808   1.570
 4526SOL    HW114477   2.875   1.897   1.567
 4526SOL    HW214478   2.882   1.740   1.522
 4527SOL     OW14479   4.500   6.325   3.810
 4527SOL    HW114480   4.473   6.330   3.714
 4527SOL    HW214481   4.420   6.305   3.866
 4528SOL     OW14482   4.658   0.389   6.197
 4528SOL    HW114483   4.699   0.338   6.273
 4528SOL    HW214484   4.581   0.337   6.160
 4529SOL     OW14485   3.273   0.176   4.020
 4529SOL    HW114486   3.331   0.095   4.037
 4529SOL    HW214487   3.330   0.258   4.018
 4530SOL     OW14488   6.313   2.667   4.080
 4530SOL    HW114489   6.349   2.576   4.061
 4530SOL    HW214490   6.376   2.736   4.045
 4531SOL     OW14491   0.375   3.876   3.725
 4531SOL    HW114492   0.396   3.788   3.682
 4531SOL    HW214493   0.446   3.896   3.793
 4532SOL     OW14494   0.646   2.531   0.531
 4532SOL    HW114495   0.572   2.467   0.512
 4532SOL    HW214496   0.620   2.591   0.607
 4533SOL     OW14497   3.494   6.515   1.914
 4533SOL    HW114498   3.516   6.610   1.935
 4533SOL    HW214499   3.521   6.457   1.991
 4534SOL     OW14500   6.510   4.023   5.909
 4534SOL    HW114501   6.562   4.020   5.995
 4534SOL    HW214502   6.416   4.052   5.928
 4535SOL     OW14503   5.207   2.104   2.713
 4535SOL    HW114504   5.304   2.116   2.693
 4535SOL    HW214505   5.191   2.119   2.810
 4536SOL     OW14506   0.102   0.093   3.799
 4536SOL    HW114507   0.056   0.129   3.880
 4536SOL    HW214508   0.164   0.163   3.762
 4537SOL     OW14509   4.611   3.039   5.590
 4537SOL    HW114510   4.636   3.071   5.498
 4537SOL    HW214511   4.686   3.059   5.653
 4538SOL     OW14512   3.397   2.274   1.734
 4538SOL    HW114513   3.354   2.354   1.693
 4538SOL    HW214514   3.492   2.294   1.756
 4539SOL     OW14515   2.495   3.067   1.447
 4539SOL    HW114516   2.556   3.045   1.523
 4539SOL    HW214517   2.516   3.158   1.412
 4540SOL     OW14518   3.458   2.920   4.688
 4540SOL    HW114519   3.447   2.844   4.753
 4540SOL    HW214520   3.374   2.932   4.636
 4541SOL     OW14521   6.079   1.670   1.506
 4541SOL    HW114522   6.141   1.696   1.581
 4541SOL    HW214523   5.988   1.708   1.524
 4542SOL     OW14524   5.189   6.554   3.287
 4542SOL    HW114525   5.252   6.600   3.224
 4542SOL    HW214526   5.114   6.616   3.310
 4543SOL     OW14527   5.625   2.662   2.392
 4543SOL    HW114528   5.651   2.631   2.483
 4543SOL    HW214529   5.665   2.752   2.375
 4544SOL     OW14530   5.588   4.827   6.652
 4544SOL    HW114531   5.667   4.854   6.707
 4544SOL    HW214532   5.515   4.796   6.713
 4545SOL     OW14533   3.646   3.823   6.551
 4545SOL    HW114534   3.730   3.768   6.559
 4545SOL    HW214535   3.621   3.831   6.454
 4546SOL     OW14536   0.577   6.085   0.511
 4546SOL    HW114537   0.618   6.044   0.430
 4546SOL    HW214538   0.513   6.020   0.553
 4547SOL     OW14539   4.464   1.387   2.845
 4547SOL    HW114540   4.390   1.327   2.876
 4547SOL    HW214541   4.522   1.338   2.780
 4548SOL     OW14542   0.860   3.119   4.324
 4548SOL    HW114543   0.843   3.215   4.300
 4548SOL    HW214544   0.954   3.110   4.359
 4549SOL     OW14545   5.656   1.506   2.395
 4549SOL    HW114546   5.708   1.591   2.407
 4549SOL    HW214547   5.718   1.435   2.362
 4550SOL     OW14548   2.142   5.062   4.979
 4550SOL    HW114549   2.110   5.150   5.014
 4550SOL    HW214550   2.069   5.018   4.926
 4551SOL     OW14551   6.468   3.721   0.728
 4551SOL    HW114552   6.387   3.716   0.668
 4551SOL    HW214553   6.444   3.768   0.812
 4552SOL     OW14554   6.857   3.058   4.846
 4552SOL    HW114555   6.773   3.026   4.889
 4552SOL    HW214556   6.927   2.988   4.854
 4553SOL     OW14557   5.383   4.801   6.815
 4553SOL    HW114558   5.366   4.732   6.745
 4553SOL    HW214559   5.400   4.756   6.903
 4554SOL     OW14560   6.230   6.382   3.791
 4554SOL    HW114561   6.242   6.411   3.697
 4554SOL    HW214562   6.220   6.463   3.850
 4555SOL     OW14563   3.895   3.175   0.412
 4555SOL    HW114564   3.875   3.130   0.499
 4555SOL    HW214565   3.984   3.145   0.378
 4556SOL     OW14566   4.326   0.432   5.320
 4556SOL    HW114567   4.308   0.528   5.342
 4556SOL    HW214568   4.403   0.425   5.257
 4557SOL     OW14569   5.455   1.374   4.388
 4557SOL    HW114570   5.470   1.303   4.320
 4557SOL    HW214571   5.369   1.421   4.370
 4558SOL     OW14572   0.157   2.848   6.323
 4558SOL    HW114573   0.104   2.820   6.404
 4558SOL    HW214574   0.243   2.889   6.353
 4559SOL     OW14575   1.510   6.187   1.302
 4559SOL    HW114576   1.464   6.176   1.389
 4559SOL    HW214577   1.547   6.280   1.295
 4560SOL     OW14578   5.713   2.981   2.621
 4560SOL    HW114579   5.736   2.970   2.524
 4560SOL    HW214580   5.717   2.892   2.666
 4561SOL     OW14581   3.374   6.313   6.384
 4561SOL    HW114582   3.310   6.378   6.343
 4561SOL    HW214583   3.324   6.251   6.444
 4562SOL     OW14584   2.715   4.232   5.847
 4562SOL    HW114585   2.701   4.314   5.791
 4562SOL    HW214586   2.635   4.219   5.906
 4563SOL     OW14587   5.910   2.804   0.039
 4563SOL    HW114588   6.005   2.791   0.009
 4563SOL    HW214589   5.908   2.869   0.116
 4564SOL     OW14590   7.002   5.211   0.196
 4564SOL    HW114591   7.009   5.116   0.164
 4564SOL    HW214592   6.906   5.232   0.216
 4565SOL     OW14593   3.161   1.260   3.915
 4565SOL    HW114594   3.224   1.218   3.980
 4565SOL    HW214595   3.097   1.190   3.882
 4566SOL     OW14596   1.653   0.759   0.762
 4566SOL    HW114597   1.645   0.846   0.811
 4566SOL    HW214598   1.573   0.703   0.780
 4567SOL     OW14599   5.540   1.794   0.617
 4567SOL    HW114600   5.466   1.849   0.578
 4567SOL    HW214601   5.504   1.705   0.646
 4568SOL     OW14602   4.793   4.926   3.921
 4568SOL    HW114603   4.795   5.022   3.893
 4568SOL    HW214604   4.702   4.901   3.952
 4569SOL     OW14605   1.145   2.037   3.948
 4569SOL    HW114606   1.052   2.044   3.912
 4569SOL    HW214607   1.146   1.974   4.026
 4570SOL     OW14608   5.465   5.625   4.879
 4570SOL    HW114609   5.547   5.630   4.822
 4570SOL    HW214610   5.388   5.663   4.829
 4571SOL     OW14611   4.009   3.124   3.950
 4571SOL    HW114612   3.953   3.054   3.995
 4571SOL    HW214613   4.014   3.105   3.852
 4572SOL     OW14614   2.674   5.337   1.120
 4572SOL    HW114615   2.691   5.240   1.105
 4572SOL    HW214616   2.591   5.349   1.174
 4573SOL     OW14617   4.996   0.451   1.303
 4573SOL    HW114618   4.910   0.477   1.347
 4573SOL    HW214619   4.976   0.398   1.220
 4574SOL     OW14620   0.462   4.461   1.933
 4574SOL    HW114621   0.394   4.526   1.968
 4574SOL    HW214622   0.418   4.373   1.917
 4575SOL     OW14623   6.784   6.246   1.912
 4575SOL    HW114624   6.757   6.175   1.977
 4575SOL    HW214625   6.711   6.259   1.845
 4576SOL     OW14626   3.243   6.344   4.119
 4576SOL    HW114627   3.322   6.356   4.179
 4576SOL    HW214628   3.272   6.350   4.024
 4577SOL     OW14629   2.064   3.718   3.895
 4577SOL    HW114630   2.059   3.817   3.881
 4577SOL    HW214631   2.018   3.695   3.981
 4578SOL     OW14632   6.528   6.010   3.410
 4578SOL    HW114633   6.577   5.924   3.426
 4578SOL    HW214634   6.432   5.999   3.438
 4579SOL     OW14635   4.765   1.462   3.573
 4579SOL    HW114636   4.682   1.515   3.587
 4579SOL    HW214637   4.744   1.365   3.573
 4580SOL     OW14638   0.499   5.628   6.622
 4580SOL    HW114639   0.488   5.552   6.557
 4580SOL    HW214640   0.577   5.685   6.594
 4581SOL     OW14641   3.537   5.996   4.716
 4581SOL    HW114642   3.592   5.912   4.723
 4581SOL    HW214643   3.465   5.982   4.649
 4582SOL     OW14644   4.977   6.744   3.284
 4582SOL    HW114645   4.935   6.766   3.371
 4582SOL    HW214646   4.917   6.683   3.232
 4583SOL     OW14647   3.332   0.339   5.562
 4583SOL    HW114648   3.348   0.248   5.598
 4583SOL    HW214649   3.410   0.367   5.506
 4584SOL     OW14650   6.883   5.301   5.427
 4584SOL    HW114651   6.945   5.321   5.502
 4584SOL    HW214652   6.936   5.285   5.343
 4585SOL     OW14653   2.982   6.184   2.220
 4585SOL    HW114654   3.066   6.155   2.175
 4585SOL    HW214655   2.903   6.144   2.173
 4586SOL     OW14656   2.289   6.172   1.505
 4586SOL    HW114657   2.341   6.090   1.480
 4586SOL    HW214658   2.339   6.223   1.574
 4587SOL     OW14659   2.599   5.026   0.516
 4587SOL    HW114660   2.686   5.060   0.479
 4587SOL    HW214661   2.542   5.103   0.543
 4588SOL     OW14662   3.516   4.197   5.011
 4588SOL    HW114663   3.540   4.294   5.011
 4588SOL    HW214664   3.474   4.173   5.099
 4589SOL     OW14665   1.831   1.995   3.690
 4589SOL    HW114666   1.905   2.017   3.753
 4589SOL    HW214667   1.816   2.071   3.628
 4590SOL     OW14668   3.832   6.547   2.950
 4590SOL    HW114669   3.922   6.559   2.992
 4590SOL    HW214670   3.782   6.476   2.999
 4591SOL     OW14671   5.128   5.983   4.584
 4591SOL    HW114672   5.127   6.049   4.509
 4591SOL    HW214673   5.126   6.031   4.672
 4592SOL     OW14674   3.459   1.584   5.926
 4592SOL    HW114675   3.552   1.610   5.949
 4592SOL    HW214676   3.430   1.507   5.984
 4593SOL     OW14677   4.642   6.475   1.808
 4593SOL    HW114678   4.601   6.494   1.897
 4593SOL    HW214679   4.662   6.561   1.761
 4594SOL     OW14680   4.288   2.278   2.899
 4594SOL    HW114681   4.295   2.294   2.997
 4594SOL    HW214682   4.192   2.266   2.873
 4595SOL     OW14683   4.383   3.373   5.696
 4595SOL    HW114684   4.344   3.386   5.787
 4595SOL    HW214685   4.389   3.461   5.649
 4596SOL     OW14686   4.985   0.568   2.633
 4596SOL    HW114687   4.983   0.630   2.555
 4596SOL    HW214688   4.974   0.474   2.602
 4597SOL     OW14689   6.638   3.760   5.703
 4597SOL    HW114690   6.685   3.716   5.780
 4597SOL    HW214691   6.541   3.770   5.724
 4598SOL     OW14692   2.537   4.147   6.519
 4598SOL    HW114693   2.504   4.060   6.484
 4598SOL    HW214694   2.551   4.140   6.618
 4599SOL     OW14695   3.377   5.436   0.264
 4599SOL    HW114696   3.306   5.389   0.317
 4599SOL    HW214697   3.439   5.369   0.224
 4600SOL     OW14698   2.792   3.725   0.756
 4600SOL    HW114699   2.722   3.654   0.750
 4600SOL    HW214700   2.822   3.735   0.851
 4601SOL     OW14701   2.062   5.110   3.706
 4601SOL    HW114702   2.056   5.183   3.774
 4601SOL    HW214703   1.981   5.053   3.710
 4602SOL     OW14704   1.581   6.770   1.414
 4602SOL    HW114705   1.594   6.785   1.512
 4602SOL    HW214706   1.665   6.796   1.365
 4603SOL     OW14707   2.890   1.421   1.865
 4603SOL    HW114708   2.843   1.416   1.777
 4603SOL    HW214709   2.919   1.330   1.893
 4604SOL     OW14710   1.401   0.258   3.407
 4604SOL    HW114711   1.320   0.312   3.384
 4604SOL    HW214712   1.483   0.308   3.379
 4605SOL     OW14713   5.240   6.386   5.549
 4605SOL    HW114714   5.323   6.369   5.601
 4605SOL    HW214715   5.254   6.462   5.486
 4606SOL     OW14716   6.499   6.524   4.317
 4606SOL    HW114717   6.507   6.594   4.388
 4606SOL    HW214718   6.447   6.560   4.239
 4607SOL     OW14719   3.040   3.327   0.891
 4607SOL    HW114720   3.040   3.236   0.931
 4607SOL    HW214721   3.033   3.396   0.963
 4608SOL     OW14722   1.176   3.371   5.867
 4608SOL    HW114723   1.244   3.424   5.816
 4608SOL    HW214724   1.175   3.277   5.832
 4609SOL     OW14725   3.019   0.060   0.502
 4609SOL    HW114726   3.038   0.100   0.591
 4609SOL    HW214727   3.063   6.995   0.496
 4610SOL     OW14728   6.646   3.614   0.167
 4610SOL    HW114729   6.628   3.684   0.235
 4610SOL    HW214730   6.653   3.656   0.076
 4611SOL     OW14731   1.810   5.083   6.460
 4611SOL    HW114732   1.715   5.054   6.450
 4611SOL    HW214733   1.816   5.160   6.524
 4612SOL     OW14734   1.742   0.417   6.377
 4612SOL    HW114735   1.807   0.381   6.311
 4612SOL    HW214736   1.784   0.493   6.428
 4613SOL     OW14737   3.760   5.050   1.492
 4613SOL    HW114738   3.846   5.000   1.504
 4613SOL    HW214739   3.710   5.013   1.415
 4614SOL     OW14740   2.185   4.883   6.865
 4614SOL    HW114741   2.166   4.947   6.790
 4614SOL    HW214742   2.258   4.919   6.922
 4615SOL     OW14743   6.123   3.164   6.456
 4615SOL    HW114744   6.126   3.200   6.549
 4615SOL    HW214745   6.094   3.068   6.459
 4616SOL     OW14746   5.590   1.344   6.786
 4616SOL    HW114747   5.607   1.266   6.845
 4616SOL    HW214748   5.546   1.314   6.702
 4617SOL     OW14749   0.213   4.013   1.417
 4617SOL    HW114750   0.240   4.059   1.332
 4617SOL    HW214751   0.182   3.921   1.396
 4618SOL     OW14752   0.975   3.372   6.437
 4618SOL    HW114753   0.892   3.427   6.439
 4618SOL    HW214754   1.047   3.422   6.390
 4619SOL     OW14755   4.119   0.828   3.722
 4619SOL    HW114756   4.105   0.729   3.725
 4619SOL    HW214757   4.213   0.849   3.751
 4620SOL     OW14758   2.079   5.970   0.327
 4620SOL    HW114759   2.140   5.900   0.289
 4620SOL    HW214760   1.989   5.961   0.285
 4621SOL     OW14761   6.575   0.656   6.650
 4621SOL    HW114762   6.507   0.613   6.590
 4621SOL    HW214763   6.530   0.692   6.732
 4622SOL     OW14764   1.807   4.169   0.351
 4622SOL    HW114765   1.874   4.184   0.423
 4622SOL    HW214766   1.719   4.143   0.392
 4623SOL     OW14767   5.427   3.646   3.506
 4623SOL    HW114768   5.358   3.657   3.578
 4623SOL    HW214769   5.497   3.717   3.515
 4624SOL     OW14770   4.513   6.704   6.130
 4624SOL    HW114771   4.470   6.791   6.108
 4624SOL    HW214772   4.486   6.676   6.222
 4625SOL     OW14773   1.359   3.829   6.559
 4625SOL    HW114774   1.275   3.817   6.507
 4625SOL    HW214775   1.338   3.828   6.657
 4626SOL     OW14776   5.816   4.445   2.137
 4626SOL    HW114777   5.906   4.429   2.097
 4626SOL    HW214778   5.824   4.512   2.211
 4627SOL     OW14779   2.227   6.825   4.635
 4627SOL    HW114780   2.211   6.734   4.598
 4627SOL    HW214781   2.177   6.836   4.720
 4628SOL     OW14782   6.643   2.952   1.874
 4628SOL    HW114783   6.717   2.920   1.934
 4628SOL    HW214784   6.677   3.027   1.817
 4629SOL     OW14785   4.084   5.372   4.503
 4629SOL    HW114786   4.058   5.339   4.412
 4629SOL    HW214787   4.043   5.313   4.572
 4630SOL     OW14788   2.325   6.143   2.510
 4630SOL    HW114789   2.309   6.196   2.427
 4630SOL    HW214790   2.243   6.146   2.567
 4631SOL     OW14791   2.014   1.128   2.912
 4631SOL    HW114792   1.936   1.172   2.867
 4631SOL    HW214793   2.072   1.084   2.843
 4632SOL     OW14794   5.362   6.363   4.062
 4632SOL    HW114795   5.441   6.413   4.097
 4632SOL    HW214796   5.357   6.273   4.106
 4633SOL     OW14797   5.291   2.808   5.808
 4633SOL    HW114798   5.345   2.751   5.746
 4633SOL    HW214799   5.324   2.902   5.805
 4634SOL     OW14800   2.818   4.358   0.083
 4634SOL    HW114801   2.842   4.410   0.001
 4634SOL    HW214802   2.734   4.394   0.123
 4635SOL     OW14803   4.964   3.579   1.626
 4635SOL    HW114804   4.930   3.513   1.694
 4635SOL    HW214805   4.887   3.633   1.592
 4636SOL     OW14806   0.566   5.127   1.930
 4636SOL    HW114807   0.517   5.213   1.941
 4636SOL    HW214808   0.568   5.102   1.833
 4637SOL     OW14809   1.098   0.712   5.564
 4637SOL    HW114810   1.107   0.657   5.481
 4637SOL    HW214811   1.136   0.803   5.548
 4638SOL     OW14812   4.337   5.040   5.773
 4638SOL    HW114813   4.319   5.110   5.704
 4638SOL    HW214814   4.431   5.008   5.765
 4639SOL     OW14815   6.795   2.172   5.099
 4639SOL    HW114816   6.861   2.176   5.174
 4639SOL    HW214817   6.703   2.160   5.137
 4640SOL     OW14818   6.295   5.130   3.052
 4640SOL    HW114819   6.338   5.138   3.142
 4640SOL    HW214820   6.361   5.095   2.986
 4641SOL     OW14821   2.431   3.653   5.435
 4641SOL    HW114822   2.354   3.630   5.375
 4641SOL    HW214823   2.476   3.735   5.401
 4642SOL     OW14824   5.864   5.799   4.078
 4642SOL    HW114825   5.838   5.713   4.033
 4642SOL    HW214826   5.796   5.869   4.056
 4643SOL     OW14827   4.503   3.664   1.302
 4643SOL    HW114828   4.582   3.679   1.243
 4643SOL    HW214829   4.508   3.572   1.342
 4644SOL     OW14830   3.530   4.823   5.616
 4644SOL    HW114831   3.591   4.837   5.694
 4644SOL    HW214832   3.532   4.727   5.589
 4645SOL     OW14833   1.456   6.226   4.805
 4645SOL    HW114834   1.452   6.149   4.741
 4645SOL    HW214835   1.369   6.275   4.802
 4646SOL     OW14836   3.448   0.785   0.797
 4646SOL    HW114837   3.498   0.799   0.712
 4646SOL    HW214838   3.465   0.863   0.859
 4647SOL     OW14839   6.647   0.404   5.228
 4647SOL    HW114840   6.694   0.444   5.307
 4647SOL    HW214841   6.688   0.316   5.205
 4648SOL     OW14842   1.992   6.231   3.487
 4648SOL    HW114843   2.021   6.314   3.440
 4648SOL    HW214844   2.052   6.155   3.461
 4649SOL     OW14845   5.680   6.163   5.712
 4649SOL    HW114846   5.695   6.154   5.810
 4649SOL    HW214847   5.694   6.258   5.684
 4650SOL     OW14848   6.538   4.664   1.248
 4650SOL    HW114849   6.465   4.627   1.306
 4650SOL    HW214850   6.554   4.759   1.272
 4651SOL     OW14851   6.075   2.389   1.891
 4651SOL    HW114852   6.131   2.440   1.956
 4651SOL    HW214853   6.037   2.451   1.823
 4652SOL     OW14854   0.234   6.334   5.716
 4652SOL    HW114855   0.308   6.309   5.778
 4652SOL    HW214856   0.253   6.422   5.673
 4653SOL     OW14857   1.051   4.888   0.161
 4653SOL    HW114858   0.985   4.918   0.231
 4653SOL    HW214859   1.019   4.919   0.071
 4654SOL     OW14860   1.147   1.796   0.273
 4654SOL    HW114861   1.110   1.801   0.180
 4654SOL    HW214862   1.241   1.762   0.270
 4655SOL     OW14863   0.392   4.975   4.181
 4655SOL    HW114864   0.377   4.956   4.084
 4655SOL    HW214865   0.490   4.980   4.199
 4656SOL     OW14866   2.833   0.086   3.193
 4656SOL    HW114867   2.870   0.008   3.143
 4656SOL    HW214868   2.907   0.150   3.213
 4657SOL     OW14869   6.107   1.020   6.147
 4657SOL    HW114870   6.037   0.985   6.084
 4657SOL    HW214871   6.143   0.944   6.201
 4658SOL     OW14872   5.304   0.322   3.509
 4658SOL    HW114873   5.236   0.387   3.541
 4658SOL    HW214874   5.396   0.354   3.532
 4659SOL     OW14875   1.843   3.430   4.676
 4659SOL    HW114876   1.811   3.447   4.769
 4659SOL    HW214877   1.942   3.418   4.677
 4660SOL     OW14878   6.426   1.209   5.476
 4660SOL    HW114879   6.403   1.288   5.419
 4660SOL    HW214880   6.502   1.159   5.436
 4661SOL     OW14881   3.982   3.100   3.691
 4661SOL    HW114882   4.001   3.157   3.611
 4661SOL    HW214883   3.938   3.015   3.662
 4662SOL     OW14884   6.162   6.292   4.051
 4662SOL    HW114885   6.256   6.325   4.055
 4662SOL    HW214886   6.161   6.202   4.007
 4663SOL     OW14887   0.732   2.345   2.373
 4663SOL    HW114888   0.673   2.329   2.294
 4663SOL    HW214889   0.751   2.257   2.418
 4664SOL     OW14890   3.638   4.310   6.919
 4664SOL    HW114891   3.546   4.271   6.911
 4664SOL    HW214892   3.669   4.339   6.828
 4665SOL     OW14893   5.655   0.203   5.776
 4665SOL    HW114894   5.578   0.231   5.833
 4665SOL    HW214895   5.664   0.103   5.781
 4666SOL     OW14896   1.742   1.355   0.357
 4666SOL    HW114897   1.744   1.270   0.410
 4666SOL    HW214898   1.835   1.384   0.336
 4667SOL     OW14899   0.721   6.257   4.056
 4667SOL    HW114900   0.744   6.224   4.147
 4667SOL    HW214901   0.734   6.183   3.990
 4668SOL     OW14902   5.140   0.717   4.931
 4668SOL    HW114903   5.226   0.727   4.882
 4668SOL    HW214904   5.154   0.662   5.013
 4669SOL     OW14905   2.173   1.913   2.227
 4669SOL    HW114906   2.146   2.009   2.241
 4669SOL    HW214907   2.201   1.900   2.132
 4670SOL     OW14908   2.100   1.714   4.509
 4670SOL    HW114909   2.035   1.691   4.437
 4670SOL    HW214910   2.052   1.758   4.584
 4671SOL     OW14911   6.040   2.047   2.669
 4671SOL    HW114912   6.128   2.078   2.705
 4671SOL    HW214913   5.987   2.125   2.636
 4672SOL     OW14914   2.877   2.383   5.188
 4672SOL    HW114915   2.826   2.297   5.193
 4672SOL    HW214916   2.960   2.369   5.135
 4673SOL     OW14917   5.358   0.352   2.211
 4673SOL    HW114918   5.432   0.388   2.267
 4673SOL    HW214919   5.282   0.417   2.210
 4674SOL     OW14920   4.612   6.287   4.938
 4674SOL    HW114921   4.565   6.209   4.979
 4674SOL    HW214922   4.697   6.257   4.896
 4675SOL     OW14923   1.026   4.570   6.870
 4675SOL    HW114924   1.055   4.583   6.965
 4675SOL    HW214925   0.968   4.489   6.864
 4676SOL     OW14926   0.997   4.165   4.118
 4676SOL    HW114927   0.928   4.117   4.062
 4676SOL    HW214928   1.052   4.224   4.060
 4677SOL     OW14929   1.254   3.503   0.765
 4677SOL    HW114930   1.284   3.408   0.751
 4677SOL    HW214931   1.333   3.564   0.760
 4678SOL     OW14932   1.122   2.747   1.352
 4678SOL    HW114933   1.200   2.807   1.372
 4678SOL    HW214934   1.059   2.794   1.290
 4679SOL     OW14935   4.468   0.315   2.457
 4679SOL    HW114936   4.487   0.313   2.555
 4679SOL    HW214937   4.394   0.380   2.438
 4680SOL     OW14938   2.259   0.990   6.497
 4680SOL    HW114939   2.177   1.047   6.489
 4680SOL    HW214940   2.340   1.048   6.488
 4681SOL     OW14941   4.650   5.615   2.562
 4681SOL    HW114942   4.636   5.516   2.556
 4681SOL    HW214943   4.569   5.662   2.526
 4682SOL     OW14944   3.456   3.192   6.104
 4682SOL    HW114945   3.490   3.104   6.069
 4682SOL    HW214946   3.365   3.179   6.144
 4683SOL     OW14947   6.605   4.228   3.911
 4683SOL    HW114948   6.643   4.136   3.907
 4683SOL    HW214949   6.516   4.226   3.956
 4684SOL     OW14950   5.565   0.140   5.496
 4684SOL    HW114951   5.604   0.181   5.579
 4684SOL    HW214952   5.499   0.204   5.456
 4685SOL     OW14953   2.987   3.888   4.572
 4685SOL    HW114954   3.073   3.917   4.529
 4685SOL    HW214955   2.979   3.930   4.662
 4686SOL     OW14956   1.546   6.857   0.017
 4686SOL    HW114957   1.550   6.759   0.037
 4686SOL    HW214958   1.545   6.908   0.103
 4687SOL     OW14959   1.592   0.723   2.696
 4687SOL    HW114960   1.563   0.779   2.774
 4687SOL    HW214961   1.659   0.773   2.642
 4688SOL     OW14962   4.813   2.953   4.880
 4688SOL    HW114963   4.876   3.002   4.820
 4688SOL    HW214964   4.830   2.979   4.975
 4689SOL     OW14965   6.716   1.035   1.216
 4689SOL    HW114966   6.697   1.133   1.228
 4689SOL    HW214967   6.810   1.015   1.245
 4690SOL     OW14968   3.513   2.433   1.059
 4690SOL    HW114969   3.463   2.356   1.020
 4690SOL    HW214970   3.502   2.433   1.159
 4691SOL     OW14971   6.482   3.769   1.973
 4691SOL    HW114972   6.497   3.848   2.032
 4691SOL    HW214973   6.431   3.699   2.022
 4692SOL     OW14974   5.198   2.972   2.395
 4692SOL    HW114975   5.265   2.975   2.321
 4692SOL    HW214976   5.198   3.059   2.444
 4693SOL     OW14977   0.506   7.020   3.410
 4693SOL    HW114978   0.413   0.003   3.446
 4693SOL    HW214979   0.523   0.072   3.348
 4694SOL     OW14980   2.423   6.792   6.037
 4694SOL    HW114981   2.398   6.880   6.076
 4694SOL    HW214982   2.358   6.722   6.067
 4695SOL     OW14983   2.000   4.999   2.394
 4695SOL    HW114984   2.035   4.917   2.349
 4695SOL    HW214985   1.906   5.015   2.366
 4696SOL     OW14986   1.709   6.573   6.011
 4696SOL    HW114987   1.634   6.533   6.064
 4696SOL    HW214988   1.706   6.540   5.917
 4697SOL     OW14989   4.574   5.718   0.653
 4697SOL    HW114990   4.534   5.629   0.674
 4697SOL    HW214991   4.628   5.710   0.569
 4698SOL     OW14992   5.552   1.317   4.652
 4698SOL    HW114993   5.559   1.218   4.652
 4698SOL    HW214994   5.503   1.347   4.570
 4699SOL     OW14995   0.940   1.382   2.612
 4699SOL    HW114996   0.988   1.435   2.681
 4699SOL    HW214997   0.949   1.284   2.633
 4700SOL     OW14998   6.552   1.850   3.409
 4700SOL    HW114999   6.480   1.914   3.383
 4700SOL    HW215000   6.569   1.786   3.335
 4701SOL     OW15001   3.124   2.666   1.797
 4701SOL    HW115002   3.074   2.588   1.833
 4701SOL    HW215003   3.060   2.738   1.769
 4702SOL     OW15004   6.383   5.034   1.051
 4702SOL    HW115005   6.291   5.072   1.038
 4702SOL    HW215006   6.383   4.937   1.026
 4703SOL     OW15007   0.324   5.067   3.683
 4703SOL    HW115008   0.372   5.069   3.595
 4703SOL    HW215009   0.294   5.160   3.706
 4704SOL     OW15010   1.743   4.598   4.492
 4704SOL    HW115011   1.800   4.568   4.569
 4704SOL    HW215012   1.686   4.522   4.461
 4705SOL     OW15013   3.187   2.155   1.864
 4705SOL    HW115014   3.264   2.207   1.825
 4705SOL    HW215015   3.169   2.075   1.807
 4706SOL     OW15016   1.983   2.001   1.110
 4706SOL    HW115017   1.918   1.932   1.141
 4706SOL    HW215018   1.947   2.092   1.130
 4707SOL     OW15019   1.986   5.353   1.985
 4707SOL    HW115020   1.975   5.451   2.003
 4707SOL    HW215021   2.047   5.340   1.907
 4708SOL     OW15022   2.063   2.897   6.113
 4708SOL    HW115023   2.065   2.837   6.193
 4708SOL    HW215024   2.042   2.991   6.143
 4709SOL     OW15025   5.692   3.987   5.331
 4709SOL    HW115026   5.650   3.899   5.352
 4709SOL    HW215027   5.720   3.989   5.235
 4710SOL     OW15028   5.755   5.419   5.425
 4710SOL    HW115029   5.785   5.479   5.351
 4710SOL    HW215030   5.827   5.354   5.447
 4711SOL     OW15031   5.037   4.283   2.950
 4711SOL    HW115032   5.088   4.368   2.953
 4711SOL    HW215033   4.963   4.285   3.017
 4712SOL     OW15034   3.892   4.544   5.836
 4712SOL    HW115035   3.890   4.642   5.819
 4712SOL    HW215036   3.798   4.510   5.848
 4713SOL     OW15037   5.384   4.546   0.824
 4713SOL    HW115038   5.376   4.489   0.906
 4713SOL    HW215039   5.379   4.488   0.742
 4714SOL     OW15040   4.430   1.785   5.957
 4714SOL    HW115041   4.340   1.745   5.976
 4714SOL    HW215042   4.460   1.839   6.036
 4715SOL     OW15043   6.591   1.996   2.139
 4715SOL    HW115044   6.532   2.074   2.119
 4715SOL    HW215045   6.686   2.020   2.118
 4716SOL     OW15046   3.466   4.348   5.507
 4716SOL    HW115047   3.408   4.269   5.489
 4716SOL    HW215048   3.545   4.320   5.563
 4717SOL     OW15049   2.172   5.024   5.839
 4717SOL    HW115050   2.116   4.945   5.815
 4717SOL    HW215051   2.115   5.106   5.839
 4718SOL     OW15052   4.979   3.982   2.353
 4718SOL    HW115053   4.921   3.912   2.311
 4718SOL    HW215054   4.922   4.049   2.399
 4719SOL     OW15055   5.977   4.210   3.839
 4719SOL    HW115056   6.012   4.211   3.932
 4719SOL    HW215057   5.882   4.240   3.838
 4720SOL     OW15058   1.457   2.082   6.582
 4720SOL    HW115059   1.404   2.011   6.627
 4720SOL    HW215060   1.435   2.084   6.484
 4721SOL     OW15061   0.464   2.768   2.494
 4721SOL    HW115062   0.528   2.693   2.511
 4721SOL    HW215063   0.489   2.847   2.550
 4722SOL     OW15064   1.351   5.450   5.885
 4722SOL    HW115065   1.296   5.516   5.937
 4722SOL    HW215066   1.293   5.375   5.854
 4723SOL     OW15067   2.784   4.862   6.667
 4723SOL    HW115068   2.688   4.834   6.659
 4723SOL    HW215069   2.788   4.957   6.698
 4724SOL     OW15070   0.133   6.862   4.084
 4724SOL    HW115071   0.131   6.951   4.130
 4724SOL    HW215072   0.142   6.789   4.152
 4725SOL     OW15073   6.270   4.937   1.300
 4725SOL    HW115074   6.181   4.966   1.266
 4725SOL    HW215075   6.320   4.889   1.228
 4726SOL     OW15076   1.618   2.839   5.793
 4726SOL    HW115077   1.600   2.751   5.837
 4726SOL    HW215078   1.716   2.846   5.772
 4727SOL     OW15079   6.507   5.619   1.411
 4727SOL    HW115080   6.433   5.554   1.423
 4727SOL    HW215081   6.480   5.690   1.346
 4728SOL     OW15082   5.190   0.571   3.224
 4728SOL    HW115083   5.092   0.555   3.224
 4728SOL    HW215084   5.213   0.642   3.291
 4729SOL     OW15085   6.908   1.262   2.486
 4729SOL    HW115086   7.005   1.283   2.476
 4729SOL    HW215087   6.878   1.284   2.579
 4730SOL     OW15088   3.378   0.698   3.438
 4730SOL    HW115089   3.359   0.796   3.445
 4730SOL    HW215090   3.299   0.646   3.471
 4731SOL     OW15091   3.501   6.782   1.942
 4731SOL    HW115092   3.504   6.882   1.936
 4731SOL    HW215093   3.412   6.750   1.911
 4732SOL     OW15094   0.239   5.031   4.853
 4732SOL    HW115095   0.262   4.979   4.935
 4732SOL    HW215096   0.264   4.979   4.772
 4733SOL     OW15097   1.448   4.150   3.109
 4733SOL    HW115098   1.455   4.214   3.032
 4733SOL    HW215099   1.463   4.057   3.076
 4734SOL     OW15100   4.622   4.080   6.471
 4734SOL    HW115101   4.552   4.146   6.497
 4734SOL    HW215102   4.580   3.989   6.465
 4735SOL     OW15103   6.853   0.498   5.412
 4735SOL    HW115104   6.936   0.551   5.399
 4735SOL    HW215105   6.866   0.406   5.375
 4736SOL     OW15106   6.424   0.472   4.437
 4736SOL    HW115107   6.432   0.386   4.487
 4736SOL    HW215108   6.507   0.486   4.382
 4737SOL     OW15109   2.551   5.213   0.106
 4737SOL    HW115110   2.493   5.148   0.156
 4737SOL    HW215111   2.540   5.304   0.146
 4738SOL     OW15112   0.420   5.506   3.720
 4738SOL    HW115113   0.471   5.474   3.800
 4738SOL    HW215114   0.345   5.443   3.701
 4739SOL     OW15115   5.735   3.563   3.300
 4739SOL    HW115116   5.665   3.497   3.327
 4739SOL    HW215117   5.699   3.656   3.305
 4740SOL     OW15118   1.969   6.570   0.955
 4740SOL    HW115119   1.941   6.506   0.883
 4740SOL    HW215120   2.045   6.626   0.922
 4741SOL     OW15121   5.455   4.688   1.601
 4741SOL    HW115122   5.404   4.686   1.515
 4741SOL    HW215123   5.552   4.674   1.583
 4742SOL     OW15124   1.977   5.642   1.957
 4742SOL    HW115125   1.990   5.698   2.039
 4742SOL    HW215126   2.066   5.620   1.917
 4743SOL     OW15127   2.666   3.799   0.378
 4743SOL    HW115128   2.704   3.851   0.301
 4743SOL    HW215129   2.705   3.834   0.463
 4744SOL     OW15130   2.855   1.842   5.603
 4744SOL    HW115131   2.811   1.758   5.636
 4744SOL    HW215132   2.885   1.829   5.509
 4745SOL     OW15133   4.608   5.512   4.298
 4745SOL    HW115134   4.601   5.604   4.337
 4745SOL    HW215135   4.516   5.477   4.279
 4746SOL     OW15136   5.606   1.530   0.935
 4746SOL    HW115137   5.655   1.475   1.003
 4746SOL    HW215138   5.649   1.620   0.928
 4747SOL     OW15139   0.803   2.709   2.327
 4747SOL    HW115140   0.844   2.783   2.381
 4747SOL    HW215141   0.709   2.695   2.356
 4748SOL     OW15142   2.586   6.774   0.426
 4748SOL    HW115143   2.492   6.788   0.456
 4748SOL    HW215144   2.631   6.708   0.487
 4749SOL     OW15145   3.511   0.807   6.791
 4749SOL    HW115146   3.496   0.771   6.883
 4749SOL    HW215147   3.429   0.789   6.736
 4750SOL     OW15148   0.714   2.017   5.322
 4750SOL    HW115149   0.728   2.078   5.244
 4750SOL    HW215150   0.640   2.053   5.380
 4751SOL     OW15151   1.527   4.444   6.542
 4751SOL    HW115152   1.513   4.506   6.619
 4751SOL    HW215153   1.514   4.493   6.456
 4752SOL     OW15154   2.132   5.786   1.015
 4752SOL    HW115155   2.103   5.812   1.107
 4752SOL    HW215156   2.112   5.860   0.951
 4753SOL     OW15157   0.446   0.785   6.209
 4753SOL    HW115158   0.513   0.712   6.226
 4753SOL    HW215159   0.489   0.874   6.225
 4754SOL     OW15160   1.395   1.396   6.272
 4754SOL    HW115161   1.368   1.300   6.280
 4754SOL    HW215162   1.352   1.436   6.191
 4755SOL     OW15163   3.144   6.860   2.791
 4755SOL    HW115164   3.163   6.900   2.701
 4755SOL    HW215165   3.195   6.910   2.861
 4756SOL     OW15166   5.744   2.168   1.546
 4756SOL    HW115167   5.814   2.217   1.495
 4756SOL    HW215168   5.671   2.138   1.485
 4757SOL     OW15169   2.447   2.385   0.581
 4757SOL    HW115170   2.522   2.325   0.553
 4757SOL    HW215171   2.420   2.364   0.674
 4758SOL     OW15172   5.992   4.170   6.367
 4758SOL    HW115173   5.995   4.266   6.338
 4758SOL    HW215174   6.074   4.123   6.332
 4759SOL     OW15175   0.051   4.319   6.592
 4759SOL    HW115176   0.089   4.257   6.661
 4759SOL    HW215177   0.112   4.397   6.581
 4760SOL     OW15178   1.209   2.486   0.184
 4760SOL    HW115179   1.117   2.509   0.152
 4760SOL    HW215180   1.275   2.545   0.138
 4761SOL     OW15181   2.679   6.328   6.344
 4761SOL    HW115182   2.771   6.317   6.383
 4761SOL    HW215183   2.620   6.372   6.411
 4762SOL     OW15184   3.670   0.126   2.373
 4762SOL    HW115185   3.683   0.078   2.460
 4762SOL    HW215186   3.572   0.135   2.354
 4763SOL     OW15187   5.045   5.191   5.488
 4763SOL    HW115188   4.991   5.262   5.532
 4763SOL    HW215189   5.122   5.233   5.439
 4764SOL     OW15190   3.862   3.825   3.827
 4764SOL    HW115191   3.911   3.907   3.797
 4764SOL    HW215192   3.876   3.811   3.925
 4765SOL     OW15193   5.616   5.242   6.751
 4765SOL    HW115194   5.529   5.273   6.790
 4765SOL    HW215195   5.674   5.321   6.732
 4766SOL     OW15196   2.870   1.400   3.334
 4766SOL    HW115197   2.819   1.414   3.418
 4766SOL    HW215198   2.967   1.387   3.355
 4767SOL     OW15199   4.656   0.663   6.703
 4767SOL    HW115200   4.598   0.585   6.681
 4767SOL    HW215201   4.668   0.720   6.621
 4768SOL     OW15202   1.593   0.914   5.315
 4768SOL    HW115203   1.615   0.889   5.220
 4768SOL    HW215204   1.671   0.960   5.356
 4769SOL     OW15205   4.929   0.963   1.816
 4769SOL    HW115206   5.012   0.962   1.873
 4769SOL    HW215207   4.861   1.023   1.857
 4770SOL     OW15208   2.070   0.929   4.121
 4770SOL    HW115209   2.118   0.933   4.208
 4770SOL    HW215210   2.107   0.998   4.059
 4771SOL     OW15211   3.630   4.236   5.703
 4771SOL    HW115212   3.716   4.210   5.660
 4771SOL    HW215213   3.577   4.154   5.723
 4772SOL     OW15214   3.187   2.613   0.085
 4772SOL    HW115215   3.226   2.659   0.005
 4772SOL    HW215216   3.116   2.549   0.055
 4773SOL     OW15217   6.914   4.738   4.949
 4773SOL    HW115218   6.880   4.701   5.036
 4773SOL    HW215219   6.929   4.837   4.959
 4774SOL     OW15220   1.840   4.537   6.777
 4774SOL    HW115221   1.891   4.458   6.810
 4774SOL    HW215222   1.750   4.539   6.821
 4775SOL     OW15223   2.100   2.499   2.197
 4775SOL    HW115224   2.068   2.447   2.276
 4775SOL    HW215225   2.163   2.570   2.228
 4776SOL     OW15226   4.352   5.219   1.850
 4776SOL    HW115227   4.448   5.191   1.858
 4776SOL    HW215228   4.329   5.230   1.754
 4777SOL     OW15229   2.454   4.143   1.677
 4777SOL    HW115230   2.457   4.188   1.766
 4777SOL    HW215231   2.539   4.093   1.662
 4778SOL     OW15232   5.274   3.451   2.674
 4778SOL    HW115233   5.207   3.506   2.723
 4778SOL    HW215234   5.356   3.505   2.656
 4779SOL     OW15235   5.245   1.165   2.666
 4779SOL    HW115236   5.207   1.124   2.749
 4779SOL    HW215237   5.187   1.241   2.637
 4780SOL     OW15238   1.996   1.357   5.799
 4780SOL    HW115239   1.992   1.269   5.751
 4780SOL    HW215240   1.903   1.390   5.815
 4781SOL     OW15241   1.887   5.360   2.903
 4781SOL    HW115242   1.882   5.262   2.926
 4781SOL    HW215243   1.982   5.391   2.911
 4782SOL     OW15244   6.230   6.228   0.202
 4782SOL    HW115245   6.144   6.244   0.250
 4782SOL    HW215246   6.213   6.177   0.119
 4783SOL     OW15247   6.099   3.741   2.448
 4783SOL    HW115248   6.195   3.733   2.475
 4783SOL    HW215249   6.071   3.837   2.451
 4784SOL     OW15250   5.389   4.775   4.877
 4784SOL    HW115251   5.429   4.709   4.941
 4784SOL    HW215252   5.342   4.847   4.929
 4785SOL     OW15253   5.703   6.510   0.812
 4785SOL    HW115254   5.670   6.423   0.777
 4785SOL    HW215255   5.772   6.548   0.750
 4786SOL     OW15256   1.116   3.949   2.191
 4786SOL    HW115257   1.210   3.984   2.198
 4786SOL    HW215258   1.066   4.000   2.122
 4787SOL     OW15259   3.971   2.180   3.213
 4787SOL    HW115260   3.921   2.202   3.297
 4787SOL    HW215261   4.026   2.098   3.228
 4788SOL     OW15262   2.245   0.273   4.665
 4788SOL    HW115263   2.210   0.317   4.747
 4788SOL    HW215264   2.194   0.306   4.585
 4789SOL     OW15265   5.094   6.339   0.289
 4789SOL    HW115266   5.159   6.268   0.264
 4789SOL    HW215267   5.089   6.407   0.216
 4790SOL     OW15268   5.239   0.220   6.813
 4790SOL    HW115269   5.211   0.135   6.770
 4790SOL    HW215270   5.309   0.201   6.882
 4791SOL     OW15271   4.211   2.115   3.486
 4791SOL    HW115272   4.226   2.134   3.389
 4791SOL    HW215273   4.115   2.131   3.509
 4792SOL     OW15274   3.051   3.082   0.991
 4792SOL    HW115275   2.980   3.026   0.948
 4792SOL    HW215276   3.140   3.037   0.980
 4793SOL     OW15277   0.397   0.609   6.828
 4793SOL    HW115278   0.365   0.626   6.735
 4793SOL    HW215279   0.440   0.692   6.863
 4794SOL     OW15280   5.208   1.540   2.013
 4794SOL    HW115281   5.233   1.524   2.109
 4794SOL    HW215282   5.227   1.635   1.989
 4795SOL     OW15283   5.842   2.789   4.232
 4795SOL    HW115284   5.880   2.855   4.168
 4795SOL    HW215285   5.752   2.759   4.200
 4796SOL     OW15286   5.182   3.770   0.276
 4796SOL    HW115287   5.196   3.759   0.375
 4796SOL    HW215288   5.185   3.867   0.253
 4797SOL     OW15289   1.026   5.846   4.911
 4797SOL    HW115290   0.928   5.831   4.919
 4797SOL    HW215291   1.071   5.759   4.892
 4798SOL     OW15292   6.724   4.894   5.747
 4798SOL    HW115293   6.738   4.841   5.664
 4798SOL    HW215294   6.636   4.869   5.788
 4799SOL     OW15295   4.899   1.532   4.036
 4799SOL    HW115296   4.922   1.545   4.132
 4799SOL    HW215297   4.801   1.549   4.023
 4800SOL     OW15298   1.947   3.010   4.007
 4800SOL    HW115299   1.881   3.007   3.932
 4800SOL    HW215300   2.038   3.027   3.970
 4801SOL     OW15301   6.824   2.224   0.556
 4801SOL    HW115302   6.795   2.177   0.472
 4801SOL    HW215303   6.832   2.322   0.538
 4802SOL     OW15304   1.461   0.647   1.839
 4802SOL    HW115305   1.533   0.581   1.816
 4802SOL    HW215306   1.498   0.715   1.903
 4803SOL     OW15307   1.408   6.994   0.804
 4803SOL    HW115308   1.368   0.059   0.780
 4803SOL    HW215309   1.361   6.956   0.882
 4804SOL     OW15310   4.750   5.937   0.298
 4804SOL    HW115311   4.680   5.917   0.229
 4804SOL    HW215312   4.767   6.035   0.300
 4805SOL     OW15313   0.016   6.769   1.638
 4805SOL    HW115314   0.029   6.864   1.664
 4805SOL    HW215315   0.001   6.713   1.720
 4806SOL     OW15316   6.932   2.208   4.021
 4806SOL    HW115317   6.991   2.145   4.070
 4806SOL    HW215318   6.982   2.292   4.001
 4807SOL     OW15319   1.043   0.323   2.712
 4807SOL    HW115320   1.136   0.302   2.681
 4807SOL    HW215321   0.984   0.338   2.633
 4808SOL     OW15322   6.554   2.377   0.356
 4808SOL    HW115323   6.509   2.332   0.433
 4808SOL    HW215324   6.484   2.416   0.295
 4809SOL     OW15325   4.777   0.001   0.816
 4809SOL    HW115326   4.781   0.078   0.752
 4809SOL    HW215327   4.762   6.941   0.765
 4810SOL     OW15328   2.084   6.187   0.137
 4810SOL    HW115329   2.091   6.134   0.052
 4810SOL    HW215330   2.107   6.128   0.214
 4811SOL     OW15331   5.244   3.731   3.773
 4811SOL    HW115332   5.282   3.706   3.862
 4811SOL    HW215333   5.226   3.649   3.719
 4812SOL     OW15334   6.442   5.229   4.090
 4812SOL    HW115335   6.363   5.173   4.064
 4812SOL    HW215336   6.410   5.314   4.131
 4813SOL     OW15337   5.561   3.308   2.937
 4813SOL    HW115338   5.541   3.269   2.847
 4813SOL    HW215339   5.490   3.281   3.001
 4814SOL     OW15340   6.794   2.777   1.492
 4814SOL    HW115341   6.838   2.867   1.489
 4814SOL    HW215342   6.720   2.778   1.559
 4815SOL     OW15343   5.007   0.398   3.471
 4815SOL    HW115344   5.015   0.299   3.473
 4815SOL    HW215345   4.950   0.426   3.394
 4816SOL     OW15346   5.409   4.390   3.431
 4816SOL    HW115347   5.430   4.482   3.463
 4816SOL    HW215348   5.353   4.343   3.499
 4817SOL     OW15349   6.091   1.900   0.052
 4817SOL    HW115350   6.033   1.940   0.123
 4817SOL    HW215351   6.165   1.848   0.095
 4818SOL     OW15352   0.136   5.995   3.900
 4818SOL    HW115353   0.076   6.075   3.889
 4818SOL    HW215354   0.085   5.912   3.877
 4819SOL     OW15355   1.855   3.211   0.820
 4819SOL    HW115356   1.788   3.155   0.772
 4819SOL    HW215357   1.908   3.154   0.883
 4820SOL     OW15358   6.757   3.688   1.943
 4820SOL    HW115359   6.664   3.725   1.956
 4820SOL    HW215360   6.775   3.620   2.014
 4821SOL     OW15361   0.746   5.614   3.924
 4821SOL    HW115362   0.753   5.690   3.988
 4821SOL    HW215363   0.756   5.647   3.830
 4822SOL     OW15364   2.514   4.470   4.420
 4822SOL    HW115365   2.599   4.434   4.460
 4822SOL    HW215366   2.474   4.538   4.482
 4823SOL     OW15367   1.482   2.197   0.799
 4823SOL    HW115368   1.446   2.287   0.775
 4823SOL    HW215369   1.481   2.138   0.719
 4824SOL     OW15370   6.670   2.062   6.966
 4824SOL    HW115371   6.579   2.100   6.982
 4824SOL    HW215372   6.698   2.007   0.021
 4825SOL     OW15373   1.175   6.553   3.728
 4825SOL    HW115374   1.121   6.543   3.644
 4825SOL    HW215375   1.114   6.554   3.807
 4826SOL     OW15376   4.251   6.530   0.841
 4826SOL    HW115377   4.349   6.544   0.826
 4826SOL    HW215378   4.236   6.448   0.896
 4827SOL     OW15379   6.053   1.212   1.260
 4827SOL    HW115380   5.994   1.162   1.323
 4827SOL    HW215381   6.061   1.307   1.290
 4828SOL     OW15382   4.906   1.117   6.582
 4828SOL    HW115383   4.939   1.086   6.672
 4828SOL    HW215384   4.940   1.056   6.511
 4829SOL     OW15385   4.291   6.027   5.343
 4829SOL    HW115386   4.371   6.075   5.306
 4829SOL    HW215387   4.308   5.928   5.340
 4830SOL     OW15388   1.688   6.917   3.578
 4830SOL    HW115389   1.659   6.929   3.484
 4830SOL    HW215390   1.788   6.909   3.581
 4831SOL     OW15391   3.284   4.971   5.629
 4831SOL    HW115392   3.382   4.990   5.619
 4831SOL    HW215393   3.266   4.877   5.602
 4832SOL     OW15394   3.951   3.169   4.611
 4832SOL    HW115395   3.991   3.133   4.526
 4832SOL    HW215396   3.883   3.105   4.645
 4833SOL     OW15397   5.827   2.310   5.186
 4833SOL    HW115398   5.885   2.322   5.105
 4833SOL    HW215399   5.869   2.358   5.263
 4834SOL     OW15400   0.671   4.986   0.849
 4834SOL    HW115401   0.747   4.959   0.909
 4834SOL    HW215402   0.635   5.074   0.879
 4835SOL     OW15403   6.970   3.444   6.122
 4835SOL    HW115404   6.895   3.449   6.187
 4835SOL    HW215405   0.018   3.506   6.151
 4836SOL     OW15406   4.611   0.995   5.745
 4836SOL    HW115407   4.691   0.997   5.686
 4836SOL    HW215408   4.636   1.032   5.835
 4837SOL     OW15409   1.193   3.521   4.859
 4837SOL    HW115410   1.290   3.521   4.887
 4837SOL    HW215411   1.183   3.470   4.774
 4838SOL     OW15412   2.124   4.168   5.921
 4838SOL    HW115413   2.168   4.155   6.010
 4838SOL    HW215414   2.171   4.113   5.853
 4839SOL     OW15415   2.677   1.212   2.103
 4839SOL    HW115416   2.701   1.139   2.166
 4839SOL    HW215417   2.656   1.174   2.013
 4840SOL     OW15418   4.480   2.421   3.421
 4840SOL    HW115419   4.524   2.353   3.361
 4840SOL    HW215420   4.516   2.512   3.399
 4841SOL     OW15421   3.041   5.525   3.093
 4841SOL    HW115422   3.018   5.581   3.173
 4841SOL    HW215423   2.996   5.436   3.101
 4842SOL     OW15424   4.470   5.804   3.174
 4842SOL    HW115425   4.555   5.751   3.164
 4842SOL    HW215426   4.488   5.886   3.227
 4843SOL     OW15427   5.380   1.985   0.535
 4843SOL    HW115428   5.420   2.064   0.489
 4843SOL    HW215429   5.284   2.003   0.556
 4844SOL     OW15430   1.067   5.103   6.422
 4844SOL    HW115431   1.118   5.126   6.339
 4844SOL    HW215432   1.124   5.047   6.482
 4845SOL     OW15433   5.358   3.873   4.880
 4845SOL    HW115434   5.305   3.939   4.826
 4845SOL    HW215435   5.305   3.790   4.892
 4846SOL     OW15436   6.367   3.969   4.577
 4846SOL    HW115437   6.304   4.046   4.576
 4846SOL    HW215438   6.375   3.932   4.484
 4847SOL     OW15439   3.142   6.784   0.485
 4847SOL    HW115440   3.200   6.751   0.410
 4847SOL    HW215441   3.187   6.764   0.572
 4848SOL     OW15442   4.537   1.192   3.958
 4848SOL    HW115443   4.632   1.164   3.970
 4848SOL    HW215444   4.479   1.140   4.020
 4849SOL     OW15445   1.584   5.703   2.187
 4849SOL    HW115446   1.618   5.632   2.249
 4849SOL    HW215447   1.529   5.768   2.238
 4850SOL     OW15448   3.474   6.943   2.179
 4850SOL    HW115449   3.461   6.991   2.092
 4850SOL    HW215450   3.533   6.864   2.164
 4851SOL     OW15451   4.492   4.631   6.780
 4851SOL    HW115452   4.487   4.570   6.860
 4851SOL    HW215453   4.530   4.581   6.703
 4852SOL     OW15454   4.823   4.114   5.508
 4852SOL    HW115455   4.888   4.190   5.498
 4852SOL    HW215456   4.869   4.028   5.484
 4853SOL     OW15457   3.836   0.343   2.738
 4853SOL    HW115458   3.862   0.436   2.712
 4853SOL    HW215459   3.898   0.310   2.809
 4854SOL     OW15460   4.153   6.706   2.491
 4854SOL    HW115461   4.219   6.748   2.553
 4854SOL    HW215462   4.175   6.609   2.479
 4855SOL     OW15463   4.078   4.692   5.478
 4855SOL    HW115464   4.132   4.612   5.506
 4855SOL    HW215465   4.058   4.748   5.558
 4856SOL     OW15466   1.026   2.435   2.410
 4856SOL    HW115467   0.929   2.447   2.391
 4856SOL    HW215468   1.062   2.359   2.356
 4857SOL     OW15469   2.818   2.037   5.918
 4857SOL    HW115470   2.764   1.962   5.880
 4857SOL    HW215471   2.874   2.078   5.846
 4858SOL     OW15472   1.854   4.899   4.543
 4858SOL    HW115473   1.813   4.808   4.544
 4858SOL    HW215474   1.887   4.920   4.451
 4859SOL     OW15475   6.503   5.406   3.404
 4859SOL    HW115476   6.534   5.322   3.448
 4859SOL    HW215477   6.523   5.484   3.464
 4860SOL     OW15478   3.993   5.238   1.143
 4860SOL    HW115479   3.954   5.232   1.235
 4860SOL    HW215480   3.950   5.314   1.094
 4861SOL     OW15481   5.974   4.874   4.695
 4861SOL    HW115482   6.044   4.854   4.626
 4861SOL    HW215483   5.941   4.788   4.735
 4862SOL     OW15484   1.891   5.450   4.355
 4862SOL    HW115485   1.981   5.420   4.322
 4862SOL    HW215486   1.891   5.450   4.455
 4863SOL     OW15487   5.740   1.593   2.034
 4863SOL    HW115488   5.786   1.578   1.946
 4863SOL    HW215489   5.663   1.530   2.043
 4864SOL     OW15490   2.236   3.133   1.480
 4864SOL    HW115491   2.336   3.129   1.472
 4864SOL    HW215492   2.196   3.143   1.389
 4865SOL     OW15493   3.660   6.583   5.222
 4865SOL    HW115494   3.600   6.512   5.185
 4865SOL    HW215495   3.755   6.552   5.217
 4866SOL     OW15496   0.598   5.009   1.687
 4866SOL    HW115497   0.602   4.911   1.670
 4866SOL    HW215498   0.680   5.053   1.649
 4867SOL     OW15499   5.759   4.907   5.794
 4867SOL    HW115500   5.811   4.833   5.836
 4867SOL    HW215501   5.728   4.971   5.865
 4868SOL     OW15502   1.898   5.897   1.685
 4868SOL    HW115503   1.963   5.939   1.749
 4868SOL    HW215504   1.906   5.798   1.689
 4869SOL     OW15505   0.595   1.760   1.959
 4869SOL    HW115506   0.500   1.791   1.955
 4869SOL    HW215507   0.599   1.662   1.940
 4870SOL     OW15508   5.915   1.155   0.811
 4870SOL    HW115509   5.911   1.078   0.748
 4870SOL    HW215510   5.829   1.206   0.806
 4871SOL     OW15511   2.010   2.631   5.701
 4871SOL    HW115512   2.045   2.644   5.608
 4871SOL    HW215513   2.083   2.595   5.759
 4872SOL     OW15514   1.815   2.636   2.739
 4872SOL    HW115515   1.746   2.666   2.673
 4872SOL    HW215516   1.831   2.538   2.728
 4873SOL     OW15517   0.684   6.820   5.630
 4873SOL    HW115518   0.701   6.799   5.727
 4873SOL    HW215519   0.632   6.745   5.589
 4874SOL     OW15520   5.864   1.961   4.117
 4874SOL    HW115521   5.963   1.963   4.124
 4874SOL    HW215522   5.824   1.999   4.201
 4875SOL     OW15523   0.340   3.155   0.203
 4875SOL    HW115524   0.315   3.068   0.160
 4875SOL    HW215525   0.439   3.169   0.193
 4876SOL     OW15526   6.529   1.418   0.022
 4876SOL    HW115527   6.586   1.499   0.035
 4876SOL    HW215528   6.570   1.340   0.069
 4877SOL     OW15529   4.585   1.899   1.254
 4877SOL    HW115530   4.655   1.888   1.324
 4877SOL    HW215531   4.513   1.831   1.267
 4878SOL     OW15532   1.273   2.805   2.082
 4878SOL    HW115533   1.267   2.895   2.038
 4878SOL    HW215534   1.366   2.770   2.072
 4879SOL     OW15535   3.585   5.929   3.616
 4879SOL    HW115536   3.530   5.878   3.682
 4879SOL    HW215537   3.561   5.900   3.523
 4880SOL     OW15538   6.536   1.825   6.120
 4880SOL    HW115539   6.512   1.779   6.035
 4880SOL    HW215540   6.469   1.802   6.191
 4881SOL     OW15541   2.968   6.161   5.938
 4881SOL    HW115542   3.029   6.145   5.860
 4881SOL    HW215543   3.008   6.230   5.998
 4882SOL     OW15544   5.756   5.471   6.612
 4882SOL    HW115545   5.738   5.414   6.532
 4882SOL    HW215546   5.821   5.542   6.589
 4883SOL     OW15547   5.980   5.892   0.001
 4883SOL    HW115548   6.003   5.934   6.937
 4883SOL    HW215549   6.065   5.869   0.049
 4884SOL     OW15550   3.357   6.319   1.452
 4884SOL    HW115551   3.274   6.265   1.459
 4884SOL    HW215552   3.382   6.353   1.543
 4885SOL     OW15553   1.694   0.549   2.206
 4885SOL    HW115554   1.726   0.643   2.221
 4885SOL    HW215555   1.614   0.532   2.263
 4886SOL     OW15556   5.943   0.992   5.466
 4886SOL    HW115557   5.929   1.031   5.557
 4886SOL    HW215558   5.986   1.061   5.407
 4887SOL     OW15559   0.157   1.728   5.408
 4887SOL    HW115560   0.210   1.737   5.492
 4887SOL    HW215561   0.063   1.758   5.425
 4888SOL     OW15562   4.369   5.973   1.117
 4888SOL    HW115563   4.289   5.916   1.098
 4888SOL    HW215564   4.412   5.999   1.030
 4889SOL     OW15565   1.756   3.594   6.509
 4889SOL    HW115566   1.720   3.687   6.498
 4889SOL    HW215567   1.694   3.541   6.566
 4890SOL     OW15568   0.045   0.416   4.532
 4890SOL    HW115569   0.087   0.506   4.539
 4890SOL    HW215570   0.099   0.358   4.473
 4891SOL     OW15571   1.145   5.075   0.802
 4891SOL    HW115572   1.052   5.070   0.766
 4891SOL    HW215573   1.206   5.112   0.732
 4892SOL     OW15574   1.821   5.884   2.176
 4892SOL    HW115575   1.815   5.955   2.246
 4892SOL    HW215576   1.736   5.831   2.175
 4893SOL     OW15577   0.283   4.513   6.315
 4893SOL    HW115578   0.299   4.421   6.353
 4893SOL    HW215579   0.353   4.575   6.348
 4894SOL     OW15580   0.623   6.787   3.359
 4894SOL    HW115581   0.588   6.870   3.403
 4894SOL    HW215582   0.593   6.707   3.410
 4895SOL     OW15583   6.393   4.425   6.827
 4895SOL    HW115584   6.392   4.326   6.818
 4895SOL    HW215585   6.469   4.463   6.775
 4896SOL     OW15586   4.000   0.441   4.300
 4896SOL    HW115587   4.043   0.497   4.371
 4896SOL    HW215588   4.014   0.485   4.211
 4897SOL     OW15589   2.533   5.256   6.857
 4897SOL    HW115590   2.526   5.279   6.954
 4897SOL    HW215591   2.532   5.157   6.846
 4898SOL     OW15592   5.066   2.798   4.267
 4898SOL    HW115593   4.971   2.819   4.289
 4898SOL    HW215594   5.071   2.711   4.217
 4899SOL     OW15595   6.173   3.696   4.528
 4899SOL    HW115596   6.227   3.768   4.485
 4899SOL    HW215597   6.164   3.619   4.464
 4900SOL     OW15598   0.512   6.633   5.559
 4900SOL    HW115599   0.437   6.638   5.493
 4900SOL    HW215600   0.480   6.589   5.643
 4901SOL     OW15601   6.079   6.212   3.339
 4901SOL    HW115602   6.131   6.295   3.318
 4901SOL    HW215603   6.015   6.231   3.412
 4902SOL     OW15604   3.401   5.183   0.695
 4902SOL    HW115605   3.453   5.142   0.770
 4902SOL    HW215606   3.316   5.132   0.682
 4903SOL     OW15607   5.781   5.092   6.225
 4903SOL    HW115608   5.792   4.993   6.224
 4903SOL    HW215609   5.750   5.123   6.135
 4904SOL     OW15610   2.920   0.762   3.496
 4904SOL    HW115611   2.875   0.845   3.465
 4904SOL    HW215612   2.994   0.785   3.559
 4905SOL     OW15613   5.978   3.857   2.676
 4905SOL    HW115614   5.907   3.887   2.612
 4905SOL    HW215615   6.023   3.775   2.640
 4906SOL     OW15616   4.659   0.380   1.909
 4906SOL    HW115617   4.758   0.371   1.915
 4906SOL    HW215618   4.623   0.309   1.848
 4907SOL     OW15619   2.983   2.890   1.702
 4907SOL    HW115620   3.042   2.874   1.622
 4907SOL    HW215621   2.902   2.831   1.696
 4908SOL     OW15622   5.184   5.224   6.635
 4908SOL    HW115623   5.242   5.205   6.714
 4908SOL    HW215624   5.182   5.323   6.618
 4909SOL     OW15625   5.729   6.441   5.649
 4909SOL    HW115626   5.698   6.526   5.605
 4909SOL    HW215627   5.828   6.445   5.662
 4910SOL     OW15628   5.212   6.611   5.392
 4910SOL    HW115629   5.197   6.649   5.300
 4910SOL    HW215630   5.288   6.658   5.435
 4911SOL     OW15631   0.382   4.286   6.462
 4911SOL    HW115632   0.329   4.249   6.539
 4911SOL    HW215633   0.472   4.243   6.460
 4912SOL     OW15634   2.086   3.099   1.258
 4912SOL    HW115635   2.123   3.071   1.170
 4912SOL    HW215636   1.990   3.125   1.247
 4913SOL     OW15637   2.863   3.382   1.935
 4913SOL    HW115638   2.842   3.300   1.881
 4913SOL    HW215639   2.914   3.356   2.017
 4914SOL     OW15640   1.184   6.906   2.541
 4914SOL    HW115641   1.144   6.814   2.541
 4914SOL    HW215642   1.267   6.906   2.485
 4915SOL     OW15643   3.624   6.355   4.001
 4915SOL    HW115644   3.565   6.280   3.970
 4915SOL    HW215645   3.676   6.391   3.924
 4916SOL     OW15646   1.389   1.728   2.026
 4916SOL    HW115647   1.351   1.646   2.069
 4916SOL    HW215648   1.456   1.770   2.088
 4917SOL     OW15649   1.143   4.563   6.424
 4917SOL    HW115650   1.110   4.656   6.405
 4917SOL    HW215651   1.197   4.564   6.508
 4918SOL     OW15652   2.517   6.545   4.089
 4918SOL    HW115653   2.499   6.496   4.174
 4918SOL    HW215654   2.433   6.551   4.035
 4919SOL     OW15655   1.934   2.965   0.987
 4919SOL    HW115656   1.895   2.930   0.902
 4919SOL    HW215657   1.980   2.891   1.035
 4920SOL     OW15658   3.628   1.827   6.806
 4920SOL    HW115659   3.529   1.830   6.796
 4920SOL    HW215660   3.654   1.747   6.859
 4921SOL     OW15661   6.885   4.618   2.348
 4921SOL    HW115662   6.949   4.605   2.273
 4921SOL    HW215663   6.847   4.711   2.344
 4922SOL     OW15664   0.845   3.003   6.142
 4922SOL    HW115665   0.855   3.058   6.059
 4922SOL    HW215666   0.882   3.054   6.220
 4923SOL     OW15667   3.411   2.234   6.628
 4923SOL    HW115668   3.401   2.320   6.578
 4923SOL    HW215669   3.327   2.181   6.622
 4924SOL     OW15670   0.252   2.887   4.185
 4924SOL    HW115671   0.187   2.962   4.201
 4924SOL    HW215672   0.302   2.905   4.100
 4925SOL     OW15673   4.441   5.148   5.094
 4925SOL    HW115674   4.345   5.174   5.079
 4925SOL    HW215675   4.455   5.054   5.065
 4926SOL     OW15676   4.299   3.429   0.501
 4926SOL    HW115677   4.276   3.522   0.472
 4926SOL    HW215678   4.254   3.409   0.588
 4927SOL     OW15679   3.029   3.751   2.007
 4927SOL    HW115680   3.014   3.847   2.028
 4927SOL    HW215681   3.122   3.738   1.973
 4928SOL     OW15682   6.940   1.563   6.947
 4928SOL    HW115683   6.957   1.654   6.910
 4928SOL    HW215684   7.015   1.502   6.920
 4929SOL     OW15685   0.394   4.084   4.575
 4929SOL    HW115686   0.347   4.108   4.660
 4929SOL    HW215687   0.493   4.095   4.588
 4930SOL     OW15688   0.054   3.579   6.947
 4930SOL    HW115689   0.036   3.545   6.855
 4930SOL    HW215690   0.052   3.502   7.011
 4931SOL     OW15691   5.382   6.711   0.877
 4931SOL    HW115692   5.372   6.805   0.909
 4931SOL    HW215693   5.373   6.708   0.777
 4932SOL     OW15694   3.528   1.477   0.766
 4932SOL    HW115695   3.455   1.414   0.737
 4932SOL    HW215696   3.527   1.484   0.866
 4933SOL     OW15697   3.080   0.131   4.792
 4933SOL    HW115698   3.021   0.061   4.752
 4933SOL    HW215699   3.135   0.091   4.865
 4934SOL     OW15700   1.980   5.981   5.221
 4934SOL    HW115701   2.065   5.932   5.200
 4934SOL    HW215702   1.902   5.928   5.187
 4935SOL     OW15703   2.020   2.446   0.443
 4935SOL    HW115704   2.020   2.434   0.542
 4935SOL    HW215705   2.113   2.466   0.412
 4936SOL     OW15706   6.590   4.201   1.511
 4936SOL    HW115707   6.604   4.202   1.610
 4936SOL    HW215708   6.631   4.119   1.471
 4937SOL     OW15709   0.750   3.555   5.314
 4937SOL    HW115710   0.740   3.568   5.216
 4937SOL    HW215711   0.661   3.533   5.354
 4938SOL     OW15712   3.632   4.274   0.989
 4938SOL    HW115713   3.706   4.278   1.057
 4938SOL    HW215714   3.635   4.357   0.933
 4939SOL     OW15715   0.861   1.373   1.651
 4939SOL    HW115716   0.791   1.443   1.639
 4939SOL    HW215717   0.819   1.282   1.644
 4940SOL     OW15718   1.610   1.697   5.218
 4940SOL    HW115719   1.640   1.604   5.242
 4940SOL    HW215720   1.578   1.743   5.301
 4941SOL     OW15721   4.056   1.984   5.813
 4941SOL    HW115722   4.134   1.997   5.875
 4941SOL    HW215723   3.971   1.995   5.864
 4942SOL     OW15724   0.525   0.998   2.184
 4942SOL    HW115725   0.581   0.992   2.267
 4942SOL    HW215726   0.469   0.916   2.175
 4943SOL     OW15727   5.015   2.498   6.366
 4943SOL    HW115728   5.012   2.577   6.305
 4943SOL    HW215729   5.009   2.529   6.461
 4944SOL     OW15730   0.895   5.019   0.655
 4944SOL    HW115731   0.909   5.118   0.651
 4944SOL    HW215732   0.802   5.000   0.688
 4945SOL     OW15733   2.272   6.975   6.293
 4945SOL    HW115734   2.210   6.987   6.215
 4945SOL    HW215735   2.270   0.033   6.350
 4946SOL     OW15736   2.938   5.605   7.012
 4946SOL    HW115737   2.974   5.518   0.023
 4946SOL    HW215738   2.950   5.676   0.057
 4947SOL     OW15739   1.181   0.144   1.134
 4947SOL    HW115740   1.177   0.100   1.223
 4947SOL    HW215741   1.215   0.238   1.144
 4948SOL     OW15742   1.494   2.959   2.258
 4948SOL    HW115743   1.493   2.864   2.227
 4948SOL    HW215744   1.401   2.995   2.261
 4949SOL     OW15745   6.600   4.890   6.344
 4949SOL    HW115746   6.584   4.981   6.383
 4949SOL    HW215747   6.599   4.896   6.244
 4950SOL     OW15748   4.176   4.140   5.775
 4950SOL    HW115749   4.141   4.091   5.855
 4950SOL    HW215750   4.258   4.191   5.800
 4951SOL     OW15751   5.310   5.399   3.310
 4951SOL    HW115752   5.344   5.360   3.225
 4951SOL    HW215753   5.266   5.487   3.292
 4952SOL     OW15754   0.589   1.034   6.738
 4952SOL    HW115755   0.617   1.061   6.645
 4952SOL    HW215756   0.655   1.068   6.804
 4953SOL     OW15757   1.552   1.274   5.858
 4953SOL    HW115758   1.469   1.326   5.841
 4953SOL    HW215759   1.559   1.253   5.955
 4954SOL     OW15760   3.302   3.435   5.333
 4954SOL    HW115761   3.316   3.426   5.234
 4954SOL    HW215762   3.218   3.387   5.360
 4955SOL     OW15763   4.022   6.296   0.010
 4955SOL    HW115764   4.054   6.231   0.079
 4955SOL    HW215765   4.064   6.385   0.026
 4956SOL     OW15766   2.603   0.520   4.529
 4956SOL    HW115767   2.659   0.574   4.592
 4956SOL    HW215768   2.662   0.472   4.464
 4957SOL     OW15769   5.859   5.447   6.867
 4957SOL    HW115770   5.956   5.465   6.851
 4957SOL    HW215771   5.806   5.476   6.788
 4958SOL     OW15772   3.318   5.273   7.019
 4958SOL    HW115773   3.360   5.269   6.928
 4958SOL    HW215774   3.389   5.276   0.064
 4959SOL     OW15775   0.668   1.850   3.498
 4959SOL    HW115776   0.636   1.911   3.426
 4959SOL    HW215777   0.768   1.841   3.492
 4960SOL     OW15778   4.959   4.461   4.226
 4960SOL    HW115779   4.931   4.501   4.139
 4960SOL    HW215780   4.899   4.495   4.299
 4961SOL     OW15781   3.788   2.900   2.201
 4961SOL    HW115782   3.693   2.871   2.215
 4961SOL    HW215783   3.843   2.822   2.171
 4962SOL     OW15784   1.639   2.361   0.618
 4962SOL    HW115785   1.739   2.357   0.618
 4962SOL    HW215786   1.603   2.278   0.575
 4963SOL     OW15787   0.634   3.638   6.804
 4963SOL    HW115788   0.544   3.609   6.836
 4963SOL    HW215789   0.661   3.722   6.851
 4964SOL     OW15790   1.401   5.103   4.175
 4964SOL    HW115791   1.450   5.178   4.220
 4964SOL    HW215792   1.310   5.094   4.215
 4965SOL     OW15793   2.540   0.537   3.459
 4965SOL    HW115794   2.621   0.517   3.514
 4965SOL    HW215795   2.459   0.538   3.518
 4966SOL     OW15796   4.367   6.782   5.335
 4966SOL    HW115797   4.328   6.690   5.341
 4966SOL    HW215798   4.296   6.846   5.307
 4967SOL     OW15799   4.478   4.635   3.532
 4967SOL    HW115800   4.546   4.603   3.598
 4967SOL    HW215801   4.449   4.728   3.555
 4968SOL     OW15802   6.581   3.082   3.653
 4968SOL    HW115803   6.530   3.165   3.627
 4968SOL    HW215804   6.645   3.058   3.579
 4969SOL     OW15805   0.906   5.988   4.274
 4969SOL    HW115806   0.975   6.002   4.204
 4969SOL    HW215807   0.943   5.930   4.347
 4970SOL     OW15808   2.002   1.245   1.119
 4970SOL    HW115809   2.038   1.189   1.194
 4970SOL    HW215810   1.905   1.223   1.105
 4971SOL     OW15811   0.508   5.923   2.006
 4971SOL    HW115812   0.477   6.000   1.950
 4971SOL    HW215813   0.438   5.851   2.006
 4972SOL     OW15814   0.267   3.639   0.211
 4972SOL    HW115815   0.217   3.718   0.174
 4972SOL    HW215816   0.254   3.560   0.150
 4973SOL     OW15817   5.067   2.371   6.745
 4973SOL    HW115818   5.140   2.325   6.695
 4973SOL    HW215819   5.077   2.354   6.843
 4974SOL     OW15820   3.282   0.058   5.733
 4974SOL    HW115821   3.277   0.119   5.813
 4974SOL    HW215822   3.191   0.023   5.712
 4975SOL     OW15823   5.796   4.328   1.325
 4975SOL    HW115824   5.817   4.389   1.249
 4975SOL    HW215825   5.711   4.357   1.369
 4976SOL     OW15826   1.007   0.389   3.740
 4976SOL    HW115827   1.019   0.427   3.832
 4976SOL    HW215828   0.928   0.328   3.739
 4977SOL     OW15829   0.989   3.516   5.034
 4977SOL    HW115830   1.015   3.452   5.106
 4977SOL    HW215831   1.056   3.512   4.959
 4978SOL     OW15832   6.077   5.380   4.522
 4978SOL    HW115833   6.073   5.472   4.482
 4978SOL    HW215834   5.986   5.356   4.558
 4979SOL     OW15835   3.873   6.678   6.344
 4979SOL    HW115836   3.813   6.638   6.413
 4979SOL    HW215837   3.866   6.624   6.260
 4980SOL     OW15838   5.741   2.584   3.962
 4980SOL    HW115839   5.826   2.575   3.910
 4980SOL    HW215840   5.670   2.621   3.903
 4981SOL     OW15841   3.365   6.083   3.326
 4981SOL    HW115842   3.439   6.015   3.320
 4981SOL    HW215843   3.315   6.085   3.240
 4982SOL     OW15844   4.211   1.991   4.803
 4982SOL    HW115845   4.165   1.907   4.773
 4982SOL    HW215846   4.297   2.002   4.754
 4983SOL     OW15847   5.931   3.512   2.921
 4983SOL    HW115848   5.872   3.529   2.842
 4983SOL    HW215849   5.904   3.427   2.965
 4984SOL     OW15850   5.038   3.555   5.142
 4984SOL    HW115851   4.964   3.561   5.075
 4984SOL    HW215852   4.999   3.539   5.233
 4985SOL     OW15853   5.582   0.454   2.415
 4985SOL    HW115854   5.601   0.379   2.477
 4985SOL    HW215855   5.664   0.511   2.405
 4986SOL     OW15856   1.603   5.476   1.085
 4986SOL    HW115857   1.525   5.443   1.139
 4986SOL    HW215858   1.651   5.547   1.136
 4987SOL     OW15859   2.132   3.942   2.210
 4987SOL    HW115860   2.197   3.887   2.262
 4987SOL    HW215861   2.146   4.039   2.231
 4988SOL     OW15862   6.333   5.616   3.896
 4988SOL    HW115863   6.393   5.536   3.905
 4988SOL    HW215864   6.390   5.698   3.887
 4989SOL     OW15865   0.033   6.898   3.599
 4989SOL    HW115866   0.106   6.863   3.541
 4989SOL    HW215867   0.045   6.996   3.613
 4990SOL     OW15868   5.023   1.801   5.614
 4990SOL    HW115869   5.037   1.897   5.636
 4990SOL    HW215870   5.053   1.784   5.520
 4991SOL     OW15871   2.426   5.777   5.667
 4991SOL    HW115872   2.446   5.723   5.585
 4991SOL    HW215873   2.456   5.871   5.654
 4992SOL     OW15874   2.580   3.204   5.605
 4992SOL    HW115875   2.550   3.113   5.635
 4992SOL    HW215876   2.620   3.253   5.683
 4993SOL     OW15877   2.338   5.197   4.117
 4993SOL    HW115878   2.265   5.140   4.081
 4993SOL    HW215879   2.406   5.140   4.163
 4994SOL     OW15880   2.820   4.865   5.918
 4994SOL    HW115881   2.775   4.844   5.831
 4994SOL    HW215882   2.788   4.953   5.952
 4995SOL     OW15883   0.494   1.494   5.457
 4995SOL    HW115884   0.535   1.419   5.508
 4995SOL    HW215885   0.399   1.472   5.437
 4996SOL     OW15886   6.731   0.667   4.696
 4996SOL    HW115887   6.659   0.672   4.764
 4996SOL    HW215888   6.722   0.742   4.631
 4997SOL     OW15889   4.211   1.125   0.603
 4997SOL    HW115890   4.223   1.076   0.689
 4997SOL    HW215891   4.191   1.060   0.530
 4998SOL     OW15892   0.804   3.702   3.179
 4998SOL    HW115893   0.885   3.745   3.140
 4998SOL    HW215894   0.744   3.772   3.219
 4999SOL     OW15895   0.157   2.953   3.534
 4999SOL    HW115896   0.068   2.907   3.529
 4999SOL    HW215897   0.172   2.987   3.627
 5000SOL     OW15898   3.163   6.473   2.794
 5000SOL    HW115899   3.072   6.510   2.815
 5000SOL    HW215900   3.168   6.451   2.697
 5001SOL     OW15901   0.156   5.810   3.423
 5001SOL    HW115902   0.214   5.879   3.466
 5001SOL    HW215903   0.069   5.851   3.397
 5002SOL     OW15904   1.045   4.556   3.914
 5002SOL    HW115905   1.122   4.591   3.968
 5002SOL    HW215906   1.062   4.575   3.817
 5003SOL     OW15907   3.249   1.083   1.437
 5003SOL    HW115908   3.348   1.083   1.450
 5003SOL    HW215909   3.222   1.166   1.388
 5004SOL     OW15910   4.515   6.334   0.433
 5004SOL    HW115911   4.535   6.239   0.453
 5004SOL    HW215912   4.532   6.390   0.514
 5005SOL     OW15913   4.029   3.054   0.956
 5005SOL    HW115914   4.109   3.087   1.006
 5005SOL    HW215915   3.953   3.118   0.968
 5006SOL     OW15916   5.147   0.480   2.847
 5006SOL    HW115917   5.194   0.394   2.826
 5006SOL    HW215918   5.109   0.518   2.762
 5007SOL     OW15919   6.352   5.141   2.249
 5007SOL    HW115920   6.397   5.053   2.264
 5007SOL    HW215921   6.391   5.210   2.310
 5008SOL     OW15922   4.819   6.839   3.496
 5008SOL    HW115923   4.853   6.932   3.507
 5008SOL    HW215924   4.816   6.793   3.584
 5009SOL     OW15925   0.720   1.661   6.812
 5009SOL    HW115926   0.730   1.699   6.904
 5009SOL    HW215927   0.703   1.735   6.747
 5010SOL     OW15928   4.967   4.223   0.782
 5010SOL    HW115929   4.997   4.313   0.753
 5010SOL    HW215930   4.954   4.222   0.881
 5011SOL     OW15931   1.898   2.486   6.309
 5011SOL    HW115932   1.846   2.506   6.392
 5011SOL    HW215933   1.836   2.451   6.239
 5012SOL     OW15934   6.231   2.233   6.176
 5012SOL    HW115935   6.290   2.200   6.250
 5012SOL    HW215936   6.286   2.246   6.094
 5013SOL     OW15937   5.940   6.526   4.966
 5013SOL    HW115938   6.036   6.530   4.996
 5013SOL    HW215939   5.917   6.431   4.942
 5014SOL     OW15940   6.355   4.261   0.676
 5014SOL    HW115941   6.384   4.181   0.622
 5014SOL    HW215942   6.419   4.275   0.751
 5015SOL     OW15943   6.440   5.223   4.435
 5015SOL    HW115944   6.467   5.283   4.360
 5015SOL    HW215945   6.492   5.247   4.517
 5016SOL     OW15946   1.600   2.294   6.609
 5016SOL    HW115947   1.587   2.327   6.702
 5016SOL    HW215948   1.541   2.215   6.593
 5017SOL     OW15949   1.108   2.595   2.113
 5017SOL    HW115950   1.176   2.664   2.090
 5017SOL    HW215951   1.070   2.615   2.204
 5018SOL     OW15952   0.819   0.923   0.285
 5018SOL    HW115953   0.798   0.892   0.378
 5018SOL    HW215954   0.900   0.875   0.252
 5019SOL     OW15955   1.549   4.008   3.946
 5019SOL    HW115956   1.479   3.961   4.000
 5019SOL    HW215957   1.629   4.025   4.003
 5020SOL     OW15958   1.694   6.949   3.948
 5020SOL    HW115959   1.757   7.017   3.986
 5020SOL    HW215960   1.746   6.871   3.914
 5021SOL     OW15961   2.149   0.524   1.728
 5021SOL    HW115962   2.100   0.608   1.751
 5021SOL    HW215963   2.133   0.455   1.799
 5022SOL     OW15964   0.074   2.846   0.812
 5022SOL    HW115965   0.032   2.756   0.817
 5022SOL    HW215966   0.019   2.912   0.864
 5023SOL     OW15967   0.481   2.616   2.787
 5023SOL    HW115968   0.497   2.612   2.886
 5023SOL    HW215969   0.568   2.610   2.739
 5024SOL     OW15970   4.667   4.343   6.756
 5024SOL    HW115971   4.754   4.392   6.761
 5024SOL    HW215972   4.656   4.286   6.838
 5025SOL     OW15973   4.985   1.795   4.754
 5025SOL    HW115974   4.938   1.815   4.839
 5025SOL    HW215975   4.938   1.720   4.706
 5026SOL     OW15976   5.134   6.100   4.867
 5026SOL    HW115977   5.222   6.145   4.852
 5026SOL    HW215978   5.131   6.061   4.959
 5027SOL     OW15979   4.996   6.715   0.847
 5027SOL    HW115980   5.007   6.629   0.896
 5027SOL    HW215981   4.902   6.721   0.812
 5028SOL     OW15982   6.602   1.449   2.627
 5028SOL    HW115983   6.565   1.357   2.614
 5028SOL    HW215984   6.584   1.479   2.721
 5029SOL     OW15985   5.325   2.921   2.135
 5029SOL    HW115986   5.287   2.966   2.053
 5029SOL    HW215987   5.418   2.955   2.151
 5030SOL     OW15988   0.272   3.086   0.892
 5030SOL    HW115989   0.272   3.025   0.813
 5030SOL    HW215990   0.217   3.045   0.965
 5031SOL     OW15991   6.527   0.225   5.974
 5031SOL    HW115992   6.435   0.223   6.013
 5031SOL    HW215993   6.577   0.143   6.002
 5032SOL     OW15994   2.657   4.311   6.261
 5032SOL    HW115995   2.618   4.253   6.332
 5032SOL    HW215996   2.600   4.306   6.179
 5033SOL     OW15997   1.814   6.398   5.132
 5033SOL    HW115998   1.718   6.388   5.105
 5033SOL    HW215999   1.871   6.340   5.073
 5034SOL     OW16000   4.077   5.700   3.676
 5034SOL    HW116001   4.087   5.774   3.610
 5034SOL    HW216002   3.993   5.649   3.657
 5035SOL     OW16003   2.094   3.404   3.396
 5035SOL    HW116004   2.129   3.497   3.399
 5035SOL    HW216005   2.169   3.340   3.415
 5036SOL     OW16006   1.227   3.368   4.609
 5036SOL    HW116007   1.297   3.372   4.538
 5036SOL    HW216008   1.141   3.407   4.573
 5037SOL     OW16009   5.299   4.796   0.937
 5037SOL    HW116010   5.205   4.785   0.969
 5037SOL    HW216011   5.334   4.708   0.906
 5038SOL     OW16012   2.908   3.752   4.368
 5038SOL    HW116013   2.980   3.751   4.298
 5038SOL    HW216014   2.933   3.815   4.441
 5039SOL     OW16015   0.893   3.471   6.960
 5039SOL    HW116016   0.807   3.420   6.950
 5039SOL    HW216017   0.970   3.407   6.956
 5040SOL     OW16018   0.626   1.720   5.396
 5040SOL    HW116019   0.589   1.627   5.393
 5040SOL    HW216020   0.563   1.780   5.446
 5041SOL     OW16021   7.002   2.220   1.824
 5041SOL    HW116022   0.037   2.250   1.749
 5041SOL    HW216023   6.921   2.280   1.828
 5042SOL     OW16024   1.092   2.002   5.870
 5042SOL    HW116025   1.106   1.964   5.778
 5042SOL    HW216026   1.026   1.945   5.920
 5043SOL     OW16027   2.965   6.571   1.761
 5043SOL    HW116028   3.062   6.554   1.746
 5043SOL    HW216029   2.951   6.608   1.853
 5044SOL     OW16030   0.182   6.034   0.373
 5044SOL    HW116031   0.239   6.109   0.339
 5044SOL    HW216032   0.197   6.022   0.471
 5045SOL     OW16033   5.681   2.809   1.335
 5045SOL    HW116034   5.626   2.858   1.267
 5045SOL    HW216035   5.777   2.809   1.307
 5046SOL     OW16036   3.992   3.102   2.287
 5046SOL    HW116037   3.923   3.030   2.279
 5046SOL    HW216038   4.044   3.109   2.201
 5047SOL     OW16039   1.642   4.165   3.722
 5047SOL    HW116040   1.597   4.123   3.802
 5047SOL    HW216041   1.612   4.118   3.639
 5048SOL     OW16042   2.526   0.312   5.687
 5048SOL    HW116043   2.537   0.374   5.765
 5048SOL    HW216044   2.463   0.238   5.712
 5049SOL     OW16045   3.912   1.562   6.802
 5049SOL    HW116046   3.944   1.488   6.861
 5049SOL    HW216047   3.991   1.608   6.761
 5050SOL     OW16048   1.420   0.601   0.575
 5050SOL    HW116049   1.429   0.568   0.669
 5050SOL    HW216050   1.457   0.693   0.568
 5051SOL     OW16051   4.545   4.814   0.821
 5051SOL    HW116052   4.497   4.742   0.771
 5051SOL    HW216053   4.497   4.832   0.907
 5052SOL     OW16054   2.151   3.414   4.412
 5052SOL    HW116055   2.173   3.461   4.497
 5052SOL    HW216056   2.170   3.474   4.334
 5053SOL     OW16057   6.582   0.330   0.830
 5053SOL    HW116058   6.567   0.361   0.924
 5053SOL    HW216059   6.549   0.237   0.820
 5054SOL     OW16060   4.443   5.477   3.669
 5054SOL    HW116061   4.418   5.497   3.764
 5054SOL    HW216062   4.532   5.431   3.667
 5055SOL     OW16063   0.170   4.128   5.494
 5055SOL    HW116064   0.171   4.223   5.464
 5055SOL    HW216065   0.112   4.074   5.433
 5056SOL     OW16066   6.588   4.589   3.214
 5056SOL    HW116067   6.560   4.530   3.138
 5056SOL    HW216068   6.564   4.545   3.300
 5057SOL     OW16069   0.311   6.163   2.258
 5057SOL    HW116070   0.281   6.252   2.291
 5057SOL    HW216071   0.233   6.112   2.222
 5058SOL     OW16072   2.646   5.905   5.791
 5058SOL    HW116073   2.589   5.823   5.790
 5058SOL    HW216074   2.722   5.892   5.854
 5059SOL     OW16075   6.706   0.501   1.789
 5059SOL    HW116076   6.703   0.401   1.783
 5059SOL    HW216077   6.799   0.532   1.770
 5060SOL     OW16078   0.276   2.538   6.380
 5060SOL    HW116079   0.275   2.439   6.393
 5060SOL    HW216080   0.182   2.572   6.370
 5061SOL     OW16081   5.870   3.113   0.650
 5061SOL    HW116082   5.875   3.165   0.736
 5061SOL    HW216083   5.774   3.106   0.621
 5062SOL     OW16084   6.360   0.121   0.182
 5062SOL    HW116085   6.442   0.177   0.188
 5062SOL    HW216086   6.310   0.126   0.269
 5063SOL     OW16087   1.133   6.467   2.708
 5063SOL    HW116088   1.227   6.477   2.741
 5063SOL    HW216089   1.069   6.484   2.783
 5064SOL     OW16090   5.147   3.995   6.952
 5064SOL    HW116091   5.099   3.921   6.904
 5064SOL    HW216092   5.106   4.082   6.927
 5065SOL     OW16093   2.972   6.666   6.291
 5065SOL    HW116094   2.978   6.715   6.204
 5065SOL    HW216095   2.886   6.614   6.294
 5066SOL     OW16096   4.671   4.868   0.395
 5066SOL    HW116097   4.697   4.868   0.298
 5066SOL    HW216098   4.571   4.877   0.402
 5067SOL     OW16099   5.447   1.275   6.559
 5067SOL    HW116100   5.371   1.235   6.610
 5067SOL    HW216101   5.452   1.234   6.468
 5068SOL     OW16102   3.719   4.828   0.976
 5068SOL    HW116103   3.689   4.771   0.900
 5068SOL    HW216104   3.746   4.770   1.053
 5069SOL     OW16105   6.740   5.235   3.009
 5069SOL    HW116106   6.684   5.313   3.039
 5069SOL    HW216107   6.683   5.169   2.961
 5070SOL     OW16108   5.068   2.428   3.762
 5070SOL    HW116109   5.159   2.403   3.796
 5070SOL    HW216110   5.075   2.458   3.667
 5071SOL     OW16111   5.280   1.134   1.264
 5071SOL    HW116112   5.265   1.215   1.321
 5071SOL    HW216113   5.201   1.120   1.205
 5072SOL     OW16114   0.756   3.626   1.448
 5072SOL    HW116115   0.704   3.554   1.402
 5072SOL    HW216116   0.696   3.673   1.514
 5073SOL     OW16117   3.469   2.112   3.404
 5073SOL    HW116118   3.471   2.116   3.503
 5073SOL    HW216119   3.560   2.085   3.370
 5074SOL     OW16120   4.210   4.309   5.304
 5074SOL    HW116121   4.159   4.225   5.290
 5074SOL    HW216122   4.228   4.352   5.216
 5075SOL     OW16123   0.377   0.003   3.890
 5075SOL    HW116124   0.278   0.003   3.879
 5075SOL    HW216125   0.416   0.084   3.845
 5076SOL     OW16126   4.843   0.652   1.158
 5076SOL    HW116127   4.801   0.724   1.103
 5076SOL    HW216128   4.936   0.635   1.126
 5077SOL     OW16129   6.520   2.573   2.833
 5077SOL    HW116130   6.515   2.672   2.844
 5077SOL    HW216131   6.583   2.551   2.758
 5078SOL     OW16132   0.250   1.081   4.683
 5078SOL    HW116133   0.292   1.018   4.618
 5078SOL    HW216134   0.180   1.033   4.736
 5079SOL     OW16135   4.730   4.869   4.812
 5079SOL    HW116136   4.632   4.855   4.796
 5079SOL    HW216137   4.753   4.834   4.903
 5080SOL     OW16138   5.825   1.065   6.411
 5080SOL    HW116139   5.882   1.144   6.433
 5080SOL    HW216140   5.790   1.074   6.317
 5081SOL     OW16141   3.193   2.955   3.097
 5081SOL    HW116142   3.246   2.893   3.156
 5081SOL    HW216143   3.161   3.033   3.151
 5082SOL     OW16144   1.022   1.428   5.535
 5082SOL    HW116145   1.041   1.483   5.617
 5082SOL    HW216146   0.931   1.386   5.543
 5083SOL     OW16147   0.886   3.956   1.690
 5083SOL    HW116148   0.916   3.884   1.753
 5083SOL    HW216149   0.961   4.020   1.674
 5084SOL     OW16150   1.260   5.646   2.121
 5084SOL    HW116151   1.359   5.641   2.110
 5084SOL    HW216152   1.218   5.673   2.035
 5085SOL     OW16153   6.445   4.190   0.159
 5085SOL    HW116154   6.499   4.165   0.078
 5085SOL    HW216155   6.506   4.198   0.238
 5086SOL     OW16156   6.146   5.543   4.974
 5086SOL    HW116157   6.187   5.493   4.898
 5086SOL    HW216158   6.089   5.618   4.939
 5087SOL     OW16159   5.207   5.278   5.286
 5087SOL    HW116160   5.234   5.355   5.227
 5087SOL    HW216161   5.282   5.211   5.289
 5088SOL     OW16162   6.324   1.034   6.912
 5088SOL    HW116163   6.239   1.083   6.893
 5088SOL    HW216164   6.329   0.952   6.855
 5089SOL     OW16165   5.409   2.398   4.247
 5089SOL    HW116166   5.365   2.370   4.161
 5089SOL    HW216167   5.481   2.464   4.227
 5090SOL     OW16168   1.428   5.140   0.306
 5090SOL    HW116169   1.371   5.213   0.268
 5090SOL    HW216170   1.396   5.052   0.273
 5091SOL     OW16171   0.747   6.135   3.534
 5091SOL    HW116172   0.658   6.174   3.558
 5091SOL    HW216173   0.817   6.175   3.593
 5092SOL     OW16174   3.430   2.844   1.350
 5092SOL    HW116175   3.438   2.745   1.350
 5092SOL    HW216176   3.409   2.876   1.443
 5093SOL     OW16177   0.822   1.095   1.808
 5093SOL    HW116178   0.878   1.013   1.791
 5093SOL    HW216179   0.734   1.067   1.847
 5094SOL     OW16180   0.211   0.205   6.439
 5094SOL    HW116181   0.232   0.120   6.488
 5094SOL    HW216182   0.238   0.196   6.343
 5095SOL     OW16183   3.218   0.617   5.439
 5095SOL    HW116184   3.258   0.572   5.520
 5095SOL    HW216185   3.168   0.549   5.385
 5096SOL     OW16186   3.400   6.073   2.437
 5096SOL    HW116187   3.433   6.006   2.504
 5096SOL    HW216188   3.452   6.158   2.445
 5097SOL     OW16189   1.299   1.915   6.729
 5097SOL    HW116190   1.246   1.915   6.815
 5097SOL    HW216191   1.386   1.868   6.744
 5098SOL     OW16192   0.461   2.356   2.982
 5098SOL    HW116193   0.442   2.309   3.068
 5098SOL    HW216194   0.524   2.432   2.999
 5099SOL     OW16195   0.327   1.093   4.244
 5099SOL    HW116196   0.367   1.082   4.152
 5099SOL    HW216197   0.296   1.187   4.255
 5100SOL     OW16198   4.598   4.986   5.708
 5100SOL    HW116199   4.687   5.012   5.745
 5100SOL    HW216200   4.611   4.935   5.623
 5101SOL     OW16201   5.631   6.282   0.708
 5101SOL    HW116202   5.693   6.207   0.730
 5101SOL    HW216203   5.538   6.246   0.695
 5102SOL     OW16204   3.070   5.582   3.756
 5102SOL    HW116205   3.036   5.488   3.744
 5102SOL    HW216206   3.149   5.581   3.818
 5103SOL     OW16207   1.278   1.519   3.785
 5103SOL    HW116208   1.369   1.555   3.763
 5103SOL    HW216209   1.208   1.584   3.755
 5104SOL     OW16210   0.960   0.730   0.560
 5104SOL    HW116211   0.974   0.632   0.573
 5104SOL    HW216212   1.046   0.772   0.529
 5105SOL     OW16213   1.324   2.993   6.713
 5105SOL    HW116214   1.408   3.037   6.681
 5105SOL    HW216215   1.304   2.915   6.654
 5106SOL     OW16216   2.208   6.921   2.332
 5106SOL    HW116217   2.293   6.871   2.345
 5106SOL    HW216218   2.217   6.982   2.253
 5107SOL     OW16219   2.077   6.712   6.318
 5107SOL    HW116220   2.017   6.771   6.372
 5107SOL    HW216221   2.075   6.619   6.355
 5108SOL     OW16222   3.825   3.866   4.689
 5108SOL    HW116223   3.785   3.954   4.662
 5108SOL    HW216224   3.756   3.810   4.735
 5109SOL     OW16225   0.243   2.106   3.068
 5109SOL    HW116226   0.310   2.146   3.130
 5109SOL    HW216227   0.218   2.173   2.998
 5110SOL     OW16228   2.250   6.297   5.464
 5110SOL    HW116229   2.294   6.317   5.551
 5110SOL    HW216230   2.291   6.353   5.392
 5111SOL     OW16231   1.309   0.449   6.646
 5111SOL    HW116232   1.346   0.518   6.709
 5111SOL    HW216233   1.372   0.372   6.639
 5112SOL     OW16234   0.322   0.197   2.851
 5112SOL    HW116235   0.389   0.167   2.918
 5112SOL    HW216236   0.239   0.141   2.859
 5113SOL     OW16237   0.468   1.238   6.540
 5113SOL    HW116238   0.400   1.189   6.485
 5113SOL    HW216239   0.560   1.214   6.508
 5114SOL     OW16240   4.909   5.852   6.455
 5114SOL    HW116241   4.938   5.765   6.495
 5114SOL    HW216242   4.885   5.838   6.359
 5115SOL     OW16243   2.559   3.902   5.369
 5115SOL    HW116244   2.642   3.874   5.321
 5115SOL    HW216245   2.492   3.935   5.303
 5116SOL     OW16246   6.935   3.889   1.235
 5116SOL    HW116247   6.905   3.923   1.145
 5116SOL    HW216248   6.949   3.966   1.297
 5117SOL     OW16249   2.584   5.218   3.043
 5117SOL    HW116250   2.564   5.302   3.093
 5117SOL    HW216251   2.627   5.241   2.956
 5118SOL     OW16252   4.171   0.134   1.353
 5118SOL    HW116253   4.219   0.214   1.389
 5118SOL    HW216254   4.233   0.082   1.294
 5119SOL     OW16255   6.156   0.652   2.134
 5119SOL    HW116256   6.187   0.560   2.155
 5119SOL    HW216257   6.200   0.683   2.049
 5120SOL     OW16258   3.314   1.626   1.788
 5120SOL    HW116259   3.214   1.623   1.785
 5120SOL    HW216260   3.349   1.542   1.831
 5121SOL     OW16261   0.483   4.021   4.045
 5121SOL    HW116262   0.508   3.925   4.034
 5121SOL    HW216263   0.390   4.029   4.080
 5122SOL     OW16264   2.060   5.553   3.045
 5122SOL    HW116265   2.055   5.580   2.949
 5122SOL    HW216266   2.075   5.634   3.103
 5123SOL     OW16267   6.164   3.122   2.611
 5123SOL    HW116268   6.198   3.210   2.646
 5123SOL    HW216269   6.078   3.137   2.562
 5124SOL     OW16270   3.233   5.957   0.624
 5124SOL    HW116271   3.317   5.904   0.610
 5124SOL    HW216272   3.217   5.968   0.722
 5125SOL     OW16273   0.771   1.840   6.096
 5125SOL    HW116274   0.732   1.918   6.146
 5125SOL    HW216275   0.698   1.790   6.051
 5126SOL     OW16276   4.421   1.677   0.420
 5126SOL    HW116277   4.323   1.673   0.440
 5126SOL    HW216278   4.438   1.745   0.348
 5127SOL     OW16279   4.689   3.634   6.560
 5127SOL    HW116280   4.611   3.596   6.510
 5127SOL    HW216281   4.659   3.709   6.617
 5128SOL     OW16282   0.254   0.653   6.364
 5128SOL    HW116283   0.279   0.587   6.435
 5128SOL    HW216284   0.336   0.701   6.333
 5129SOL     OW16285   4.789   2.753   3.943
 5129SOL    HW116286   4.712   2.738   4.006
 5129SOL    HW216287   4.787   2.847   3.910
 5130SOL     OW16288   2.481   6.435   4.667
 5130SOL    HW116289   2.438   6.500   4.604
 5130SOL    HW216290   2.410   6.393   4.724
 5131SOL     OW16291   3.251   4.912   2.970
 5131SOL    HW116292   3.289   4.937   3.059
 5131SOL    HW216293   3.165   4.962   2.955
 5132SOL     OW16294   3.715   1.931   6.184
 5132SOL    HW116295   3.629   1.882   6.179
 5132SOL    HW216296   3.700   2.021   6.225
 5133SOL     OW16297   4.135   4.480   6.002
 5133SOL    HW116298   4.047   4.489   5.956
 5133SOL    HW216299   4.209   4.480   5.935
 5134SOL     OW16300   6.047   6.042   0.642
 5134SOL    HW116301   6.068   5.986   0.562
 5134SOL    HW216302   6.071   5.992   0.725
 5135SOL     OW16303   0.583   2.986   2.269
 5135SOL    HW116304   0.583   3.047   2.348
 5135SOL    HW216305   0.514   2.914   2.282
 5136SOL     OW16306   0.140   0.062   4.256
 5136SOL    HW116307   0.226   0.071   4.307
 5136SOL    HW216308   0.064   0.088   4.316
 5137SOL     OW16309   5.797   0.704   2.750
 5137SOL    HW116310   5.768   0.784   2.698
 5137SOL    HW216311   5.717   0.661   2.792
 5138SOL     OW16312   3.201   3.585   2.829
 5138SOL    HW116313   3.262   3.663   2.846
 5138SOL    HW216314   3.225   3.511   2.892
 5139SOL     OW16315   5.007   0.488   4.901
 5139SOL    HW116316   5.058   0.560   4.854
 5139SOL    HW216317   5.064   0.447   4.972
 5140SOL     OW16318   2.794   3.709   5.994
 5140SOL    HW116319   2.759   3.737   5.905
 5140SOL    HW216320   2.893   3.723   5.997
 5141SOL     OW16321   1.125   3.046   1.124
 5141SOL    HW116322   1.225   3.036   1.121
 5141SOL    HW216323   1.083   2.958   1.146
 5142SOL     OW16324   0.375   6.861   2.452
 5142SOL    HW116325   0.436   6.884   2.376
 5142SOL    HW216326   0.386   6.928   2.526
 5143SOL     OW16327   6.226   6.737   2.746
 5143SOL    HW116328   6.314   6.755   2.702
 5143SOL    HW216329   6.168   6.686   2.683
 5144SOL     OW16330   2.152   2.990   5.448
 5144SOL    HW116331   2.116   2.924   5.381
 5144SOL    HW216332   2.193   3.067   5.399
 5145SOL     OW16333   1.370   5.425   5.558
 5145SOL    HW116334   1.352   5.440   5.655
 5145SOL    HW216335   1.407   5.333   5.544
 5146SOL     OW16336   5.608   6.025   6.775
 5146SOL    HW116337   5.686   5.963   6.762
 5146SOL    HW216338   5.618   6.073   6.862
 5147SOL     OW16339   5.078   1.328   3.205
 5147SOL    HW116340   5.144   1.393   3.168
 5147SOL    HW216341   5.011   1.377   3.261
 5148SOL     OW16342   5.789   1.733   0.774
 5148SOL    HW116343   5.703   1.749   0.726
 5148SOL    HW216344   5.862   1.785   0.730
 5149SOL     OW16345   3.107   6.089   3.720
 5149SOL    HW116346   3.137   6.077   3.626
 5149SOL    HW216347   3.118   6.185   3.747
 5150SOL     OW16348   6.751   0.731   3.793
 5150SOL    HW116349   6.773   0.829   3.788
 5150SOL    HW216350   6.764   0.698   3.886
 5151SOL     OW16351   5.427   4.566   2.078
 5151SOL    HW116352   5.392   4.480   2.114
 5151SOL    HW216353   5.527   4.566   2.083
 5152SOL     OW16354   2.232   1.607   0.266
 5152SOL    HW116355   2.307   1.653   0.313
 5152SOL    HW216356   2.178   1.674   0.215
 5153SOL     OW16357   2.568   2.407   0.078
 5153SOL    HW116358   2.596   2.463   0.000
 5153SOL    HW216359   2.635   2.333   0.091
 5154SOL     OW16360   0.527   2.737   0.310
 5154SOL    HW116361   0.542   2.781   0.399
 5154SOL    HW216362   0.443   2.771   0.270
 5155SOL     OW16363   1.553   0.798   0.150
 5155SOL    HW116364   1.560   0.822   0.053
 5155SOL    HW216365   1.640   0.819   0.195
 5156SOL     OW16366   5.520   5.279   6.352
 5156SOL    HW116367   5.618   5.296   6.359
 5156SOL    HW216368   5.493   5.211   6.421
 5157SOL     OW16369   3.368   1.358   1.856
 5157SOL    HW116370   3.314   1.285   1.897
 5157SOL    HW216371   3.353   1.359   1.757
 5158SOL     OW16372   1.389   2.774   2.644
 5158SOL    HW116373   1.296   2.800   2.615
 5158SOL    HW216374   1.383   2.710   2.720
 5159SOL     OW16375   6.575   2.890   5.219
 5159SOL    HW116376   6.482   2.927   5.219
 5159SOL    HW216377   6.627   2.932   5.293
 5160SOL     OW16378   6.913   0.213   3.199
 5160SOL    HW116379   6.899   0.311   3.213
 5160SOL    HW216380   6.886   0.189   3.106
 5161SOL     OW16381   1.076   1.787   6.653
 5161SOL    HW116382   1.085   1.688   6.656
 5161SOL    HW216383   1.160   1.829   6.688
 5162SOL     OW16384   0.216   6.761   5.672
 5162SOL    HW116385   0.232   6.859   5.681
 5162SOL    HW216386   0.224   6.734   5.576
 5163SOL     OW16387   3.085   0.839   1.420
 5163SOL    HW116388   3.141   0.919   1.440
 5163SOL    HW216389   2.994   0.851   1.461
 5164SOL     OW16390   2.528   3.094   0.407
 5164SOL    HW116391   2.431   3.094   0.387
 5164SOL    HW216392   2.554   3.006   0.446
 5165SOL     OW16393   1.171   5.067   5.438
 5165SOL    HW116394   1.117   5.068   5.523
 5165SOL    HW216395   1.211   5.157   5.423
 5166SOL     OW16396   6.694   6.029   5.659
 5166SOL    HW116397   6.748   6.110   5.635
 5166SOL    HW216398   6.600   6.039   5.625
 5167SOL     OW16399   6.355   3.650   6.060
 5167SOL    HW116400   6.308   3.700   6.133
 5167SOL    HW216401   6.340   3.552   6.072
 5168SOL     OW16402   5.016   1.835   3.420
 5168SOL    HW116403   5.029   1.743   3.456
 5168SOL    HW216404   5.104   1.882   3.415
 5169SOL     OW16405   4.850   5.479   4.384
 5169SOL    HW116406   4.770   5.504   4.329
 5169SOL    HW216407   4.914   5.426   4.328
 5170SOL     OW16408   2.398   3.596   6.152
 5170SOL    HW116409   2.497   3.602   6.145
 5170SOL    HW216410   2.356   3.638   6.071
 5171SOL     OW16411   2.411   6.532   5.799
 5171SOL    HW116412   2.418   6.552   5.896
 5171SOL    HW216413   2.346   6.595   5.756
 5172SOL     OW16414   5.531   5.454   6.008
 5172SOL    HW116415   5.536   5.355   5.995
 5172SOL    HW216416   5.595   5.481   6.080
 5173SOL     OW16417   3.734   5.987   3.874
 5173SOL    HW116418   3.672   5.934   3.816
 5173SOL    HW216419   3.687   6.067   3.910
 5174SOL     OW16420   0.723   5.844   3.132
 5174SOL    HW116421   0.801   5.847   3.070
 5174SOL    HW216422   0.666   5.925   3.118
 5175SOL     OW16423   3.129   1.555   6.631
 5175SOL    HW116424   3.054   1.526   6.690
 5175SOL    HW216425   3.126   1.502   6.546
 5176SOL     OW16426   5.761   6.473   6.335
 5176SOL    HW116427   5.818   6.537   6.387
 5176SOL    HW216428   5.737   6.395   6.393
 5177SOL     OW16429   5.634   5.801   0.727
 5177SOL    HW116430   5.570   5.754   0.666
 5177SOL    HW216431   5.588   5.822   0.813
 5178SOL     OW16432   0.599   3.868   0.926
 5178SOL    HW116433   0.577   3.777   0.890
 5178SOL    HW216434   0.571   3.873   1.022
 5179SOL     OW16435   4.060   5.190   2.798
 5179SOL    HW116436   4.039   5.162   2.892
 5179SOL    HW216437   3.990   5.252   2.765
 5180SOL     OW16438   2.718   5.154   1.947
 5180SOL    HW116439   2.628   5.176   1.909
 5180SOL    HW216440   2.712   5.069   2.000
 5181SOL     OW16441   6.713   1.643   5.722
 5181SOL    HW116442   6.635   1.705   5.727
 5181SOL    HW216443   6.686   1.559   5.676
 5182SOL     OW16444   1.964   6.298   2.058
 5182SOL    HW116445   1.872   6.327   2.081
 5182SOL    HW216446   1.969   6.279   1.959
 5183SOL     OW16447   5.475   2.054   3.270
 5183SOL    HW116448   5.532   2.133   3.294
 5183SOL    HW216449   5.514   1.971   3.309
 5184SOL     OW16450   2.986   1.276   2.524
 5184SOL    HW116451   2.899   1.320   2.499
 5184SOL    HW216452   3.057   1.345   2.533
 5185SOL     OW16453   6.425   0.145   1.518
 5185SOL    HW116454   6.454   0.240   1.529
 5185SOL    HW216455   6.329   0.142   1.492
 5186SOL     OW16456   5.945   2.473   6.709
 5186SOL    HW116457   6.007   2.551   6.715
 5186SOL    HW216458   5.866   2.488   6.769
 5187SOL     OW16459   1.351   4.569   4.759
 5187SOL    HW116460   1.353   4.666   4.731
 5187SOL    HW216461   1.432   4.523   4.725
 5188SOL     OW16462   0.083   0.015   1.653
 5188SOL    HW116463   0.035   0.089   1.605
 5188SOL    HW216464   0.180   0.018   1.629
 5189SOL     OW16465   5.343   5.883   6.750
 5189SOL    HW116466   5.438   5.864   6.726
 5189SOL    HW216467   5.339   5.961   6.812
 5190SOL     OW16468   1.459   4.879   0.918
 5190SOL    HW116469   1.439   4.795   0.868
 5190SOL    HW216470   1.513   4.941   0.860
 5191SOL     OW16471   2.796   4.149   1.617
 5191SOL    HW116472   2.758   4.110   1.534
 5191SOL    HW216473   2.848   4.079   1.666
 5192SOL     OW16474   0.689   4.457   2.951
 5192SOL    HW116475   0.696   4.359   2.971
 5192SOL    HW216476   0.610   4.473   2.892
 5193SOL     OW16477   3.948   0.263   4.779
 5193SOL    HW116478   3.982   0.222   4.864
 5193SOL    HW216479   3.960   0.198   4.704
 5194SOL     OW16480   4.702   1.478   5.221
 5194SOL    HW116481   4.613   1.518   5.201
 5194SOL    HW216482   4.739   1.520   5.304
 5195SOL     OW16483   1.833   1.332   5.503
 5195SOL    HW116484   1.782   1.364   5.583
 5195SOL    HW216485   1.918   1.287   5.534
 5196SOL     OW16486   5.783   6.328   3.205
 5196SOL    HW116487   5.810   6.264   3.278
 5196SOL    HW216488   5.795   6.284   3.116
 5197SOL     OW16489   1.926   4.017   5.087
 5197SOL    HW116490   1.847   4.063   5.046
 5197SOL    HW216491   1.961   3.948   5.023
 5198SOL     OW16492   6.512   5.821   3.849
 5198SOL    HW116493   6.586   5.889   3.846
 5198SOL    HW216494   6.433   5.855   3.799
 5199SOL     OW16495   0.920   5.437   1.247
 5199SOL    HW116496   0.872   5.350   1.233
 5199SOL    HW216497   0.857   5.502   1.289
 5200SOL     OW16498   6.407   3.911   5.206
 5200SOL    HW116499   6.340   3.897   5.278
 5200SOL    HW216500   6.496   3.932   5.246
 5201SOL     OW16501   0.684   6.132   5.000
 5201SOL    HW116502   0.696   6.034   5.012
 5201SOL    HW216503   0.765   6.180   5.034
 5202SOL     OW16504   0.209   4.232   1.625
 5202SOL    HW116505   0.200   4.148   1.570
 5202SOL    HW216506   0.215   4.311   1.563
 5203SOL     OW16507   6.539   3.308   6.565
 5203SOL    HW116508   6.602   3.231   6.553
 5203SOL    HW216509   6.526   3.326   6.662
 5204SOL     OW16510   5.159   5.489   6.516
 5204SOL    HW116511   5.072   5.484   6.466
 5204SOL    HW216512   5.155   5.566   6.580
 5205SOL     OW16513   2.606   5.807   0.338
 5205SOL    HW116514   2.565   5.878   0.281
 5205SOL    HW216515   2.681   5.846   0.392
 5206SOL     OW16516   0.476   4.494   4.997
 5206SOL    HW116517   0.478   4.589   5.028
 5206SOL    HW216518   0.469   4.434   5.076
 5207SOL     OW16519   1.531   5.720   1.900
 5207SOL    HW116520   1.533   5.725   2.000
 5207SOL    HW216521   1.621   5.744   1.864
 5208SOL     OW16522   4.624   1.516   6.959
 5208SOL    HW116523   4.686   1.480   0.005
 5208SOL    HW216524   4.675   1.578   6.899
 5209SOL     OW16525   6.014   5.029   3.015
 5209SOL    HW116526   5.995   4.937   3.050
 5209SOL    HW216527   6.109   5.054   3.037
 5210SOL     OW16528   5.173   3.968   3.494
 5210SOL    HW116529   5.123   3.927   3.570
 5210SOL    HW216530   5.136   3.934   3.408
 5211SOL     OW16531   3.284   3.820   2.529
 5211SOL    HW116532   3.354   3.825   2.600
 5211SOL    HW216533   3.193   3.821   2.570
 5212SOL     OW16534   0.709   0.191   6.494
 5212SOL    HW116535   0.645   0.196   6.571
 5212SOL    HW216536   0.737   0.095   6.481
 5213SOL     OW16537   5.117   2.056   6.121
 5213SOL    HW116538   5.030   2.031   6.162
 5213SOL    HW216539   5.178   1.976   6.123
 5214SOL     OW16540   4.405   1.898   0.249
 5214SOL    HW116541   4.483   1.925   0.193
 5214SOL    HW216542   4.399   1.958   0.329
 5215SOL     OW16543   5.841   5.509   4.004
 5215SOL    HW116544   5.807   5.467   4.088
 5215SOL    HW216545   5.940   5.520   4.010
 5216SOL     OW16546   4.141   6.082   1.267
 5216SOL    HW116547   4.140   6.071   1.366
 5216SOL    HW216548   4.206   6.018   1.227
 5217SOL     OW16549   3.199   4.893   3.736
 5217SOL    HW116550   3.170   4.829   3.808
 5217SOL    HW216551   3.140   4.974   3.738
 5218SOL     OW16552   1.638   0.353   3.301
 5218SOL    HW116553   1.675   0.262   3.280
 5218SOL    HW216554   1.695   0.422   3.257
 5219SOL     OW16555   3.150   0.157   1.123
 5219SOL    HW116556   3.190   0.066   1.125
 5219SOL    HW216557   3.199   0.216   1.188
 5220SOL     OW16558   1.020   6.688   2.551
 5220SOL    HW116559   0.928   6.694   2.589
 5220SOL    HW216560   1.063   6.603   2.582
 5221SOL     OW16561   4.506   0.879   0.292
 5221SOL    HW116562   4.546   0.792   0.261
 5221SOL    HW216563   4.576   0.950   0.291
 5222SOL     OW16564   0.731   6.501   2.568
 5222SOL    HW116565   0.725   6.601   2.568
 5222SOL    HW216566   0.638   6.463   2.565
 5223SOL     OW16567   4.162   6.785   1.405
 5223SOL    HW116568   4.162   6.763   1.502
 5223SOL    HW216569   4.073   6.821   1.379
 5224SOL     OW16570   5.587   0.902   3.799
 5224SOL    HW116571   5.634   0.990   3.795
 5224SOL    HW216572   5.652   0.829   3.783
 5225SOL     OW16573   0.428   6.957   5.227
 5225SOL    HW116574   0.484   6.904   5.164
 5225SOL    HW216575   0.410   0.023   5.188
 5226SOL     OW16576   2.527   0.746   3.921
 5226SOL    HW116577   2.522   0.812   3.997
 5226SOL    HW216578   2.448   0.685   3.926
 5227SOL     OW16579   5.107   3.526   4.744
 5227SOL    HW116580   5.037   3.459   4.767
 5227SOL    HW216581   5.197   3.492   4.772
 5228SOL     OW16582   4.897   0.062   1.400
 5228SOL    HW116583   4.803   0.093   1.387
 5228SOL    HW216584   4.955   0.140   1.423
 5229SOL     OW16585   0.497   4.187   3.441
 5229SOL    HW116586   0.523   4.161   3.348
 5229SOL    HW216587   0.414   4.139   3.468
 5230SOL     OW16588   0.469   1.618   6.443
 5230SOL    HW116589   0.511   1.705   6.469
 5230SOL    HW216590   0.376   1.613   6.480
 5231SOL     OW16591   2.929   3.529   3.868
 5231SOL    HW116592   2.894   3.527   3.962
 5231SOL    HW216593   2.965   3.439   3.844
 5232SOL     OW16594   5.138   2.902   4.730
 5232SOL    HW116595   5.083   2.985   4.723
 5232SOL    HW216596   5.216   2.918   4.792
 5233SOL     OW16597   0.857   6.859   2.941
 5233SOL    HW116598   0.863   6.813   3.030
 5233SOL    HW216599   0.936   6.920   2.930
 5234SOL     OW16600   4.099   4.700   1.225
 5234SOL    HW116601   4.160   4.696   1.305
 5234SOL    HW216602   4.154   4.703   1.142
 5235SOL     OW16603   1.073   2.561   1.850
 5235SOL    HW116604   1.108   2.470   1.830
 5235SOL    HW216605   1.060   2.571   1.949
 5236SOL     OW16606   6.268   3.458   0.308
 5236SOL    HW116607   6.274   3.545   0.260
 5236SOL    HW216608   6.343   3.398   0.279
 5237SOL     OW16609   1.843   2.089   2.809
 5237SOL    HW116610   1.847   2.097   2.909
 5237SOL    HW216611   1.924   2.041   2.776
 5238SOL     OW16612   2.290   3.139   0.669
 5238SOL    HW116613   2.361   3.179   0.612
 5238SOL    HW216614   2.328   3.063   0.721
 5239SOL     OW16615   2.842   3.408   5.366
 5239SOL    HW116616   2.937   3.384   5.346
 5239SOL    HW216617   2.783   3.329   5.350
 5240SOL     OW16618   3.832   2.123   4.787
 5240SOL    HW116619   3.916   2.178   4.784
 5240SOL    HW216620   3.770   2.152   4.714
 5241SOL     OW16621   3.763   5.795   5.347
 5241SOL    HW116622   3.776   5.698   5.368
 5241SOL    HW216623   3.841   5.847   5.381
 5242SOL     OW16624   3.958   0.148   5.552
 5242SOL    HW116625   3.998   0.209   5.620
 5242SOL    HW216626   4.011   0.062   5.549
 5243SOL     OW16627   1.321   3.696   0.459
 5243SOL    HW116628   1.287   3.753   0.534
 5243SOL    HW216629   1.273   3.609   0.458
 5244SOL     OW16630   5.675   3.716   7.001
 5244SOL    HW116631   5.695   3.764   6.915
 5244SOL    HW216632   5.577   3.719   7.018
 5245SOL     OW16633   4.614   3.797   5.824
 5245SOL    HW116634   4.701   3.750   5.840
 5245SOL    HW216635   4.544   3.731   5.798
 5246SOL     OW16636   1.256   3.545   3.323
 5246SOL    HW116637   1.334   3.483   3.314
 5246SOL    HW216638   1.193   3.509   3.392
 5247SOL     OW16639   0.636   4.885   0.335
 5247SOL    HW116640   0.654   4.806   0.394
 5247SOL    HW216641   0.581   4.952   0.385
 5248SOL     OW16642   4.972   1.114   0.115
 5248SOL    HW116643   5.060   1.147   0.080
 5248SOL    HW216644   4.897   1.158   0.065
 5249SOL     OW16645   1.240   5.537   0.074
 5249SOL    HW116646   1.146   5.555   0.047
 5249SOL    HW216647   1.302   5.564   7.024
 5250SOL     OW16648   1.183   1.612   5.719
 5250SOL    HW116649   1.143   1.647   5.635
 5250SOL    HW216650   1.266   1.663   5.742
 5251SOL     OW16651   0.568   2.831   1.088
 5251SOL    HW116652   0.599   2.853   1.180
 5251SOL    HW216653   0.620   2.752   1.053
 5252SOL     OW16654   4.886   6.159   1.080
 5252SOL    HW116655   4.870   6.127   1.174
 5252SOL    HW216656   4.870   6.084   1.016
 5253SOL     OW16657   5.634   2.929   3.691
 5253SOL    HW116658   5.672   2.980   3.768
 5253SOL    HW216659   5.617   2.834   3.719
 5254SOL     OW16660   5.502   0.532   4.294
 5254SOL    HW116661   5.599   0.512   4.307
 5254SOL    HW216662   5.483   0.538   4.196
 5255SOL     OW16663   2.461   5.382   3.276
 5255SOL    HW116664   2.473   5.294   3.321
 5255SOL    HW216665   2.364   5.401   3.263
 5256SOL     OW16666   4.980   6.005   2.111
 5256SOL    HW116667   5.006   6.101   2.118
 5256SOL    HW216668   5.003   5.958   2.196
 5257SOL     OW16669   2.991   1.359   2.933
 5257SOL    HW116670   2.954   1.294   2.999
 5257SOL    HW216671   2.928   1.436   2.922
 5258SOL     OW16672   5.670   1.793   1.580
 5258SOL    HW116673   5.767   1.815   1.587
 5258SOL    HW216674   5.644   1.788   1.483
 5259SOL     OW16675   6.080   4.782   1.851
 5259SOL    HW116676   6.118   4.699   1.811
 5259SOL    HW216677   5.983   4.767   1.872
 5260SOL     OW16678   4.705   2.902   1.667
 5260SOL    HW116679   4.663   2.954   1.741
 5260SOL    HW216680   4.703   2.804   1.689
 5261SOL     OW16681   2.323   2.661   5.339
 5261SOL    HW116682   2.325   2.648   5.240
 5261SOL    HW216683   2.388   2.733   5.364
 5262SOL     OW16684   1.328   0.261   1.721
 5262SOL    HW116685   1.236   0.267   1.758
 5262SOL    HW216686   1.338   0.325   1.645
 5263SOL     OW16687   1.250   6.606   6.847
 5263SOL    HW116688   1.269   6.570   6.755
 5263SOL    HW216689   1.284   6.699   6.854
 5264SOL     OW16690   1.149   0.914   0.845
 5264SOL    HW116691   1.194   1.001   0.862
 5264SOL    HW216692   1.105   0.916   0.755
 5265SOL     OW16693   5.128   4.739   4.257
 5265SOL    HW116694   5.198   4.757   4.327
 5265SOL    HW216695   5.166   4.677   4.188
 5266SOL     OW16696   1.485   0.312   0.933
 5266SOL    HW116697   1.429   0.286   1.011
 5266SOL    HW216698   1.582   0.301   0.957
 5267SOL     OW16699   4.064   4.086   5.212
 5267SOL    HW116700   4.107   4.032   5.283
 5267SOL    HW216701   4.007   4.027   5.155
 5268SOL     OW16702   5.748   5.140   5.640
 5268SOL    HW116703   5.772   5.061   5.696
 5268SOL    HW216704   5.820   5.157   5.573
 5269SOL     OW16705   2.221   5.472   5.469
 5269SOL    HW116706   2.157   5.514   5.534
 5269SOL    HW216707   2.180   5.390   5.430
 5270SOL     OW16708   6.423   2.187   3.451
 5270SOL    HW116709   6.429   2.286   3.436
 5270SOL    HW216710   6.411   2.141   3.363
 5271SOL     OW16711   5.617   3.476   5.455
 5271SOL    HW116712   5.641   3.451   5.361
 5271SOL    HW216713   5.696   3.519   5.499
 5272SOL     OW16714   2.191   2.177   4.020
 5272SOL    HW116715   2.269   2.128   3.981
 5272SOL    HW216716   2.211   2.203   4.115
 5273SOL     OW16717   6.563   0.679   5.834
 5273SOL    HW116718   6.617   0.597   5.814
 5273SOL    HW216719   6.489   0.655   5.898
 5274SOL     OW16720   0.341   5.253   4.378
 5274SOL    HW116721   0.273   5.225   4.445
 5274SOL    HW216722   0.332   5.351   4.359
 5275SOL     OW16723   2.270   6.403   0.090
 5275SOL    HW116724   2.198   6.335   0.080
 5275SOL    HW216725   2.348   6.380   0.031
 5276SOL     OW16726   0.759   0.093   0.266
 5276SOL    HW116727   0.845   0.042   0.266
 5276SOL    HW216728   0.725   0.101   0.173
 5277SOL     OW16729   0.531   1.181   1.569
 5277SOL    HW116730   0.435   1.150   1.568
 5277SOL    HW216731   0.575   1.148   1.652
 5278SOL     OW16732   0.799   4.736   5.898
 5278SOL    HW116733   0.881   4.683   5.922
 5278SOL    HW216734   0.813   4.781   5.810
 5279SOL     OW16735   2.335   6.671   0.076
 5279SOL    HW116736   2.268   6.735   0.114
 5279SOL    HW216737   2.296   6.579   0.073
 5280SOL     OW16738   4.416   6.579   5.674
 5280SOL    HW116739   4.488   6.514   5.647
 5280SOL    HW216740   4.459   6.658   5.718
 5281SOL     OW16741   2.582   6.889   5.029
 5281SOL    HW116742   2.556   6.866   4.935
 5281SOL    HW216743   2.630   6.977   5.030
 5282SOL     OW16744   6.870   6.316   0.756
 5282SOL    HW116745   6.945   6.251   0.772
 5282SOL    HW216746   6.871   6.345   0.660
 5283SOL     OW16747   1.623   0.696   4.159
 5283SOL    HW116748   1.624   0.783   4.110
 5283SOL    HW216749   1.529   0.661   4.164
 5284SOL     OW16750   4.810   2.858   2.205
 5284SOL    HW116751   4.908   2.843   2.222
 5284SOL    HW216752   4.799   2.928   2.134
 5285SOL     OW16753   1.506   2.126   4.541
 5285SOL    HW116754   1.591   2.171   4.512
 5285SOL    HW216755   1.447   2.112   4.461
 5286SOL     OW16756   6.887   3.027   1.445
 5286SOL    HW116757   6.870   3.054   1.351
 5286SOL    HW216758   6.945   3.095   1.490
 5287SOL     OW16759   0.791   5.338   2.032
 5287SOL    HW116760   0.826   5.292   1.951
 5287SOL    HW216761   0.691   5.343   2.027
 5288SOL     OW16762   4.316   1.101   1.652
 5288SOL    HW116763   4.308   1.027   1.719
 5288SOL    HW216764   4.267   1.075   1.568
 5289SOL     OW16765   2.034   4.915   6.078
 5289SOL    HW116766   1.993   5.002   6.050
 5289SOL    HW216767   2.125   4.906   6.037
 5290SOL     OW16768   1.432   2.999   5.126
 5290SOL    HW116769   1.441   3.078   5.066
 5290SOL    HW216770   1.407   2.919   5.072
 5291SOL     OW16771   2.649   5.257   4.434
 5291SOL    HW116772   2.632   5.356   4.435
 5291SOL    HW216773   2.674   5.227   4.526
 5292SOL     OW16774   0.218   3.783   4.893
 5292SOL    HW116775   0.266   3.818   4.812
 5292SOL    HW216776   0.261   3.698   4.923
 5293SOL     OW16777   2.180   0.113   3.587
 5293SOL    HW116778   2.266   0.127   3.536
 5293SOL    HW216779   2.165   0.190   3.649
 5294SOL     OW16780   4.935   0.082   4.044
 5294SOL    HW116781   4.879   0.051   3.967
 5294SOL    HW216782   5.011   0.137   4.009
 5295SOL     OW16783   2.150   0.858   1.230
 5295SOL    HW116784   2.221   0.850   1.160
 5295SOL    HW216785   2.064   0.821   1.195
 5296SOL     OW16786   4.918   4.822   1.831
 5296SOL    HW116787   4.930   4.792   1.926
 5296SOL    HW216788   4.827   4.796   1.799
 5297SOL     OW16789   3.465   4.952   6.031
 5297SOL    HW116790   3.485   5.047   6.055
 5297SOL    HW216791   3.466   4.896   6.114
 5298SOL     OW16792   3.131   1.457   0.019
 5298SOL    HW116793   3.139   1.358   0.022
 5298SOL    HW216794   3.175   1.492   6.961
 5299SOL     OW16795   2.310   0.489   1.395
 5299SOL    HW116796   2.304   0.390   1.412
 5299SOL    HW216797   2.218   0.526   1.381
 5300SOL     OW16798   3.150   5.194   6.579
 5300SOL    HW116799   3.233   5.199   6.522
 5300SOL    HW216800   3.141   5.279   6.631
 5301SOL     OW16801   6.117   6.806   5.632
 5301SOL    HW116802   6.017   6.812   5.622
 5301SOL    HW216803   6.161   6.841   5.550
 5302SOL     OW16804   5.054   5.334   2.707
 5302SOL    HW116805   5.022   5.241   2.725
 5302SOL    HW216806   5.050   5.388   2.791
 5303SOL     OW16807   1.271   6.221   5.245
 5303SOL    HW116808   1.281   6.280   5.325
 5303SOL    HW216809   1.248   6.277   5.165
 5304SOL     OW16810   0.432   0.651   3.158
 5304SOL    HW116811   0.395   0.701   3.080
 5304SOL    HW216812   0.491   0.711   3.212
 5305SOL     OW16813   6.934   5.466   4.670
 5305SOL    HW116814   6.914   5.368   4.680
 5305SOL    HW216815   6.938   5.489   4.573
 5306SOL     OW16816   0.931   2.119   6.173
 5306SOL    HW116817   0.951   2.082   6.082
 5306SOL    HW216818   0.835   2.101   6.195
 5307SOL     OW16819   0.462   1.404   1.433
 5307SOL    HW116820   0.383   1.390   1.375
 5307SOL    HW216821   0.497   1.316   1.464
 5308SOL     OW16822   2.145   4.519   2.596
 5308SOL    HW116823   2.118   4.454   2.666
 5308SOL    HW216824   2.067   4.577   2.572
 5309SOL     OW16825   5.785   6.218   3.441
 5309SOL    HW116826   5.752   6.301   3.485
 5309SOL    HW216827   5.797   6.146   3.510
 5310SOL     OW16828   6.498   2.258   3.183
 5310SOL    HW116829   6.538   2.263   3.091
 5310SOL    HW216830   6.432   2.184   3.187
 5311SOL     OW16831   6.132   6.992   0.337
 5311SOL    HW116832   6.092   7.001   0.428
 5311SOL    HW216833   6.070   0.008   0.269
 5312SOL     OW16834   5.990   6.598   0.731
 5312SOL    HW116835   6.029   6.508   0.710
 5312SOL    HW216836   6.010   6.661   0.656
 5313SOL     OW16837   1.568   6.975   5.714
 5313SOL    HW116838   1.564   6.925   5.801
 5313SOL    HW216839   1.655   7.024   5.709
 5314SOL     OW16840   5.905   1.918   1.568
 5314SOL    HW116841   5.843   1.996   1.579
 5314SOL    HW216842   5.974   1.939   1.499
 5315SOL     OW16843   4.263   2.268   3.724
 5315SOL    HW116844   4.238   2.233   3.634
 5315SOL    HW216845   4.208   2.221   3.794
 5316SOL     OW16846   0.462   2.923   4.984
 5316SOL    HW116847   0.486   2.861   5.058
 5316SOL    HW216848   0.447   2.870   4.900
 5317SOL     OW16849   5.397   3.217   0.041
 5317SOL    HW116850   5.349   3.272   0.108
 5317SOL    HW216851   5.454   3.276   7.008
 5318SOL     OW16852   0.241   3.853   5.513
 5318SOL    HW116853   0.163   3.807   5.556
 5318SOL    HW216854   0.222   3.950   5.504
 5319SOL     OW16855   3.549   6.498   2.199
 5319SOL    HW116856   3.593   6.419   2.244
 5319SOL    HW216857   3.473   6.529   2.255
 5320SOL     OW16858   4.788   5.959   0.930
 5320SOL    HW116859   4.716   5.896   0.956
 5320SOL    HW216860   4.855   5.912   0.872
 5321SOL     OW16861   1.567   4.090   5.979
 5321SOL    HW116862   1.657   4.128   5.999
 5321SOL    HW216863   1.550   4.013   6.041
 5322SOL     OW16864   3.877   6.343   2.119
 5322SOL    HW116865   3.810   6.276   2.150
 5322SOL    HW216866   3.845   6.386   2.035
 5323SOL     OW16867   4.363   0.221   6.244
 5323SOL    HW116868   4.378   0.256   6.151
 5323SOL    HW216869   4.269   0.191   6.254
 5324SOL     OW16870   1.275   2.146   1.628
 5324SOL    HW116871   1.320   2.069   1.673
 5324SOL    HW216872   1.343   2.216   1.606
 5325SOL     OW16873   2.008   2.551   5.135
 5325SOL    HW116874   2.098   2.519   5.164
 5325SOL    HW216875   1.970   2.612   5.205
 5326SOL     OW16876   6.001   6.911   1.394
 5326SOL    HW116877   6.058   6.833   1.419
 5326SOL    HW216878   5.940   6.886   1.318
 5327SOL     OW16879   0.385   2.587   5.620
 5327SOL    HW116880   0.391   2.645   5.701
 5327SOL    HW216881   0.477   2.572   5.583
 5328SOL     OW16882   4.656   5.206   0.225
 5328SOL    HW116883   4.670   5.217   0.127
 5328SOL    HW216884   4.678   5.112   0.251
 5329SOL     OW16885   2.085   6.406   6.076
 5329SOL    HW116886   2.094   6.502   6.051
 5329SOL    HW216887   2.132   6.349   6.008
 5330SOL     OW16888   2.802   4.893   1.288
 5330SOL    HW116889   2.719   4.838   1.293
 5330SOL    HW216890   2.810   4.950   1.369
 5331SOL     OW16891   6.451   1.263   6.820
 5331SOL    HW116892   6.470   1.322   6.898
 5331SOL    HW216893   6.440   1.169   6.852
 5332SOL     OW16894   0.814   4.486   1.478
 5332SOL    HW116895   0.742   4.508   1.545
 5332SOL    HW216896   0.865   4.406   1.510
 5333SOL     OW16897   1.095   6.482   5.092
 5333SOL    HW116898   1.095   6.563   5.034
 5333SOL    HW216899   1.102   6.509   5.188
 5334SOL     OW16900   3.396   6.883   5.040
 5334SOL    HW116901   3.459   6.953   5.075
 5334SOL    HW216902   3.333   6.856   5.113
 5335SOL     OW16903   6.835   5.973   0.634
 5335SOL    HW116904   6.927   5.950   0.669
 5335SOL    HW216905   6.817   6.070   0.647
 5336SOL     OW16906   1.586   4.516   1.424
 5336SOL    HW116907   1.501   4.559   1.455
 5336SOL    HW216908   1.664   4.555   1.475
 5337SOL     OW16909   4.986   4.345   1.450
 5337SOL    HW116910   4.953   4.412   1.517
 5337SOL    HW216911   5.015   4.262   1.498
 5338SOL     OW16912   5.251   2.993   0.166
 5338SOL    HW116913   5.258   3.085   0.128
 5338SOL    HW216914   5.329   2.976   0.226
 5339SOL     OW16915   6.374   0.515   1.720
 5339SOL    HW116916   6.309   0.451   1.761
 5339SOL    HW216917   6.435   0.551   1.790
 5340SOL     OW16918   5.105   2.605   6.597
 5340SOL    HW116919   5.195   2.650   6.601
 5340SOL    HW216920   5.108   2.520   6.649
 5341SOL     OW16921   4.726   0.837   0.962
 5341SOL    HW116922   4.771   0.857   0.875
 5341SOL    HW216923   4.631   0.808   0.945
 5342SOL     OW16924   2.780   0.184   6.317
 5342SOL    HW116925   2.688   0.165   6.282
 5342SOL    HW216926   2.793   0.137   6.404
 5343SOL     OW16927   3.458   3.979   1.725
 5343SOL    HW116928   3.448   4.063   1.778
 5343SOL    HW216929   3.404   3.986   1.641
 5344SOL     OW16930   2.183   2.719   2.522
 5344SOL    HW116931   2.112   2.786   2.543
 5344SOL    HW216932   2.257   2.726   2.589
 5345SOL     OW16933   4.618   0.501   3.000
 5345SOL    HW116934   4.717   0.513   2.993
 5345SOL    HW216935   4.573   0.555   2.929
 5346SOL     OW16936   2.961   0.429   3.888
 5346SOL    HW116937   2.861   0.426   3.884
 5346SOL    HW216938   2.990   0.444   3.983
 5347SOL     OW16939   6.716   1.437   1.595
 5347SOL    HW116940   6.617   1.419   1.600
 5347SOL    HW216941   6.744   1.445   1.500
 5348SOL     OW16942   6.450   1.559   0.495
 5348SOL    HW116943   6.462   1.574   0.593
 5348SOL    HW216944   6.391   1.480   0.481
 5349SOL     OW16945   6.184   0.094   1.380
 5349SOL    HW116946   6.201   0.131   1.289
 5349SOL    HW216947   6.102   0.037   1.378
 5350SOL     OW16948   2.447   0.356   6.616
 5350SOL    HW116949   2.529   0.405   6.586
 5350SOL    HW216950   2.376   0.363   6.546
 5351SOL     OW16951   4.021   1.016   2.351
 5351SOL    HW116952   4.057   1.082   2.285
 5351SOL    HW216953   3.923   1.006   2.338
 5352SOL     OW16954   3.189   6.350   3.818
 5352SOL    HW116955   3.285   6.375   3.812
 5352SOL    HW216956   3.132   6.430   3.796
 5353SOL     OW16957   5.886   0.227   6.051
 5353SOL    HW116958   5.963   0.211   6.113
 5353SOL    HW216959   5.916   0.283   5.974
 5354SOL     OW16960   1.786   3.515   1.008
 5354SOL    HW116961   1.729   3.452   0.955
 5354SOL    HW216962   1.728   3.573   1.065
 5355SOL     OW16963   4.594   1.560   6.204
 5355SOL    HW116964   4.649   1.560   6.121
 5355SOL    HW216965   4.504   1.521   6.185
 5356SOL     OW16966   6.300   3.395   0.793
 5356SOL    HW116967   6.383   3.419   0.842
 5356SOL    HW216968   6.323   3.344   0.711
 5357SOL     OW16969   4.107   5.957   0.447
 5357SOL    HW116970   4.170   5.950   0.524
 5357SOL    HW216971   4.016   5.981   0.481
 5358SOL     OW16972   5.309   4.375   1.771
 5358SOL    HW116973   5.314   4.321   1.687
 5358SOL    HW216974   5.264   4.322   1.843
 5359SOL     OW16975   3.220   0.266   6.847
 5359SOL    HW116976   3.258   0.350   6.885
 5359SOL    HW216977   3.177   0.286   6.759
 5360SOL     OW16978   4.248   1.312   0.125
 5360SOL    HW116979   4.201   1.236   0.170
 5360SOL    HW216980   4.347   1.301   0.137
 5361SOL     OW16981   1.626   1.008   6.404
 5361SOL    HW116982   1.599   0.912   6.397
 5361SOL    HW216983   1.547   1.063   6.432
 5362SOL     OW16984   4.136   5.849   3.458
 5362SOL    HW116985   4.181   5.800   3.383
 5362SOL    HW216986   4.205   5.878   3.525
 5363SOL     OW16987   0.633   5.612   4.547
 5363SOL    HW116988   0.570   5.534   4.551
 5363SOL    HW216989   0.610   5.669   4.468
 5364SOL     OW16990   1.459   5.977   6.891
 5364SOL    HW116991   1.408   5.916   6.831
 5364SOL    HW216992   1.446   6.072   6.862
 5365SOL     OW16993   3.818   2.045   5.966
 5365SOL    HW116994   3.851   2.138   5.984
 5365SOL    HW216995   3.792   2.002   6.053
 5366SOL     OW16996   3.530   3.896   6.286
 5366SOL    HW116997   3.462   3.945   6.232
 5366SOL    HW216998   3.618   3.942   6.280
 5367SOL     OW16999   0.429   4.632   1.329
 5367SOL    HW117000   0.420   4.559   1.262
 5367SOL    HW217001   0.399   4.718   1.289
 5368SOL     OW17002   0.605   0.909   4.271
 5368SOL    HW117003   0.664   0.841   4.313
 5368SOL    HW217004   0.541   0.864   4.208
 5369SOL     OW17005   1.968   3.451   2.476
 5369SOL    HW117006   2.010   3.481   2.390
 5369SOL    HW217007   1.874   3.421   2.458
 5370SOL     OW17008   3.874   2.952   1.446
 5370SOL    HW117009   3.907   3.043   1.419
 5370SOL    HW217010   3.787   2.962   1.493
 5371SOL     OW17011   1.763   4.205   4.964
 5371SOL    HW117012   1.672   4.209   4.924
 5371SOL    HW217013   1.771   4.273   5.037
 5372SOL     OW17014   3.203   6.257   2.595
 5372SOL    HW117015   3.108   6.269   2.564
 5372SOL    HW217016   3.250   6.195   2.532
 5373SOL     OW17017   1.441   5.262   3.895
 5373SOL    HW117018   1.387   5.339   3.862
 5373SOL    HW217019   1.383   5.200   3.947
 5374SOL     OW17020   2.919   2.467   0.415
 5374SOL    HW117021   2.884   2.504   0.501
 5374SOL    HW217022   2.979   2.534   0.372
 5375SOL     OW17023   0.607   3.909   5.102
 5375SOL    HW117024   0.687   3.854   5.124
 5375SOL    HW217025   0.581   3.893   5.007
 5376SOL     OW17026   2.926   4.368   6.295
 5376SOL    HW117027   2.827   4.366   6.280
 5376SOL    HW217028   2.972   4.318   6.222
 5377SOL     OW17029   0.801   2.054   1.992
 5377SOL    HW117030   0.752   2.135   1.959
 5377SOL    HW217031   0.800   1.984   1.920
 5378SOL     OW17032   5.038   0.416   6.724
 5378SOL    HW117033   5.135   0.395   6.724
 5378SOL    HW217034   4.992   0.358   6.792
 5379SOL     OW17035   0.346   6.838   0.348
 5379SOL    HW117036   0.364   6.836   0.250
 5379SOL    HW217037   0.432   6.837   0.399
 5380SOL     OW17038   1.836   1.260   4.788
 5380SOL    HW117039   1.780   1.283   4.709
 5380SOL    HW217040   1.913   1.324   4.795
 5381SOL     OW17041   6.123   3.747   1.890
 5381SOL    HW117042   6.024   3.737   1.894
 5381SOL    HW217043   6.167   3.668   1.931
 5382SOL     OW17044   1.628   6.808   1.678
 5382SOL    HW117045   1.622   6.749   1.758
 5382SOL    HW217046   1.672   6.894   1.704
 5383SOL     OW17047   2.610   2.088   4.734
 5383SOL    HW117048   2.569   2.054   4.649
 5383SOL    HW217049   2.559   2.053   4.812
 5384SOL     OW17050   5.430   6.994   4.440
 5384SOL    HW117051   5.343   6.967   4.398
 5384SOL    HW217052   5.418   7.003   4.539
 5385SOL     OW17053   3.621   4.074   3.131
 5385SOL    HW117054   3.629   4.033   3.040
 5385SOL    HW217055   3.712   4.087   3.170
 5386SOL     OW17056   5.882   6.812   5.499
 5386SOL    HW117057   5.952   6.832   5.431
 5386SOL    HW217058   5.791   6.824   5.458
 5387SOL     OW17059   3.585   4.947   1.323
 5387SOL    HW117060   3.563   4.850   1.311
 5387SOL    HW217061   3.589   4.992   1.234
 5388SOL     OW17062   5.950   5.672   2.992
 5388SOL    HW117063   5.865   5.690   3.043
 5388SOL    HW217064   6.004   5.604   3.041
 5389SOL     OW17065   6.060   3.337   1.317
 5389SOL    HW117066   6.104   3.378   1.397
 5389SOL    HW217067   6.116   3.356   1.236
 5390SOL     OW17068   6.366   5.241   6.317
 5390SOL    HW117069   6.353   5.161   6.258
 5390SOL    HW217070   6.376   5.212   6.412
 5391SOL     OW17071   3.583   3.877   6.821
 5391SOL    HW117072   3.619   3.846   6.733
 5391SOL    HW217073   3.488   3.846   6.830
 5392SOL     OW17074   0.106   2.624   2.722
 5392SOL    HW117075   0.160   2.570   2.786
 5392SOL    HW217076   0.119   2.721   2.740
 5393SOL     OW17077   6.637   6.959   6.297
 5393SOL    HW117078   6.558   6.967   6.357
 5393SOL    HW217079   6.607   6.967   6.202
 5394SOL     OW17080   1.842   3.601   5.734
 5394SOL    HW117081   1.856   3.614   5.832
 5394SOL    HW217082   1.771   3.532   5.718
 5395SOL     OW17083   4.485   0.816   1.498
 5395SOL    HW117084   4.534   0.879   1.438
 5395SOL    HW217085   4.481   0.854   1.591
 5396SOL     OW17086   4.735   2.581   1.362
 5396SOL    HW117087   4.684   2.522   1.424
 5396SOL    HW217088   4.673   2.647   1.320
 5397SOL     OW17089   1.482   2.616   1.923
 5397SOL    HW117090   1.557   2.551   1.913
 5397SOL    HW217091   1.400   2.581   1.877
 5398SOL     OW17092   3.190   3.128   2.528
 5398SOL    HW117093   3.228   3.075   2.452
 5398SOL    HW217094   3.255   3.200   2.555
 5399SOL     OW17095   0.574   5.350   0.190
 5399SOL    HW117096   0.613   5.273   0.140
 5399SOL    HW217097   0.609   5.351   0.284
 5400SOL     OW17098   2.238   3.271   0.048
 5400SOL    HW117099   2.147   3.300   0.018
 5400SOL    HW217100   2.270   3.195   7.015
 5401SOL     OW17101   6.360   1.910   0.727
 5401SOL    HW117102   6.298   1.837   0.697
 5401SOL    HW217103   6.382   1.897   0.824
 5402SOL     OW17104   1.158   6.073   2.304
 5402SOL    HW117105   1.159   6.128   2.220
 5402SOL    HW217106   1.117   6.126   2.378
 5403SOL     OW17107   6.004   3.104   6.910
 5403SOL    HW117108   5.932   3.123   6.976
 5403SOL    HW217109   5.986   3.154   6.825
 5404SOL     OW17110   0.925   3.055   3.423
 5404SOL    HW117111   0.920   3.104   3.337
 5404SOL    HW217112   1.008   3.000   3.426
 5405SOL     OW17113   6.949   4.315   5.196
 5405SOL    HW117114   7.013   4.371   5.143
 5405SOL    HW217115   6.864   4.304   5.145
 5406SOL     OW17116   1.463   6.942   4.081
 5406SOL    HW117117   1.539   6.927   4.018
 5406SOL    HW217118   1.378   6.909   4.040
 5407SOL     OW17119   4.267   3.434   6.872
 5407SOL    HW117120   4.330   3.364   6.838
 5407SOL    HW217121   4.309   3.483   6.949
 5408SOL     OW17122   3.510   1.046   6.494
 5408SOL    HW117123   3.565   1.112   6.545
 5408SOL    HW217124   3.438   1.010   6.552
 5409SOL     OW17125   4.971   0.576   1.797
 5409SOL    HW117126   5.043   0.602   1.732
 5409SOL    HW217127   4.886   0.623   1.774
 5410SOL     OW17128   1.351   2.777   3.302
 5410SOL    HW117129   1.372   2.686   3.267
 5410SOL    HW217130   1.318   2.770   3.396
 5411SOL     OW17131   2.116   4.721   4.878
 5411SOL    HW117132   2.116   4.635   4.828
 5411SOL    HW217133   2.199   4.773   4.855
 5412SOL     OW17134   6.380   2.160   2.214
 5412SOL    HW117135   6.330   2.247   2.205
 5412SOL    HW217136   6.404   2.146   2.310
 5413SOL     OW17137   1.676   6.666   2.690
 5413SOL    HW117138   1.615   6.599   2.649
 5413SOL    HW217139   1.710   6.729   2.620
 5414SOL     OW17140   4.041   6.922   6.012
 5414SOL    HW117141   3.975   6.859   5.970
 5414SOL    HW217142   4.071   6.990   5.945
 5415SOL     OW17143   6.557   3.705   3.013
 5415SOL    HW117144   6.573   3.777   2.946
 5415SOL    HW217145   6.528   3.745   3.100
 5416SOL     OW17146   4.214   5.162   4.245
 5416SOL    HW117147   4.225   5.097   4.171
 5416SOL    HW217148   4.130   5.141   4.295
 5417SOL     OW17149   2.987   6.987   5.803
 5417SOL    HW117150   2.997   6.896   5.764
 5417SOL    HW217151   2.895   7.021   5.785
 5418SOL     OW17152   3.769   1.195   3.061
 5418SOL    HW117153   3.730   1.104   3.046
 5418SOL    HW217154   3.865   1.195   3.033
 5419SOL     OW17155   3.164   4.206   6.952
 5419SOL    HW117156   3.096   4.260   6.901
 5419SOL    HW217157   3.143   4.109   6.942
 5420SOL     OW17158   1.193   2.375   3.127
 5420SOL    HW117159   1.275   2.328   3.160
 5420SOL    HW217160   1.194   2.470   3.157
 5421SOL     OW17161   2.068   2.135   0.551
 5421SOL    HW117162   2.028   2.117   0.641
 5421SOL    HW217163   2.043   2.227   0.521
 5422SOL     OW17164   0.879   3.375   0.287
 5422SOL    HW117165   0.941   3.454   0.282
 5422SOL    HW217166   0.852   3.360   0.382
 5423SOL     OW17167   4.839   2.984   5.771
 5423SOL    HW117168   4.827   2.918   5.696
 5423SOL    HW217169   4.935   3.010   5.777
 5424SOL     OW17170   5.265   3.275   5.668
 5424SOL    HW117171   5.354   3.306   5.701
 5424SOL    HW217172   5.272   3.251   5.571
 5425SOL     OW17173   5.068   1.003   4.983
 5425SOL    HW117174   5.152   1.037   5.025
 5425SOL    HW217175   5.074   0.903   4.973
 5426SOL     OW17176   0.577   0.029   4.667
 5426SOL    HW117177   0.569   0.114   4.719
 5426SOL    HW217178   0.615   0.050   4.576
 5427SOL     OW17179   4.174   0.398   0.225
 5427SOL    HW117180   4.098   0.372   0.165
 5427SOL    HW217181   4.259   0.360   0.188
 5428SOL     OW17182   1.667   1.103   6.731
 5428SOL    HW117183   1.756   1.072   6.766
 5428SOL    HW217184   1.638   1.184   6.781
 5429SOL     OW17185   0.756   2.339   6.011
 5429SOL    HW117186   0.784   2.280   5.935
 5429SOL    HW217187   0.828   2.406   6.029
 5430SOL     OW17188   2.308   2.948   5.664
 5430SOL    HW117189   2.254   2.968   5.582
 5430SOL    HW217190   2.248   2.948   5.744
 5431SOL     OW17191   3.513   5.799   4.427
 5431SOL    HW117192   3.440   5.818   4.362
 5431SOL    HW217193   3.577   5.875   4.430
 5432SOL     OW17194   5.396   5.245   1.192
 5432SOL    HW117195   5.324   5.312   1.212
 5432SOL    HW217196   5.399   5.177   1.265
 5433SOL     OW17197   0.633   1.831   4.069
 5433SOL    HW117198   0.596   1.787   4.151
 5433SOL    HW217199   0.647   1.762   3.998
 5434SOL     OW17200   2.424   6.573   4.943
 5434SOL    HW117201   2.467   6.529   5.022
 5434SOL    HW217202   2.471   6.546   4.859
 5435SOL     OW17203   4.972   1.285   2.169
 5435SOL    HW117204   5.036   1.288   2.092
 5435SOL    HW217205   4.900   1.353   2.156
 5436SOL     OW17206   5.562   3.852   2.838
 5436SOL    HW117207   5.518   3.927   2.887
 5436SOL    HW217208   5.528   3.764   2.873
 5437SOL     OW17209   3.784   4.772   6.098
 5437SOL    HW117210   3.835   4.771   6.184
 5437SOL    HW217211   3.693   4.734   6.112
 5438SOL     OW17212   6.646   0.784   0.922
 5438SOL    HW117213   6.672   0.712   0.986
 5438SOL    HW217214   6.547   0.792   0.918
 5439SOL     OW17215   1.395   3.231   0.764
 5439SOL    HW117216   1.420   3.161   0.830
 5439SOL    HW217217   1.387   3.190   0.673
 5440SOL     OW17218   1.868   1.348   1.382
 5440SOL    HW117219   1.925   1.266   1.385
 5440SOL    HW217220   1.803   1.347   1.457
 5441SOL     OW17221   3.665   1.803   4.461
 5441SOL    HW117222   3.597   1.807   4.534
 5441SOL    HW217223   3.741   1.864   4.483
 5442SOL     OW17224   3.253   1.167   1.991
 5442SOL    HW117225   3.308   1.084   1.987
 5442SOL    HW217226   3.283   1.223   2.069
 5443SOL     OW17227   2.205   6.675   5.666
 5443SOL    HW117228   2.122   6.700   5.716
 5443SOL    HW217229   2.181   6.647   5.573
 5444SOL     OW17230   0.476   1.329   3.219
 5444SOL    HW117231   0.525   1.361   3.300
 5444SOL    HW217232   0.412   1.399   3.189
 5445SOL     OW17233   6.290   3.579   2.027
 5445SOL    HW117234   6.304   3.484   2.055
 5445SOL    HW217235   6.226   3.623   2.090
 5446SOL     OW17236   6.417   5.935   5.954
 5446SOL    HW117237   6.516   5.939   5.936
 5446SOL    HW217238   6.370   6.000   5.895
 5447SOL     OW17239   2.939   2.483   0.979
 5447SOL    HW117240   2.930   2.415   1.052
 5447SOL    HW217241   3.035   2.508   0.968
 5448SOL     OW17242   5.472   1.548   6.528
 5448SOL    HW117243   5.557   1.600   6.542
 5448SOL    HW217244   5.490   1.451   6.545
 5449SOL     OW17245   0.324   2.845   6.810
 5449SOL    HW117246   0.235   2.811   6.843
 5449SOL    HW217247   0.347   2.800   6.724
 5450SOL     OW17248   2.517   6.095   0.971
 5450SOL    HW117249   2.588   6.148   1.016
 5450SOL    HW217250   2.523   6.000   0.998
 5451SOL     OW17251   2.663   0.502   2.935
 5451SOL    HW117252   2.715   0.587   2.925
 5451SOL    HW217253   2.576   0.510   2.885
 5452SOL     OW17254   2.244   4.061   5.700
 5452SOL    HW117255   2.177   4.013   5.645
 5452SOL    HW217256   2.326   4.079   5.646
 5453SOL     OW17257   0.472   5.292   5.637
 5453SOL    HW117258   0.558   5.343   5.641
 5453SOL    HW217259   0.403   5.338   5.692
 5454SOL     OW17260   0.573   4.001   5.345
 5454SOL    HW117261   0.556   3.923   5.405
 5454SOL    HW217262   0.584   3.969   5.251
 5455SOL     OW17263   6.566   2.029   0.560
 5455SOL    HW117264   6.491   1.981   0.606
 5455SOL    HW217265   6.583   2.116   0.607
 5456SOL     OW17266   3.477   6.744   1.365
 5456SOL    HW117267   3.493   6.777   1.459
 5456SOL    HW217268   3.563   6.708   1.327
 5457SOL     OW17269   6.649   3.823   1.087
 5457SOL    HW117270   6.562   3.849   1.129
 5457SOL    HW217271   6.674   3.891   1.018
 5458SOL     OW17272   1.728   4.390   5.766
 5458SOL    HW117273   1.640   4.376   5.721
 5458SOL    HW217274   1.731   4.339   5.852
 5459SOL     OW17275   2.356   4.065   6.059
 5459SOL    HW117276   2.314   4.097   6.144
 5459SOL    HW217277   2.333   3.969   6.044
 5460SOL     OW17278   3.881   0.063   3.981
 5460SOL    HW117279   3.828   0.147   3.976
 5460SOL    HW217280   3.873   0.024   4.073
 5461SOL     OW17281   4.442   6.796   4.951
 5461SOL    HW117282   4.474   6.855   5.026
 5461SOL    HW217283   4.436   6.850   4.867
 5462SOL     OW17284   0.213   0.467   1.227
 5462SOL    HW117285   0.259   0.556   1.223
 5462SOL    HW217286   0.195   0.444   1.323
 5463SOL     OW17287   6.865   3.055   0.914
 5463SOL    HW117288   6.817   2.972   0.884
 5463SOL    HW217289   6.900   3.104   0.834
 5464SOL     OW17290   1.714   6.385   4.758
 5464SOL    HW117291   1.622   6.346   4.758
 5464SOL    HW217292   1.725   6.445   4.679
 5465SOL     OW17293   2.899   5.766   6.656
 5465SOL    HW117294   2.904   5.755   6.557
 5465SOL    HW217295   2.837   5.698   6.694
 5466SOL     OW17296   5.751   5.716   4.411
 5466SOL    HW117297   5.660   5.677   4.394
 5466SOL    HW217298   5.745   5.815   4.412
 5467SOL     OW17299   5.811   1.544   1.755
 5467SOL    HW117300   5.749   1.601   1.700
 5467SOL    HW217301   5.782   1.449   1.750
 5468SOL     OW17302   4.216   1.282   6.317
 5468SOL    HW117303   4.276   1.216   6.272
 5468SOL    HW217304   4.242   1.289   6.413
 5469SOL     OW17305   4.902   4.595   1.576
 5469SOL    HW117306   4.832   4.627   1.639
 5469SOL    HW217307   4.993   4.617   1.614
 5470SOL     OW17308   0.322   4.829   3.305
 5470SOL    HW117309   0.287   4.916   3.341
 5470SOL    HW217310   0.392   4.848   3.236
 5471SOL     OW17311   6.480   4.407   2.233
 5471SOL    HW117312   6.563   4.431   2.284
 5471SOL    HW217313   6.401   4.455   2.272
 5472SOL     OW17314   3.488   5.447   5.307
 5472SOL    HW117315   3.543   5.371   5.341
 5472SOL    HW217316   3.485   5.445   5.207
 5473SOL     OW17317   1.325   4.426   3.724
 5473SOL    HW117318   1.411   4.409   3.677
 5473SOL    HW217319   1.334   4.508   3.781
 5474SOL     OW17320   1.432   6.174   3.209
 5474SOL    HW117321   1.456   6.193   3.114
 5474SOL    HW217322   1.514   6.178   3.265
 5475SOL     OW17323   3.431   2.909   1.672
 5475SOL    HW117324   3.367   2.985   1.687
 5475SOL    HW217325   3.437   2.855   1.756
 5476SOL     OW17326   1.935   3.184   6.611
 5476SOL    HW117327   1.912   3.135   6.694
 5476SOL    HW217328   1.883   3.147   6.534
 5477SOL     OW17329   2.285   2.247   2.187
 5477SOL    HW117330   2.317   2.337   2.217
 5477SOL    HW217331   2.363   2.193   2.154
 5478SOL     OW17332   6.851   5.440   5.693
 5478SOL    HW117333   6.774   5.377   5.695
 5478SOL    HW217334   6.835   5.515   5.757
 5479SOL     OW17335   4.447   6.391   5.205
 5479SOL    HW117336   4.529   6.344   5.236
 5479SOL    HW217337   4.413   6.450   5.279
 5480SOL     OW17338   0.356   2.191   5.860
 5480SOL    HW117339   0.258   2.168   5.861
 5480SOL    HW217340   0.387   2.199   5.765
 5481SOL     OW17341   4.039   6.392   3.098
 5481SOL    HW117342   4.020   6.456   3.172
 5481SOL    HW217343   4.049   6.299   3.136
 5482SOL     OW17344   1.703   6.274   1.859
 5482SOL    HW117345   1.700   6.193   1.918
 5482SOL    HW217346   1.715   6.356   1.915
 5483SOL     OW17347   1.095   2.326   6.228
 5483SOL    HW117348   1.047   2.242   6.200
 5483SOL    HW217349   1.070   2.348   6.323
 5484SOL     OW17350   5.361   0.302   4.641
 5484SOL    HW117351   5.438   0.366   4.651
 5484SOL    HW217352   5.343   0.258   4.728
 5485SOL     OW17353   3.523   0.673   4.707
 5485SOL    HW117354   3.604   0.707   4.660
 5485SOL    HW217355   3.450   0.741   4.702
 5486SOL     OW17356   3.642   5.079   4.043
 5486SOL    HW117357   3.713   5.133   4.088
 5486SOL    HW217358   3.557   5.086   4.094
 5487SOL     OW17359   3.311   6.142   5.087
 5487SOL    HW117360   3.371   6.175   5.015
 5487SOL    HW217361   3.365   6.094   5.157
 5488SOL     OW17362   5.201   2.305   6.276
 5488SOL    HW117363   5.128   2.350   6.328
 5488SOL    HW217364   5.161   2.237   6.215
 5489SOL     OW17365   6.793   2.597   4.137
 5489SOL    HW117366   6.780   2.507   4.180
 5489SOL    HW217367   6.864   2.591   4.068
 5490SOL     OW17368   0.930   5.361   2.255
 5490SOL    HW117369   0.878   5.383   2.337
 5490SOL    HW217370   0.875   5.382   2.174
 5491SOL     OW17371   6.126   4.376   0.755
 5491SOL    HW117372   6.206   4.322   0.727
 5491SOL    HW217373   6.045   4.344   0.706
 5492SOL     OW17374   0.707   2.039   6.804
 5492SOL    HW117375   0.698   2.138   6.796
 5492SOL    HW217376   0.616   1.997   6.803
 5493SOL     OW17377   4.247   4.319   6.764
 5493SOL    HW117378   4.262   4.238   6.707
 5493SOL    HW217379   4.309   4.315   6.843
 5494SOL     OW17380   5.953   2.500   5.854
 5494SOL    HW117381   5.945   2.581   5.913
 5494SOL    HW217382   5.902   2.424   5.894
 5495SOL     OW17383   5.745   0.597   0.646
 5495SOL    HW117384   5.736   0.527   0.717
 5495SOL    HW217385   5.804   0.562   0.573
 5496SOL     OW17386   4.245   6.348   5.878
 5496SOL    HW117387   4.216   6.443   5.877
 5496SOL    HW217388   4.215   6.303   5.795
 5497SOL     OW17389   0.806   0.118   5.891
 5497SOL    HW117390   0.714   0.101   5.855
 5497SOL    HW217391   0.861   0.164   5.822
 5498SOL     OW17392   0.759   5.811   1.481
 5498SOL    HW117393   0.691   5.877   1.514
 5498SOL    HW217394   0.748   5.725   1.531
 5499SOL     OW17395   2.114   0.325   3.754
 5499SOL    HW117396   2.106   0.372   3.841
 5499SOL    HW217397   2.023   0.312   3.714
 5500SOL     OW17398   1.833   6.278   1.534
 5500SOL    HW117399   1.764   6.206   1.541
 5500SOL    HW217400   1.806   6.343   1.463
 5501SOL     OW17401   5.238   3.757   0.548
 5501SOL    HW117402   5.321   3.796   0.508
 5501SOL    HW217403   5.203   3.819   0.617
 5502SOL     OW17404   4.786   3.063   0.090
 5502SOL    HW117405   4.817   3.045   7.022
 5502SOL    HW217406   4.864   3.076   0.151
 5503SOL     OW17407   6.349   3.457   1.233
 5503SOL    HW117408   6.436   3.410   1.245
 5503SOL    HW217409   6.306   3.470   1.323
 5504SOL     OW17410   3.192   2.051   6.873
 5504SOL    HW117411   3.187   2.143   6.912
 5504SOL    HW217412   3.136   2.046   6.791
 5505SOL     OW17413   2.628   5.215   2.233
 5505SOL    HW117414   2.663   5.286   2.171
 5505SOL    HW217415   2.704   5.158   2.263
 5506SOL     OW17416   6.373   2.531   6.066
 5506SOL    HW117417   6.324   2.561   5.984
 5506SOL    HW217418   6.327   2.451   6.105
 5507SOL     OW17419   3.868   6.629   0.407
 5507SOL    HW117420   3.826   6.704   0.458
 5507SOL    HW217421   3.967   6.638   0.412
 5508SOL     OW17422   6.607   1.898   6.434
 5508SOL    HW117423   6.705   1.915   6.427
 5508SOL    HW217424   6.557   1.978   6.400
 5509SOL     OW17425   6.188   4.303   0.134
 5509SOL    HW117426   6.284   4.281   0.148
 5509SOL    HW217427   6.165   4.290   0.037
 5510SOL     OW17428   5.655   5.626   0.162
 5510SOL    HW117429   5.696   5.696   0.102
 5510SOL    HW217430   5.575   5.587   0.117
 5511SOL     OW17431   1.025   2.758   6.198
 5511SOL    HW117432   1.007   2.682   6.135
 5511SOL    HW217433   0.944   2.817   6.201
 5512SOL     OW17434   2.993   6.782   2.112
 5512SOL    HW117435   3.072   6.738   2.156
 5512SOL    HW217436   2.941   6.833   2.181
 5513SOL     OW17437   3.948   4.500   6.512
 5513SOL    HW117438   3.987   4.516   6.603
 5513SOL    HW217439   4.000   4.427   6.467
 5514SOL     OW17440   3.602   1.255   0.436
 5514SOL    HW117441   3.524   1.274   0.377
 5514SOL    HW217442   3.586   1.171   0.487
 5515SOL     OW17443   3.397   5.071   2.392
 5515SOL    HW117444   3.484   5.027   2.367
 5515SOL    HW217445   3.338   5.004   2.438
 5516SOL     OW17446   0.969   2.517   6.055
 5516SOL    HW117447   1.044   2.545   5.994
 5516SOL    HW217448   1.003   2.449   6.120
 5517SOL     OW17449   0.707   2.246   4.308
 5517SOL    HW117450   0.643   2.207   4.374
 5517SOL    HW217451   0.800   2.236   4.343
 5518SOL     OW17452   4.508   4.223   5.839
 5518SOL    HW117453   4.531   4.166   5.918
 5518SOL    HW217454   4.540   4.178   5.756
 5519SOL     OW17455   5.250   2.336   5.888
 5519SOL    HW117456   5.158   2.302   5.908
 5519SOL    HW217457   5.261   2.344   5.789
 5520SOL     OW17458   5.139   5.927   1.274
 5520SOL    HW117459   5.185   5.880   1.349
 5520SOL    HW217460   5.119   6.021   1.302
 5521SOL     OW17461   4.257   0.546   2.142
 5521SOL    HW117462   4.236   0.452   2.168
 5521SOL    HW217463   4.244   0.606   2.220
 5522SOL     OW17464   4.937   6.479   6.693
 5522SOL    HW117465   5.014   6.538   6.715
 5522SOL    HW217466   4.968   6.384   6.689
 5523SOL     OW17467   5.118   2.039   0.544
 5523SOL    HW117468   5.058   1.996   0.611
 5523SOL    HW217469   5.119   1.984   0.460
 5524SOL     OW17470   2.682   1.638   3.332
 5524SOL    HW117471   2.760   1.681   3.377
 5524SOL    HW217472   2.701   1.541   3.316
 5525SOL     OW17473   6.922   1.285   1.093
 5525SOL    HW117474   6.952   1.206   1.147
 5525SOL    HW217475   6.995   1.312   1.030
 5526SOL     OW17476   5.160   4.256   4.078
 5526SOL    HW117477   5.121   4.324   4.140
 5526SOL    HW217478   5.260   4.256   4.089
 5527SOL     OW17479   6.691   0.347   2.554
 5527SOL    HW117480   6.627   0.300   2.615
 5527SOL    HW217481   6.657   0.439   2.536
 5528SOL     OW17482   1.258   1.196   0.057
 5528SOL    HW117483   1.343   1.149   0.079
 5528SOL    HW217484   1.271   1.252   6.999
 5529SOL     OW17485   3.680   0.242   2.074
 5529SOL    HW117486   3.724   0.243   1.984
 5529SOL    HW217487   3.700   0.156   2.120
 5530SOL     OW17488   0.937   1.710   1.303
 5530SOL    HW117489   1.035   1.697   1.288
 5530SOL    HW217490   0.899   1.767   1.230
 5531SOL     OW17491   1.413   4.671   0.322
 5531SOL    HW117492   1.352   4.668   0.402
 5531SOL    HW217493   1.501   4.631   0.347
 5532SOL     OW17494   0.260   4.502   6.040
 5532SOL    HW117495   0.341   4.527   5.987
 5532SOL    HW217496   0.282   4.508   6.138
 5533SOL     OW17497   3.104   0.956   3.235
 5533SOL    HW117498   3.133   0.860   3.230
 5533SOL    HW217499   3.050   0.979   3.154
 5534SOL     OW17500   1.454   0.657   4.632
 5534SOL    HW117501   1.360   0.686   4.613
 5534SOL    HW217502   1.453   0.573   4.685
 5535SOL     OW17503   0.299   1.725   2.674
 5535SOL    HW117504   0.282   1.823   2.683
 5535SOL    HW217505   0.388   1.703   2.713
 5536SOL     OW17506   4.564   0.188   4.402
 5536SOL    HW117507   4.574   0.266   4.463
 5536SOL    HW217508   4.635   0.191   4.332
 5537SOL     OW17509   2.433   2.460   2.805
 5537SOL    HW117510   2.382   2.377   2.827
 5537SOL    HW217511   2.384   2.540   2.841
 5538SOL     OW17512   4.140   5.548   3.875
 5538SOL    HW117513   4.107   5.610   3.803
 5538SOL    HW217514   4.235   5.571   3.897
 5539SOL     OW17515   2.488   4.037   0.011
 5539SOL    HW117516   2.396   4.037   6.995
 5539SOL    HW217517   2.503   3.952   0.060
 5540SOL     OW17518   3.725   5.476   1.208
 5540SOL    HW117519   3.687   5.392   1.171
 5540SOL    HW217520   3.658   5.550   1.201
 5541SOL     OW17521   4.854   0.456   6.511
 5541SOL    HW117522   4.917   0.437   6.586
 5541SOL    HW217523   4.847   0.554   6.496
 5542SOL     OW17524   5.686   4.198   6.250
 5542SOL    HW117525   5.659   4.291   6.223
 5542SOL    HW217526   5.770   4.203   6.304
 5543SOL     OW17527   0.438   2.043   5.152
 5543SOL    HW117528   0.501   2.118   5.171
 5543SOL    HW217529   0.358   2.052   5.212
 5544SOL     OW17530   5.344   0.566   6.810
 5544SOL    HW117531   5.295   0.645   6.848
 5544SOL    HW217532   5.319   0.484   6.862
 5545SOL     OW17533   2.468   2.586   1.960
 5545SOL    HW117534   2.410   2.512   1.924
 5545SOL    HW217535   2.411   2.664   1.984
 5546SOL     OW17536   3.247   5.672   4.999
 5546SOL    HW117537   3.182   5.612   5.045
 5546SOL    HW217538   3.268   5.750   5.058
 5547SOL     OW17539   3.042   5.108   3.689
 5547SOL    HW117540   3.080   5.183   3.744
 5547SOL    HW217541   3.049   5.132   3.592
 5548SOL     OW17542   0.095   2.024   4.994
 5548SOL    HW117543   0.132   2.058   5.080
 5548SOL    HW217544   7.020   2.033   4.995
 5549SOL     OW17545   3.516   5.207   6.109
 5549SOL    HW117546   3.552   5.234   6.198
 5549SOL    HW217547   3.513   5.287   6.049
 5550SOL     OW17548   2.508   6.169   2.753
 5550SOL    HW117549   2.466   6.184   2.843
 5550SOL    HW217550   2.440   6.186   2.681
 5551SOL     OW17551   0.609   1.170   2.415
 5551SOL    HW117552   0.625   1.250   2.474
 5551SOL    HW217553   0.598   1.089   2.471
 5552SOL     OW17554   2.086   2.415   2.474
 5552SOL    HW117555   1.987   2.422   2.475
 5552SOL    HW217556   2.126   2.502   2.501
 5553SOL     OW17557   5.238   6.399   6.524
 5553SOL    HW117558   5.185   6.448   6.455
 5553SOL    HW217559   5.305   6.462   6.565
 5554SOL     OW17560   3.644   0.567   4.985
 5554SOL    HW117561   3.577   0.540   5.054
 5554SOL    HW217562   3.597   0.603   4.905
 5555SOL     OW17563   1.129   6.036   1.652
 5555SOL    HW117564   1.125   5.967   1.579
 5555SOL    HW217565   1.081   6.001   1.733
 5556SOL     OW17566   7.005   1.325   5.105
 5556SOL    HW117567   0.024   1.401   5.057
 5556SOL    HW217568   0.038   1.298   5.182
 5557SOL     OW17569   3.419   0.957   1.998
 5557SOL    HW117570   3.454   0.941   1.905
 5557SOL    HW217571   3.453   0.885   2.059
 5558SOL     OW17572   5.053   2.748   6.177
 5558SOL    HW117573   4.980   2.775   6.114
 5558SOL    HW217574   5.132   2.716   6.124
 5559SOL     OW17575   2.932   0.510   0.910
 5559SOL    HW117576   3.025   0.541   0.932
 5559SOL    HW217577   2.889   0.473   0.992
 5560SOL     OW17578   0.200   1.812   4.866
 5560SOL    HW117579   0.220   1.766   4.953
 5560SOL    HW217580   0.169   1.905   4.883
 5561SOL     OW17581   1.918   4.589   2.011
 5561SOL    HW117582   1.910   4.506   1.956
 5561SOL    HW217583   1.978   4.655   1.964
 5562SOL     OW17584   3.424   2.000   0.357
 5562SOL    HW117585   3.461   1.917   0.399
 5562SOL    HW217586   3.433   1.994   0.257
 5563SOL     OW17587   3.977   4.465   1.033
 5563SOL    HW117588   3.924   4.399   1.086
 5563SOL    HW217589   3.929   4.552   1.030
 5564SOL     OW17590   6.471   1.449   2.052
 5564SOL    HW117591   6.550   1.480   2.104
 5564SOL    HW217592   6.426   1.528   2.010
 5565SOL     OW17593   1.470   3.068   5.767
 5565SOL    HW117594   1.424   3.074   5.856
 5565SOL    HW217595   1.520   2.982   5.760
 5566SOL     OW17596   2.546   4.272   0.536
 5566SOL    HW117597   2.549   4.233   0.444
 5566SOL    HW217598   2.623   4.238   0.590
 5567SOL     OW17599   1.337   5.618   3.089
 5567SOL    HW117600   1.425   5.597   3.131
 5567SOL    HW217601   1.265   5.610   3.157
 5568SOL     OW17602   3.507   2.800   0.336
 5568SOL    HW117603   3.598   2.780   0.371
 5568SOL    HW217604   3.468   2.718   0.295
 5569SOL     OW17605   4.842   1.811   6.677
 5569SOL    HW117606   4.912   1.836   6.744
 5569SOL    HW217607   4.885   1.802   6.587
 5570SOL     OW17608   1.733   2.528   5.720
 5570SOL    HW117609   1.825   2.559   5.700
 5570SOL    HW217610   1.720   2.524   5.819
 5571SOL     OW17611   0.571   4.687   6.334
 5571SOL    HW117612   0.620   4.615   6.384
 5571SOL    HW217613   0.635   4.736   6.275
 5572SOL     OW17614   0.631   3.112   5.822
 5572SOL    HW117615   0.668   3.105   5.729
 5572SOL    HW217616   0.554   3.049   5.832
 5573SOL     OW17617   6.695   3.819   6.612
 5573SOL    HW117618   6.714   3.892   6.679
 5573SOL    HW217619   6.600   3.791   6.621
 5574SOL     OW17620   1.897   6.092   4.336
 5574SOL    HW117621   1.948   6.013   4.299
 5574SOL    HW217622   1.928   6.111   4.429
 5575SOL     OW17623   1.023   1.448   2.978
 5575SOL    HW117624   0.936   1.497   2.969
 5575SOL    HW217625   1.052   1.448   3.074
 5576SOL     OW17626   5.234   6.787   5.991
 5576SOL    HW117627   5.268   6.767   5.899
 5576SOL    HW217628   5.280   6.729   6.058
 5577SOL     OW17629   1.467   4.850   4.726
 5577SOL    HW117630   1.485   4.918   4.798
 5577SOL    HW217631   1.435   4.896   4.644
 5578SOL     OW17632   4.163   1.613   6.018
 5578SOL    HW117633   4.208   1.604   6.107
 5578SOL    HW217634   4.097   1.539   6.006
 5579SOL     OW17635   4.862   4.655   2.708
 5579SOL    HW117636   4.822   4.585   2.768
 5579SOL    HW217637   4.826   4.644   2.616
 5580SOL     OW17638   6.563   1.175   1.650
 5580SOL    HW117639   6.527   1.261   1.616
 5580SOL    HW217640   6.568   1.179   1.750
 5581SOL     OW17641   3.298   3.384   0.840
 5581SOL    HW117642   3.200   3.369   0.853
 5581SOL    HW217643   3.347   3.298   0.858
 5582SOL     OW17644   2.876   3.713   4.757
 5582SOL    HW117645   2.857   3.754   4.668
 5582SOL    HW217646   2.913   3.783   4.819
 5583SOL     OW17647   3.937   0.514   6.641
 5583SOL    HW117648   3.981   0.432   6.679
 5583SOL    HW217649   3.869   0.548   6.706
 5584SOL     OW17650   4.828   3.142   4.212
 5584SOL    HW117651   4.748   3.083   4.200
 5584SOL    HW217652   4.889   3.132   4.134
 5585SOL     OW17653   0.298   0.812   3.593
 5585SOL    HW117654   0.285   0.739   3.661
 5585SOL    HW217655   0.209   0.848   3.566
 5586SOL     OW17656   1.666   0.508   6.911
 5586SOL    HW117657   1.749   0.563   6.905
 5586SOL    HW217658   1.677   0.425   6.856
 5587SOL     OW17659   3.549   5.912   3.003
 5587SOL    HW117660   3.555   5.882   2.908
 5587SOL    HW217661   3.459   5.953   3.019
 5588SOL     OW17662   4.805   5.935   6.950
 5588SOL    HW117663   4.770   5.842   6.961
 5588SOL    HW217664   4.747   5.998   7.001
 5589SOL     OW17665   1.844   2.747   6.846
 5589SOL    HW117666   1.757   2.758   6.894
 5589SOL    HW217667   1.893   2.667   6.883
 5590SOL     OW17668   6.745   0.655   3.345
 5590SOL    HW117669   6.839   0.687   3.338
 5590SOL    HW217670   6.722   0.640   3.441
 5591SOL     OW17671   5.149   1.411   6.456
 5591SOL    HW117672   5.149   1.367   6.546
 5591SOL    HW217673   5.242   1.437   6.431
 5592SOL     OW17674   1.628   3.674   2.934
 5592SOL    HW117675   1.681   3.594   2.906
 5592SOL    HW217676   1.614   3.672   3.033
 5593SOL     OW17677   2.190   3.592   5.295
 5593SOL    HW117678   2.118   3.608   5.363
 5593SOL    HW217679   2.204   3.494   5.283
 5594SOL     OW17680   3.103   0.853   5.882
 5594SOL    HW117681   3.024   0.794   5.864
 5594SOL    HW217682   3.142   0.831   5.971
 5595SOL     OW17683   6.804   3.377   0.211
 5595SOL    HW117684   6.790   3.468   0.172
 5595SOL    HW217685   6.740   3.313   0.168
 5596SOL     OW17686   4.901   3.851   4.434
 5596SOL    HW117687   4.933   3.758   4.450
 5596SOL    HW217688   4.873   3.893   4.520
 5597SOL     OW17689   0.405   1.923   6.724
 5597SOL    HW117690   0.397   1.857   6.798
 5597SOL    HW217691   0.454   1.882   6.647
 5598SOL     OW17692   6.839   6.819   3.430
 5598SOL    HW117693   6.794   6.886   3.372
 5598SOL    HW217694   6.884   6.866   3.506
 5599SOL     OW17695   5.022   3.378   3.037
 5599SOL    HW117696   4.953   3.447   3.057
 5599SOL    HW217697   5.007   3.342   2.944
 5600SOL     OW17698   1.960   3.271   1.726
 5600SOL    HW117699   2.016   3.189   1.725
 5600SOL    HW217700   1.872   3.252   1.682
 5601SOL     OW17701   5.349   2.546   6.346
 5601SOL    HW117702   5.347   2.615   6.274
 5601SOL    HW217703   5.318   2.458   6.309
 5602SOL     OW17704   5.924   1.372   2.634
 5602SOL    HW117705   5.897   1.389   2.729
 5602SOL    HW217706   5.843   1.353   2.579
 5603SOL     OW17707   3.616   1.132   5.721
 5603SOL    HW117708   3.540   1.197   5.727
 5603SOL    HW217709   3.694   1.176   5.677
 5604SOL     OW17710   1.127   4.529   3.422
 5604SOL    HW117711   1.217   4.487   3.425
 5604SOL    HW217712   1.057   4.460   3.440
 5605SOL     OW17713   3.305   6.538   4.603
 5605SOL    HW117714   3.375   6.501   4.664
 5605SOL    HW217715   3.216   6.502   4.630
 5606SOL     OW17716   4.543   4.026   1.485
 5606SOL    HW117717   4.497   3.968   1.417
 5606SOL    HW217718   4.477   4.086   1.529
 5607SOL     OW17719   1.221   1.975   2.486
 5607SOL    HW117720   1.285   2.049   2.466
 5607SOL    HW217721   1.145   2.010   2.541
 5608SOL     OW17722   6.487   6.283   3.600
 5608SOL    HW117723   6.433   6.273   3.683
 5608SOL    HW217724   6.554   6.209   3.594
 5609SOL     OW17725   6.565   1.134   0.529
 5609SOL    HW117726   6.468   1.116   0.546
 5609SOL    HW217727   6.594   1.212   0.584
 5610SOL     OW17728   5.455   6.804   6.620
 5610SOL    HW117729   5.501   6.781   6.534
 5610SOL    HW217730   5.448   6.722   6.677
 5611SOL     OW17731   7.000   3.829   1.517
 5611SOL    HW117732   6.962   3.824   1.424
 5611SOL    HW217733   6.961   3.908   1.564
 5612SOL     OW17734   5.021   2.215   1.470
 5612SOL    HW117735   4.936   2.167   1.450
 5612SOL    HW217736   5.007   2.313   1.461
 5613SOL     OW17737   6.631   5.242   5.342
 5613SOL    HW117738   6.595   5.159   5.385
 5613SOL    HW217739   6.715   5.270   5.388
 5614SOL     OW17740   5.737   2.538   4.543
 5614SOL    HW117741   5.661   2.602   4.551
 5614SOL    HW217742   5.729   2.467   4.613
 5615SOL     OW17743   0.382   3.435   2.616
 5615SOL    HW117744   0.383   3.448   2.517
 5615SOL    HW217745   0.322   3.358   2.639
 5616SOL     OW17746   1.539   2.994   1.548
 5616SOL    HW117747   1.547   2.946   1.636
 5616SOL    HW217748   1.624   3.044   1.529
 5617SOL     OW17749   0.377   5.006   5.091
 5617SOL    HW117750   0.464   5.034   5.131
 5617SOL    HW217751   0.304   5.017   5.158
 5618SOL     OW17752   4.973   0.808   3.124
 5618SOL    HW117753   4.929   0.852   3.203
 5618SOL    HW217754   5.058   0.857   3.103
 5619SOL     OW17755   3.549   4.197   4.283
 5619SOL    HW117756   3.529   4.105   4.249
 5619SOL    HW217757   3.641   4.223   4.254
 5620SOL     OW17758   4.370   4.657   5.521
 5620SOL    HW117759   4.327   4.704   5.598
 5620SOL    HW217760   4.352   4.559   5.528
 5621SOL     OW17761   1.370   3.328   6.695
 5621SOL    HW117762   1.335   3.281   6.613
 5621SOL    HW217763   1.408   3.260   6.758
 5622SOL     OW17764   5.718   5.700   3.107
 5622SOL    HW117765   5.638   5.667   3.157
 5622SOL    HW217766   5.689   5.760   3.032
 5623SOL     OW17767   4.721   4.879   3.129
 5623SOL    HW117768   4.681   4.971   3.131
 5623SOL    HW217769   4.715   4.842   3.037
 5624SOL     OW17770   4.833   3.977   3.604
 5624SOL    HW117771   4.767   4.032   3.654
 5624SOL    HW217772   4.907   3.948   3.665
 5625SOL     OW17773   4.024   6.890   6.296
 5625SOL    HW117774   4.026   6.890   6.196
 5625SOL    HW217775   3.961   6.820   6.329
 5626SOL     OW17776   1.952   4.583   5.729
 5626SOL    HW117777   1.873   4.532   5.764
 5626SOL    HW217778   2.031   4.522   5.725
 5627SOL     OW17779   0.851   5.602   0.655
 5627SOL    HW117780   0.844   5.578   0.558
 5627SOL    HW217781   0.877   5.698   0.664
 5628SOL     OW17782   0.845   2.448   0.164
 5628SOL    HW117783   0.760   2.499   0.149
 5628SOL    HW217784   0.853   2.426   0.261
 5629SOL     OW17785   0.553   3.283   4.783
 5629SOL    HW117786   0.475   3.232   4.818
 5629SOL    HW217787   0.606   3.226   4.721
 5630SOL     OW17788   1.219   4.616   6.685
 5630SOL    HW117789   1.140   4.585   6.738
 5630SOL    HW217790   1.285   4.659   6.747
 5631SOL     OW17791   3.372   0.947   3.125
 5631SOL    HW117792   3.274   0.958   3.142
 5631SOL    HW217793   3.423   0.970   3.208
 5632SOL     OW17794   3.532   6.377   6.675
 5632SOL    HW117795   3.544   6.465   6.719
 5632SOL    HW217796   3.454   6.382   6.612
 5633SOL     OW17797   1.719   5.588   4.797
 5633SOL    HW117798   1.678   5.672   4.763
 5633SOL    HW217799   1.805   5.570   4.747
 5634SOL     OW17800   2.731   0.307   1.868
 5634SOL    HW117801   2.818   0.329   1.824
 5634SOL    HW217802   2.665   0.380   1.852
 5635SOL     OW17803   3.937   0.517   2.132
 5635SOL    HW117804   3.988   0.598   2.163
 5635SOL    HW217805   3.845   0.520   2.170
 5636SOL     OW17806   5.172   0.696   4.295
 5636SOL    HW117807   5.099   0.662   4.234
 5636SOL    HW217808   5.171   0.643   4.380
 5637SOL     OW17809   5.840   6.943   5.154
 5637SOL    HW117810   5.755   6.909   5.115
 5637SOL    HW217811   5.823   0.004   5.203
 5638SOL     OW17812   1.296   5.788   6.739
 5638SOL    HW117813   1.198   5.781   6.755
 5638SOL    HW217814   1.315   5.776   6.642
 5639SOL     OW17815   3.248   6.932   1.688
 5639SOL    HW117816   3.216   6.990   1.763
 5639SOL    HW217817   3.170   6.904   1.632
 5640SOL     OW17818   3.932   6.578   4.239
 5640SOL    HW117819   3.909   6.665   4.283
 5640SOL    HW217820   4.005   6.533   4.290
 5641SOL     OW17821   6.597   4.963   3.699
 5641SOL    HW117822   6.677   5.013   3.733
 5641SOL    HW217823   6.527   4.960   3.771
 5642SOL     OW17824   2.356   1.963   6.485
 5642SOL    HW117825   2.437   1.934   6.535
 5642SOL    HW217826   2.361   2.061   6.467
 5643SOL     OW17827   4.917   2.980   3.416
 5643SOL    HW117828   4.895   2.988   3.319
 5643SOL    HW217829   4.954   2.890   3.435
 5644SOL     OW17830   3.408   0.495   6.174
 5644SOL    HW117831   3.466   0.413   6.167
 5644SOL    HW217832   3.455   0.573   6.134
 5645SOL     OW17833   6.417   6.169   3.839
 5645SOL    HW117834   6.386   6.099   3.776
 5645SOL    HW217835   6.342   6.232   3.859
 5646SOL     OW17836   6.829   1.027   2.377
 5646SOL    HW117837   6.844   1.115   2.423
 5646SOL    HW217838   6.743   0.987   2.408
 5647SOL     OW17839   5.918   3.567   6.168
 5647SOL    HW117840   5.829   3.550   6.208
 5647SOL    HW217841   5.934   3.503   6.093
 5648SOL     OW17842   1.801   1.595   4.041
 5648SOL    HW117843   1.707   1.616   4.012
 5648SOL    HW217844   1.837   1.519   3.986
 5649SOL     OW17845   6.842   0.812   4.365
 5649SOL    HW117846   6.770   0.822   4.434
 5649SOL    HW217847   6.927   0.852   4.400
 5650SOL     OW17848   5.920   4.760   5.365
 5650SOL    HW117849   5.892   4.766   5.269
 5650SOL    HW217850   5.840   4.742   5.422
 5651SOL     OW17851   6.221   0.418   2.690
 5651SOL    HW117852   6.208   0.419   2.789
 5651SOL    HW217853   6.184   0.501   2.650
 5652SOL     OW17854   4.278   4.100   6.624
 5652SOL    HW117855   4.292   4.113   6.526
 5652SOL    HW217856   4.238   4.009   6.640
 5653SOL     OW17857   2.298   6.169   6.832
 5653SOL    HW117858   2.379   6.225   6.848
 5653SOL    HW217859   2.319   6.098   6.764
 5654SOL     OW17860   2.663   6.570   0.600
 5654SOL    HW117861   2.762   6.575   0.611
 5654SOL    HW217862   2.631   6.479   0.626
 5655SOL     OW17863   6.687   5.721   2.422
 5655SOL    HW117864   6.770   5.759   2.463
 5655SOL    HW217865   6.702   5.705   2.325
 5656SOL     OW17866   3.509   4.844   6.280
 5656SOL    HW117867   3.464   4.837   6.369
 5656SOL    HW217868   3.505   4.755   6.234
 5657SOL     OW17869   4.814   5.463   2.207
 5657SOL    HW117870   4.814   5.390   2.138
 5657SOL    HW217871   4.806   5.423   2.298
 5658SOL     OW17872   4.876   6.460   6.160
 5658SOL    HW117873   4.795   6.486   6.106
 5658SOL    HW217874   4.953   6.445   6.098
 5659SOL     OW17875   3.570   3.726   2.048
 5659SOL    HW117876   3.569   3.637   2.092
 5659SOL    HW217877   3.584   3.797   2.117
 5660SOL     OW17878   6.887   5.614   1.536
 5660SOL    HW117879   6.894   5.713   1.524
 5660SOL    HW217880   6.952   5.569   1.474
 5661SOL     OW17881   6.294   6.154   4.460
 5661SOL    HW117882   6.275   6.108   4.373
 5661SOL    HW217883   6.379   6.119   4.499
 5662SOL     OW17884   1.404   3.685   4.487
 5662SOL    HW117885   1.490   3.633   4.488
 5662SOL    HW217886   1.391   3.728   4.577
 5663SOL     OW17887   2.504   3.615   0.500
 5663SOL    HW117888   2.548   3.686   0.445
 5663SOL    HW217889   2.551   3.607   0.588
 5664SOL     OW17890   6.285   6.816   1.464
 5664SOL    HW117891   6.274   6.772   1.553
 5664SOL    HW217892   6.325   6.906   1.476
 5665SOL     OW17893   1.829   0.826   5.868
 5665SOL    HW117894   1.833   0.759   5.943
 5665SOL    HW217895   1.841   0.918   5.906
 5666SOL     OW17896   5.469   6.273   6.715
 5666SOL    HW117897   5.506   6.183   6.739
 5666SOL    HW217898   5.380   6.285   6.759
 5667SOL     OW17899   5.432   4.454   2.757
 5667SOL    HW117900   5.493   4.533   2.747
 5667SOL    HW217901   5.364   4.474   2.828
 5668SOL     OW17902   6.425   2.446   6.845
 5668SOL    HW117903   6.429   2.545   6.839
 5668SOL    HW217904   6.429   2.406   6.754
 5669SOL     OW17905   0.057   2.305   5.161
 5669SOL    HW117906   7.011   2.375   5.157
 5669SOL    HW217907   0.103   2.298   5.073
 5670SOL     OW17908   1.739   3.034   1.833
 5670SOL    HW117909   1.689   3.116   1.861
 5670SOL    HW217910   1.676   2.957   1.827
 5671SOL     OW17911   1.532   0.738   5.855
 5671SOL    HW117912   1.624   0.733   5.817
 5671SOL    HW217913   1.535   0.785   5.944
 5672SOL     OW17914   4.319   4.427   5.822
 5672SOL    HW117915   4.394   4.361   5.828
 5672SOL    HW217916   4.280   4.424   5.730
 5673SOL     OW17917   1.924   6.667   1.471
 5673SOL    HW117918   1.923   6.634   1.566
 5673SOL    HW217919   2.017   6.664   1.436
 5674SOL     OW17920   0.808   2.523   0.825
 5674SOL    HW117921   0.745   2.586   0.781
 5674SOL    HW217922   0.897   2.528   0.780
 5675SOL     OW17923   4.370   0.773   5.712
 5675SOL    HW117924   4.393   0.871   5.712
 5675SOL    HW217925   4.292   0.757   5.772
 5676SOL     OW17926   2.179   6.383   2.505
 5676SOL    HW117927   2.222   6.377   2.415
 5676SOL    HW217928   2.149   6.477   2.521
 5677SOL     OW17929   6.505   0.035   2.857
 5677SOL    HW117930   6.433   7.008   2.904
 5677SOL    HW217931   6.560   6.997   2.802
 5678SOL     OW17932   1.390   5.447   2.688
 5678SOL    HW117933   1.318   5.439   2.619
 5678SOL    HW217934   1.365   5.393   2.769
 5679SOL     OW17935   3.963   5.953   5.486
 5679SOL    HW117936   4.028   6.029   5.478
 5679SOL    HW217937   4.012   5.869   5.507
 5680SOL     OW17938   1.806   6.772   6.474
 5680SOL    HW117939   1.815   6.679   6.439
 5680SOL    HW217940   1.793   6.769   6.574
 5681SOL     OW17941   3.121   3.638   0.404
 5681SOL    HW117942   3.219   3.651   0.390
 5681SOL    HW217943   3.082   3.722   0.443
 5682SOL     OW17944   2.068   3.636   4.659
 5682SOL    HW117945   2.062   3.642   4.758
 5682SOL    HW217946   2.108   3.720   4.622
 5683SOL     OW17947   3.922   3.070   5.047
 5683SOL    HW117948   3.831   3.081   5.087
 5683SOL    HW217949   3.977   3.010   5.104
 5684SOL     OW17950   3.006   3.888   3.079
 5684SOL    HW117951   3.094   3.936   3.083
 5684SOL    HW217952   2.949   3.928   3.008
 5685SOL     OW17953   6.922   6.736   1.388
 5685SOL    HW117954   6.912   6.825   1.345
 5685SOL    HW217955   6.955   6.747   1.482
 5686SOL     OW17956   3.194   4.392   6.346
 5686SOL    HW117957   3.094   4.391   6.353
 5686SOL    HW217958   3.233   4.381   6.437
 5687SOL     OW17959   4.661   6.410   6.535
 5687SOL    HW117960   4.696   6.345   6.467
 5687SOL    HW217961   4.668   6.503   6.499
 5688SOL     OW17962   5.151   1.890   2.516
 5688SOL    HW117963   5.204   1.909   2.433
 5688SOL    HW217964   5.172   1.960   2.584
 5689SOL     OW17965   4.001   2.923   5.260
 5689SOL    HW117966   3.966   2.995   5.320
 5689SOL    HW217967   4.030   2.845   5.315
 5690SOL     OW17968   3.762   0.581   3.016
 5690SOL    HW117969   3.750   0.506   3.081
 5690SOL    HW217970   3.699   0.569   2.939
 5691SOL     OW17971   3.777   0.712   4.126
 5691SOL    HW117972   3.778   0.737   4.223
 5691SOL    HW217973   3.728   0.782   4.074
 5692SOL     OW17974   5.827   2.859   0.307
 5692SOL    HW117975   5.736   2.839   0.269
 5692SOL    HW217976   5.853   2.952   0.283
 5693SOL     OW17977   5.502   3.065   1.703
 5693SOL    HW117978   5.429   3.100   1.644
 5693SOL    HW217979   5.587   3.061   1.651
 5694SOL     OW17980   1.439   2.128   4.966
 5694SOL    HW117981   1.365   2.081   4.919
 5694SOL    HW217982   1.496   2.061   5.014
 5695SOL     OW17983   1.797   3.827   3.445
 5695SOL    HW117984   1.786   3.728   3.444
 5695SOL    HW217985   1.868   3.851   3.512
 5696SOL     OW17986   3.404   1.382   6.570
 5696SOL    HW117987   3.441   1.368   6.662
 5696SOL    HW217988   3.434   1.471   6.535
 5697SOL     OW17989   6.883   3.944   0.408
 5697SOL    HW117990   6.804   3.912   0.357
 5697SOL    HW217991   6.910   4.034   0.376
 5698SOL     OW17992   1.235   4.245   3.958
 5698SOL    HW117993   1.251   4.329   3.906
 5698SOL    HW217994   1.303   4.238   4.031
 5699SOL     OW17995   0.785   2.440   5.113
 5699SOL    HW117996   0.793   2.523   5.169
 5699SOL    HW217997   0.875   2.400   5.099
 5700SOL     OW17998   1.120   5.095   4.519
 5700SOL    HW117999   1.117   4.997   4.538
 5700SOL    HW218000   1.215   5.127   4.525
 5701SOL     OW18001   4.845   2.774   2.676
 5701SOL    HW118002   4.797   2.713   2.739
 5701SOL    HW218003   4.790   2.784   2.592
 5702SOL     OW18004   3.686   0.280   0.264
 5702SOL    HW118005   3.716   0.365   0.221
 5702SOL    HW218006   3.685   0.207   0.197
 5703SOL     OW18007   4.916   4.261   2.648
 5703SOL    HW118008   4.934   4.163   2.654
 5703SOL    HW218009   4.936   4.304   2.735
 5704SOL     OW18010   5.694   4.059   3.178
 5704SOL    HW118011   5.657   4.058   3.085
 5704SOL    HW218012   5.669   4.145   3.222
 5705SOL     OW18013   6.817   0.984   3.822
 5705SOL    HW118014   6.861   1.073   3.814
 5705SOL    HW218015   6.731   0.994   3.872
 5706SOL     OW18016   2.629   1.444   6.426
 5706SOL    HW118017   2.608   1.414   6.519
 5706SOL    HW218018   2.713   1.499   6.427
 5707SOL     OW18019   3.926   1.475   0.832
 5707SOL    HW118020   3.860   1.462   0.758
 5707SOL    HW218021   3.877   1.504   0.915
 5708SOL     OW18022   0.874   0.045   0.758
 5708SOL    HW118023   0.865   6.971   0.745
 5708SOL    HW218024   0.902   0.063   0.853
 5709SOL     OW18025   0.756   2.065   0.956
 5709SOL    HW118026   0.838   2.122   0.952
 5709SOL    HW218027   0.731   2.035   0.864
 5710SOL     OW18028   3.687   4.754   6.900
 5710SOL    HW118029   3.663   4.680   6.963
 5710SOL    HW218030   3.668   4.725   6.806
 5711SOL     OW18031   5.232   1.695   4.784
 5711SOL    HW118032   5.301   1.747   4.834
 5711SOL    HW218033   5.142   1.736   4.799
 5712SOL     OW18034   5.606   0.014   6.312
 5712SOL    HW118035   5.608   0.100   6.261
 5712SOL    HW218036   5.513   7.021   6.344
 5713SOL     OW18037   0.417   3.382   2.308
 5713SOL    HW118038   0.507   3.351   2.338
 5713SOL    HW218039   0.424   3.423   2.217
 5714SOL     OW18040   2.253   0.590   0.726
 5714SOL    HW118041   2.328   0.608   0.663
 5714SOL    HW218042   2.248   0.491   0.743
 5715SOL     OW18043   0.345   6.398   3.794
 5715SOL    HW118044   0.254   6.413   3.757
 5715SOL    HW218045   0.342   6.403   3.894
 5716SOL     OW18046   1.835   2.195   5.364
 5716SOL    HW118047   1.777   2.233   5.291
 5716SOL    HW218048   1.779   2.142   5.427
 5717SOL     OW18049   0.836   3.442   6.123
 5717SOL    HW118050   0.744   3.402   6.122
 5717SOL    HW218051   0.900   3.379   6.080
 5718SOL     OW18052   3.306   5.804   6.064
 5718SOL    HW118053   3.316   5.737   5.992
 5718SOL    HW218054   3.260   5.885   6.028
 5719SOL     OW18055   2.377   0.935   6.929
 5719SOL    HW118056   2.330   0.860   6.976
 5719SOL    HW218057   2.473   0.937   6.957
 5720SOL     OW18058   2.239   6.240   3.729
 5720SOL    HW118059   2.174   6.256   3.655
 5720SOL    HW218060   2.331   6.265   3.699
 5721SOL     OW18061   6.579   5.078   6.752
 5721SOL    HW118062   6.649   5.038   6.811
 5721SOL    HW218063   6.514   5.007   6.725
 5722SOL     OW18064   5.141   1.087   4.673
 5722SOL    HW118065   5.209   1.101   4.745
 5722SOL    HW218066   5.148   1.162   4.607
 5723SOL     OW18067   0.031   4.564   1.271
 5723SOL    HW118068   0.048   4.535   1.176
 5723SOL    HW218069   6.964   4.603   1.278
 5724SOL     OW18070   4.925   3.131   6.142
 5724SOL    HW118071   4.916   3.047   6.197
 5724SOL    HW218072   4.841   3.146   6.091
 5725SOL     OW18073   5.719   6.431   5.187
 5725SOL    HW118074   5.630   6.454   5.150
 5725SOL    HW218075   5.791   6.469   5.128
 5726SOL     OW18076   3.805   5.334   5.926
 5726SOL    HW118077   3.779   5.253   5.873
 5726SOL    HW218078   3.869   5.390   5.874
 5727SOL     OW18079   5.832   2.192   3.742
 5727SOL    HW118080   5.850   2.276   3.692
 5727SOL    HW218081   5.844   2.208   3.840
 5728SOL     OW18082   3.851   0.913   4.870
 5728SOL    HW118083   3.935   0.930   4.922
 5728SOL    HW218084   3.773   0.909   4.932
 5729SOL     OW18085   2.408   2.276   4.210
 5729SOL    HW118086   2.454   2.202   4.160
 5729SOL    HW218087   2.366   2.238   4.293
 5730SOL     OW18088   4.045   4.764   0.000
 5730SOL    HW118089   4.025   4.839   0.063
 5730SOL    HW218090   4.080   4.800   6.939
 5731SOL     OW18091   4.498   0.990   4.933
 5731SOL    HW118092   4.519   0.903   4.890
 5731SOL    HW218093   4.408   1.022   4.901
 5732SOL     OW18094   6.351   4.207   4.002
 5732SOL    HW118095   6.285   4.243   4.068
 5732SOL    HW218096   6.312   4.213   3.910
 5733SOL     OW18097   2.190   6.582   1.677
 5733SOL    HW118098   2.124   6.507   1.679
 5733SOL    HW218099   2.261   6.566   1.746
 5734SOL     OW18100   2.089   0.402   5.685
 5734SOL    HW118101   2.019   0.383   5.616
 5734SOL    HW218102   2.076   0.494   5.721
 5735SOL     OW18103   5.244   1.497   0.521
 5735SOL    HW118104   5.297   1.529   0.599
 5735SOL    HW218105   5.151   1.473   0.550
 5736SOL     OW18106   5.052   3.761   6.848
 5736SOL    HW118107   5.051   3.748   6.749
 5736SOL    HW218108   5.062   3.672   6.893
 5737SOL     OW18109   4.922   6.276   2.587
 5737SOL    HW118110   5.012   6.260   2.626
 5737SOL    HW218111   4.912   6.374   2.566
 5738SOL     OW18112   3.324   1.377   0.939
 5738SOL    HW118113   3.248   1.441   0.931
 5738SOL    HW218114   3.401   1.422   0.985
 5739SOL     OW18115   2.351   1.214   5.603
 5739SOL    HW118116   2.316   1.306   5.586
 5739SOL    HW218117   2.450   1.217   5.612
 5740SOL     OW18118   4.834   2.985   2.852
 5740SOL    HW118119   4.888   2.932   2.786
 5740SOL    HW218120   4.737   2.977   2.830
 5741SOL     OW18121   1.633   3.435   3.714
 5741SOL    HW118122   1.718   3.487   3.712
 5741SOL    HW218123   1.639   3.360   3.648
 5742SOL     OW18124   5.940   5.054   2.054
 5742SOL    HW118125   6.037   5.051   2.033
 5742SOL    HW218126   5.924   5.121   2.127
 5743SOL     OW18127   4.162   6.843   6.796
 5743SOL    HW118128   4.156   6.744   6.782
 5743SOL    HW218129   4.109   6.889   6.726
 5744SOL     OW18130   5.505   5.597   3.245
 5744SOL    HW118131   5.547   5.644   3.323
 5744SOL    HW218132   5.407   5.614   3.245
 5745SOL     OW18133   0.936   3.727   2.261
 5745SOL    HW118134   0.976   3.793   2.197
 5745SOL    HW218135   0.907   3.645   2.211
 5746SOL     OW18136   5.620   0.718   3.295
 5746SOL    HW118137   5.627   0.634   3.348
 5746SOL    HW218138   5.539   0.769   3.323
 5747SOL     OW18139   2.096   6.859   1.773
 5747SOL    HW118140   2.109   6.781   1.712
 5747SOL    HW218141   2.031   6.834   1.844
 5748SOL     OW18142   6.390   6.696   6.987
 5748SOL    HW118143   6.378   6.601   7.016
 5748SOL    HW218144   6.330   6.756   0.016
 5749SOL     OW18145   1.968   6.552   6.681
 5749SOL    HW118146   1.906   6.542   6.758
 5749SOL    HW218147   2.006   6.645   6.681
 5750SOL     OW18148   6.150   2.737   3.838
 5750SOL    HW118149   6.070   2.679   3.821
 5750SOL    HW218150   6.195   2.708   3.923
 5751SOL     OW18151   0.199   3.699   3.535
 5751SOL    HW118152   0.139   3.768   3.575
 5751SOL    HW218153   0.162   3.669   3.447
 5752SOL     OW18154   5.944   1.492   6.955
 5752SOL    HW118155   6.039   1.476   6.925
 5752SOL    HW218156   5.913   1.580   6.920
 5753SOL     OW18157   3.473   3.362   4.237
 5753SOL    HW118158   3.382   3.396   4.261
 5753SOL    HW218159   3.514   3.317   4.317
 5754SOL     OW18160   6.042   6.778   0.975
 5754SOL    HW118161   6.134   6.806   1.001
 5754SOL    HW218162   6.045   6.737   0.883
 5755SOL     OW18163   0.539   3.676   6.401
 5755SOL    HW118164   0.625   3.650   6.445
 5755SOL    HW218165   0.559   3.716   6.311
 5756SOL     OW18166   6.324   6.598   1.952
 5756SOL    HW118167   6.362   6.614   2.043
 5756SOL    HW218168   6.232   6.560   1.961
 5757SOL     OW18169   0.869   1.970   4.191
 5757SOL    HW118170   0.833   1.878   4.178
 5757SOL    HW218171   0.844   2.027   4.112
 5758SOL     OW18172   6.451   6.966   3.326
 5758SOL    HW118173   6.385   6.979   3.252
 5758SOL    HW218174   6.415   6.902   3.393
 5759SOL     OW18175   2.189   6.443   3.313
 5759SOL    HW118176   2.153   6.485   3.396
 5759SOL    HW218177   2.269   6.494   3.282
 5760SOL     OW18178   0.226   2.055   0.527
 5760SOL    HW118179   0.285   2.062   0.608
 5760SOL    HW218180   0.251   1.974   0.474
 5761SOL     OW18181   6.421   6.978   5.224
 5761SOL    HW118182   6.475   6.921   5.162
 5761SOL    HW218183   6.440   0.050   5.206
 5762SOL     OW18184   1.105   5.649   5.647
 5762SOL    HW118185   1.110   5.640   5.548
 5762SOL    HW218186   1.013   5.678   5.674
 5763SOL     OW18187   4.929   0.619   0.021
 5763SOL    HW118188   4.829   0.608   0.018
 5763SOL    HW218189   4.952   0.708   0.061
 5764SOL     OW18190   3.435   6.378   4.316
 5764SOL    HW118191   3.427   6.316   4.395
 5764SOL    HW218192   3.529   6.378   4.283
 5765SOL     OW18193   0.192   6.359   2.422
 5765SOL    HW118194   0.141   6.429   2.371
 5765SOL    HW218195   0.156   6.354   2.515
 5766SOL     OW18196   0.784   0.741   4.891
 5766SOL    HW118197   0.857   0.719   4.956
 5766SOL    HW218198   0.817   0.727   4.798
 5767SOL     OW18199   6.152   6.657   0.256
 5767SOL    HW118200   6.180   6.571   0.212
 5767SOL    HW218201   6.067   6.689   0.213
 5768SOL     OW18202   1.032   0.652   5.072
 5768SOL    HW118203   1.066   0.703   4.993
 5768SOL    HW218204   1.051   0.554   5.059
 5769SOL     OW18205   1.185   2.574   5.924
 5769SOL    HW118206   1.215   2.655   5.873
 5769SOL    HW218207   1.240   2.495   5.896
 5770SOL     OW18208   1.378   4.400   2.387
 5770SOL    HW118209   1.311   4.466   2.420
 5770SOL    HW218210   1.381   4.321   2.449
 5771SOL     OW18211   2.785   5.836   3.114
 5771SOL    HW118212   2.837   5.917   3.088
 5771SOL    HW218213   2.689   5.848   3.090
 5772SOL     OW18214   2.647   0.577   3.210
 5772SOL    HW118215   2.587   0.555   3.133
 5772SOL    HW218216   2.597   0.567   3.296
 5773SOL     OW18217   5.783   0.487   4.199
 5773SOL    HW118218   5.834   0.402   4.212
 5773SOL    HW218219   5.830   0.544   4.131
 5774SOL     OW18220   1.015   5.976   3.800
 5774SOL    HW118221   1.017   6.073   3.776
 5774SOL    HW218222   0.980   5.965   3.893
 5775SOL     OW18223   5.434   4.855   2.634
 5775SOL    HW118224   5.358   4.790   2.640
 5775SOL    HW218225   5.460   4.867   2.539
 5776SOL     OW18226   3.924   1.018   3.851
 5776SOL    HW118227   3.966   0.989   3.938
 5776SOL    HW218228   3.904   0.938   3.795
 5777SOL     OW18229   0.812   0.415   1.819
 5777SOL    HW118230   0.820   0.378   1.912
 5777SOL    HW218231   0.771   0.346   1.759
 5778SOL     OW18232   0.228   1.055   0.078
 5778SOL    HW118233   0.292   1.066   0.154
 5778SOL    HW218234   0.269   1.089   7.018
 5779SOL     OW18235   5.483   1.559   0.375
 5779SOL    HW118236   5.448   1.652   0.377
 5779SOL    HW218237   5.409   1.495   0.399
 5780SOL     OW18238   5.161   5.288   4.214
 5780SOL    HW118239   5.152   5.211   4.278
 5780SOL    HW218240   5.209   5.363   4.259
 5781SOL     OW18241   1.243   6.154   5.830
 5781SOL    HW118242   1.328   6.197   5.799
 5781SOL    HW218243   1.173   6.165   5.759
 5782SOL     OW18244   6.060   0.617   0.843
 5782SOL    HW118245   6.001   0.694   0.819
 5782SOL    HW218246   6.048   0.595   0.940
 5783SOL     OW18247   2.595   2.303   6.198
 5783SOL    HW118248   2.629   2.391   6.231
 5783SOL    HW218249   2.605   2.298   6.099
 5784SOL     OW18250   6.504   6.872   0.588
 5784SOL    HW118251   6.460   6.850   0.501
 5784SOL    HW218252   6.603   6.864   0.579
 5785SOL     OW18253   1.326   2.007   1.864
 5785SOL    HW118254   1.337   1.918   1.908
 5785SOL    HW218255   1.247   2.054   1.903
 5786SOL     OW18256   6.519   5.413   2.057
 5786SOL    HW118257   6.451   5.447   2.121
 5786SOL    HW218258   6.497   5.319   2.032
 5787SOL     OW18259   1.867   3.087   6.372
 5787SOL    HW118260   1.836   3.003   6.327
 5787SOL    HW218261   1.924   3.139   6.308
 5788SOL     OW18262   3.586   0.253   3.628
 5788SOL    HW118263   3.634   0.327   3.581
 5788SOL    HW218264   3.543   0.288   3.711
 5789SOL     OW18265   3.306   4.440   6.069
 5789SOL    HW118266   3.257   4.511   6.018
 5789SOL    HW218267   3.259   4.422   6.155
 5790SOL     OW18268   1.483   3.910   4.343
 5790SOL    HW118269   1.465   3.820   4.383
 5790SOL    HW218270   1.565   3.949   4.385
 5791SOL     OW18271   1.235   0.907   3.414
 5791SOL    HW118272   1.173   0.982   3.393
 5791SOL    HW218273   1.327   0.942   3.429
 5792SOL     OW18274   0.151   2.418   3.178
 5792SOL    HW118275   0.173   2.357   3.254
 5792SOL    HW218276   0.094   2.494   3.212
 5793SOL     OW18277   6.320   0.912   5.047
 5793SOL    HW118278   6.396   0.847   5.056
 5793SOL    HW218279   6.280   0.904   4.956
 5794SOL     OW18280   6.845   3.981   6.907
 5794SOL    HW118281   6.926   3.930   6.938
 5794SOL    HW218282   6.850   3.993   6.808
 5795SOL     OW18283   6.785   4.715   6.801
 5795SOL    HW118284   6.843   4.686   6.877
 5795SOL    HW218285   6.701   4.755   6.837
 5796SOL     OW18286   2.708   2.125   0.748
 5796SOL    HW118287   2.789   2.170   0.711
 5796SOL    HW218288   2.725   2.098   0.843
 5797SOL     OW18289   3.153   2.798   5.221
 5797SOL    HW118290   3.075   2.769   5.276
 5797SOL    HW218291   3.218   2.723   5.212
 5798SOL     OW18292   6.484   4.923   4.410
 5798SOL    HW118293   6.568   4.913   4.463
 5798SOL    HW218294   6.452   5.018   4.415
 5799SOL     OW18295   5.599   0.291   4.070
 5799SOL    HW118296   5.657   0.354   4.123
 5799SOL    HW218297   5.658   0.229   4.017
 5800SOL     OW18298   5.586   5.709   6.739
 5800SOL    HW118299   5.578   5.702   6.838
 5800SOL    HW218300   5.670   5.758   6.715
 5801SOL     OW18301   1.569   1.707   2.345
 5801SOL    HW118302   1.658   1.663   2.358
 5801SOL    HW218303   1.582   1.805   2.334
 5802SOL     OW18304   0.346   2.545   4.816
 5802SOL    HW118305   0.343   2.528   4.718
 5802SOL    HW218306   0.431   2.592   4.839
 5803SOL     OW18307   1.619   5.133   0.854
 5803SOL    HW118308   1.646   5.100   0.944
 5803SOL    HW218309   1.652   5.226   0.841
 5804SOL     OW18310   0.548   2.546   6.239
 5804SOL    HW118311   0.539   2.483   6.162
 5804SOL    HW218312   0.460   2.555   6.285
 5805SOL     OW18313   5.175   3.262   6.867
 5805SOL    HW118314   5.144   3.245   6.773
 5805SOL    HW218315   5.254   3.204   6.887
 5806SOL     OW18316   6.469   6.985   6.532
 5806SOL    HW118317   6.493   6.909   6.593
 5806SOL    HW218318   6.384   0.002   6.563
 5807SOL     OW18319   2.940   4.196   1.284
 5807SOL    HW118320   2.998   4.195   1.203
 5807SOL    HW218321   2.966   4.273   1.342
 5808SOL     OW18322   6.153   1.682   3.227
 5808SOL    HW118323   6.252   1.670   3.230
 5808SOL    HW218324   6.120   1.708   3.318
 5809SOL     OW18325   0.647   2.756   3.817
 5809SOL    HW118326   0.723   2.731   3.758
 5809SOL    HW218327   0.570   2.788   3.762
 5810SOL     OW18328   2.833   2.258   2.752
 5810SOL    HW118329   2.920   2.259   2.702
 5810SOL    HW218330   2.758   2.243   2.687
 5811SOL     OW18331   2.813   0.289   2.128
 5811SOL    HW118332   2.765   0.230   2.193
 5811SOL    HW218333   2.763   0.290   2.041
 5812SOL     OW18334   4.383   0.438   4.840
 5812SOL    HW118335   4.342   0.347   4.839
 5812SOL    HW218336   4.400   0.468   4.746
 5813SOL     OW18337   1.857   1.854   5.298
 5813SOL    HW118338   1.866   1.952   5.315
 5813SOL    HW218339   1.851   1.806   5.386
 5814SOL     OW18340   0.403   5.329   1.482
 5814SOL    HW118341   0.337   5.370   1.419
 5814SOL    HW218342   0.355   5.265   1.542
 5815SOL     OW18343   4.164   6.669   4.370
 5815SOL    HW118344   4.090   6.733   4.348
 5815SOL    HW218345   4.249   6.719   4.383
 5816SOL     OW18346   5.445   6.518   0.356
 5816SOL    HW118347   5.440   6.425   0.391
 5816SOL    HW218348   5.368   6.534   0.295
 5817SOL     OW18349   6.247   2.862   6.484
 5817SOL    HW118350   6.327   2.871   6.543
 5817SOL    HW218351   6.274   2.824   6.395
 5818SOL     OW18352   6.433   6.636   5.164
 5818SOL    HW118353   6.467   6.697   5.093
 5818SOL    HW218354   6.462   6.669   5.254
 5819SOL     OW18355   6.295   0.106   0.950
 5819SOL    HW118356   6.311   0.008   0.965
 5819SOL    HW218357   6.227   0.118   0.878
 5820SOL     OW18358   5.502   4.745   1.869
 5820SOL    HW118359   5.454   4.679   1.927
 5820SOL    HW218360   5.500   4.714   1.774
 5821SOL     OW18361   3.036   0.119   2.638
 5821SOL    HW118362   2.973   0.174   2.583
 5821SOL    HW218363   3.105   0.078   2.578
 5822SOL     OW18364   0.272   0.820   2.452
 5822SOL    HW118365   0.319   0.742   2.494
 5822SOL    HW218366   0.176   0.796   2.434
 5823SOL     OW18367   2.018   2.804   4.180
 5823SOL    HW118368   1.995   2.877   4.117
 5823SOL    HW218369   1.935   2.761   4.214
 5824SOL     OW18370   5.171   0.340   3.990
 5824SOL    HW118371   5.198   0.259   4.042
 5824SOL    HW218372   5.131   0.310   3.903
 5825SOL     OW18373   3.378   1.699   1.529
 5825SOL    HW118374   3.312   1.767   1.497
 5825SOL    HW218375   3.354   1.672   1.623
 5826SOL     OW18376   0.488   6.765   3.643
 5826SOL    HW118377   0.398   6.779   3.683
 5826SOL    HW218378   0.486   6.688   3.581
 5827SOL     OW18379   1.643   4.804   5.738
 5827SOL    HW118380   1.614   4.753   5.820
 5827SOL    HW218381   1.648   4.901   5.760
 5828SOL     OW18382   5.958   2.294   1.389
 5828SOL    HW118383   6.008   2.295   1.303
 5828SOL    HW218384   6.023   2.299   1.465
 5829SOL     OW18385   2.089   1.731   1.311
 5829SOL    HW118386   1.997   1.754   1.280
 5829SOL    HW218387   2.084   1.677   1.394
 5830SOL     OW18388   1.844   0.869   5.579
 5830SOL    HW118389   1.827   0.851   5.676
 5830SOL    HW218390   1.898   0.794   5.540
 5831SOL     OW18391   5.632   5.632   2.733
 5831SOL    HW118392   5.599   5.648   2.640
 5831SOL    HW218393   5.722   5.590   2.730
 5832SOL     OW18394   3.535   3.361   4.820
 5832SOL    HW118395   3.516   3.374   4.723
 5832SOL    HW218396   3.558   3.266   4.837
 5833SOL     OW18397   2.888   3.333   5.025
 5833SOL    HW118398   2.799   3.321   4.981
 5833SOL    HW218399   2.914   3.430   5.022
 5834SOL     OW18400   5.704   1.124   0.177
 5834SOL    HW118401   5.697   1.196   0.108
 5834SOL    HW218402   5.629   1.059   0.165
 5835SOL     OW18403   5.426   2.957   4.390
 5835SOL    HW118404   5.347   2.998   4.436
 5835SOL    HW218405   5.394   2.885   4.329
 5836SOL     OW18406   3.281   6.846   3.521
 5836SOL    HW118407   3.336   6.783   3.466
 5836SOL    HW218408   3.338   6.886   3.592
 5837SOL     OW18409   4.455   4.016   6.196
 5837SOL    HW118410   4.497   3.978   6.278
 5837SOL    HW218411   4.472   4.114   6.192
 5838SOL     OW18412   0.692   0.950   5.896
 5838SOL    HW118413   0.665   0.924   5.803
 5838SOL    HW218414   0.742   0.875   5.939
 5839SOL     OW18415   0.122   2.150   2.556
 5839SOL    HW118416   0.119   2.235   2.504
 5839SOL    HW218417   0.176   2.082   2.507
 5840SOL     OW18418   3.494   5.577   0.488
 5840SOL    HW118419   3.520   5.531   0.572
 5840SOL    HW218420   3.440   5.514   0.431
 5841SOL     OW18421   6.076   2.254   3.238
 5841SOL    HW118422   6.120   2.176   3.282
 5841SOL    HW218423   6.107   2.260   3.143
 5842SOL     OW18424   3.730   2.146   1.152
 5842SOL    HW118425   3.753   2.221   1.091
 5842SOL    HW218426   3.812   2.091   1.171
 5843SOL     OW18427   0.509   2.476   1.430
 5843SOL    HW118428   0.516   2.559   1.373
 5843SOL    HW218429   0.500   2.396   1.370
 5844SOL     OW18430   1.676   6.533   6.338
 5844SOL    HW118431   1.767   6.493   6.330
 5844SOL    HW218432   1.612   6.481   6.281
 5845SOL     OW18433   1.972   2.795   4.932
 5845SOL    HW118434   1.980   2.819   5.029
 5845SOL    HW218435   2.050   2.738   4.906
 5846SOL     OW18436   0.272   3.787   6.768
 5846SOL    HW118437   0.255   3.820   6.675
 5846SOL    HW218438   0.282   3.688   6.767
 5847SOL     OW18439   1.591   2.433   4.324
 5847SOL    HW118440   1.560   2.522   4.291
 5847SOL    HW218441   1.565   2.423   4.420
 5848SOL     OW18442   0.779   4.711   3.538
 5848SOL    HW118443   0.830   4.763   3.607
 5848SOL    HW218444   0.756   4.621   3.574
 5849SOL     OW18445   2.822   6.993   6.086
 5849SOL    HW118446   2.790   0.030   6.158
 5849SOL    HW218447   2.809   0.011   5.997
 5850SOL     OW18448   0.933   4.508   3.159
 5850SOL    HW118449   0.937   4.459   3.246
 5850SOL    HW218450   1.009   4.479   3.100
 5851SOL     OW18451   6.301   3.287   2.047
 5851SOL    HW118452   6.280   3.198   2.087
 5851SOL    HW218453   6.315   3.277   1.948
 5852SOL     OW18454   3.582   6.397   3.105
 5852SOL    HW118455   3.596   6.494   3.088
 5852SOL    HW218456   3.488   6.372   3.084
 5853SOL     OW18457   4.949   4.348   5.391
 5853SOL    HW118458   4.916   4.385   5.305
 5853SOL    HW218459   5.027   4.288   5.374
 5854SOL     OW18460   0.920   1.475   6.727
 5854SOL    HW118461   0.977   1.502   6.805
 5854SOL    HW218462   0.838   1.532   6.725
 5855SOL     OW18463   1.397   1.783   4.902
 5855SOL    HW118464   1.428   1.690   4.918
 5855SOL    HW218465   1.344   1.787   4.818
 5856SOL     OW18466   1.005   5.563   3.560
 5856SOL    HW118467   1.056   5.606   3.634
 5856SOL    HW218468   0.907   5.579   3.573
 5857SOL     OW18469   0.297   2.325   5.311
 5857SOL    HW118470   0.343   2.406   5.276
 5857SOL    HW218471   0.214   2.308   5.257
 5858SOL     OW18472   2.896   6.529   3.745
 5858SOL    HW118473   2.963   6.602   3.732
 5858SOL    HW218474   2.886   6.478   3.660
 5859SOL     OW18475   5.981   5.526   1.790
 5859SOL    HW118476   5.999   5.623   1.772
 5859SOL    HW218477   5.884   5.514   1.814
 5860SOL     OW18478   6.956   4.117   0.889
 5860SOL    HW118479   7.001   4.185   0.947
 5860SOL    HW218480   0.001   4.060   0.845
 5861SOL     OW18481   5.996   1.294   3.738
 5861SOL    HW118482   5.981   1.298   3.836
 5861SOL    HW218483   6.061   1.364   3.710
 5862SOL     OW18484   5.170   4.866   3.847
 5862SOL    HW118485   5.236   4.913   3.907
 5862SOL    HW218486   5.163   4.917   3.761
 5863SOL     OW18487   2.012   1.438   0.305
 5863SOL    HW118488   2.040   1.346   0.334
 5863SOL    HW218489   2.094   1.492   0.286
 5864SOL     OW18490   4.664   5.164   0.812
 5864SOL    HW118491   4.586   5.135   0.756
 5864SOL    HW218492   4.749   5.154   0.759
 5865SOL     OW18493   4.079   0.770   2.690
 5865SOL    HW118494   4.133   0.769   2.774
 5865SOL    HW218495   4.140   0.758   2.611
 5866SOL     OW18496   3.281   1.541   6.835
 5866SOL    HW118497   3.371   1.497   6.833
 5866SOL    HW218498   3.253   1.565   6.742
 5867SOL     OW18499   6.736   3.118   1.665
 5867SOL    HW118500   6.788   3.099   1.581
 5867SOL    HW218501   6.697   3.210   1.659
 5868SOL     OW18502   0.641   6.388   5.309
 5868SOL    HW118503   0.666   6.295   5.337
 5868SOL    HW218504   0.565   6.420   5.366
 5869SOL     OW18505   2.527   4.528   3.996
 5869SOL    HW118506   2.597   4.589   3.959
 5869SOL    HW218507   2.487   4.569   4.078
 5870SOL     OW18508   5.148   5.855   3.884
 5870SOL    HW118509   5.163   5.953   3.876
 5870SOL    HW218510   5.099   5.822   3.803
 5871SOL     OW18511   3.133   4.030   0.617
 5871SOL    HW118512   3.224   4.071   0.618
 5871SOL    HW218513   3.091   4.040   0.707
 5872SOL     OW18514   4.096   5.530   4.164
 5872SOL    HW118515   4.069   5.561   4.073
 5872SOL    HW218516   4.181   5.478   4.158
 5873SOL     OW18517   2.100   2.754   0.274
 5873SOL    HW118518   2.164   2.707   0.212
 5873SOL    HW218519   2.140   2.842   0.301
 5874SOL     OW18520   0.697   4.496   6.474
 5874SOL    HW118521   0.678   4.486   6.572
 5874SOL    HW218522   0.779   4.442   6.451
 5875SOL     OW18523   3.749   1.879   1.019
 5875SOL    HW118524   3.730   1.858   0.924
 5875SOL    HW218525   3.714   1.970   1.041
 5876SOL     OW18526   4.484   3.634   6.038
 5876SOL    HW118527   4.422   3.712   6.042
 5876SOL    HW218528   4.434   3.553   6.007
 5877SOL     OW18529   5.397   0.096   2.574
 5877SOL    HW118530   5.304   0.129   2.557
 5877SOL    HW218531   5.401   7.022   2.558
 5878SOL     OW18532   4.887   3.645   2.882
 5878SOL    HW118533   4.981   3.653   2.848
 5878SOL    HW218534   4.823   3.659   2.807
 5879SOL     OW18535   3.062   4.823   5.125
 5879SOL    HW118536   2.985   4.762   5.103
 5879SOL    HW218537   3.085   4.877   5.045
 5880SOL     OW18538   6.192   2.713   0.074
 5880SOL    HW118539   6.185   2.724   6.999
 5880SOL    HW218540   6.277   2.754   0.106
 5881SOL     OW18541   1.176   6.040   2.725
 5881SOL    HW118542   1.196   6.063   2.820
 5881SOL    HW218543   1.177   6.123   2.669
 5882SOL     OW18544   1.558   5.279   5.271
 5882SOL    HW118545   1.580   5.363   5.322
 5882SOL    HW218546   1.541   5.205   5.335
 5883SOL     OW18547   0.039   5.750   0.025
 5883SOL    HW118548   0.082   5.695   6.977
 5883SOL    HW218549   0.106   5.769   0.096
 5884SOL     OW18550   0.143   1.366   2.446
 5884SOL    HW118551   0.189   1.277   2.441
 5884SOL    HW218552   0.118   1.395   2.354
 5885SOL     OW18553   6.917   5.914   1.409
 5885SOL    HW118554   6.874   5.973   1.478
 5885SOL    HW218555   6.867   5.922   1.323
 5886SOL     OW18556   1.664   4.716   3.278
 5886SOL    HW118557   1.576   4.763   3.278
 5886SOL    HW218558   1.736   4.779   3.250
 5887SOL     OW18559   2.748   4.145   0.684
 5887SOL    HW118560   2.773   4.163   0.779
 5887SOL    HW218561   2.689   4.065   0.680
 5888SOL     OW18562   3.072   5.711   1.449
 5888SOL    HW118563   3.155   5.689   1.399
 5888SOL    HW218564   3.082   5.683   1.544
 5889SOL     OW18565   4.982   1.707   2.153
 5889SOL    HW118566   4.944   1.681   2.064
 5889SOL    HW218567   4.945   1.795   2.181
 5890SOL     OW18568   2.576   4.614   3.297
 5890SOL    HW118569   2.525   4.545   3.246
 5890SOL    HW218570   2.512   4.668   3.352
 5891SOL     OW18571   2.421   2.997   6.557
 5891SOL    HW118572   2.515   2.962   6.550
 5891SOL    HW218573   2.374   2.981   6.470
 5892SOL     OW18574   0.553   2.328   0.794
 5892SOL    HW118575   0.649   2.357   0.799
 5892SOL    HW218576   0.495   2.400   0.832
 5893SOL     OW18577   0.456   6.057   1.501
 5893SOL    HW118578   0.524   6.107   1.448
 5893SOL    HW218579   0.364   6.086   1.474
 5894SOL     OW18580   2.339   5.116   6.687
 5894SOL    HW118581   2.298   5.117   6.596
 5894SOL    HW218582   2.401   5.193   6.697
 5895SOL     OW18583   5.908   3.037   3.703
 5895SOL    HW118584   5.861   3.118   3.738
 5895SOL    HW218585   5.846   2.984   3.646
 5896SOL     OW18586   5.572   2.542   1.338
 5896SOL    HW118587   5.526   2.588   1.262
 5896SOL    HW218588   5.626   2.608   1.389
 5897SOL     OW18589   3.536   3.301   0.453
 5897SOL    HW118590   3.449   3.341   0.482
 5897SOL    HW218591   3.584   3.265   0.534
 5898SOL     OW18592   3.200   0.720   6.777
 5898SOL    HW118593   3.187   0.759   6.686
 5898SOL    HW218594   3.116   0.676   6.807
 5899SOL     OW18595   0.614   0.074   0.041
 5899SOL    HW118596   0.588   7.003   0.025
 5899SOL    HW218597   0.661   0.109   6.984
 5900SOL     OW18598   5.722   6.580   2.948
 5900SOL    HW118599   5.655   6.641   2.906
 5900SOL    HW218600   5.790   6.635   2.998
 5901SOL     OW18601   1.772   0.842   5.034
 5901SOL    HW118602   1.731   0.904   4.967
 5901SOL    HW218603   1.871   0.837   5.020
 5902SOL     OW18604   4.106   3.760   5.862
 5902SOL    HW118605   4.176   3.809   5.913
 5902SOL    HW218606   4.098   3.667   5.897
 5903SOL     OW18607   5.794   1.847   5.219
 5903SOL    HW118608   5.708   1.848   5.270
 5903SOL    HW218609   5.800   1.763   5.165
 5904SOL     OW18610   6.769   4.840   1.817
 5904SOL    HW118611   6.848   4.887   1.777
 5904SOL    HW218612   6.724   4.784   1.747
 5905SOL     OW18613   6.545   2.197   4.953
 5905SOL    HW118614   6.516   2.112   4.997
 5905SOL    HW218615   6.537   2.273   5.018
 5906SOL     OW18616   4.188   0.615   4.971
 5906SOL    HW118617   4.095   0.585   4.991
 5906SOL    HW218618   4.221   0.571   4.887
 5907SOL     OW18619   0.598   3.349   5.929
 5907SOL    HW118620   0.685   3.399   5.929
 5907SOL    HW218621   0.609   3.263   5.879
 5908SOL     OW18622   4.358   3.563   0.054
 5908SOL    HW118623   4.303   3.544   0.135
 5908SOL    HW218624   4.455   3.549   0.074
 5909SOL     OW18625   6.006   4.733   3.523
 5909SOL    HW118626   5.964   4.717   3.612
 5909SOL    HW218627   6.098   4.696   3.522
 5910SOL     OW18628   2.854   4.382   1.453
 5910SOL    HW118629   2.771   4.427   1.420
 5910SOL    HW218630   2.829   4.303   1.510
 5911SOL     OW18631   6.064   0.744   5.767
 5911SOL    HW118632   6.140   0.797   5.730
 5911SOL    HW218633   6.086   0.647   5.762
 5912SOL     OW18634   0.474   3.403   6.322
 5912SOL    HW118635   0.430   3.326   6.369
 5912SOL    HW218636   0.517   3.463   6.389
 5913SOL     OW18637   2.252   2.826   4.589
 5913SOL    HW118638   2.218   2.749   4.534
 5913SOL    HW218639   2.245   2.910   4.535
 5914SOL     OW18640   1.057   5.864   0.314
 5914SOL    HW118641   0.965   5.845   0.351
 5914SOL    HW218642   1.100   5.937   0.367
 5915SOL     OW18643   5.742   3.856   4.174
 5915SOL    HW118644   5.703   3.901   4.093
 5915SOL    HW218645   5.678   3.786   4.207
 5916SOL     OW18646   2.995   1.060   6.606
 5916SOL    HW118647   3.069   1.117   6.570
 5916SOL    HW218648   2.927   1.043   6.534
 5917SOL     OW18649   3.440   4.094   2.196
 5917SOL    HW118650   3.506   4.022   2.173
 5917SOL    HW218651   3.464   4.134   2.284
 5918SOL     OW18652   3.066   1.986   3.844
 5918SOL    HW118653   3.080   2.070   3.791
 5918SOL    HW218654   3.064   2.008   3.941
 5919SOL     OW18655   1.430   1.979   0.039
 5919SOL    HW118656   1.499   1.984   6.992
 5919SOL    HW218657   1.448   1.902   0.099
 5920SOL     OW18658   2.510   5.374   6.622
 5920SOL    HW118659   2.525   5.340   6.715
 5920SOL    HW218660   2.571   5.452   6.605
 5921SOL     OW18661   3.997   5.675   4.654
 5921SOL    HW118662   3.971   5.645   4.562
 5921SOL    HW218663   4.092   5.649   4.672
 5922SOL     OW18664   0.194   5.517   2.269
 5922SOL    HW118665   0.280   5.525   2.220
 5922SOL    HW218666   0.127   5.581   2.231
 5923SOL     OW18667   0.625   1.149   3.466
 5923SOL    HW118668   0.680   1.231   3.446
 5923SOL    HW218669   0.554   1.139   3.396
 5924SOL     OW18670   5.714   1.981   4.648
 5924SOL    HW118671   5.666   2.031   4.720
 5924SOL    HW218672   5.805   1.955   4.681
 5925SOL     OW18673   6.622   5.822   0.598
 5925SOL    HW118674   6.705   5.874   0.618
 5925SOL    HW218675   6.556   5.880   0.552
 5926SOL     OW18676   3.238   6.727   1.913
 5926SOL    HW118677   3.215   6.702   1.820
 5926SOL    HW218678   3.228   6.648   1.973
 5927SOL     OW18679   2.330   4.885   1.539
 5927SOL    HW118680   2.401   4.951   1.516
 5927SOL    HW218681   2.318   4.821   1.464
 5928SOL     OW18682   6.979   6.001   1.030
 5928SOL    HW118683   0.034   5.948   1.060
 5928SOL    HW218684   6.944   6.054   1.107
 5929SOL     OW18685   7.009   6.857   5.746
 5929SOL    HW118686   0.065   6.797   5.749
 5929SOL    HW218687   6.936   6.812   5.694
 5930SOL     OW18688   6.352   1.364   5.230
 5930SOL    HW118689   6.421   1.428   5.195
 5930SOL    HW218690   6.266   1.377   5.181
 5931SOL     OW18691   5.467   5.024   0.842
 5931SOL    HW118692   5.416   4.967   0.906
 5931SOL    HW218693   5.462   5.120   0.871
 5932SOL     OW18694   2.317   6.862   0.343
 5932SOL    HW118695   2.392   6.909   0.297
 5932SOL    HW218696   2.293   6.912   0.426
 5933SOL     OW18697   5.924   2.347   2.774
 5933SOL    HW118698   5.856   2.396   2.828
 5933SOL    HW218699   5.899   2.353   2.677
 5934SOL     OW18700   4.205   3.316   2.054
 5934SOL    HW118701   4.304   3.310   2.037
 5934SOL    HW218702   4.159   3.240   2.009
 5935SOL     OW18703   3.750   2.952   3.027
 5935SOL    HW118704   3.739   2.960   2.928
 5935SOL    HW218705   3.845   2.970   3.052
 5936SOL     OW18706   6.726   6.336   6.589
 5936SOL    HW118707   6.669   6.331   6.507
 5936SOL    HW218708   6.779   6.252   6.598
 5937SOL     OW18709   0.941   4.433   0.210
 5937SOL    HW118710   1.005   4.509   0.197
 5937SOL    HW218711   0.855   4.468   0.248
 5938SOL     OW18712   2.343   4.879   0.619
 5938SOL    HW118713   2.303   4.929   0.542
 5938SOL    HW218714   2.379   4.943   0.686
 5939SOL     OW18715   1.324   0.878   2.368
 5939SOL    HW118716   1.356   0.815   2.297
 5939SOL    HW218717   1.268   0.828   2.434
 5940SOL     OW18718   4.079   4.959   3.552
 5940SOL    HW118719   3.992   4.972   3.599
 5940SOL    HW218720   4.096   5.036   3.490
 5941SOL     OW18721   6.017   2.503   3.373
 5941SOL    HW118722   6.074   2.583   3.355
 5941SOL    HW218723   6.040   2.430   3.309
 5942SOL     OW18724   6.918   1.121   4.910
 5942SOL    HW118725   6.819   1.113   4.897
 5942SOL    HW218726   6.939   1.207   4.955
 5943SOL     OW18727   1.779   5.356   0.925
 5943SOL    HW118728   1.852   5.425   0.933
 5943SOL    HW218729   1.697   5.388   0.973
 5944SOL     OW18730   5.287   2.478   2.608
 5944SOL    HW118731   5.265   2.564   2.563
 5944SOL    HW218732   5.246   2.402   2.558
 5945SOL     OW18733   6.619   5.662   6.197
 5945SOL    HW118734   6.580   5.605   6.269
 5945SOL    HW218735   6.578   5.639   6.109
 5946SOL     OW18736   3.839   2.627   5.437
 5946SOL    HW118737   3.840   2.538   5.393
 5946SOL    HW218738   3.933   2.657   5.455
 5947SOL     OW18739   4.864   3.970   2.635
 5947SOL    HW118740   4.767   3.955   2.615
 5947SOL    HW218741   4.910   3.881   2.645
 5948SOL     OW18742   2.896   5.271   3.091
 5948SOL    HW118743   2.840   5.354   3.093
 5948SOL    HW218744   2.857   5.202   3.151
 5949SOL     OW18745   4.991   4.238   3.267
 5949SOL    HW118746   4.895   4.263   3.279
 5949SOL    HW218747   5.008   4.147   3.305
 5950SOL     OW18748   6.362   2.411   4.171
 5950SOL    HW118749   6.347   2.313   4.185
 5950SOL    HW218750   6.427   2.445   4.239
 5951SOL     OW18751   1.959   0.741   3.906
 5951SOL    HW118752   1.871   0.771   3.869
 5951SOL    HW218753   1.988   0.805   3.977
 5952SOL     OW18754   0.262   6.322   4.590
 5952SOL    HW118755   0.355   6.358   4.593
 5952SOL    HW218756   0.248   6.273   4.504
 5953SOL     OW18757   0.339   3.041   6.098
 5953SOL    HW118758   0.300   3.050   6.190
 5953SOL    HW218759   0.435   3.016   6.105
 5954SOL     OW18760   1.365   4.962   6.033
 5954SOL    HW118761   1.334   4.880   6.082
 5954SOL    HW218762   1.305   5.039   6.057
 5955SOL     OW18763   3.986   4.989   2.624
 5955SOL    HW118764   4.011   4.929   2.700
 5955SOL    HW218765   4.003   5.084   2.649
 5956SOL     OW18766   0.195   2.336   0.049
 5956SOL    HW118767   0.198   2.291   6.984
 5956SOL    HW218768   0.288   2.343   0.085
 5957SOL     OW18769   4.208   6.742   5.737
 5957SOL    HW118770   4.287   6.688   5.710
 5957SOL    HW218771   4.130   6.682   5.755
 5958SOL     OW18772   1.236   5.273   2.538
 5958SOL    HW118773   1.239   5.173   2.537
 5958SOL    HW218774   1.215   5.307   2.447
 5959SOL     OW18775   2.053   1.050   6.268
 5959SOL    HW118776   1.981   1.117   6.285
 5959SOL    HW218777   2.011   0.961   6.249
 5960SOL     OW18778   3.707   6.174   5.262
 5960SOL    HW118779   3.701   6.074   5.250
 5960SOL    HW218780   3.748   6.214   5.180
 5961SOL     OW18781   2.435   1.124   5.941
 5961SOL    HW118782   2.452   1.154   6.035
 5961SOL    HW218783   2.522   1.097   5.899
 5962SOL     OW18784   5.481   4.110   2.467
 5962SOL    HW118785   5.490   4.038   2.398
 5962SOL    HW218786   5.537   4.189   2.440
 5963SOL     OW18787   4.244   4.470   1.751
 5963SOL    HW118788   4.252   4.473   1.651
 5963SOL    HW218789   4.295   4.392   1.786
 5964SOL     OW18790   1.438   3.842   5.344
 5964SOL    HW118791   1.468   3.872   5.253
 5964SOL    HW218792   1.478   3.753   5.365
 5965SOL     OW18793   1.856   1.664   4.299
 5965SOL    HW118794   1.832   1.632   4.208
 5965SOL    HW218795   1.800   1.743   4.323
 5966SOL     OW18796   1.630   6.081   4.334
 5966SOL    HW118797   1.585   6.135   4.263
 5966SOL    HW218798   1.727   6.072   4.312
 5967SOL     OW18799   4.601   5.610   1.356
 5967SOL    HW118800   4.542   5.681   1.317
 5967SOL    HW218801   4.558   5.521   1.346
 5968SOL     OW18802   1.105   1.874   4.209
 5968SOL    HW118803   1.125   1.794   4.265
 5968SOL    HW218804   1.012   1.906   4.227
 5969SOL     OW18805   0.133   1.881   3.166
 5969SOL    HW118806   0.187   1.963   3.147
 5969SOL    HW218807   0.100   1.842   3.079
 5970SOL     OW18808   2.114   4.057   3.542
 5970SOL    HW118809   2.149   4.118   3.470
 5970SOL    HW218810   2.048   4.108   3.599
 5971SOL     OW18811   3.260   5.558   3.480
 5971SOL    HW118812   3.306   5.554   3.392
 5971SOL    HW218813   3.182   5.496   3.479
 5972SOL     OW18814   5.632   0.175   1.447
 5972SOL    HW118815   5.708   0.240   1.447
 5972SOL    HW218816   5.559   0.208   1.387
 5973SOL     OW18817   2.220   5.084   3.413
 5973SOL    HW118818   2.160   5.032   3.352
 5973SOL    HW218819   2.229   5.037   3.500
 5974SOL     OW18820   0.674   4.160   6.867
 5974SOL    HW118821   0.745   4.122   6.926
 5974SOL    HW218822   0.645   4.090   6.801
 5975SOL     OW18823   2.075   2.289   6.254
 5975SOL    HW118824   2.000   2.347   6.286
 5975SOL    HW218825   2.038   2.216   6.197
 5976SOL     OW18826   3.235   3.461   4.640
 5976SOL    HW118827   3.137   3.446   4.630
 5976SOL    HW218828   3.251   3.536   4.705
 5977SOL     OW18829   0.347   3.613   2.817
 5977SOL    HW118830   0.358   3.529   2.764
 5977SOL    HW218831   0.427   3.625   2.877
 5978SOL     OW18832   5.175   5.493   2.209
 5978SOL    HW118833   5.109   5.563   2.235
 5978SOL    HW218834   5.128   5.406   2.196
 5979SOL     OW18835   0.881   0.860   1.682
 5979SOL    HW118836   0.981   0.853   1.686
 5979SOL    HW218837   0.840   0.788   1.737
 5980SOL     OW18838   5.915   2.793   5.576
 5980SOL    HW118839   6.003   2.747   5.588
 5980SOL    HW218840   5.923   2.888   5.605
 5981SOL     OW18841   3.564   1.831   0.524
 5981SOL    HW118842   3.587   1.751   0.469
 5981SOL    HW218843   3.516   1.802   0.607
 5982SOL     OW18844   6.457   3.025   0.067
 5982SOL    HW118845   6.367   3.069   0.065
 5982SOL    HW218846   6.520   3.082   0.119
 5983SOL     OW18847   0.905   0.284   4.902
 5983SOL    HW118848   0.922   0.284   4.804
 5983SOL    HW218849   0.879   0.192   4.932
 5984SOL     OW18850   0.925   0.219   6.112
 5984SOL    HW118851   0.863   0.195   6.037
 5984SOL    HW218852   1.012   0.170   6.101
 5985SOL     OW18853   5.275   3.256   3.822
 5985SOL    HW118854   5.330   3.239   3.740
 5985SOL    HW218855   5.276   3.174   3.879
 5986SOL     OW18856   3.138   3.435   2.566
 5986SOL    HW118857   3.044   3.461   2.544
 5986SOL    HW218858   3.154   3.448   2.664
 5987SOL     OW18859   4.387   0.209   5.525
 5987SOL    HW118860   4.349   0.240   5.438
 5987SOL    HW218861   4.421   0.116   5.516
 5988SOL     OW18862   3.787   6.790   5.968
 5988SOL    HW118863   3.754   6.731   6.042
 5988SOL    HW218864   3.784   6.739   5.881
 5989SOL     OW18865   3.359   1.821   6.783
 5989SOL    HW118866   3.295   1.774   6.843
 5989SOL    HW218867   3.334   1.918   6.778
 5990SOL     OW18868   3.527   5.166   3.038
 5990SOL    HW118869   3.530   5.067   3.048
 5990SOL    HW218870   3.619   5.202   3.026
 5991SOL     OW18871   3.422   5.020   3.645
 5991SOL    HW118872   3.418   5.042   3.547
 5991SOL    HW218873   3.354   4.950   3.666
 5992SOL     OW18874   4.190   1.982   4.181
 5992SOL    HW118875   4.256   1.969   4.106
 5992SOL    HW218876   4.110   2.031   4.147
 5993SOL     OW18877   2.407   4.911   3.958
 5993SOL    HW118878   2.389   4.926   3.861
 5993SOL    HW218879   2.323   4.928   4.010
 5994SOL     OW18880   6.308   2.953   0.493
 5994SOL    HW118881   6.401   2.916   0.485
 5994SOL    HW218882   6.251   2.890   0.545
 5995SOL     OW18883   0.500   3.732   1.911
 5995SOL    HW118884   0.474   3.694   2.000
 5995SOL    HW218885   0.530   3.658   1.850
 5996SOL     OW18886   1.119   5.919   5.961
 5996SOL    HW118887   1.199   5.966   5.923
 5996SOL    HW218888   1.062   5.984   6.010
 5997SOL     OW18889   0.620   0.712   1.321
 5997SOL    HW118890   0.660   0.800   1.348
 5997SOL    HW218891   0.683   0.638   1.345
 5998SOL     OW18892   5.281   2.811   3.263
 5998SOL    HW118893   5.326   2.726   3.235
 5998SOL    HW218894   5.285   2.877   3.189
 5999SOL     OW18895   2.292   2.690   2.879
 5999SOL    HW118896   2.341   2.693   2.966
 5999SOL    HW218897   2.196   2.665   2.895
 6000SOL     OW18898   4.859   0.973   3.361
 6000SOL    HW118899   4.783   1.032   3.334
 6000SOL    HW218900   4.945   1.013   3.330
 6001SOL     OW18901   6.304   1.317   0.446
 6001SOL    HW118902   6.309   1.276   0.537
 6001SOL    HW218903   6.247   1.260   0.387
 6002SOL     OW18904   1.982   0.380   2.276
 6002SOL    HW118905   1.915   0.315   2.242
 6002SOL    HW218906   1.954   0.413   2.366
 6003SOL     OW18907   4.748   4.100   3.836
 6003SOL    HW118908   4.668   4.083   3.894
 6003SOL    HW218909   4.831   4.095   3.892
 6004SOL     OW18910   0.241   3.305   1.406
 6004SOL    HW118911   0.330   3.340   1.436
 6004SOL    HW218912   0.170   3.368   1.434
 6005SOL     OW18913   1.600   6.117   2.358
 6005SOL    HW118914   1.536   6.080   2.425
 6005SOL    HW218915   1.693   6.114   2.396
 6006SOL     OW18916   2.562   5.503   6.975
 6006SOL    HW118917   2.645   5.550   6.945
 6006SOL    HW218918   2.561   5.499   0.050
 6007SOL     OW18919   5.458   3.592   4.527
 6007SOL    HW118920   5.472   3.665   4.593
 6007SOL    HW218921   5.445   3.505   4.575
 6008SOL     OW18922   4.771   4.013   1.659
 6008SOL    HW118923   4.723   4.018   1.571
 6008SOL    HW218924   4.747   3.929   1.707
 6009SOL     OW18925   4.569   1.747   4.873
 6009SOL    HW118926   4.621   1.666   4.899
 6009SOL    HW218927   4.587   1.769   4.777
 6010SOL     OW18928   1.898   4.312   3.367
 6010SOL    HW118929   1.804   4.291   3.340
 6010SOL    HW218930   1.928   4.394   3.317
 6011SOL     OW18931   6.112   2.124   1.769
 6011SOL    HW118932   6.114   2.032   1.808
 6011SOL    HW218933   6.049   2.181   1.822
 6012SOL     OW18934   0.802   3.041   1.218
 6012SOL    HW118935   0.722   3.099   1.229
 6012SOL    HW218936   0.883   3.097   1.203
 6013SOL     OW18937   5.627   0.231   2.587
 6013SOL    HW118938   5.536   0.191   2.599
 6013SOL    HW218939   5.670   0.244   2.677
 6014SOL     OW18940   6.314   0.738   0.788
 6014SOL    HW118941   6.225   0.695   0.805
 6014SOL    HW218942   6.380   0.669   0.759
 6015SOL     OW18943   5.765   0.083   4.096
 6015SOL    HW118944   5.840   0.106   4.034
 6015SOL    HW218945   5.786   0.115   4.188
 6016SOL     OW18946   1.645   0.571   5.493
 6016SOL    HW118947   1.734   0.616   5.485
 6016SOL    HW218948   1.573   0.640   5.496
 6017SOL     OW18949   0.009   3.448   2.348
 6017SOL    HW118950   0.013   3.348   2.345
 6017SOL    HW218951   7.021   3.479   2.442
 6018SOL     OW18952   3.088   4.931   1.306
 6018SOL    HW118953   3.092   4.875   1.223
 6018SOL    HW218954   3.136   4.885   1.380
 6019SOL     OW18955   6.278   6.399   3.237
 6019SOL    HW118956   6.302   6.449   3.154
 6019SOL    HW218957   6.354   6.404   3.303
 6020SOL     OW18958   1.888   6.593   2.899
 6020SOL    HW118959   1.861   6.558   2.809
 6020SOL    HW218960   1.857   6.687   2.909
 6021SOL     OW18961   3.638   0.683   3.297
 6021SOL    HW118962   3.645   0.615   3.224
 6021SOL    HW218963   3.562   0.660   3.357
 6022SOL     OW18964   3.997   1.014   5.375
 6022SOL    HW118965   3.966   0.964   5.456
 6022SOL    HW218966   3.960   1.106   5.376
 6023SOL     OW18967   0.258   1.956   2.382
 6023SOL    HW118968   0.351   1.982   2.408
 6023SOL    HW218969   0.253   1.857   2.368
 6024SOL     OW18970   6.348   5.691   2.727
 6024SOL    HW118971   6.261   5.729   2.758
 6024SOL    HW218972   6.382   5.744   2.649
 6025SOL     OW18973   4.355   2.345   2.633
 6025SOL    HW118974   4.441   2.297   2.616
 6025SOL    HW218975   4.318   2.318   2.721
 6026SOL     OW18976   0.739   4.283   5.733
 6026SOL    HW118977   0.722   4.357   5.798
 6026SOL    HW218978   0.666   4.215   5.741
 6027SOL     OW18979   4.125   3.907   0.318
 6027SOL    HW118980   4.044   3.962   0.336
 6027SOL    HW218981   4.196   3.964   0.277
 6028SOL     OW18982   0.663   4.417   6.750
 6028SOL    HW118983   0.644   4.479   6.827
 6028SOL    HW218984   0.664   4.323   6.783
 6029SOL     OW18985   1.158   5.549   1.300
 6029SOL    HW118986   1.162   5.574   1.397
 6029SOL    HW218987   1.069   5.509   1.279
 6030SOL     OW18988   1.911   6.672   1.901
 6030SOL    HW118989   1.968   6.661   1.983
 6030SOL    HW218990   1.922   6.592   1.843
 6031SOL     OW18991   4.952   0.953   4.104
 6031SOL    HW118992   4.974   0.960   4.202
 6031SOL    HW218993   5.000   0.875   4.065
 6032SOL     OW18994   1.271   2.467   2.497
 6032SOL    HW118995   1.260   2.411   2.579
 6032SOL    HW218996   1.190   2.459   2.440
 6033SOL     OW18997   0.422   6.838   4.657
 6033SOL    HW118998   0.444   6.772   4.729
 6033SOL    HW218999   0.471   6.923   4.674
 6034SOL     OW19000   2.158   4.447   4.772
 6034SOL    HW119001   2.154   4.365   4.829
 6034SOL    HW219002   2.248   4.455   4.730
 6035SOL     OW19003   4.757   0.175   3.695
 6035SOL    HW119004   4.759   0.129   3.784
 6035SOL    HW219005   4.663   0.190   3.667
 6036SOL     OW19006   6.331   0.567   4.652
 6036SOL    HW119007   6.371   0.557   4.561
 6036SOL    HW219008   6.313   0.477   4.691
 6037SOL     OW19009   0.333   5.713   4.539
 6037SOL    HW119010   0.391   5.744   4.464
 6037SOL    HW219011   0.321   5.613   4.532
 6038SOL     OW19012   6.906   4.337   6.962
 6038SOL    HW119013   6.909   4.238   6.975
 6038SOL    HW219014   6.826   4.375   7.010
 6039SOL     OW19015   3.625   3.229   4.028
 6039SOL    HW119016   3.579   3.273   3.951
 6039SOL    HW219017   3.603   3.278   4.113
 6040SOL     OW19018   1.442   0.900   0.917
 6040SOL    HW119019   1.421   0.981   0.972
 6040SOL    HW219020   1.411   0.914   0.823
 6041SOL     OW19021   0.782   3.199   6.836
 6041SOL    HW119022   0.830   3.202   6.924
 6041SOL    HW219023   0.723   3.118   6.833
 6042SOL     OW19024   5.021   5.329   4.812
 6042SOL    HW119025   4.994   5.249   4.759
 6042SOL    HW219026   5.003   5.412   4.758
 6043SOL     OW19027   0.021   4.281   4.062
 6043SOL    HW119028   7.002   4.312   3.978
 6043SOL    HW219029   0.077   4.355   4.100
 6044SOL     OW19030   1.706   0.454   1.475
 6044SOL    HW119031   1.620   0.403   1.481
 6044SOL    HW219032   1.775   0.399   1.428
 6045SOL     OW19033   6.520   4.597   0.196
 6045SOL    HW119034   6.444   4.660   0.175
 6045SOL    HW219035   6.504   4.556   0.286
 6046SOL     OW19036   1.639   3.702   6.821
 6046SOL    HW119037   1.603   3.621   6.775
 6046SOL    HW219038   1.564   3.761   6.849
 6047SOL     OW19039   0.961   5.432   4.811
 6047SOL    HW119040   0.894   5.501   4.784
 6047SOL    HW219041   1.048   5.477   4.831
 6048SOL     OW19042   4.454   6.108   4.341
 6048SOL    HW119043   4.497   6.169   4.275
 6048SOL    HW219044   4.364   6.144   4.366
 6049SOL     OW19045   6.607   5.515   0.104
 6049SOL    HW119046   6.581   5.478   0.194
 6049SOL    HW219047   6.691   5.569   0.112
 6050SOL     OW19048   5.827   4.469   5.387
 6050SOL    HW119049   5.904   4.481   5.325
 6050SOL    HW219050   5.851   4.402   5.457
 6051SOL     OW19051   3.434   2.050   3.687
 6051SOL    HW119052   3.417   1.961   3.643
 6051SOL    HW219053   3.419   2.041   3.785
 6052SOL     OW19054   0.294   1.692   6.899
 6052SOL    HW119055   0.235   1.694   6.979
 6052SOL    HW219056   0.239   1.675   6.817
 6053SOL     OW19057   1.436   0.198   6.345
 6053SOL    HW119058   1.377   0.262   6.296
 6053SOL    HW219059   1.394   0.107   6.344
 6054SOL     OW19060   0.790   4.223   6.143
 6054SOL    HW119061   0.838   4.166   6.076
 6054SOL    HW219062   0.856   4.274   6.198
 6055SOL     OW19063   5.521   0.288   3.038
 6055SOL    HW119064   5.452   0.216   3.030
 6055SOL    HW219065   5.489   0.357   3.104
 6056SOL     OW19066   5.525   3.344   6.362
 6056SOL    HW119067   5.466   3.420   6.333
 6056SOL    HW219068   5.472   3.259   6.362
 6057SOL     OW19069   3.830   0.943   6.338
 6057SOL    HW119070   3.854   1.030   6.295
 6057SOL    HW219071   3.910   0.905   6.385
 6058SOL     OW19072   5.169   1.926   5.117
 6058SOL    HW119073   5.237   1.893   5.052
 6058SOL    HW219074   5.130   2.013   5.084
 6059SOL     OW19075   6.929   6.535   6.680
 6059SOL    HW119076   6.904   6.439   6.673
 6059SOL    HW219077   7.021   6.549   6.643
 6060SOL     OW19078   3.257   5.690   6.401
 6060SOL    HW119079   3.307   5.709   6.485
 6060SOL    HW219080   3.317   5.642   6.336
 6061SOL     OW19081   1.929   1.384   6.885
 6061SOL    HW119082   1.901   1.418   6.795
 6061SOL    HW219083   2.010   1.434   6.915
 6062SOL     OW19084   1.352   0.161   4.205
 6062SOL    HW119085   1.431   0.221   4.209
 6062SOL    HW219086   1.382   0.067   4.186
 6063SOL     OW19087   6.071   5.967   6.787
 6063SOL    HW119088   6.091   6.050   6.735
 6063SOL    HW219089   6.143   5.899   6.773
 6064SOL     OW19090   1.090   4.979   2.335
 6064SOL    HW119091   1.092   5.015   2.428
 6064SOL    HW219092   1.008   4.923   2.321
 6065SOL     OW19093   5.132   6.800   2.007
 6065SOL    HW119094   5.209   6.807   1.943
 6065SOL    HW219095   5.139   6.872   2.076
 6066SOL     OW19096   4.053   1.622   5.477
 6066SOL    HW119097   3.972   1.566   5.459
 6066SOL    HW219098   4.055   1.649   5.573
 6067SOL     OW19099   4.706   2.183   6.409
 6067SOL    HW119100   4.762   2.199   6.490
 6067SOL    HW219101   4.615   2.154   6.437
 6068SOL     OW19102   5.289   0.823   5.616
 6068SOL    HW119103   5.347   0.747   5.588
 6068SOL    HW219104   5.194   0.793   5.623
 6069SOL     OW19105   6.270   5.248   3.662
 6069SOL    HW119106   6.234   5.159   3.632
 6069SOL    HW219107   6.312   5.295   3.584
 6070SOL     OW19108   5.084   3.533   0.510
 6070SOL    HW119109   5.152   3.605   0.496
 6070SOL    HW219110   5.049   3.537   0.604
 6071SOL     OW19111   5.164   6.713   5.143
 6071SOL    HW119112   5.097   6.671   5.081
 6071SOL    HW219113   5.133   6.805   5.168
 6072SOL     OW19114   6.303   1.842   1.359
 6072SOL    HW119115   6.363   1.894   1.298
 6072SOL    HW219116   6.210   1.879   1.353
 6073SOL     OW19117   6.114   0.513   1.322
 6073SOL    HW119118   6.070   0.577   1.259
 6073SOL    HW219119   6.154   0.563   1.399
 6074SOL     OW19120   0.938   0.294   5.690
 6074SOL    HW119121   1.002   0.368   5.707
 6074SOL    HW219122   0.892   0.309   5.602
 6075SOL     OW19123   5.147   3.680   6.211
 6075SOL    HW119124   5.118   3.776   6.211
 6075SOL    HW219125   5.155   3.648   6.305
 6076SOL     OW19126   2.677   0.472   3.929
 6076SOL    HW119127   2.666   0.556   3.876
 6076SOL    HW219128   2.656   0.491   4.025
 6077SOL     OW19129   4.409   4.939   2.965
 6077SOL    HW119130   4.398   5.014   2.899
 6077SOL    HW219131   4.362   4.962   3.050
 6078SOL     OW19132   1.741   4.119   4.126
 6078SOL    HW119133   1.793   4.162   4.052
 6078SOL    HW219134   1.785   4.138   4.214
 6079SOL     OW19135   3.276   2.026   0.993
 6079SOL    HW119136   3.187   2.008   0.952
 6079SOL    HW219137   3.264   2.048   1.090
 6080SOL     OW19138   5.818   3.130   3.287
 6080SOL    HW119139   5.791   3.188   3.364
 6080SOL    HW219140   5.836   3.187   3.208
 6081SOL     OW19141   0.578   4.065   2.094
 6081SOL    HW119142   0.494   4.106   2.129
 6081SOL    HW219143   0.555   4.001   2.020
 6082SOL     OW19144   4.102   1.636   4.985
 6082SOL    HW119145   4.176   1.625   5.051
 6082SOL    HW219146   4.053   1.722   5.004
 6083SOL     OW19147   1.890   6.298   6.969
 6083SOL    HW119148   1.943   6.293   0.029
 6083SOL    HW219149   1.832   6.217   6.962
 6084SOL     OW19150   6.897   5.716   6.292
 6084SOL    HW119151   6.817   5.694   6.235
 6084SOL    HW219152   6.934   5.805   6.264
 6085SOL     OW19153   5.167   5.255   1.895
 6085SOL    HW119154   5.137   5.171   1.850
 6085SOL    HW219155   5.266   5.261   1.892
 6086SOL     OW19156   3.097   1.758   2.520
 6086SOL    HW119157   3.145   1.807   2.447
 6086SOL    HW219158   3.131   1.664   2.524
 6087SOL     OW19159   3.769   0.616   0.702
 6087SOL    HW119160   3.772   0.680   0.779
 6087SOL    HW219161   3.860   0.610   0.661
 6088SOL     OW19162   6.989   0.744   5.120
 6088SOL    HW119163   7.015   0.685   5.196
 6088SOL    HW219164   6.989   0.690   5.035
 6089SOL     OW19165   6.666   3.913   1.419
 6089SOL    HW119166   6.609   3.839   1.382
 6089SOL    HW219167   6.759   3.904   1.385
 6090SOL     OW19168   6.826   5.862   4.308
 6090SOL    HW119169   6.891   5.934   4.333
 6090SOL    HW219170   6.789   5.881   4.217
 6091SOL     OW19171   6.616   2.511   1.660
 6091SOL    HW119172   6.559   2.447   1.713
 6091SOL    HW219173   6.712   2.490   1.677
 6092SOL     OW19174   1.136   3.535   1.005
 6092SOL    HW119175   1.179   3.516   0.916
 6092SOL    HW219176   1.208   3.550   1.074
 6093SOL     OW19177   0.959   4.688   0.693
 6093SOL    HW119178   0.966   4.594   0.726
 6093SOL    HW219179   0.962   4.751   0.771
 6094SOL     OW19180   0.321   1.184   0.904
 6094SOL    HW119181   0.392   1.252   0.884
 6094SOL    HW219182   0.234   1.216   0.869
 6095SOL     OW19183   6.192   4.117   5.094
 6095SOL    HW119184   6.236   4.030   5.118
 6095SOL    HW219185   6.155   4.159   5.177
 6096SOL     OW19186   5.483   1.731   2.588
 6096SOL    HW119187   5.399   1.765   2.546
 6096SOL    HW219188   5.560   1.785   2.555
 6097SOL     OW19189   3.346   2.036   2.728
 6097SOL    HW119190   3.313   1.965   2.791
 6097SOL    HW219191   3.419   2.088   2.772
 6098SOL     OW19192   0.808   0.633   6.774
 6098SOL    HW119193   0.712   0.613   6.792
 6098SOL    HW219194   0.866   0.563   6.815
 6099SOL     OW19195   5.643   4.212   4.720
 6099SOL    HW119196   5.653   4.273   4.642
 6099SOL    HW219197   5.664   4.118   4.691
 6100SOL     OW19198   0.121   2.815   0.267
 6100SOL    HW119199   0.193   2.875   0.303
 6100SOL    HW219200   0.161   2.751   0.201
 6101SOL     OW19201   6.493   6.485   3.428
 6101SOL    HW119202   6.587   6.506   3.402
 6101SOL    HW219203   6.492   6.407   3.490
 6102SOL     OW19204   3.034   6.527   4.703
 6102SOL    HW119205   3.029   6.495   4.798
 6102SOL    HW219206   3.013   6.625   4.700
 6103SOL     OW19207   5.470   1.779   5.220
 6103SOL    HW119208   5.415   1.834   5.283
 6103SOL    HW219209   5.440   1.796   5.126
 6104SOL     OW19210   1.679   2.752   1.029
 6104SOL    HW119211   1.750   2.708   1.084
 6104SOL    HW219212   1.692   2.729   0.933
 6105SOL     OW19213   3.042   4.867   4.319
 6105SOL    HW119214   2.999   4.955   4.295
 6105SOL    HW219215   2.996   4.829   4.399
 6106SOL     OW19216   2.186   4.967   4.114
 6106SOL    HW119217   2.206   4.984   4.210
 6106SOL    HW219218   2.125   4.889   4.105
 6107SOL     OW19219   2.115   5.478   5.733
 6107SOL    HW119220   2.207   5.470   5.770
 6107SOL    HW219221   2.071   5.387   5.733
 6108SOL     OW19222   5.411   1.833   4.929
 6108SOL    HW119223   5.411   1.928   4.898
 6108SOL    HW219224   5.505   1.799   4.932
 6109SOL     OW19225   6.897   4.072   1.640
 6109SOL    HW119226   6.949   4.145   1.685
 6109SOL    HW219227   6.817   4.050   1.695
 6110SOL     OW19228   3.338   1.890   3.290
 6110SOL    HW119229   3.408   1.952   3.326
 6110SOL    HW219230   3.248   1.920   3.323
 6111SOL     OW19231   0.507   4.228   3.855
 6111SOL    HW119232   0.490   4.155   3.921
 6111SOL    HW219233   0.563   4.193   3.780
 6112SOL     OW19234   1.302   1.678   1.380
 6112SOL    HW119235   1.347   1.730   1.307
 6112SOL    HW219236   1.236   1.615   1.339
 6113SOL     OW19237   1.531   4.774   5.268
 6113SOL    HW119238   1.445   4.731   5.243
 6113SOL    HW219239   1.607   4.712   5.248
 6114SOL     OW19240   4.378   4.272   0.819
 6114SOL    HW119241   4.354   4.244   0.726
 6114SOL    HW219242   4.319   4.346   0.848
 6115SOL     OW19243   6.918   4.980   2.146
 6115SOL    HW119244   6.897   5.066   2.193
 6115SOL    HW219245   6.856   4.969   2.068
 6116SOL     OW19246   3.994   2.115   1.271
 6116SOL    HW119247   4.042   2.044   1.322
 6116SOL    HW219248   3.970   2.190   1.332
 6117SOL     OW19249   5.706   6.007   3.988
 6117SOL    HW119250   5.725   6.104   3.974
 6117SOL    HW219251   5.668   5.968   3.904
 6118SOL     OW19252   6.746   7.008   3.276
 6118SOL    HW119253   6.776   0.075   3.249
 6118SOL    HW219254   6.652   7.011   3.310
 6119SOL     OW19255   5.801   5.432   4.267
 6119SOL    HW119256   5.734   5.368   4.305
 6119SOL    HW219257   5.822   5.502   4.336
 6120SOL     OW19258   2.151   1.712   3.381
 6120SOL    HW119259   2.226   1.779   3.376
 6120SOL    HW219260   2.069   1.756   3.418
 6121SOL     OW19261   0.118   2.103   4.157
 6121SOL    HW119262   0.204   2.052   4.162
 6121SOL    HW219263   0.069   2.093   4.244
 6122SOL     OW19264   3.590   5.735   4.120
 6122SOL    HW119265   3.666   5.718   4.057
 6122SOL    HW219266   3.620   5.718   4.213
 6123SOL     OW19267   5.480   1.409   2.860
 6123SOL    HW119268   5.528   1.473   2.919
 6123SOL    HW219269   5.414   1.458   2.803
 6124SOL     OW19270   3.092   0.414   4.809
 6124SOL    HW119271   3.052   0.323   4.817
 6124SOL    HW219272   3.151   0.417   4.728
 6125SOL     OW19273   0.945   4.195   2.094
 6125SOL    HW119274   0.928   4.265   2.163
 6125SOL    HW219275   1.037   4.209   2.056
 6126SOL     OW19276   3.535   6.656   3.017
 6126SOL    HW119277   3.580   6.732   3.064
 6126SOL    HW219278   3.500   6.686   2.929
 6127SOL     OW19279   1.999   5.457   1.525
 6127SOL    HW119280   2.000   5.365   1.563
 6127SOL    HW219281   1.978   5.453   1.427
 6128SOL     OW19282   5.110   4.178   1.125
 6128SOL    HW119283   5.155   4.114   1.186
 6128SOL    HW219284   5.123   4.271   1.158
 6129SOL     OW19285   6.108   3.746   3.616
 6129SOL    HW119286   6.065   3.790   3.695
 6129SOL    HW219287   6.050   3.760   3.535
 6130SOL     OW19288   5.510   3.615   2.966
 6130SOL    HW119289   5.507   3.524   2.925
 6130SOL    HW219290   5.477   3.610   3.060
 6131SOL     OW19291   6.528   0.725   5.378
 6131SOL    HW119292   6.534   0.631   5.412
 6131SOL    HW219293   6.534   0.789   5.455
 6132SOL     OW19294   0.235   2.570   0.398
 6132SOL    HW119295   0.164   2.615   0.344
 6132SOL    HW219296   0.205   2.478   0.422
 6133SOL     OW19297   1.327   4.903   0.243
 6133SOL    HW119298   1.230   4.888   0.224
 6133SOL    HW219299   1.366   4.821   0.283
 6134SOL     OW19300   4.798   4.056   6.697
 6134SOL    HW119301   4.735   4.098   6.630
 6134SOL    HW219302   4.880   4.025   6.650
 6135SOL     OW19303   5.842   6.758   2.632
 6135SOL    HW119304   5.814   6.780   2.538
 6135SOL    HW219305   5.871   6.842   2.679
 6136SOL     OW19306   1.418   1.714   2.769
 6136SOL    HW119307   1.363   1.698   2.686
 6136SOL    HW219308   1.469   1.799   2.759
 6137SOL     OW19309   3.638   6.848   6.349
 6137SOL    HW119310   3.612   6.922   6.287
 6137SOL    HW219311   3.720   6.803   6.314
 6138SOL     OW19312   4.892   0.564   3.003
 6138SOL    HW119313   4.910   0.657   3.033
 6138SOL    HW219314   4.968   0.532   2.945
 6139SOL     OW19315   2.576   5.993   3.687
 6139SOL    HW119316   2.620   5.906   3.709
 6139SOL    HW219317   2.631   6.043   3.620
 6140SOL     OW19318   2.393   5.548   1.377
 6140SOL    HW119319   2.418   5.570   1.283
 6140SOL    HW219320   2.307   5.594   1.400
 6141SOL     OW19321   0.467   5.686   4.996
 6141SOL    HW119322   0.413   5.666   5.078
 6141SOL    HW219323   0.563   5.697   5.021
 6142SOL     OW19324   6.955   3.741   3.804
 6142SOL    HW119325   6.917   3.686   3.878
 6142SOL    HW219326   6.882   3.795   3.761
 6143SOL     OW19327   5.783   5.333   6.391
 6143SOL    HW119328   5.790   5.239   6.357
 6143SOL    HW219329   5.870   5.361   6.429
 6144SOL     OW19330   0.312   5.537   4.243
 6144SOL    HW119331   0.329   5.517   4.147
 6144SOL    HW219332   0.226   5.586   4.253
 6145SOL     OW19333   6.007   5.114   3.341
 6145SOL    HW119334   5.937   5.163   3.289
 6145SOL    HW219335   6.066   5.065   3.277
 6146SOL     OW19336   5.939   1.983   3.570
 6146SOL    HW119337   5.865   1.917   3.557
 6146SOL    HW219338   5.906   2.058   3.628
 6147SOL     OW19339   0.868   3.761   3.650
 6147SOL    HW119340   0.957   3.750   3.606
 6147SOL    HW219341   0.875   3.828   3.724
 6148SOL     OW19342   6.434   6.031   2.710
 6148SOL    HW119343   6.497   6.061   2.638
 6148SOL    HW219344   6.355   6.093   2.713
 6149SOL     OW19345   1.115   5.549   4.542
 6149SOL    HW119346   1.042   5.482   4.559
 6149SOL    HW219347   1.201   5.501   4.526
 6150SOL     OW19348   4.463   6.603   6.365
 6150SOL    HW119349   4.374   6.616   6.408
 6150SOL    HW219350   4.474   6.507   6.339
 6151SOL     OW19351   4.674   0.179   5.180
 6151SOL    HW119352   4.764   0.212   5.152
 6151SOL    HW219353   4.603   0.240   5.144
 6152SOL     OW19354   6.521   4.165   5.632
 6152SOL    HW119355   6.529   4.145   5.729
 6152SOL    HW219356   6.607   4.142   5.585
 6153SOL     OW19357   3.717   5.563   5.505
 6153SOL    HW119358   3.720   5.636   5.573
 6153SOL    HW219359   3.623   5.529   5.496
 6154SOL     OW19360   5.222   3.214   3.098
 6154SOL    HW119361   5.201   3.124   3.059
 6154SOL    HW219362   5.158   3.281   3.062
 6155SOL     OW19363   2.545   4.581   4.694
 6155SOL    HW119364   2.549   4.577   4.794
 6155SOL    HW219365   2.528   4.490   4.658
 6156SOL     OW19366   5.837   0.514   4.725
 6156SOL    HW119367   5.870   0.544   4.815
 6156SOL    HW219368   5.898   0.442   4.690
 6157SOL     OW19369   0.847   1.346   4.616
 6157SOL    HW119370   0.785   1.413   4.575
 6157SOL    HW219371   0.822   1.332   4.712
 6158SOL     OW19372   5.430   0.152   6.993
 6158SOL    HW119373   5.474   0.227   0.017
 6158SOL    HW219374   5.446   0.066   0.017
 6159SOL     OW19375   4.939   3.746   6.512
 6159SOL    HW119376   4.865   3.679   6.511
 6159SOL    HW219377   5.026   3.700   6.502
 6160SOL     OW19378   6.345   5.302   6.721
 6160SOL    HW119379   6.439   5.332   6.707
 6160SOL    HW219380   6.342   5.230   6.790
 6161SOL     OW19381   5.642   0.244   6.192
 6161SOL    HW119382   5.721   0.272   6.138
 6161SOL    HW219383   5.591   0.325   6.222
 6162SOL     OW19384   5.952   5.256   3.876
 6162SOL    HW119385   5.918   5.172   3.833
 6162SOL    HW219386   5.881   5.294   3.935
 6163SOL     OW19387   6.559   3.989   2.874
 6163SOL    HW119388   6.522   4.019   2.962
 6163SOL    HW219389   6.634   4.049   2.846
 6164SOL     OW19390   4.555   3.206   1.611
 6164SOL    HW119391   4.538   3.133   1.545
 6164SOL    HW219392   4.575   3.166   1.700
 6165SOL     OW19393   4.104   0.361   1.139
 6165SOL    HW119394   4.120   0.278   1.084
 6165SOL    HW219395   4.155   0.354   1.225
 6166SOL     OW19396   3.260   0.722   0.374
 6166SOL    HW119397   3.219   0.787   0.310
 6166SOL    HW219398   3.191   0.692   0.440
 6167SOL     OW19399   6.647   5.222   3.554
 6167SOL    HW119400   6.706   5.206   3.475
 6167SOL    HW219401   6.649   5.141   3.613
 6168SOL     OW19402   0.479   2.849   1.478
 6168SOL    HW119403   0.573   2.831   1.447
 6168SOL    HW219404   0.463   2.803   1.565
 6169SOL     OW19405   1.251   4.061   0.983
 6169SOL    HW119406   1.158   4.091   1.006
 6169SOL    HW219407   1.295   4.130   0.926
 6170SOL     OW19408   6.641   1.914   3.673
 6170SOL    HW119409   6.606   1.892   3.582
 6170SOL    HW219410   6.606   2.004   3.701
 6171SOL     OW19411   5.690   1.818   6.642
 6171SOL    HW119412   5.643   1.743   6.690
 6171SOL    HW219413   5.711   1.790   6.549
 6172SOL     OW19414   0.350   4.938   3.922
 6172SOL    HW119415   0.356   4.839   3.919
 6172SOL    HW219416   0.346   4.974   3.829
 6173SOL     OW19417   5.295   6.267   2.969
 6173SOL    HW119418   5.380   6.297   3.014
 6173SOL    HW219419   5.217   6.313   3.011
 6174SOL     OW19420   0.102   2.073   3.522
 6174SOL    HW119421   0.054   2.102   3.605
 6174SOL    HW219422   0.132   1.978   3.533
 6175SOL     OW19423   4.032   2.175   6.840
 6175SOL    HW119424   3.953   2.156   6.898
 6175SOL    HW219425   4.002   2.221   6.757
 6176SOL     OW19426   2.754   4.737   6.140
 6176SOL    HW119427   2.761   4.780   6.051
 6176SOL    HW219428   2.821   4.778   6.202
 6177SOL     OW19429   5.774   5.693   1.616
 6177SOL    HW119430   5.852   5.753   1.636
 6177SOL    HW219431   5.774   5.671   1.519
 6178SOL     OW19432   4.219   4.969   1.803
 6178SOL    HW119433   4.194   4.875   1.783
 6178SOL    HW219434   4.189   5.028   1.728
 6179SOL     OW19435   4.628   5.545   4.953
 6179SOL    HW119436   4.666   5.612   4.889
 6179SOL    HW219437   4.583   5.472   4.902
 6180SOL     OW19438   2.055   3.815   0.090
 6180SOL    HW119439   1.964   3.839   0.056
 6180SOL    HW219440   2.058   3.718   0.112
 6181SOL     OW19441   6.948   6.324   0.201
 6181SOL    HW119442   6.998   6.376   0.270
 6181SOL    HW219443   7.013   6.273   0.144
 6182SOL     OW19444   3.331   2.764   6.463
 6182SOL    HW119445   3.270   2.812   6.400
 6182SOL    HW219446   3.424   2.762   6.425
 6183SOL     OW19447   0.322   0.497   0.059
 6183SOL    HW119448   0.356   0.578   0.107
 6183SOL    HW219449   0.303   0.520   6.988
 6184SOL     OW19450   3.328   6.767   5.563
 6184SOL    HW119451   3.402   6.732   5.505
 6184SOL    HW219452   3.366   6.831   5.630
 6185SOL     OW19453   3.786   2.972   4.053
 6185SOL    HW119454   3.767   2.886   4.007
 6185SOL    HW219455   3.708   3.034   4.042
 6186SOL     OW19456   1.094   1.635   2.623
 6186SOL    HW119457   1.175   1.642   2.565
 6186SOL    HW219458   1.014   1.670   2.574
 6187SOL     OW19459   3.739   1.600   5.861
 6187SOL    HW119460   3.690   1.539   5.799
 6187SOL    HW219461   3.829   1.620   5.825
 6188SOL     OW19462   1.740   1.438   5.742
 6188SOL    HW119463   1.750   1.509   5.811
 6188SOL    HW219464   1.686   1.363   5.779
 6189SOL     OW19465   6.648   5.578   0.490
 6189SOL    HW119466   6.742   5.571   0.456
 6189SOL    HW219467   6.634   5.667   0.532
 6190SOL     OW19468   0.959   3.162   4.009
 6190SOL    HW119469   1.050   3.158   4.050
 6190SOL    HW219470   0.925   3.070   3.994
 6191SOL     OW19471   3.001   4.532   0.258
 6191SOL    HW119472   3.074   4.601   0.249
 6191SOL    HW219473   2.947   4.552   0.339
 6192SOL     OW19474   3.064   1.792   1.310
 6192SOL    HW119475   3.036   1.842   1.228
 6192SOL    HW219476   3.118   1.853   1.369
 6193SOL     OW19477   4.741   5.965   6.663
 6193SOL    HW119478   4.791   5.928   6.585
 6193SOL    HW219479   4.785   5.934   6.748
 6194SOL     OW19480   5.420   7.003   5.667
 6194SOL    HW119481   5.368   0.064   5.672
 6194SOL    HW219482   5.466   6.997   5.578
 6195SOL     OW19483   4.482   5.582   5.645
 6195SOL    HW119484   4.528   5.505   5.601
 6195SOL    HW219485   4.495   5.664   5.591
 6196SOL     OW19486   0.025   3.596   3.356
 6196SOL    HW119487   6.989   3.516   3.366
 6196SOL    HW219488   0.016   3.631   3.263
 6197SOL     OW19489   0.566   5.629   0.536
 6197SOL    HW119490   0.578   5.533   0.561
 6197SOL    HW219491   0.549   5.683   0.618
 6198SOL     OW19492   6.343   1.631   6.269
 6198SOL    HW119493   6.324   1.647   6.366
 6198SOL    HW219494   6.267   1.579   6.229
 6199SOL     OW19495   2.325   6.682   6.438
 6199SOL    HW119496   2.269   6.761   6.413
 6199SOL    HW219497   2.385   6.707   6.514
 6200SOL     OW19498   1.883   6.703   0.106
 6200SOL    HW119499   1.958   6.716   0.171
 6200SOL    HW219500   1.805   6.663   0.153
 6201SOL     OW19501   0.114   4.743   3.641
 6201SOL    HW119502   0.197   4.716   3.690
 6201SOL    HW219503   0.102   4.685   3.560
 6202SOL     OW19504   5.881   0.880   1.803
 6202SOL    HW119505   5.949   0.950   1.779
 6202SOL    HW219506   5.869   0.879   1.902
 6203SOL     OW19507   0.033   1.482   2.214
 6203SOL    HW119508   0.125   1.495   2.177
 6203SOL    HW219509   7.000   1.438   2.146
 6204SOL     OW19510   1.196   6.048   4.924
 6204SOL    HW119511   1.139   5.967   4.908
 6204SOL    HW219512   1.277   6.021   4.977
 6205SOL     OW19513   6.647   4.283   3.430
 6205SOL    HW119514   6.602   4.199   3.400
 6205SOL    HW219515   6.595   4.323   3.506
 6206SOL     OW19516   5.235   1.996   3.453
 6206SOL    HW119517   5.328   2.014   3.422
 6206SOL    HW219518   5.233   1.990   3.553
 6207SOL     OW19519   1.596   5.865   3.797
 6207SOL    HW119520   1.507   5.866   3.751
 6207SOL    HW219521   1.659   5.806   3.746
 6208SOL     OW19522   3.726   4.076   6.549
 6208SOL    HW119523   3.750   4.095   6.644
 6208SOL    HW219524   3.664   3.997   6.546
 6209SOL     OW19525   3.376   1.081   2.481
 6209SOL    HW119526   3.340   1.109   2.569
 6209SOL    HW219527   3.367   1.157   2.416
 6210SOL     OW19528   5.755   1.159   4.080
 6210SOL    HW119529   5.795   1.089   4.021
 6210SOL    HW219530   5.722   1.117   4.164
 6211SOL     OW19531   5.002   2.745   4.924
 6211SOL    HW119532   5.092   2.776   4.894
 6211SOL    HW219533   4.931   2.797   4.877
 6212SOL     OW19534   5.575   3.726   4.776
 6212SOL    HW119535   5.512   3.797   4.807
 6212SOL    HW219536   5.581   3.654   4.845
 6213SOL     OW19537   5.084   5.769   0.373
 6213SOL    HW119538   5.036   5.686   0.403
 6213SOL    HW219539   5.173   5.744   0.335
 6214SOL     OW19540   6.723   6.688   6.285
 6214SOL    HW119541   6.725   6.638   6.372
 6214SOL    HW219542   6.689   6.781   6.301
 6215SOL     OW19543   5.697   2.595   5.184
 6215SOL    HW119544   5.776   2.549   5.225
 6215SOL    HW219545   5.658   2.538   5.112
 6216SOL     OW19546   5.197   2.522   5.607
 6216SOL    HW119547   5.164   2.584   5.679
 6216SOL    HW219548   5.122   2.464   5.575
 6217SOL     OW19549   6.934   4.169   2.336
 6217SOL    HW119550   6.971   4.206   2.421
 6217SOL    HW219551   6.999   4.103   2.297
 6218SOL     OW19552   4.795   6.648   1.271
 6218SOL    HW119553   4.752   6.566   1.308
 6218SOL    HW219554   4.744   6.729   1.300
 6219SOL     OW19555   2.428   0.605   0.503
 6219SOL    HW119556   2.442   0.632   0.408
 6219SOL    HW219557   2.388   0.513   0.507
 6220SOL     OW19558   3.317   0.603   2.407
 6220SOL    HW119559   3.344   0.681   2.351
 6220SOL    HW219560   3.353   0.519   2.366
 6221SOL     OW19561   4.613   5.018   5.332
 6221SOL    HW119562   4.523   5.060   5.319
 6221SOL    HW219563   4.609   4.956   5.411
 6222SOL     OW19564   6.622   1.227   1.913
 6222SOL    HW119565   6.709   1.226   1.962
 6222SOL    HW219566   6.547   1.241   1.978
 6223SOL     OW19567   6.691   5.218   4.222
 6223SOL    HW119568   6.608   5.199   4.171
 6223SOL    HW219569   6.720   5.135   4.271
 6224SOL     OW19570   4.048   0.132   0.210
 6224SOL    HW119571   4.103   0.067   0.158
 6224SOL    HW219572   3.971   0.083   0.252
 6225SOL     OW19573   5.226   6.091   6.964
 6225SOL    HW119574   5.219   6.022   0.011
 6225SOL    HW219575   5.134   6.120   6.937
 6226SOL     OW19576   1.006   1.439   4.079
 6226SOL    HW119577   0.971   1.444   4.173
 6226SOL    HW219578   1.066   1.359   4.071
 6227SOL     OW19579   1.876   4.429   6.095
 6227SOL    HW119580   1.966   4.421   6.139
 6227SOL    HW219581   1.869   4.518   6.050
 6228SOL     OW19582   0.398   3.345   4.153
 6228SOL    HW119583   0.472   3.378   4.095
 6228SOL    HW219584   0.310   3.357   4.106
 6229SOL     OW19585   0.388   4.273   5.238
 6229SOL    HW119586   0.344   4.328   5.308
 6229SOL    HW219587   0.372   4.176   5.257
 6230SOL     OW19588   0.968   0.810   1.367
 6230SOL    HW119589   0.882   0.840   1.409
 6230SOL    HW219590   1.042   0.870   1.396
 6231SOL     OW19591   2.161   5.834   5.832
 6231SOL    HW119592   2.261   5.838   5.834
 6231SOL    HW219593   2.124   5.924   5.857
 6232SOL     OW19594   4.333   0.293   6.561
 6232SOL    HW119595   4.322   0.238   6.644
 6232SOL    HW219596   4.354   0.232   6.484
 6233SOL     OW19597   6.997   4.495   1.015
 6233SOL    HW119598   7.011   4.573   0.954
 6233SOL    HW219599   6.899   4.476   1.024
 6234SOL     OW19600   4.550   5.465   3.100
 6234SOL    HW119601   4.503   5.516   3.028
 6234SOL    HW219602   4.648   5.460   3.079
 6235SOL     OW19603   0.223   0.800   1.479
 6235SOL    HW119604   0.296   0.731   1.488
 6235SOL    HW219605   0.208   0.820   1.382
 6236SOL     OW19606   6.534   5.904   1.758
 6236SOL    HW119607   6.467   5.924   1.830
 6236SOL    HW219608   6.492   5.918   1.669
 6237SOL     OW19609   4.215   1.719   2.527
 6237SOL    HW119610   4.253   1.679   2.610
 6237SOL    HW219611   4.115   1.713   2.530
 6238SOL     OW19612   2.436   0.160   4.014
 6238SOL    HW119613   2.392   0.173   4.104
 6238SOL    HW219614   2.416   0.068   3.981
 6239SOL     OW19615   3.942   1.491   4.220
 6239SOL    HW119616   3.960   1.511   4.316
 6239SOL    HW219617   3.870   1.552   4.187
 6240SOL     OW19618   4.074   3.566   3.989
 6240SOL    HW119619   4.066   3.656   4.031
 6240SOL    HW219620   4.080   3.496   4.060
 6241SOL     OW19621   4.409   6.943   3.203
 6241SOL    HW119622   4.349   6.870   3.236
 6241SOL    HW219623   4.479   6.962   3.272
 6242SOL     OW19624   3.268   2.156   4.359
 6242SOL    HW119625   3.310   2.123   4.444
 6242SOL    HW219626   3.181   2.201   4.380
 6243SOL     OW19627   3.162   0.938   6.954
 6243SOL    HW119628   3.182   0.859   6.897
 6243SOL    HW219629   3.181   1.023   6.904
 6244SOL     OW19630   4.673   2.286   1.945
 6244SOL    HW119631   4.723   2.315   1.863
 6244SOL    HW219632   4.666   2.363   2.008
 6245SOL     OW19633   0.019   4.467   2.116
 6245SOL    HW119634   0.030   4.369   2.130
 6245SOL    HW219635   6.965   4.484   2.057
 6246SOL     OW19636   0.771   5.628   5.033
 6246SOL    HW119637   0.853   5.578   5.061
 6246SOL    HW219638   0.765   5.628   4.933
 6247SOL     OW19639   5.667   5.340   2.394
 6247SOL    HW119640   5.608   5.413   2.427
 6247SOL    HW219641   5.662   5.262   2.455
 6248SOL     OW19642   4.598   2.930   6.221
 6248SOL    HW119643   4.614   2.859   6.153
 6248SOL    HW219644   4.501   2.953   6.223
 6249SOL     OW19645   5.630   2.714   3.371
 6249SOL    HW119646   5.548   2.698   3.316
 6249SOL    HW219647   5.667   2.804   3.350
 6250SOL     OW19648   5.284   0.116   5.254
 6250SOL    HW119649   5.218   0.063   5.307
 6250SOL    HW219650   5.303   0.202   5.301
 6251SOL     OW19651   2.488   0.970   4.131
 6251SOL    HW119652   2.414   1.016   4.082
 6251SOL    HW219653   2.572   1.023   4.120
 6252SOL     OW19654   3.194   5.281   0.423
 6252SOL    HW119655   3.169   5.261   0.518
 6252SOL    HW219656   3.139   5.224   0.362
 6253SOL     OW19657   5.174   6.057   3.399
 6253SOL    HW119658   5.182   6.156   3.407
 6253SOL    HW219659   5.236   6.013   3.465
 6254SOL     OW19660   6.965   6.996   1.955
 6254SOL    HW119661   0.019   6.968   2.010
 6254SOL    HW219662   6.987   0.056   1.906
 6255SOL     OW19663   2.082   0.653   0.529
 6255SOL    HW119664   2.155   0.626   0.593
 6255SOL    HW219665   1.999   0.674   0.580
 6256SOL     OW19666   6.740   4.385   2.362
 6256SOL    HW119667   6.805   4.310   2.351
 6256SOL    HW219668   6.789   4.472   2.362
 6257SOL     OW19669   4.312   3.926   0.715
 6257SOL    HW119670   4.218   3.929   0.749
 6257SOL    HW219671   4.337   4.016   0.679
 6258SOL     OW19672   3.743   4.945   4.599
 6258SOL    HW119673   3.685   4.864   4.612
 6258SOL    HW219674   3.827   4.933   4.652
 6259SOL     OW19675   4.770   0.565   4.238
 6259SOL    HW119676   4.720   0.502   4.178
 6259SOL    HW219677   4.738   0.658   4.223
 6260SOL     OW19678   3.532   2.105   6.888
 6260SOL    HW119679   3.496   2.149   6.805
 6260SOL    HW219680   3.578   2.020   6.863
 6261SOL     OW19681   4.287   6.537   1.318
 6261SOL    HW119682   4.319   6.546   1.412
 6261SOL    HW219683   4.257   6.625   1.283
 6262SOL     OW19684   6.044   1.116   3.185
 6262SOL    HW119685   6.034   1.074   3.095
 6262SOL    HW219686   5.964   1.172   3.205
 6263SOL     OW19687   6.133   6.425   6.231
 6263SOL    HW119688   6.090   6.487   6.296
 6263SOL    HW219689   6.152   6.474   6.145
 6264SOL     OW19690   1.089   6.330   1.122
 6264SOL    HW119691   1.116   6.252   1.066
 6264SOL    HW219692   1.167   6.362   1.175
 6265SOL     OW19693   4.100   6.931   0.040
 6265SOL    HW119694   4.145   6.893   6.984
 6265SOL    HW219695   4.001   6.927   0.027
 6266SOL     OW19696   2.776   5.065   3.206
 6266SOL    HW119697   2.704   5.100   3.147
 6266SOL    HW219698   2.769   4.965   3.211
 6267SOL     OW19699   0.447   6.252   5.008
 6267SOL    HW119700   0.424   6.195   4.929
 6267SOL    HW219701   0.529   6.216   5.053
 6268SOL     OW19702   3.040   1.610   1.743
 6268SOL    HW119703   2.977   1.552   1.794
 6268SOL    HW219704   3.014   1.613   1.647
 6269SOL     OW19705   6.916   6.198   0.453
 6269SOL    HW119706   6.910   6.246   0.365
 6269SOL    HW219707   7.002   6.222   0.498
 6270SOL     OW19708   1.454   6.438   1.017
 6270SOL    HW119709   1.440   6.536   1.003
 6270SOL    HW219710   1.548   6.413   0.990
 6271SOL     OW19711   0.232   3.548   6.081
 6271SOL    HW119712   0.283   3.466   6.056
 6271SOL    HW219713   0.249   3.620   6.013
 6272SOL     OW19714   0.504   0.976   0.837
 6272SOL    HW119715   0.518   0.895   0.893
 6272SOL    HW219716   0.425   1.027   0.871
 6273SOL     OW19717   0.881   6.113   3.299
 6273SOL    HW119718   0.796   6.110   3.246
 6273SOL    HW219719   0.862   6.091   3.395
 6274SOL     OW19720   2.878   5.694   4.260
 6274SOL    HW119721   2.891   5.597   4.241
 6274SOL    HW219722   2.832   5.738   4.182
 6275SOL     OW19723   3.002   5.644   1.716
 6275SOL    HW119724   2.969   5.738   1.710
 6275SOL    HW219725   2.979   5.606   1.806
 6276SOL     OW19726   1.763   4.895   2.285
 6276SOL    HW119727   1.760   4.824   2.214
 6276SOL    HW219728   1.680   4.890   2.341
 6277SOL     OW19729   4.991   2.517   1.522
 6277SOL    HW119730   4.951   2.538   1.433
 6277SOL    HW219731   5.043   2.596   1.555
 6278SOL     OW19732   3.203   2.994   0.223
 6278SOL    HW119733   3.298   3.014   0.244
 6278SOL    HW219734   3.179   3.034   0.134
 6279SOL     OW19735   1.475   6.767   2.198
 6279SOL    HW119736   1.448   6.682   2.243
 6279SOL    HW219737   1.535   6.747   2.121
 6280SOL     OW19738   4.909   1.042   6.834
 6280SOL    HW119739   4.842   0.971   6.856
 6280SOL    HW219740   4.983   1.040   6.902
 6281SOL     OW19741   5.567   3.821   5.866
 6281SOL    HW119742   5.578   3.896   5.932
 6281SOL    HW219743   5.483   3.772   5.886
 6282SOL     OW19744   0.307   3.696   5.856
 6282SOL    HW119745   0.280   3.677   5.761
 6282SOL    HW219746   0.404   3.720   5.858
 6283SOL     OW19747   2.350   0.282   4.276
 6283SOL    HW119748   2.284   0.302   4.349
 6283SOL    HW219749   2.378   0.367   4.232
 6284SOL     OW19750   1.693   3.846   6.204
 6284SOL    HW119751   1.777   3.900   6.196
 6284SOL    HW219752   1.705   3.758   6.159
 6285SOL     OW19753   1.394   4.404   3.404
 6285SOL    HW119754   1.452   4.426   3.483
 6285SOL    HW219755   1.449   4.358   3.335
 6286SOL     OW19756   1.121   3.061   6.864
 6286SOL    HW119757   1.046   2.997   6.848
 6286SOL    HW219758   1.193   3.046   6.795
 6287SOL     OW19759   4.607   5.268   4.902
 6287SOL    HW119760   4.693   5.293   4.946
 6287SOL    HW219761   4.541   5.240   4.972
 6288SOL     OW19762   3.306   3.712   5.396
 6288SOL    HW119763   3.224   3.750   5.440
 6288SOL    HW219764   3.300   3.613   5.393
 6289SOL     OW19765   2.491   4.789   5.331
 6289SOL    HW119766   2.581   4.781   5.289
 6289SOL    HW219767   2.464   4.700   5.370
 6290SOL     OW19768   6.543   0.129   3.126
 6290SOL    HW119769   6.530   0.102   3.031
 6290SOL    HW219770   6.523   0.051   3.186
 6291SOL     OW19771   2.984   3.311   2.174
 6291SOL    HW119772   2.939   3.257   2.245
 6291SOL    HW219773   3.080   3.326   2.200
 6292SOL     OW19774   0.969   4.268   4.881
 6292SOL    HW119775   0.885   4.316   4.904
 6292SOL    HW219776   1.032   4.331   4.836
 6293SOL     OW19777   2.748   1.098   0.518
 6293SOL    HW119778   2.687   1.124   0.593
 6293SOL    HW219779   2.728   1.004   0.491
 6294SOL     OW19780   1.685   0.298   2.094
 6294SOL    HW119781   1.767   0.241   2.089
 6294SOL    HW219782   1.710   0.388   2.130
 6295SOL     OW19783   4.622   2.458   5.721
 6295SOL    HW119784   4.602   2.555   5.731
 6295SOL    HW219785   4.538   2.405   5.736
 6296SOL     OW19786   6.804   2.473   0.426
 6296SOL    HW119787   6.878   2.458   0.361
 6296SOL    HW219788   6.718   2.441   0.388
 6297SOL     OW19789   0.066   1.199   4.485
 6297SOL    HW119790   0.057   1.298   4.473
 6297SOL    HW219791   0.144   1.180   4.545
 6298SOL     OW19792   6.601   0.390   6.790
 6298SOL    HW119793   6.615   0.485   6.760
 6298SOL    HW219794   6.549   0.390   6.876
 6299SOL     OW19795   3.110   1.513   3.938
 6299SOL    HW119796   3.144   1.537   4.029
 6299SOL    HW219797   3.132   1.417   3.919
 6300SOL     OW19798   2.903   2.134   0.982
 6300SOL    HW119799   2.915   2.199   0.907
 6300SOL    HW219800   2.859   2.180   1.059
 6301SOL     OW19801   4.003   6.486   1.325
 6301SOL    HW119802   4.100   6.468   1.309
 6301SOL    HW219803   3.956   6.497   1.237
 6302SOL     OW19804   1.677   3.778   0.157
 6302SOL    HW119805   1.711   3.856   0.105
 6302SOL    HW219806   1.719   3.776   0.247
 6303SOL     OW19807   6.417   4.682   4.967
 6303SOL    HW119808   6.384   4.774   4.948
 6303SOL    HW219809   6.498   4.687   5.025
 6304SOL     OW19810   2.230   2.205   4.403
 6304SOL    HW119811   2.176   2.151   4.467
 6304SOL    HW219812   2.283   2.273   4.453
 6305SOL     OW19813   0.814   5.651   5.351
 6305SOL    HW119814   0.738   5.632   5.290
 6305SOL    HW219815   0.900   5.640   5.301
 6306SOL     OW19816   0.788   4.375   4.464
 6306SOL    HW119817   0.733   4.328   4.396
 6306SOL    HW219818   0.760   4.471   4.471
 6307SOL     OW19819   3.127   3.180   3.269
 6307SOL    HW119820   3.053   3.245   3.258
 6307SOL    HW219821   3.208   3.226   3.306
 6308SOL     OW19822   0.765   1.138   1.213
 6308SOL    HW119823   0.690   1.075   1.191
 6308SOL    HW219824   0.737   1.232   1.192
 6309SOL     OW19825   1.782   5.858   5.091
 6309SOL    HW119826   1.716   5.873   5.164
 6309SOL    HW219827   1.802   5.760   5.083
 6310SOL     OW19828   0.858   6.773   3.200
 6310SOL    HW119829   0.784   6.786   3.266
 6310SOL    HW219830   0.922   6.850   3.205
 6311SOL     OW19831   6.300   1.230   6.199
 6311SOL    HW119832   6.229   1.160   6.191
 6311SOL    HW219833   6.381   1.191   6.244
 6312SOL     OW19834   3.604   5.834   1.170
 6312SOL    HW119835   3.677   5.903   1.176
 6312SOL    HW219836   3.577   5.823   1.074
 6313SOL     OW19837   5.589   4.672   2.776
 6313SOL    HW119838   5.663   4.729   2.811
 6313SOL    HW219839   5.530   4.727   2.717
 6314SOL     OW19840   2.013   6.802   3.433
 6314SOL    HW119841   2.048   6.895   3.448
 6314SOL    HW219842   1.931   6.807   3.376
 6315SOL     OW19843   2.015   2.834   3.144
 6315SOL    HW119844   1.923   2.820   3.179
 6315SOL    HW219845   2.015   2.906   3.075
 6316SOL     OW19846   4.579   0.401   4.572
 6316SOL    HW119847   4.596   0.346   4.654
 6316SOL    HW219848   4.643   0.478   4.571
 6317SOL     OW19849   4.814   3.956   3.081
 6317SOL    HW119850   4.764   4.021   3.024
 6317SOL    HW219851   4.794   3.975   3.177
 6318SOL     OW19852   5.811   6.983   0.156
 6318SOL    HW119853   5.885   7.019   0.099
 6318SOL    HW219854   5.771   0.033   0.209
 6319SOL     OW19855   4.797   2.827   4.301
 6319SOL    HW119856   4.725   2.808   4.234
 6319SOL    HW219857   4.761   2.811   4.393
 6320SOL     OW19858   6.210   1.905   6.389
 6320SOL    HW119859   6.261   1.827   6.425
 6320SOL    HW219860   6.272   1.982   6.374
 6321SOL     OW19861   1.097   3.811   0.230
 6321SOL    HW119862   1.096   3.809   0.130
 6321SOL    HW219863   1.191   3.827   0.262
 6322SOL     OW19864   2.028   1.709   2.424
 6322SOL    HW119865   2.073   1.775   2.364
 6322SOL    HW219866   2.075   1.621   2.418
 6323SOL     OW19867   2.064   6.186   1.023
 6323SOL    HW119868   1.997   6.228   1.084
 6323SOL    HW219869   2.135   6.141   1.077
 6324SOL     OW19870   5.022   3.831   1.027
 6324SOL    HW119871   5.090   3.812   0.957
 6324SOL    HW219872   5.038   3.922   1.066
 6325SOL     OW19873   1.141   3.439   4.101
 6325SOL    HW119874   1.133   3.361   4.163
 6325SOL    HW219875   1.237   3.468   4.096
 6326SOL     OW19876   4.847   5.319   5.023
 6326SOL    HW119877   4.916   5.338   4.954
 6326SOL    HW219878   4.891   5.297   5.110
 6327SOL     OW19879   0.684   0.807   2.724
 6327SOL    HW119880   0.725   0.724   2.687
 6327SOL    HW219881   0.653   0.866   2.649
 6328SOL     OW19882   4.054   3.259   4.889
 6328SOL    HW119883   4.030   3.250   4.793
 6328SOL    HW219884   4.023   3.178   4.939
 6329SOL     OW19885   0.263   3.198   4.677
 6329SOL    HW119886   0.275   3.169   4.772
 6329SOL    HW219887   0.203   3.133   4.629
 6330SOL     OW19888   4.215   1.854   3.595
 6330SOL    HW119889   4.139   1.848   3.661
 6330SOL    HW219890   4.213   1.943   3.550
 6331SOL     OW19891   1.900   3.544   3.640
 6331SOL    HW119892   1.951   3.459   3.627
 6331SOL    HW219893   1.961   3.622   3.623
 6332SOL     OW19894   4.634   2.044   0.191
 6332SOL    HW119895   4.723   2.013   0.158
 6332SOL    HW219896   4.645   2.086   0.282
 6333SOL     OW19897   5.714   1.163   0.472
 6333SOL    HW119898   5.755   1.251   0.497
 6333SOL    HW219899   5.721   1.150   0.373
 6334SOL     OW19900   1.975   1.349   1.642
 6334SOL    HW119901   1.886   1.303   1.639
 6334SOL    HW219902   2.048   1.283   1.627
 6335SOL     OW19903   5.882   2.494   5.413
 6335SOL    HW119904   5.838   2.534   5.494
 6335SOL    HW219905   5.980   2.480   5.432
 6336SOL     OW19906   0.504   5.087   6.042
 6336SOL    HW119907   0.574   5.159   6.046
 6336SOL    HW219908   0.527   5.022   5.970
 6337SOL     OW19909   6.067   0.203   5.457
 6337SOL    HW119910   6.036   0.288   5.415
 6337SOL    HW219911   6.167   0.203   5.463
 6338SOL     OW19912   0.861   0.658   2.590
 6338SOL    HW119913   0.873   0.561   2.569
 6338SOL    HW219914   0.947   0.707   2.576
 6339SOL     OW19915   0.084   4.203   3.310
 6339SOL    HW119916   0.036   4.193   3.222
 6339SOL    HW219917   0.161   4.266   3.299
 6340SOL     OW19918   2.304   5.563   6.438
 6340SOL    HW119919   2.242   5.537   6.364
 6340SOL    HW219920   2.371   5.491   6.454
 6341SOL     OW19921   0.722   4.552   2.626
 6341SOL    HW119922   0.797   4.486   2.626
 6341SOL    HW219923   0.683   4.559   2.718
 6342SOL     OW19924   2.231   0.266   1.667
 6342SOL    HW119925   2.274   0.237   1.582
 6342SOL    HW219926   2.225   0.366   1.669
 6343SOL     OW19927   1.495   4.990   6.874
 6343SOL    HW119928   1.521   5.033   6.787
 6343SOL    HW219929   1.432   4.914   6.855
 6344SOL     OW19930   1.293   1.411   4.336
 6344SOL    HW119931   1.199   1.446   4.340
 6344SOL    HW219932   1.318   1.392   4.241
 6345SOL     OW19933   0.422   3.035   3.064
 6345SOL    HW119934   0.401   3.107   3.129
 6345SOL    HW219935   0.495   2.977   3.101
 6346SOL     OW19936   0.650   4.394   3.541
 6346SOL    HW119937   0.670   4.405   3.638
 6346SOL    HW219938   0.613   4.302   3.524
 6347SOL     OW19939   2.237   1.950   2.971
 6347SOL    HW119940   2.256   1.858   2.938
 6347SOL    HW219941   2.144   1.953   3.009
 6348SOL     OW19942   1.759   2.917   0.160
 6348SOL    HW119943   1.753   2.818   0.142
 6348SOL    HW219944   1.855   2.945   0.163
 6349SOL     OW19945   6.243   1.489   0.885
 6349SOL    HW119946   6.319   1.477   0.949
 6349SOL    HW219947   6.164   1.438   0.917
 6350SOL     OW19948   0.406   6.773   1.516
 6350SOL    HW119949   0.473   6.771   1.442
 6350SOL    HW219950   0.364   6.682   1.526
 6351SOL     OW19951   6.200   2.551   2.084
 6351SOL    HW119952   6.111   2.597   2.077
 6351SOL    HW219953   6.271   2.619   2.104
 6352SOL     OW19954   4.208   0.851   4.796
 6352SOL    HW119955   4.186   0.766   4.844
 6352SOL    HW219956   4.193   0.929   4.857
 6353SOL     OW19957   3.852   5.974   5.830
 6353SOL    HW119958   3.796   5.991   5.911
 6353SOL    HW219959   3.859   6.058   5.776
 6354SOL     OW19960   5.778   4.692   2.496
 6354SOL    HW119961   5.746   4.786   2.484
 6354SOL    HW219962   5.843   4.669   2.424
 6355SOL     OW19963   4.912   6.396   0.043
 6355SOL    HW119964   4.818   6.408   0.076
 6355SOL    HW219965   4.917   6.312   7.013
 6356SOL     OW19966   0.701   6.751   5.888
 6356SOL    HW119967   0.626   6.817   5.898
 6356SOL    HW219968   0.667   6.659   5.908
 6357SOL     OW19969   4.988   1.805   3.026
 6357SOL    HW119970   4.926   1.727   3.017
 6357SOL    HW219971   5.061   1.798   2.958
 6358SOL     OW19972   1.253   1.535   4.854
 6358SOL    HW119973   1.337   1.507   4.899
 6358SOL    HW219974   1.206   1.454   4.819
 6359SOL     OW19975   5.955   4.774   0.843
 6359SOL    HW119976   5.876   4.834   0.858
 6359SOL    HW219977   5.940   4.687   0.890
 6360SOL     OW19978   2.606   2.597   0.694
 6360SOL    HW119979   2.562   2.632   0.777
 6360SOL    HW219980   2.536   2.562   0.631
 6361SOL     OW19981   0.248   2.615   2.450
 6361SOL    HW119982   0.303   2.693   2.479
 6361SOL    HW219983   0.155   2.624   2.485
 6362SOL     OW19984   2.324   5.534   0.703
 6362SOL    HW119985   2.350   5.599   0.774
 6362SOL    HW219986   2.402   5.474   0.684
 6363SOL     OW19987   0.970   2.586   1.545
 6363SOL    HW119988   0.994   2.668   1.493
 6363SOL    HW219989   1.009   2.593   1.637
 6364SOL     OW19990   2.548   1.646   4.483
 6364SOL    HW119991   2.458   1.610   4.509
 6364SOL    HW219992   2.587   1.589   4.411
 6365SOL     OW19993   6.483   6.873   2.176
 6365SOL    HW119994   6.529   6.938   2.116
 6365SOL    HW219995   6.528   6.874   2.266
 6366SOL     OW19996   5.670   1.408   4.920
 6366SOL    HW119997   5.628   1.498   4.933
 6366SOL    HW219998   5.622   1.360   4.846
 6367SOL     OW19999   1.421   2.989   4.799
 6367SOL    HW120000   1.495   3.037   4.846
 6367SOL    HW220001   1.390   2.912   4.854
 6368SOL     OW20002   5.039   3.283   5.098
 6368SOL    HW120003   5.070   3.377   5.083
 6368SOL    HW220004   5.108   3.219   5.064
 6369SOL     OW20005   3.377   4.771   0.523
 6369SOL    HW120006   3.333   4.691   0.563
 6369SOL    HW220007   3.410   4.748   0.431
 6370SOL     OW20008   6.092   3.621   4.790
 6370SOL    HW120009   6.094   3.636   4.691
 6370SOL    HW220010   6.184   3.604   4.824
 6371SOL     OW20011   5.707   4.627   0.862
 6371SOL    HW120012   5.618   4.584   0.875
 6371SOL    HW220013   5.702   4.722   0.893
 6372SOL     OW20014   6.096   1.469   1.310
 6372SOL    HW120015   6.062   1.503   1.397
 6372SOL    HW220016   6.180   1.517   1.285
 6373SOL     OW20017   5.363   1.937   1.339
 6373SOL    HW120018   5.419   1.858   1.365
 6373SOL    HW220019   5.420   2.018   1.332
 6374SOL     OW20020   3.896   2.817   6.662
 6374SOL    HW120021   3.905   2.796   6.760
 6374SOL    HW220022   3.955   2.894   6.639
 6375SOL     OW20023   5.726   1.138   2.058
 6375SOL    HW120024   5.633   1.136   2.094
 6375SOL    HW220025   5.763   1.045   2.052
 6376SOL     OW20026   3.132   6.768   0.826
 6376SOL    HW120027   3.127   6.747   0.924
 6376SOL    HW220028   3.039   6.775   0.789
 6377SOL     OW20029   6.921   1.016   0.322
 6377SOL    HW120030   6.973   1.082   0.267
 6377SOL    HW220031   6.954   0.924   0.303
 6378SOL     OW20032   5.929   4.029   3.298
 6378SOL    HW120033   5.945   3.937   3.264
 6378SOL    HW220034   5.842   4.064   3.261
 6379SOL     OW20035   2.778   5.541   6.815
 6379SOL    HW120036   2.840   5.579   6.883
 6379SOL    HW220037   2.750   5.449   6.844
 6380SOL     OW20038   2.220   3.025   4.794
 6380SOL    HW120039   2.276   2.974   4.729
 6380SOL    HW220040   2.238   2.992   4.887
 6381SOL     OW20041   3.249   4.545   0.645
 6381SOL    HW120042   3.283   4.483   0.574
 6381SOL    HW220043   3.287   4.519   0.733
 6382SOL     OW20044   1.833   1.037   0.949
 6382SOL    HW120045   1.779   1.044   1.033
 6382SOL    HW220046   1.806   1.109   0.885
 6383SOL     OW20047   2.698   1.951   2.634
 6383SOL    HW120048   2.702   1.903   2.722
 6383SOL    HW220049   2.721   1.887   2.561
 6384SOL     OW20050   6.818   1.718   2.682
 6384SOL    HW120051   6.769   1.722   2.595
 6384SOL    HW220052   6.892   1.786   2.681
 6385SOL     OW20053   0.103   3.684   1.214
 6385SOL    HW120054   0.041   3.762   1.218
 6385SOL    HW220055   0.153   3.685   1.127
 6386SOL     OW20056   3.164   4.329   0.195
 6386SOL    HW120057   3.099   4.383   0.248
 6386SOL    HW220058   3.114   4.258   0.145
 6387SOL     OW20059   6.434   1.062   5.714
 6387SOL    HW120060   6.407   1.125   5.641
 6387SOL    HW220061   6.513   1.008   5.683
 6388SOL     OW20062   6.187   5.124   2.013
 6388SOL    HW120063   6.226   5.073   1.936
 6388SOL    HW220064   6.257   5.136   2.083
 6389SOL     OW20065   6.493   6.735   0.918
 6389SOL    HW120066   6.481   6.691   0.829
 6389SOL    HW220067   6.456   6.677   0.990
 6390SOL     OW20068   4.632   6.355   0.192
 6390SOL    HW120069   4.599   6.434   0.141
 6390SOL    HW220070   4.596   6.357   0.285
 6391SOL     OW20071   1.066   2.198   5.210
 6391SOL    HW120072   1.075   2.269   5.140
 6391SOL    HW220073   1.060   2.108   5.167
 6392SOL     OW20074   4.509   6.477   3.546
 6392SOL    HW120075   4.540   6.521   3.630
 6392SOL    HW220076   4.549   6.523   3.467
 6393SOL     OW20077   2.734   5.015   0.035
 6393SOL    HW120078   2.685   5.073   0.100
 6393SOL    HW220079   2.741   4.922   0.073
 6394SOL     OW20080   1.380   5.631   1.691
 6394SOL    HW120081   1.429   5.561   1.639
 6394SOL    HW220082   1.439   5.665   1.764
 6395SOL     OW20083   1.019   4.111   5.154
 6395SOL    HW120084   0.932   4.079   5.192
 6395SOL    HW220085   1.001   4.169   5.074
 6396SOL     OW20086   0.995   2.944   4.709
 6396SOL    HW120087   0.930   2.978   4.776
 6396SOL    HW220088   1.071   3.008   4.701
 6397SOL     OW20089   6.737   3.483   4.473
 6397SOL    HW120090   6.812   3.497   4.538
 6397SOL    HW220091   6.664   3.550   4.491
 6398SOL     OW20092   0.950   0.239   2.991
 6398SOL    HW120093   0.990   0.278   2.908
 6398SOL    HW220094   1.018   0.237   3.064
 6399SOL     OW20095   2.936   6.647   6.928
 6399SOL    HW120096   2.938   6.708   6.848
 6399SOL    HW220097   2.953   6.700   7.011
 6400SOL     OW20098   0.971   6.262   2.993
 6400SOL    HW120099   0.956   6.332   3.063
 6400SOL    HW220100   0.932   6.293   2.906
 6401SOL     OW20101   3.973   4.855   1.451
 6401SOL    HW120102   3.996   4.840   1.355
 6401SOL    HW220103   3.989   4.772   1.504
 6402SOL     OW20104   3.476   3.438   6.025
 6402SOL    HW120105   3.394   3.473   5.981
 6402SOL    HW220106   3.468   3.339   6.039
 6403SOL     OW20107   3.971   5.482   5.560
 6403SOL    HW120108   3.971   5.438   5.650
 6403SOL    HW220109   3.877   5.487   5.526
 6404SOL     OW20110   5.026   5.873   6.137
 6404SOL    HW120111   5.107   5.850   6.192
 6404SOL    HW220112   5.008   5.799   6.073
 6405SOL     OW20113   4.484   0.589   2.720
 6405SOL    HW120114   4.398   0.616   2.765
 6405SOL    HW220115   4.517   0.663   2.663
 6406SOL     OW20116   0.351   3.464   2.070
 6406SOL    HW120117   0.276   3.528   2.087
 6406SOL    HW220118   0.318   3.389   2.012
 6407SOL     OW20119   0.475   6.903   2.194
 6407SOL    HW120120   0.574   6.903   2.177
 6407SOL    HW220121   0.435   6.821   2.153
 6408SOL     OW20122   6.952   1.584   1.626
 6408SOL    HW120123   6.868   1.538   1.654
 6408SOL    HW220124   7.014   1.592   1.704
 6409SOL     OW20125   6.175   4.687   3.873
 6409SOL    HW120126   6.243   4.689   3.800
 6409SOL    HW220127   6.083   4.693   3.833
 6410SOL     OW20128   1.445   0.637   6.776
 6410SOL    HW120129   1.494   0.710   6.728
 6410SOL    HW220130   1.510   0.582   6.828
 6411SOL     OW20131   1.189   2.548   4.380
 6411SOL    HW120132   1.208   2.471   4.441
 6411SOL    HW220133   1.091   2.566   4.380
 6412SOL     OW20134   4.407   0.515   6.968
 6412SOL    HW120135   4.442   0.504   6.875
 6412SOL    HW220136   4.366   0.429   6.999
 6413SOL     OW20137   4.770   5.900   2.755
 6413SOL    HW120138   4.699   5.894   2.684
 6413SOL    HW220139   4.748   5.975   2.817
 6414SOL     OW20140   3.465   0.384   0.381
 6414SOL    HW120141   3.492   0.452   0.449
 6414SOL    HW220142   3.544   0.358   0.326
 6415SOL     OW20143   6.939   2.126   3.721
 6415SOL    HW120144   6.886   2.044   3.742
 6415SOL    HW220145   6.901   2.204   3.771
 6416SOL     OW20146   2.987   4.678   7.022
 6416SOL    HW120147   3.010   4.606   0.063
 6416SOL    HW220148   2.913   4.647   6.963
 6417SOL     OW20149   4.450   3.576   6.375
 6417SOL    HW120150   4.350   3.573   6.372
 6417SOL    HW220151   4.487   3.495   6.330
 6418SOL     OW20152   5.005   5.539   0.140
 6418SOL    HW120153   4.914   5.503   0.162
 6418SOL    HW220154   5.059   5.545   0.224
 6419SOL     OW20155   1.450   6.700   6.338
 6419SOL    HW120156   1.436   6.797   6.320
 6419SOL    HW220157   1.548   6.681   6.346
 6420SOL     OW20158   1.870   5.136   3.432
 6420SOL    HW120159   1.943   5.191   3.473
 6420SOL    HW220160   1.787   5.191   3.425
 6421SOL     OW20161   5.159   6.746   1.602
 6421SOL    HW120162   5.199   6.655   1.594
 6421SOL    HW220163   5.214   6.800   1.666
 6422SOL     OW20164   0.998   1.210   5.058
 6422SOL    HW120165   1.064   1.283   5.075
 6422SOL    HW220166   0.910   1.250   5.032
 6423SOL     OW20167   1.180   3.606   4.372
 6423SOL    HW120168   1.170   3.507   4.386
 6423SOL    HW220169   1.273   3.634   4.397
 6424SOL     OW20170   6.772   4.080   5.553
 6424SOL    HW120171   6.826   4.155   5.513
 6424SOL    HW220172   6.747   4.016   5.480
 6425SOL     OW20173   1.120   0.057   5.179
 6425SOL    HW120174   1.217   0.036   5.174
 6425SOL    HW220175   1.086   0.042   5.272
 6426SOL     OW20176   4.014   5.339   3.763
 6426SOL    HW120177   4.061   5.417   3.806
 6426SOL    HW220178   4.011   5.263   3.827
 6427SOL     OW20179   3.105   3.706   3.532
 6427SOL    HW120180   3.101   3.606   3.529
 6427SOL    HW220181   3.060   3.743   3.451
 6428SOL     OW20182   6.448   2.752   0.191
 6428SOL    HW120183   6.444   2.741   0.291
 6428SOL    HW220184   6.485   2.842   0.169
 6429SOL     OW20185   2.771   1.847   4.846
 6429SOL    HW120186   2.711   1.870   4.923
 6429SOL    HW220187   2.732   1.769   4.797
 6430SOL     OW20188   6.480   1.574   4.927
 6430SOL    HW120189   6.381   1.580   4.938
 6430SOL    HW220190   6.523   1.570   5.017
 6431SOL     OW20191   3.290   4.939   3.235
 6431SOL    HW120192   3.332   5.020   3.278
 6431SOL    HW220193   3.227   4.897   3.300
 6432SOL     OW20194   4.469   3.236   6.834
 6432SOL    HW120195   4.456   3.149   6.881
 6432SOL    HW220196   4.567   3.257   6.829
 6433SOL     OW20197   4.043   5.181   6.086
 6433SOL    HW120198   3.994   5.196   6.000
 6433SOL    HW220199   4.000   5.236   6.158
 6434SOL     OW20200   6.466   4.745   6.155
 6434SOL    HW120201   6.509   4.805   6.087
 6434SOL    HW220202   6.516   4.659   6.160
 6435SOL     OW20203   4.601   1.460   1.023
 6435SOL    HW120204   4.528   1.493   0.964
 6435SOL    HW220205   4.632   1.371   0.990
 6436SOL     OW20206   0.868   2.346   3.809
 6436SOL    HW120207   0.806   2.387   3.876
 6436SOL    HW220208   0.825   2.348   3.719
 6437SOL     OW20209   1.367   2.744   6.529
 6437SOL    HW120210   1.464   2.762   6.550
 6437SOL    HW220211   1.356   2.736   6.430
 6438SOL     OW20212   0.566   5.793   1.281
 6438SOL    HW120213   0.648   5.785   1.338
 6438SOL    HW220214   0.492   5.740   1.323
 6439SOL     OW20215   4.268   6.404   2.923
 6439SOL    HW120216   4.280   6.308   2.900
 6439SOL    HW220217   4.179   6.418   2.966
 6440SOL     OW20218   2.470   2.303   5.698
 6440SOL    HW120219   2.455   2.389   5.649
 6440SOL    HW220220   2.383   2.268   5.732
 6441SOL     OW20221   1.621   1.925   1.318
 6441SOL    HW120222   1.696   1.869   1.283
 6441SOL    HW220223   1.535   1.897   1.275
 6442SOL     OW20224   2.892   1.749   4.369
 6442SOL    HW120225   2.822   1.723   4.436
 6442SOL    HW220226   2.910   1.847   4.375
 6443SOL     OW20227   2.968   2.481   5.748
 6443SOL    HW120228   2.900   2.524   5.690
 6443SOL    HW220229   3.060   2.505   5.716
 6444SOL     OW20230   0.039   4.047   5.277
 6444SOL    HW120231   0.026   3.976   5.208
 6444SOL    HW220232   0.013   4.136   5.239
 6445SOL     OW20233   3.629   3.129   3.578
 6445SOL    HW120234   3.660   3.203   3.518
 6445SOL    HW220235   3.651   3.152   3.673
 6446SOL     OW20236   1.494   0.282   1.418
 6446SOL    HW120237   1.417   0.313   1.362
 6446SOL    HW220238   1.501   0.183   1.414
 6447SOL     OW20239   6.358   3.947   1.506
 6447SOL    HW120240   6.343   4.045   1.523
 6447SOL    HW220241   6.352   3.897   1.592
 6448SOL     OW20242   3.897   4.244   1.644
 6448SOL    HW120243   3.936   4.169   1.697
 6448SOL    HW220244   3.937   4.246   1.553
 6449SOL     OW20245   4.384   5.565   0.367
 6449SOL    HW120246   4.413   5.538   0.458
 6449SOL    HW220247   4.297   5.614   0.373
 6450SOL     OW20248   4.468   3.267   0.334
 6450SOL    HW120249   4.452   3.177   0.375
 6450SOL    HW220250   4.424   3.338   0.389
 6451SOL     OW20251   4.580   2.763   1.271
 6451SOL    HW120252   4.560   2.818   1.352
 6451SOL    HW220253   4.499   2.760   1.212
 6452SOL     OW20254   4.395   2.104   4.649
 6452SOL    HW120255   4.489   2.129   4.672
 6452SOL    HW220256   4.349   2.183   4.609
 6453SOL     OW20257   2.694   0.862   3.197
 6453SOL    HW120258   2.680   0.763   3.202
 6453SOL    HW220259   2.719   0.896   3.288
 6454SOL     OW20260   5.216   3.714   5.548
 6454SOL    HW120261   5.177   3.640   5.602
 6454SOL    HW220262   5.303   3.684   5.509
 6455SOL     OW20263   0.000   3.005   5.273
 6455SOL    HW120264   0.085   2.972   5.314
 6455SOL    HW220265   0.019   3.087   5.220
 6456SOL     OW20266   6.370   1.994   3.181
 6456SOL    HW120267   6.359   1.992   3.081
 6456SOL    HW220268   6.288   1.956   3.224
 6457SOL     OW20269   1.241   6.114   3.620
 6457SOL    HW120270   1.329   6.102   3.574
 6457SOL    HW220271   1.256   6.130   3.717
 6458SOL     OW20272   1.362   0.490   5.070
 6458SOL    HW120273   1.419   0.479   5.151
 6458SOL    HW220274   1.272   0.450   5.086
 6459SOL     OW20275   0.628   3.323   2.993
 6459SOL    HW120276   0.636   3.223   2.996
 6459SOL    HW220277   0.717   3.364   3.015
 6460SOL     OW20278   1.620   5.398   5.924
 6460SOL    HW120279   1.657   5.443   5.842
 6460SOL    HW220280   1.523   5.417   5.931
 6461SOL     OW20281   0.371   6.901   1.919
 6461SOL    HW120282   0.283   6.926   1.958
 6461SOL    HW220283   0.397   6.810   1.950
 6462SOL     OW20284   2.391   4.249   5.286
 6462SOL    HW120285   2.386   4.162   5.238
 6462SOL    HW220286   2.480   4.291   5.269
 6463SOL     OW20287   4.850   3.190   1.798
 6463SOL    HW120288   4.812   3.135   1.873
 6463SOL    HW220289   4.936   3.150   1.768
 6464SOL     OW20290   1.108   3.801   3.502
 6464SOL    HW120291   1.119   3.728   3.434
 6464SOL    HW220292   1.190   3.807   3.558
 6465SOL     OW20293   2.252   1.327   2.913
 6465SOL    HW120294   2.222   1.369   2.999
 6465SOL    HW220295   2.174   1.320   2.851
 6466SOL     OW20296   6.323   5.762   6.437
 6466SOL    HW120297   6.247   5.703   6.411
 6466SOL    HW220298   6.359   5.808   6.355
 6467SOL     OW20299   2.865   3.538   5.761
 6467SOL    HW120300   2.925   3.554   5.683
 6467SOL    HW220301   2.789   3.603   5.758
 6468SOL     OW20302   0.975   0.740   1.084
 6468SOL    HW120303   0.996   0.767   1.178
 6468SOL    HW220304   1.059   0.710   1.038
 6469SOL     OW20305   2.565   0.917   0.784
 6469SOL    HW120306   2.568   1.014   0.759
 6469SOL    HW220307   2.483   0.899   0.839
 6470SOL     OW20308   5.551   1.075   6.900
 6470SOL    HW120309   5.496   1.035   6.826
 6470SOL    HW220310   5.521   1.037   6.988
 6471SOL     OW20311   1.105   6.228   5.609
 6471SOL    HW120312   1.009   6.246   5.589
 6471SOL    HW220313   1.162   6.299   5.568
 6472SOL     OW20314   0.450   6.415   1.272
 6472SOL    HW120315   0.500   6.439   1.355
 6472SOL    HW220316   0.484   6.470   1.196
 6473SOL     OW20317   2.807   1.895   3.811
 6473SOL    HW120318   2.887   1.955   3.819
 6473SOL    HW220319   2.748   1.928   3.737
 6474SOL     OW20320   3.881   6.837   4.392
 6474SOL    HW120321   3.829   6.820   4.476
 6474SOL    HW220322   3.910   6.932   4.390
 6475SOL     OW20323   5.352   5.981   3.570
 6475SOL    HW120324   5.423   5.929   3.617
 6475SOL    HW220325   5.302   6.037   3.636
 6476SOL     OW20326   5.443   3.869   5.326
 6476SOL    HW120327   5.460   3.922   5.243
 6476SOL    HW220328   5.412   3.930   5.399
 6477SOL     OW20329   0.899   6.646   0.933
 6477SOL    HW120330   0.843   6.723   0.963
 6477SOL    HW220331   0.881   6.567   0.992
 6478SOL     OW20332   1.905   5.815   6.958
 6478SOL    HW120333   1.973   5.776   7.020
 6478SOL    HW220334   1.871   5.901   6.996
 6479SOL     OW20335   4.408   5.917   4.048
 6479SOL    HW120336   4.405   5.996   4.109
 6479SOL    HW220337   4.467   5.936   3.970
 6480SOL     OW20338   3.441   1.096   5.000
 6480SOL    HW120339   3.369   1.124   5.064
 6480SOL    HW220340   3.438   1.155   4.919
 6481SOL     OW20341   4.057   3.484   1.915
 6481SOL    HW120342   4.104   3.428   1.984
 6481SOL    HW220343   3.975   3.525   1.956
 6482SOL     OW20344   5.278   2.618   4.002
 6482SOL    HW120345   5.235   2.591   3.916
 6482SOL    HW220346   5.214   2.602   4.077
 6483SOL     OW20347   1.765   5.934   5.810
 6483SOL    HW120348   1.777   6.019   5.759
 6483SOL    HW220349   1.788   5.950   5.906
 6484SOL     OW20350   4.139   0.656   3.295
 6484SOL    HW120351   4.054   0.676   3.343
 6484SOL    HW220352   4.119   0.609   3.209
 6485SOL     OW20353   1.884   5.235   4.773
 6485SOL    HW120354   1.935   5.149   4.766
 6485SOL    HW220355   1.838   5.239   4.861
 6486SOL     OW20356   0.009   4.245   2.556
 6486SOL    HW120357   0.108   4.230   2.550
 6486SOL    HW220358   7.014   4.300   2.637
 6487SOL     OW20359   6.419   5.442   4.269
 6487SOL    HW120360   6.439   5.525   4.217
 6487SOL    HW220361   6.399   5.467   4.364
 6488SOL     OW20362   3.457   5.223   3.881
 6488SOL    HW120363   3.535   5.183   3.929
 6488SOL    HW220364   3.426   5.159   3.810
 6489SOL     OW20365   6.444   3.334   5.632
 6489SOL    HW120366   6.377   3.351   5.559
 6489SOL    HW220367   6.425   3.394   5.710
 6490SOL     OW20368   2.018   3.337   6.932
 6490SOL    HW120369   1.979   3.324   6.841
 6490SOL    HW220370   1.953   3.306   7.001
 6491SOL     OW20371   1.199   0.521   2.371
 6491SOL    HW120372   1.242   0.561   2.290
 6491SOL    HW220373   1.186   0.423   2.357
 6492SOL     OW20374   4.055   3.162   3.281
 6492SOL    HW120375   4.106   3.249   3.275
 6492SOL    HW220376   4.097   3.104   3.351
 6493SOL     OW20377   1.520   4.930   4.003
 6493SOL    HW120378   1.460   4.937   3.924
 6493SOL    HW220379   1.489   4.993   4.075
 6494SOL     OW20380   6.207   1.182   1.568
 6494SOL    HW120381   6.289   1.239   1.573
 6494SOL    HW220382   6.201   1.139   1.478
 6495SOL     OW20383   6.030   6.561   2.638
 6495SOL    HW120384   6.037   6.517   2.549
 6495SOL    HW220385   5.960   6.633   2.634
 6496SOL     OW20386   2.691   2.879   1.250
 6496SOL    HW120387   2.613   2.817   1.243
 6496SOL    HW220388   2.680   2.955   1.187
 6497SOL     OW20389   0.194   2.423   0.725
 6497SOL    HW120390   0.287   2.418   0.759
 6497SOL    HW220391   0.191   2.478   0.641
 6498SOL     OW20392   2.526   4.799   4.570
 6498SOL    HW120393   2.537   4.727   4.638
 6498SOL    HW220394   2.429   4.822   4.561
 6499SOL     OW20395   5.859   2.430   2.327
 6499SOL    HW120396   5.932   2.486   2.366
 6499SOL    HW220397   5.829   2.469   2.240
 6500SOL     OW20398   1.726   4.224   2.693
 6500SOL    HW120399   1.630   4.198   2.702
 6500SOL    HW220400   1.753   4.280   2.771
 6501SOL     OW20401   6.676   1.603   2.412
 6501SOL    HW120402   6.631   1.555   2.487
 6501SOL    HW220403   6.711   1.536   2.346
 6502SOL     OW20404   0.877   3.016   2.590
 6502SOL    HW120405   0.819   3.038   2.668
 6502SOL    HW220406   0.848   3.069   2.510
 6503SOL     OW20407   0.225   2.377   5.575
 6503SOL    HW120408   0.277   2.458   5.601
 6503SOL    HW220409   0.239   2.358   5.478
 6504SOL     OW20410   3.997   6.365   6.530
 6504SOL    HW120411   4.009   6.323   6.620
 6504SOL    HW220412   3.990   6.293   6.460
 6505SOL     OW20413   0.667   6.799   0.045
 6505SOL    HW120414   0.613   6.727   0.000
 6505SOL    HW220415   0.626   6.822   0.133
 6506SOL     OW20416   0.344   4.239   1.853
 6506SOL    HW120417   0.310   4.258   1.761
 6506SOL    HW220418   0.348   4.140   1.867
 6507SOL     OW20419   5.082   5.502   0.440
 6507SOL    HW120420   5.017   5.428   0.458
 6507SOL    HW220421   5.123   5.532   0.526
 6508SOL     OW20422   0.167   0.838   4.183
 6508SOL    HW120423   0.144   0.804   4.274
 6508SOL    HW220424   0.146   0.936   4.178
 6509SOL     OW20425   2.490   1.394   0.221
 6509SOL    HW120426   2.501   1.297   0.243
 6509SOL    HW220427   2.414   1.404   0.157
 6510SOL     OW20428   3.472   5.168   4.266
 6510SOL    HW120429   3.424   5.081   4.274
 6510SOL    HW220430   3.498   5.201   4.357
 6511SOL     OW20431   3.473   3.066   0.269
 6511SOL    HW120432   3.540   3.132   0.301
 6511SOL    HW220433   3.503   2.973   0.291
 6512SOL     OW20434   4.754   1.164   1.862
 6512SOL    HW120435   4.803   1.242   1.823
 6512SOL    HW220436   4.694   1.125   1.794
 6513SOL     OW20437   3.132   5.150   2.140
 6513SOL    HW120438   3.093   5.156   2.048
 6513SOL    HW220439   3.216   5.097   2.137
 6514SOL     OW20440   5.072   5.589   6.009
 6514SOL    HW120441   5.138   5.568   5.937
 6514SOL    HW220442   4.984   5.613   5.968
 6515SOL     OW20443   1.058   5.154   2.126
 6515SOL    HW120444   1.026   5.233   2.178
 6515SOL    HW220445   1.077   5.078   2.187
 6516SOL     OW20446   5.722   1.142   3.458
 6516SOL    HW120447   5.783   1.087   3.515
 6516SOL    HW220448   5.671   1.205   3.517
 6517SOL     OW20449   6.536   4.562   0.876
 6517SOL    HW120450   6.590   4.628   0.929
 6517SOL    HW220451   6.574   4.554   0.784
 6518SOL     OW20452   1.220   1.494   2.135
 6518SOL    HW120453   1.123   1.516   2.122
 6518SOL    HW220454   1.229   1.431   2.212
 6519SOL     OW20455   1.338   1.946   3.747
 6519SOL    HW120456   1.287   1.864   3.717
 6519SOL    HW220457   1.288   1.991   3.820
 6520SOL     OW20458   5.866   6.251   6.756
 6520SOL    HW120459   5.868   6.343   6.795
 6520SOL    HW220460   5.885   6.183   6.827
 6521SOL     OW20461   1.379   4.330   4.511
 6521SOL    HW120462   1.327   4.247   4.492
 6521SOL    HW220463   1.433   4.319   4.594
 6522SOL     OW20464   2.496   2.857   5.422
 6522SOL    HW120465   2.475   2.915   5.501
 6522SOL    HW220466   2.503   2.914   5.340
 6523SOL     OW20467   5.333   6.792   0.438
 6523SOL    HW120468   5.364   6.704   0.405
 6523SOL    HW220469   5.252   6.780   0.496
 6524SOL     OW20470   3.438   2.564   1.299
 6524SOL    HW120471   3.359   2.509   1.325
 6524SOL    HW220472   3.511   2.553   1.366
 6525SOL     OW20473   2.304   4.963   3.681
 6525SOL    HW120474   2.212   4.995   3.705
 6525SOL    HW220475   2.297   4.882   3.623
 6526SOL     OW20476   6.385   6.592   0.650
 6526SOL    HW120477   6.411   6.536   0.728
 6526SOL    HW220478   6.456   6.660   0.632
 6527SOL     OW20479   5.422   2.428   0.746
 6527SOL    HW120480   5.446   2.420   0.843
 6527SOL    HW220481   5.323   2.430   0.737
 6528SOL     OW20482   4.784   6.825   0.440
 6528SOL    HW120483   4.815   6.920   0.435
 6528SOL    HW220484   4.721   6.806   0.365
 6529SOL     OW20485   4.098   6.678   1.668
 6529SOL    HW120486   4.191   6.685   1.703
 6529SOL    HW220487   4.060   6.589   1.691
 6530SOL     OW20488   7.001   2.051   4.378
 6530SOL    HW120489   6.925   1.992   4.407
 6530SOL    HW220490   6.965   2.139   4.348
 6531SOL     OW20491   3.034   3.912   3.928
 6531SOL    HW120492   2.964   3.856   3.884
 6531SOL    HW220493   3.071   3.977   3.862
 6532SOL     OW20494   1.016   5.727   0.082
 6532SOL    HW120495   1.060   5.755   0.167
 6532SOL    HW220496   0.926   5.688   0.101
 6533SOL     OW20497   4.984   5.121   0.942
 6533SOL    HW120498   4.936   5.172   0.870
 6533SOL    HW220499   5.060   5.071   0.901
 6534SOL     OW20500   6.389   3.277   3.950
 6534SOL    HW120501   6.368   3.183   3.924
 6534SOL    HW220502   6.306   3.333   3.943
 6535SOL     OW20503   5.405   3.748   0.092
 6535SOL    HW120504   5.337   3.747   0.165
 6535SOL    HW220505   5.365   3.710   0.008
 6536SOL     OW20506   0.148   5.037   5.279
 6536SOL    HW120507   0.154   5.013   5.376
 6536SOL    HW220508   0.123   5.134   5.270
 6537SOL     OW20509   6.585   5.468   4.630
 6537SOL    HW120510   6.503   5.513   4.595
 6537SOL    HW220511   6.649   5.451   4.555
 6538SOL     OW20512   1.494   3.443   3.233
 6538SOL    HW120513   1.524   3.526   3.186
 6538SOL    HW220514   1.563   3.372   3.223
 6539SOL     OW20515   5.307   0.131   4.973
 6539SOL    HW120516   5.210   0.108   4.964
 6539SOL    HW220517   5.331   0.136   5.070
 6540SOL     OW20518   0.910   2.317   5.509
 6540SOL    HW120519   0.858   2.232   5.502
 6540SOL    HW220520   0.981   2.308   5.578
 6541SOL     OW20521   3.823   1.473   5.398
 6541SOL    HW120522   3.842   1.401   5.331
 6541SOL    HW220523   3.762   1.542   5.357
 6542SOL     OW20524   2.275   4.595   2.347
 6542SOL    HW120525   2.237   4.570   2.258
 6542SOL    HW220526   2.201   4.615   2.411
 6543SOL     OW20527   4.029   1.731   4.117
 6543SOL    HW120528   4.005   1.644   4.161
 6543SOL    HW220529   4.074   1.713   4.029
 6544SOL     OW20530   1.158   0.593   1.312
 6544SOL    HW120531   1.225   0.650   1.264
 6544SOL    HW220532   1.075   0.646   1.329
 6545SOL     OW20533   5.834   5.154   1.074
 6545SOL    HW120534   5.912   5.199   1.116
 6545SOL    HW220535   5.784   5.220   1.017
 6546SOL     OW20536   4.391   5.339   4.726
 6546SOL    HW120537   4.462   5.293   4.779
 6546SOL    HW220538   4.317   5.274   4.708
 6547SOL     OW20539   1.102   6.745   4.965
 6547SOL    HW120540   1.044   6.810   5.013
 6547SOL    HW220541   1.187   6.789   4.938
 6548SOL     OW20542   1.400   1.776   5.720
 6548SOL    HW120543   1.481   1.722   5.697
 6548SOL    HW220544   1.414   1.821   5.809
 6549SOL     OW20545   3.026   1.594   3.245
 6549SOL    HW120546   2.942   1.547   3.272
 6549SOL    HW220547   3.006   1.659   3.172
 6550SOL     OW20548   5.745   6.785   2.034
 6550SOL    HW120549   5.794   6.847   1.973
 6550SOL    HW220550   5.741   6.694   1.992
 6551SOL     OW20551   2.783   5.149   1.439
 6551SOL    HW120552   2.705   5.130   1.498
 6551SOL    HW220553   2.812   5.244   1.450
 6552SOL     OW20554   2.351   3.621   0.022
 6552SOL    HW120555   2.434   3.676   0.011
 6552SOL    HW220556   2.279   3.658   6.987
 6553SOL     OW20557   0.482   1.528   3.613
 6553SOL    HW120558   0.394   1.487   3.588
 6553SOL    HW220559   0.466   1.614   3.661
 6554SOL     OW20560   1.538   1.654   3.985
 6554SOL    HW120561   1.477   1.706   4.045
 6554SOL    HW220562   1.498   1.648   3.893
 6555SOL     OW20563   2.036   3.744   1.961
 6555SOL    HW120564   2.096   3.666   1.981
 6555SOL    HW220565   2.052   3.816   2.028
 6556SOL     OW20566   4.869   3.303   3.281
 6556SOL    HW120567   4.891   3.382   3.224
 6556SOL    HW220568   4.829   3.231   3.224
 6557SOL     OW20569   2.236   6.737   2.810
 6557SOL    HW120570   2.306   6.805   2.831
 6557SOL    HW220571   2.204   6.694   2.894
 6558SOL     OW20572   5.481   5.541   0.880
 6558SOL    HW120573   5.561   5.569   0.827
 6558SOL    HW220574   5.470   5.601   0.959
 6559SOL     OW20575   0.407   1.803   6.234
 6559SOL    HW120576   0.435   1.724   6.289
 6559SOL    HW220577   0.316   1.833   6.262
 6560SOL     OW20578   6.655   4.552   6.183
 6560SOL    HW120579   6.720   4.624   6.158
 6560SOL    HW220580   6.671   4.471   6.127
 6561SOL     OW20581   2.853   5.452   0.256
 6561SOL    HW120582   2.928   5.386   0.242
 6561SOL    HW220583   2.862   5.494   0.346
 6562SOL     OW20584   4.658   2.881   0.927
 6562SOL    HW120585   4.643   2.794   0.881
 6562SOL    HW220586   4.581   2.901   0.988
 6563SOL     OW20587   6.090   5.545   5.375
 6563SOL    HW120588   6.139   5.571   5.458
 6563SOL    HW220589   6.022   5.475   5.397
 6564SOL     OW20590   5.297   4.059   2.065
 6564SOL    HW120591   5.394   4.085   2.064
 6564SOL    HW220592   5.289   3.963   2.089
 6565SOL     OW20593   5.425   5.648   1.903
 6565SOL    HW120594   5.452   5.575   1.965
 6565SOL    HW220595   5.326   5.664   1.911
 6566SOL     OW20596   5.729   5.528   3.718
 6566SOL    HW120597   5.725   5.525   3.818
 6566SOL    HW220598   5.676   5.452   3.681
 6567SOL     OW20599   3.273   0.630   2.667
 6567SOL    HW120600   3.277   0.639   2.568
 6567SOL    HW220601   3.235   0.714   2.706
 6568SOL     OW20602   5.000   1.629   0.357
 6568SOL    HW120603   5.025   1.558   0.292
 6568SOL    HW220604   5.059   1.623   0.438
 6569SOL     OW20605   1.366   3.971   3.467
 6569SOL    HW120606   1.344   3.929   3.556
 6569SOL    HW220607   1.299   4.042   3.447
 6570SOL     OW20608   4.383   0.066   2.719
 6570SOL    HW120609   4.352   0.073   2.814
 6570SOL    HW220610   4.462   0.125   2.705
 6571SOL     OW20611   3.119   6.272   3.136
 6571SOL    HW120612   3.099   6.301   3.230
 6571SOL    HW220613   3.159   6.349   3.086
 6572SOL     OW20614   1.295   6.545   4.048
 6572SOL    HW120615   1.280   6.458   4.001
 6572SOL    HW220616   1.302   6.618   3.981
 6573SOL     OW20617   1.153   2.376   3.538
 6573SOL    HW120618   1.181   2.413   3.627
 6573SOL    HW220619   1.210   2.297   3.516
 6574SOL     OW20620   1.038   4.919   1.449
 6574SOL    HW120621   0.970   4.886   1.384
 6574SOL    HW220622   1.129   4.886   1.422
 6575SOL     OW20623   6.833   1.288   4.149
 6575SOL    HW120624   6.875   1.334   4.228
 6575SOL    HW220625   6.770   1.217   4.182
 6576SOL     OW20626   3.820   0.021   2.162
 6576SOL    HW120627   3.778   0.039   2.251
 6576SOL    HW220628   3.851   6.951   2.157
 6577SOL     OW20629   2.984   0.886   5.457
 6577SOL    HW120630   3.032   0.899   5.370
 6577SOL    HW220631   2.965   0.789   5.471
 6578SOL     OW20632   0.725   6.042   0.111
 6578SOL    HW120633   0.625   6.051   0.104
 6578SOL    HW220634   0.748   5.982   0.187
 6579SOL     OW20635   1.722   1.883   3.392
 6579SOL    HW120636   1.814   1.856   3.420
 6579SOL    HW220637   1.656   1.856   3.462
 6580SOL     OW20638   3.301   2.784   6.931
 6580SOL    HW120639   3.338   2.735   6.852
 6580SOL    HW220640   3.362   2.859   6.956
 6581SOL     OW20641   0.369   2.764   2.081
 6581SOL    HW120642   0.318   2.815   2.012
 6581SOL    HW220643   0.467   2.772   2.063
 6582SOL     OW20644   4.161   0.175   3.279
 6582SOL    HW120645   4.107   0.096   3.309
 6582SOL    HW220646   4.256   0.148   3.264
 6583SOL     OW20647   2.408   3.907   1.399
 6583SOL    HW120648   2.316   3.871   1.417
 6583SOL    HW220649   2.460   3.908   1.484
 6584SOL     OW20650   4.391   3.216   6.120
 6584SOL    HW120651   4.369   3.132   6.169
 6584SOL    HW220652   4.464   3.265   6.169
 6585SOL     OW20653   5.273   6.950   1.761
 6585SOL    HW120654   5.358   6.979   1.717
 6585SOL    HW220655   5.209   0.002   1.763
 6586SOL     OW20656   6.863   2.032   0.158
 6586SOL    HW120657   6.806   2.099   0.207
 6586SOL    HW220658   6.832   1.940   0.179
 6587SOL     OW20659   2.631   4.853   5.694
 6587SOL    HW120660   2.574   4.778   5.660
 6587SOL    HW220661   2.572   4.924   5.733
 6588SOL     OW20662   1.194   2.077   0.809
 6588SOL    HW120663   1.270   2.122   0.857
 6588SOL    HW220664   1.211   2.081   0.710
 6589SOL     OW20665   5.649   0.078   0.826
 6589SOL    HW120666   5.585   0.009   0.791
 6589SOL    HW220667   5.644   0.079   0.926
 6590SOL     OW20668   1.308   6.505   4.676
 6590SOL    HW120669   1.268   6.474   4.590
 6590SOL    HW220670   1.287   6.439   4.748
 6591SOL     OW20671   6.389   3.277   3.463
 6591SOL    HW120672   6.356   3.184   3.448
 6591SOL    HW220673   6.412   3.318   3.375
 6592SOL     OW20674   0.153   0.660   4.536
 6592SOL    HW120675   0.137   0.753   4.502
 6592SOL    HW220676   0.225   0.663   4.606
 6593SOL     OW20677   0.678   0.828   3.219
 6593SOL    HW120678   0.637   0.808   3.308
 6593SOL    HW220679   0.706   0.742   3.175
 6594SOL     OW20680   5.346   0.271   6.539
 6594SOL    HW120681   5.268   0.301   6.485
 6594SOL    HW220682   5.321   0.265   6.635
 6595SOL     OW20683   1.372   1.033   5.145
 6595SOL    HW120684   1.345   1.082   5.062
 6595SOL    HW220685   1.387   0.937   5.124
 6596SOL     OW20686   5.592   0.555   2.886
 6596SOL    HW120687   5.513   0.604   2.848
 6596SOL    HW220688   5.560   0.473   2.933
 6597SOL     OW20689   1.230   5.145   1.280
 6597SOL    HW120690   1.183   5.149   1.191
 6597SOL    HW220691   1.165   5.117   1.350
 6598SOL     OW20692   1.524   5.431   1.556
 6598SOL    HW120693   1.575   5.364   1.610
 6598SOL    HW220694   1.529   5.406   1.459
 6599SOL     OW20695   0.679   6.335   6.373
 6599SOL    HW120696   0.757   6.280   6.405
 6599SOL    HW220697   0.710   6.395   6.299
 6600SOL     OW20698   4.865   6.935   4.259
 6600SOL    HW120699   4.859   6.843   4.219
 6600SOL    HW220700   4.898   6.999   4.191
 6601SOL     OW20701   1.012   2.689   2.837
 6601SOL    HW120702   1.069   2.675   2.918
 6601SOL    HW220703   1.059   2.652   2.756
 6602SOL     OW20704   5.975   6.189   0.325
 6602SOL    HW120705   5.915   6.240   0.386
 6602SOL    HW220706   6.006   6.106   0.370
 6603SOL     OW20707   0.201   4.775   2.541
 6603SOL    HW120708   0.248   4.706   2.486
 6603SOL    HW220709   0.163   4.845   2.481
 6604SOL     OW20710   1.570   5.303   2.556
 6604SOL    HW120711   1.499   5.362   2.595
 6604SOL    HW220712   1.659   5.331   2.592
 6605SOL     OW20713   6.925   5.441   1.017
 6605SOL    HW120714   6.904   5.482   0.928
 6605SOL    HW220715   6.883   5.351   1.023
 6606SOL     OW20716   1.281   4.883   2.757
 6606SOL    HW120717   1.359   4.923   2.803
 6606SOL    HW220718   1.265   4.790   2.792
 6607SOL     OW20719   6.719   3.328   4.270
 6607SOL    HW120720   6.623   3.317   4.243
 6607SOL    HW220721   6.723   3.377   4.356
 6608SOL     OW20722   1.804   1.073   5.384
 6608SOL    HW120723   1.861   1.008   5.434
 6608SOL    HW220724   1.797   1.158   5.436
 6609SOL     OW20725   2.621   2.075   6.894
 6609SOL    HW120726   2.648   2.165   6.860
 6609SOL    HW220727   2.702   2.022   6.918
 6610SOL     OW20728   3.222   5.946   0.895
 6610SOL    HW120729   3.236   6.028   0.950
 6610SOL    HW220730   3.290   5.877   0.920
 6611SOL     OW20731   3.287   1.533   4.825
 6611SOL    HW120732   3.263   1.513   4.919
 6611SOL    HW220733   3.367   1.593   4.823
 6612SOL     OW20734   6.716   0.696   0.264
 6612SOL    HW120735   6.715   0.646   0.350
 6612SOL    HW220736   6.664   0.781   0.274
 6613SOL     OW20737   4.399   0.098   1.067
 6613SOL    HW120738   4.465   0.146   1.124
 6613SOL    HW220739   4.392   0.003   1.097
 6614SOL     OW20740   4.137   4.732   0.396
 6614SOL    HW120741   4.235   4.712   0.403
 6614SOL    HW220742   4.085   4.653   0.430
 6615SOL     OW20743   3.807   5.686   6.053
 6615SOL    HW120744   3.744   5.608   6.052
 6615SOL    HW220745   3.775   5.755   5.988
 6616SOL     OW20746   4.248   2.088   5.981
 6616SOL    HW120747   4.266   2.040   6.067
 6616SOL    HW220748   4.235   2.185   6.000
 6617SOL     OW20749   3.315   1.862   4.201
 6617SOL    HW120750   3.301   1.831   4.107
 6617SOL    HW220751   3.404   1.907   4.207
 6618SOL     OW20752   6.536   3.013   3.198
 6618SOL    HW120753   6.463   3.025   3.266
 6618SOL    HW220754   6.556   2.915   3.189
 6619SOL     OW20755   4.518   5.211   4.149
 6619SOL    HW120756   4.442   5.159   4.189
 6619SOL    HW220757   4.604   5.181   4.191
 6620SOL     OW20758   1.021   2.549   3.395
 6620SOL    HW120759   1.064   2.471   3.441
 6620SOL    HW220760   1.013   2.624   3.460
 6621SOL     OW20761   3.368   3.656   3.686
 6621SOL    HW120762   3.299   3.699   3.628
 6621SOL    HW220763   3.459   3.679   3.652
 6622SOL     OW20764   0.236   4.600   2.042
 6622SOL    HW120765   0.192   4.675   1.994
 6622SOL    HW220766   0.167   4.543   2.085
 6623SOL     OW20767   3.788   3.297   3.830
 6623SOL    HW120768   3.755   3.257   3.916
 6623SOL    HW220769   3.879   3.261   3.809
 6624SOL     OW20770   2.303   2.214   2.503
 6624SOL    HW120771   2.212   2.251   2.483
 6624SOL    HW220772   2.366   2.242   2.431
 6625SOL     OW20773   0.488   4.556   5.345
 6625SOL    HW120774   0.409   4.565   5.405
 6625SOL    HW220775   0.572   4.562   5.398
 6626SOL     OW20776   3.590   6.119   5.522
 6626SOL    HW120777   3.655   6.126   5.447
 6626SOL    HW220778   3.513   6.181   5.505
 6627SOL     OW20779   2.714   6.680   4.622
 6627SOL    HW120780   2.668   6.592   4.606
 6627SOL    HW220781   2.646   6.753   4.625
 6628SOL     OW20782   3.980   6.521   3.364
 6628SOL    HW120783   3.978   6.620   3.351
 6628SOL    HW220784   4.075   6.490   3.373
 6629SOL     OW20785   4.781   5.949   5.269
 6629SOL    HW120786   4.843   5.989   5.201
 6629SOL    HW220787   4.808   5.979   5.361
 6630SOL     OW20788   1.962   6.967   0.597
 6630SOL    HW120789   1.975   7.019   0.512
 6630SOL    HW220790   1.919   0.002   0.666
 6631SOL     OW20791   1.674   1.675   6.220
 6631SOL    HW120792   1.587   1.722   6.231
 6631SOL    HW220793   1.671   1.587   6.267
 6632SOL     OW20794   1.247   0.358   6.229
 6632SOL    HW120795   1.226   0.339   6.133
 6632SOL    HW220796   1.187   0.430   6.263
 6633SOL     OW20797   4.624   6.529   5.959
 6633SOL    HW120798   4.598   6.433   5.959
 6633SOL    HW220799   4.562   6.581   6.017
 6634SOL     OW20800   2.900   2.183   4.063
 6634SOL    HW120801   2.968   2.130   4.113
 6634SOL    HW220802   2.818   2.195   4.119
 6635SOL     OW20803   4.780   5.373   5.974
 6635SOL    HW120804   4.850   5.303   5.960
 6635SOL    HW220805   4.691   5.329   5.988
 6636SOL     OW20806   4.252   1.806   1.069
 6636SOL    HW120807   4.155   1.780   1.072
 6636SOL    HW220808   4.268   1.868   0.993
 6637SOL     OW20809   0.574   3.103   6.550
 6637SOL    HW120810   0.566   3.054   6.637
 6637SOL    HW220811   0.559   3.201   6.566
 6638SOL     OW20812   3.087   3.792   4.174
 6638SOL    HW120813   3.049   3.864   4.115
 6638SOL    HW220814   3.098   3.708   4.121
 6639SOL     OW20815   5.122   3.141   1.681
 6639SOL    HW120816   5.148   3.230   1.643
 6639SOL    HW220817   5.076   3.088   1.610
 6640SOL     OW20818   0.984   3.393   4.499
 6640SOL    HW120819   0.961   3.382   4.403
 6640SOL    HW220820   0.902   3.417   4.551
 6641SOL     OW20821   5.375   2.410   0.037
 6641SOL    HW120822   5.390   2.336   6.995
 6641SOL    HW220823   5.348   2.371   0.125
 6642SOL     OW20824   1.153   5.148   6.139
 6642SOL    HW120825   1.150   5.234   6.088
 6642SOL    HW220826   1.108   5.076   6.085
 6643SOL     OW20827   4.826   5.637   5.869
 6643SOL    HW120828   4.789   5.551   5.905
 6643SOL    HW220829   4.773   5.714   5.905
 6644SOL     OW20830   1.756   0.113   3.271
 6644SOL    HW120831   1.786   0.091   3.178
 6644SOL    HW220832   1.835   0.143   3.325
 6645SOL     OW20833   4.937   2.736   5.211
 6645SOL    HW120834   4.945   2.639   5.234
 6645SOL    HW220835   4.959   2.749   5.114
 6646SOL     OW20836   4.772   6.928   5.689
 6646SOL    HW120837   4.822   6.858   5.741
 6646SOL    HW220838   4.823   7.014   5.693
 6647SOL     OW20839   3.617   4.736   0.718
 6647SOL    HW120840   3.519   4.753   0.716
 6647SOL    HW220841   3.661   4.783   0.641
 6648SOL     OW20842   3.206   5.514   5.234
 6648SOL    HW120843   3.112   5.495   5.262
 6648SOL    HW220844   3.268   5.452   5.282
 6649SOL     OW20845   5.596   3.002   5.584
 6649SOL    HW120846   5.696   3.005   5.588
 6649SOL    HW220847   5.562   3.089   5.547
 6650SOL     OW20848   3.028   0.939   4.888
 6650SOL    HW120849   3.029   0.988   4.802
 6650SOL    HW220850   3.086   0.857   4.881
 6651SOL     OW20851   6.726   1.176   3.585
 6651SOL    HW120852   6.747   1.252   3.523
 6651SOL    HW220853   6.806   1.117   3.593
 6652SOL     OW20854   0.059   5.357   6.969
 6652SOL    HW120855   0.038   5.292   0.017
 6652SOL    HW220856   6.998   5.395   6.933
 6653SOL     OW20857   5.644   3.849   6.743
 6653SOL    HW120858   5.628   3.766   6.688
 6653SOL    HW220859   5.634   3.929   6.685
 6654SOL     OW20860   6.874   1.723   3.562
 6654SOL    HW120861   6.861   1.785   3.485
 6654SOL    HW220862   6.814   1.751   3.637
 6655SOL     OW20863   0.134   5.463   1.431
 6655SOL    HW120864   0.095   5.371   1.440
 6655SOL    HW220865   0.092   5.509   1.352
 6656SOL     OW20866   5.291   0.696   2.265
 6656SOL    HW120867   5.228   0.770   2.245
 6656SOL    HW220868   5.346   0.719   2.346
 6657SOL     OW20869   4.686   2.082   4.319
 6657SOL    HW120870   4.660   2.174   4.290
 6657SOL    HW220871   4.677   2.075   4.418
 6658SOL     OW20872   6.644   5.798   4.889
 6658SOL    HW120873   6.719   5.780   4.826
 6658SOL    HW220874   6.618   5.894   4.885
 6659SOL     OW20875   0.640   6.712   0.574
 6659SOL    HW120876   0.597   6.753   0.654
 6659SOL    HW220877   0.739   6.724   0.579
 6660SOL     OW20878   1.036   0.465   4.004
 6660SOL    HW120879   1.077   0.401   4.068
 6660SOL    HW220880   0.936   0.463   4.014
 6661SOL     OW20881   3.621   6.204   3.660
 6661SOL    HW120882   3.712   6.238   3.636
 6661SOL    HW220883   3.612   6.110   3.626
 6662SOL     OW20884   3.484   0.073   1.946
 6662SOL    HW120885   3.554   0.134   1.983
 6662SOL    HW220886   3.404   0.127   1.917
 6663SOL     OW20887   1.589   3.867   5.099
 6663SOL    HW120888   1.568   3.935   5.029
 6663SOL    HW220889   1.643   3.909   5.172
 6664SOL     OW20890   2.869   0.093   1.781
 6664SOL    HW120891   2.926   0.115   1.702
 6664SOL    HW220892   2.808   0.169   1.801
 6665SOL     OW20893   2.442   0.183   6.844
 6665SOL    HW120894   2.480   0.220   6.760
 6665SOL    HW220895   2.515   0.144   6.900
 6666SOL     OW20896   3.135   6.177   6.176
 6666SOL    HW120897   3.160   6.112   6.248
 6666SOL    HW220898   3.161   6.269   6.204
 6667SOL     OW20899   2.022   5.704   0.157
 6667SOL    HW120900   2.116   5.670   0.163
 6667SOL    HW220901   1.966   5.658   0.226
 6668SOL     OW20902   0.550   3.558   6.104
 6668SOL    HW120903   0.538   3.517   6.014
 6668SOL    HW220904   0.525   3.491   6.174
 6669SOL     OW20905   0.896   3.394   3.866
 6669SOL    HW120906   0.930   3.324   3.929
 6669SOL    HW220907   0.878   3.353   3.776
 6670SOL     OW20908   2.215   4.012   0.880
 6670SOL    HW120909   2.283   3.945   0.911
 6670SOL    HW220910   2.260   4.083   0.825
 6671SOL     OW20911   4.395   4.984   0.326
 6671SOL    HW120912   4.363   4.956   0.416
 6671SOL    HW220913   4.317   4.988   0.263
 6672SOL     OW20914   2.018   2.492   0.951
 6672SOL    HW120915   2.115   2.516   0.942
 6672SOL    HW220916   2.010   2.409   1.007
 6673SOL     OW20917   5.777   3.642   4.570
 6673SOL    HW120918   5.838   3.571   4.606
 6673SOL    HW220919   5.703   3.657   4.635
 6674SOL     OW20920   6.679   1.213   0.166
 6674SOL    HW120921   6.641   1.133   0.213
 6674SOL    HW220922   6.774   1.194   0.141
 6675SOL     OW20923   4.943   1.673   0.044
 6675SOL    HW120924   4.941   1.603   6.996
 6675SOL    HW220925   5.037   1.687   0.074
 6676SOL     OW20926   1.117   3.602   5.465
 6676SOL    HW120927   1.211   3.631   5.480
 6676SOL    HW220928   1.062   3.680   5.437
 6677SOL     OW20929   0.419   2.418   6.868
 6677SOL    HW120930   0.341   2.420   6.806
 6677SOL    HW220931   0.420   2.331   6.917
 6678SOL     OW20932   2.924   3.804   6.422
 6678SOL    HW120933   2.845   3.745   6.403
 6678SOL    HW220934   2.914   3.889   6.371
 6679SOL     OW20935   1.520   0.360   4.253
 6679SOL    HW120936   1.581   0.356   4.175
 6679SOL    HW220937   1.484   0.453   4.263
 6680SOL     OW20938   6.374   5.527   2.308
 6680SOL    HW120939   6.386   5.624   2.327
 6680SOL    HW220940   6.277   5.503   2.315
 6681SOL     OW20941   3.308   5.546   0.855
 6681SOL    HW120942   3.221   5.567   0.809
 6681SOL    HW220943   3.289   5.510   0.946
 6682SOL     OW20944   2.555   4.932   6.366
 6682SOL    HW120945   2.598   5.022   6.376
 6682SOL    HW220946   2.570   4.879   6.449
 6683SOL     OW20947   6.964   6.194   6.340
 6683SOL    HW120948   6.930   6.272   6.288
 6683SOL    HW220949   6.888   6.152   6.391
 6684SOL     OW20950   3.004   6.787   6.039
 6684SOL    HW120951   3.013   6.780   5.940
 6684SOL    HW220952   2.962   6.874   6.063
 6685SOL     OW20953   3.565   2.621   0.883
 6685SOL    HW120954   3.552   2.535   0.931
 6685SOL    HW220955   3.488   2.638   0.822
 6686SOL     OW20956   4.493   4.213   5.318
 6686SOL    HW120957   4.397   4.240   5.331
 6686SOL    HW220958   4.497   4.114   5.299
 6687SOL     OW20959   0.008   2.575   0.847
 6687SOL    HW120960   6.990   2.526   0.923
 6687SOL    HW220961   0.081   2.519   0.808
 6688SOL     OW20962   5.720   5.283   0.846
 6688SOL    HW120963   5.630   5.293   0.888
 6688SOL    HW220964   5.712   5.298   0.747
 6689SOL     OW20965   3.688   4.886   5.874
 6689SOL    HW120966   3.600   4.906   5.917
 6689SOL    HW220967   3.748   4.843   5.941
 6690SOL     OW20968   1.099   0.430   0.142
 6690SOL    HW120969   1.119   0.338   0.108
 6690SOL    HW220970   1.140   0.441   0.233
 6691SOL     OW20971   2.295   1.710   1.847
 6691SOL    HW120972   2.310   1.737   1.752
 6691SOL    HW220973   2.197   1.693   1.862
 6692SOL     OW20974   4.057   6.576   2.214
 6692SOL    HW120975   4.114   6.545   2.291
 6692SOL    HW220976   3.988   6.507   2.194
 6693SOL     OW20977   2.751   1.066   6.089
 6693SOL    HW120978   2.730   1.051   5.993
 6693SOL    HW220979   2.795   1.155   6.101
 6694SOL     OW20980   4.321   4.206   1.601
 6694SOL    HW120981   4.355   4.225   1.694
 6694SOL    HW220982   4.249   4.137   1.606
 6695SOL     OW20983   2.962   2.444   0.038
 6695SOL    HW120984   2.895   2.516   0.021
 6695SOL    HW220985   2.920   2.371   0.092
 6696SOL     OW20986   3.616   2.702   5.326
 6696SOL    HW120987   3.706   2.715   5.368
 6696SOL    HW220988   3.586   2.608   5.341
 6697SOL     OW20989   5.224   1.712   2.882
 6697SOL    HW120990   5.292   1.784   2.898
 6697SOL    HW220991   5.257   1.653   2.808
 6698SOL     OW20992   2.835   3.831   1.689
 6698SOL    HW120993   2.808   3.755   1.748
 6698SOL    HW220994   2.916   3.875   1.727
 6699SOL     OW20995   2.080   3.343   6.423
 6699SOL    HW120996   2.036   3.307   6.506
 6699SOL    HW220997   2.174   3.369   6.445
 6700SOL     OW20998   4.770   0.678   1.442
 6700SOL    HW120999   4.745   0.771   1.470
 6700SOL    HW221000   4.804   0.679   1.348
 6701SOL     OW21001   5.737   6.888   1.696
 6701SOL    HW121002   5.710   6.795   1.671
 6701SOL    HW221003   5.825   6.910   1.656
 6702SOL     OW21004   4.745   2.564   1.092
 6702SOL    HW121005   4.648   2.550   1.071
 6702SOL    HW221006   4.756   2.577   1.191
 6703SOL     OW21007   0.281   1.482   0.504
 6703SOL    HW121008   0.354   1.417   0.522
 6703SOL    HW221009   0.238   1.460   0.416
 6704SOL     OW21010   2.795   6.580   5.867
 6704SOL    HW121011   2.738   6.573   5.785
 6704SOL    HW221012   2.764   6.656   5.923
 6705SOL     OW21013   0.572   4.230   2.426
 6705SOL    HW121014   0.648   4.176   2.390
 6705SOL    HW221015   0.547   4.300   2.360
 6706SOL     OW21016   0.386   5.941   0.868
 6706SOL    HW121017   0.360   6.036   0.883
 6706SOL    HW221018   0.314   5.881   0.903
 6707SOL     OW21019   4.784   1.104   2.800
 6707SOL    HW121020   4.829   1.020   2.767
 6707SOL    HW221021   4.816   1.125   2.892
 6708SOL     OW21022   0.699   3.220   0.774
 6708SOL    HW121023   0.620   3.213   0.834
 6708SOL    HW221024   0.782   3.197   0.825
 6709SOL     OW21025   1.739   4.236   2.215
 6709SOL    HW121026   1.671   4.234   2.142
 6709SOL    HW221027   1.784   4.147   2.220
 6710SOL     OW21028   4.454   1.826   1.568
 6710SOL    HW121029   4.406   1.791   1.487
 6710SOL    HW221030   4.391   1.879   1.624
 6711SOL     OW21031   4.483   5.590   6.171
 6711SOL    HW121032   4.492   5.631   6.080
 6711SOL    HW221033   4.498   5.661   6.241
 6712SOL     OW21034   5.382   3.837   1.105
 6712SOL    HW121035   5.462   3.808   1.157
 6712SOL    HW221036   5.407   3.913   1.045
 6713SOL     OW21037   2.045   4.711   3.822
 6713SOL    HW121038   2.039   4.619   3.783
 6713SOL    HW221039   1.956   4.756   3.815
 6714SOL     OW21040   6.100   1.223   2.238
 6714SOL    HW121041   6.138   1.222   2.145
 6714SOL    HW221042   6.168   1.257   2.302
 6715SOL     OW21043   1.378   0.193   5.789
 6715SOL    HW121044   1.447   0.254   5.750
 6715SOL    HW221045   1.371   0.110   5.734
 6716SOL     OW21046   1.034   4.565   1.835
 6716SOL    HW121047   0.993   4.629   1.900
 6716SOL    HW221048   1.119   4.528   1.874
 6717SOL     OW21049   6.165   2.538   5.455
 6717SOL    HW121050   6.220   2.581   5.383
 6717SOL    HW221051   6.186   2.441   5.458
 6718SOL     OW21052   4.552   2.488   0.561
 6718SOL    HW121053   4.648   2.460   0.569
 6718SOL    HW221054   4.530   2.502   0.464
 6719SOL     OW21055   1.429   1.041   0.290
 6719SOL    HW121056   1.420   0.943   0.306
 6719SOL    HW221057   1.494   1.058   0.217
 6720SOL     OW21058   1.686   1.766   4.848
 6720SOL    HW121059   1.592   1.796   4.865
 6720SOL    HW221060   1.684   1.679   4.800
 6721SOL     OW21061   6.363   6.827   0.361
 6721SOL    HW121062   6.285   6.887   0.345
 6721SOL    HW221063   6.331   6.734   0.376
 6722SOL     OW21064   6.245   4.207   1.566
 6722SOL    HW121065   6.263   4.173   1.658
 6722SOL    HW221066   6.147   4.203   1.547
 6723SOL     OW21067   1.770   3.149   4.667
 6723SOL    HW121068   1.821   3.234   4.653
 6723SOL    HW221069   1.835   3.074   4.680
 6724SOL     OW21070   1.945   3.231   5.256
 6724SOL    HW121071   2.041   3.209   5.276
 6724SOL    HW221072   1.934   3.330   5.249
 6725SOL     OW21073   4.629   2.668   3.376
 6725SOL    HW121074   4.696   2.628   3.439
 6725SOL    HW221075   4.591   2.751   3.418
 6726SOL     OW21076   6.787   1.617   0.501
 6726SOL    HW121077   6.727   1.557   0.448
 6726SOL    HW221078   6.863   1.564   0.538
 6727SOL     OW21079   0.670   5.473   5.550
 6727SOL    HW121080   0.580   5.501   5.585
 6727SOL    HW221081   0.709   5.548   5.497
 6728SOL     OW21082   3.642   1.582   5.230
 6728SOL    HW121083   3.634   1.673   5.188
 6728SOL    HW221084   3.643   1.512   5.158
 6729SOL     OW21085   4.596   0.853   2.594
 6729SOL    HW121086   4.553   0.943   2.593
 6729SOL    HW221087   4.693   0.861   2.618
 6730SOL     OW21088   0.496   1.830   1.595
 6730SOL    HW121089   0.458   1.738   1.591
 6730SOL    HW221090   0.520   1.860   1.502
 6731SOL     OW21091   3.897   0.543   6.367
 6731SOL    HW121092   3.922   0.543   6.464
 6731SOL    HW221093   3.963   0.596   6.315
 6732SOL     OW21094   5.923   5.526   5.647
 6732SOL    HW121095   5.928   5.429   5.621
 6732SOL    HW221096   5.832   5.546   5.683
 6733SOL     OW21097   5.094   4.734   5.172
 6733SOL    HW121098   5.076   4.826   5.137
 6733SOL    HW221099   5.189   4.729   5.203
 6734SOL     OW21100   5.440   2.346   5.627
 6734SOL    HW121101   5.391   2.432   5.615
 6734SOL    HW221102   5.450   2.299   5.539
 6735SOL     OW21103   5.696   3.012   4.423
 6735SOL    HW121104   5.706   3.097   4.371
 6735SOL    HW221105   5.610   2.969   4.399
 6736SOL     OW21106   3.860   3.687   0.880
 6736SOL    HW121107   3.816   3.624   0.816
 6736SOL    HW221108   3.950   3.651   0.906
 6737SOL     OW21109   6.195   3.701   1.061
 6737SOL    HW121110   6.142   3.711   1.145
 6737SOL    HW221111   6.272   3.639   1.076
 6738SOL     OW21112   2.015   6.628   4.178
 6738SOL    HW121113   2.074   6.707   4.163
 6738SOL    HW221114   2.055   6.547   4.135
 6739SOL     OW21115   0.489   0.428   5.575
 6739SOL    HW121116   0.441   0.516   5.581
 6739SOL    HW221117   0.550   0.418   5.653
 6740SOL     OW21118   0.919   6.635   1.968
 6740SOL    HW121119   0.892   6.722   1.928
 6740SOL    HW221120   0.955   6.649   2.060
 6741SOL     OW21121   3.051   2.195   0.430
 6741SOL    HW121122   2.962   2.238   0.447
 6741SOL    HW221123   3.053   2.104   0.469
 6742SOL     OW21124   6.422   4.801   2.513
 6742SOL    HW121125   6.423   4.785   2.612
 6742SOL    HW221126   6.513   4.786   2.476
 6743SOL     OW21127   4.005   3.923   6.556
 6743SOL    HW121128   3.949   4.004   6.538
 6743SOL    HW221129   3.949   3.840   6.546
 6744SOL     OW21130   6.561   6.382   6.045
 6744SOL    HW121131   6.653   6.402   6.011
 6744SOL    HW221132   6.556   6.285   6.070
 6745SOL     OW21133   5.467   3.579   5.638
 6745SOL    HW121134   5.536   3.601   5.707
 6745SOL    HW221135   5.511   3.532   5.561
 6746SOL     OW21136   1.238   2.018   3.140
 6746SOL    HW121137   1.143   2.046   3.151
 6746SOL    HW221138   1.259   2.007   3.043
 6747SOL     OW21139   1.198   6.017   5.432
 6747SOL    HW121140   1.220   6.090   5.368
 6747SOL    HW221141   1.190   6.054   5.524
 6748SOL     OW21142   1.320   2.045   4.344
 6748SOL    HW121143   1.321   2.124   4.282
 6748SOL    HW221144   1.258   1.975   4.309
 6749SOL     OW21145   4.059   4.892   2.081
 6749SOL    HW121146   3.962   4.894   2.107
 6749SOL    HW221147   4.073   4.822   2.010
 6750SOL     OW21148   4.051   0.437   5.956
 6750SOL    HW121149   4.015   0.359   6.007
 6750SOL    HW221150   4.057   0.517   6.017
 6751SOL     OW21151   4.108   0.853   4.545
 6751SOL    HW121152   4.095   0.921   4.472
 6751SOL    HW221153   4.143   0.899   4.627
 6752SOL     OW21154   1.972   4.542   3.231
 6752SOL    HW121155   1.920   4.554   3.147
 6752SOL    HW221156   2.056   4.597   3.226
 6753SOL     OW21157   3.384   4.300   0.350
 6753SOL    HW121158   3.455   4.249   0.301
 6753SOL    HW221159   3.297   4.292   0.302
 6754SOL     OW21160   6.123   0.881   0.352
 6754SOL    HW121161   6.068   0.799   0.369
 6754SOL    HW221162   6.219   0.855   0.343
 6755SOL     OW21163   4.098   5.725   5.517
 6755SOL    HW121164   4.057   5.639   5.547
 6755SOL    HW221165   4.171   5.705   5.451
 6756SOL     OW21166   4.156   3.255   6.415
 6756SOL    HW121167   4.228   3.234   6.481
 6756SOL    HW221168   4.095   3.176   6.407
 6757SOL     OW21169   4.420   6.829   2.177
 6757SOL    HW121170   4.359   6.852   2.253
 6757SOL    HW221171   4.479   6.752   2.203
 6758SOL     OW21172   4.856   3.027   3.137
 6758SOL    HW121173   4.804   2.953   3.094
 6758SOL    HW221174   4.917   3.068   3.070
 6759SOL     OW21175   1.507   2.700   2.170
 6759SOL    HW121176   1.522   2.668   2.076
 6759SOL    HW221177   1.512   2.623   2.233
 6760SOL     OW21178   5.579   1.693   5.693
 6760SOL    HW121179   5.563   1.744   5.778
 6760SOL    HW221180   5.616   1.603   5.716
 6761SOL     OW21181   2.823   0.541   4.807
 6761SOL    HW121182   2.909   0.489   4.804
 6761SOL    HW221183   2.748   0.480   4.831
 6762SOL     OW21184   5.474   5.082   4.315
 6762SOL    HW121185   5.472   4.989   4.352
 6762SOL    HW221186   5.381   5.120   4.318
 6763SOL     OW21187   5.664   6.289   3.910
 6763SOL    HW121188   5.682   6.387   3.916
 6763SOL    HW221189   5.567   6.274   3.891
 6764SOL     OW21190   0.996   4.802   1.712
 6764SOL    HW121191   0.979   4.836   1.619
 6764SOL    HW221192   1.069   4.735   1.710
 6765SOL     OW21193   6.886   3.998   3.082
 6765SOL    HW121194   6.817   4.061   3.117
 6765SOL    HW221195   6.961   4.050   3.042
 6766SOL     OW21196   6.009   6.989   1.659
 6766SOL    HW121197   6.106   7.002   1.675
 6766SOL    HW221198   5.994   6.972   1.561
 6767SOL     OW21199   3.212   0.334   1.335
 6767SOL    HW121200   3.246   0.306   1.425
 6767SOL    HW221201   3.196   0.432   1.334
 6768SOL     OW21202   1.998   7.015   6.697
 6768SOL    HW121203   1.922   0.042   6.657
 6768SOL    HW221204   1.978   6.995   6.793
 6769SOL     OW21205   5.206   3.221   1.221
 6769SOL    HW121206   5.187   3.149   1.155
 6769SOL    HW221207   5.128   3.283   1.226
 6770SOL     OW21208   0.338   1.334   1.933
 6770SOL    HW121209   0.347   1.294   2.024
 6770SOL    HW221210   0.316   1.261   1.867
 6771SOL     OW21211   4.913   1.163   3.700
 6771SOL    HW121212   5.004   1.185   3.665
 6771SOL    HW221213   4.916   1.077   3.750
 6772SOL     OW21214   3.465   1.271   4.766
 6772SOL    HW121215   3.479   1.246   4.670
 6772SOL    HW221216   3.417   1.359   4.770
 6773SOL     OW21217   0.420   3.687   1.589
 6773SOL    HW121218   0.510   3.712   1.624
 6773SOL    HW221219   0.351   3.703   1.660
 6774SOL     OW21220   1.451   2.068   6.305
 6774SOL    HW121221   1.443   1.977   6.263
 6774SOL    HW221222   1.403   2.135   6.248
 6775SOL     OW21223   0.478   3.478   0.325
 6775SOL    HW121224   0.470   3.436   0.415
 6775SOL    HW221225   0.411   3.552   0.317
 6776SOL     OW21226   6.098   6.206   6.608
 6776SOL    HW121227   6.011   6.232   6.650
 6776SOL    HW221228   6.171   6.264   6.646
 6777SOL     OW21229   4.377   4.877   6.836
 6777SOL    HW121230   4.461   4.930   6.845
 6777SOL    HW221231   4.390   4.785   6.874
 6778SOL     OW21232   6.141   5.790   3.296
 6778SOL    HW121233   6.161   5.747   3.208
 6778SOL    HW221234   6.065   5.742   3.340
 6779SOL     OW21235   6.018   3.727   6.574
 6779SOL    HW121236   6.075   3.645   6.569
 6779SOL    HW221237   6.013   3.758   6.669
 6780SOL     OW21238   0.895   3.121   1.478
 6780SOL    HW121239   0.858   3.179   1.406
 6780SOL    HW221240   0.989   3.149   1.499
 6781SOL     OW21241   5.156   4.955   5.848
 6781SOL    HW121242   5.139   4.919   5.756
 6781SOL    HW221243   5.195   5.047   5.841
 6782SOL     OW21244   6.049   1.430   3.273
 6782SOL    HW121245   6.108   1.374   3.332
 6782SOL    HW221246   6.091   1.519   3.259
 6783SOL     OW21247   1.349   5.774   6.486
 6783SOL    HW121248   1.307   5.788   6.396
 6783SOL    HW221249   1.422   5.706   6.478
 6784SOL     OW21250   3.923   3.593   0.257
 6784SOL    HW121251   3.862   3.515   0.272
 6784SOL    HW221252   3.987   3.571   0.183
 6785SOL     OW21253   5.765   5.425   1.983
 6785SOL    HW121254   5.669   5.428   2.012
 6785SOL    HW221255   5.786   5.335   1.945
 6786SOL     OW21256   1.614   3.441   5.304
 6786SOL    HW121257   1.677   3.407   5.233
 6786SOL    HW221258   1.521   3.413   5.282
 6787SOL     OW21259   1.074   3.972   1.384
 6787SOL    HW121260   1.151   4.010   1.332
 6787SOL    HW221261   1.079   4.003   1.479
 6788SOL     OW21262   2.687   3.835   1.245
 6788SOL    HW121263   2.718   3.769   1.314
 6788SOL    HW221264   2.755   3.841   1.172
 6789SOL     OW21265   1.494   4.533   3.140
 6789SOL    HW121266   1.404   4.543   3.181
 6789SOL    HW221267   1.563   4.571   3.202
 6790SOL     OW21268   1.486   2.927   0.837
 6790SOL    HW121269   1.529   2.855   0.891
 6790SOL    HW221270   1.545   2.950   0.760
 6791SOL     OW21271   3.756   3.912   5.932
 6791SOL    HW121272   3.724   3.837   5.990
 6791SOL    HW221273   3.802   3.875   5.852
 6792SOL     OW21274   0.381   5.128   0.944
 6792SOL    HW121275   0.385   5.183   1.028
 6792SOL    HW221276   0.376   5.031   0.969
 6793SOL     OW21277   5.472   1.498   1.207
 6793SOL    HW121278   5.466   1.555   1.125
 6793SOL    HW221279   5.557   1.446   1.205
 6794SOL     OW21280   3.553   1.153   4.489
 6794SOL    HW121281   3.631   1.120   4.541
 6794SOL    HW221282   3.513   1.078   4.436
 6795SOL     OW21283   3.658   6.010   0.001
 6795SOL    HW121284   3.702   6.041   6.942
 6795SOL    HW221285   3.693   6.063   0.079
 6796SOL     OW21286   4.268   1.931   2.047
 6796SOL    HW121287   4.349   1.941   2.105
 6796SOL    HW221288   4.199   1.997   2.073
 6797SOL     OW21289   6.513   2.390   2.425
 6797SOL    HW121290   6.496   2.440   2.340
 6797SOL    HW221291   6.467   2.301   2.421
 6798SOL     OW21292   6.587   6.923   2.439
 6798SOL    HW121293   6.571   7.010   2.392
 6798SOL    HW221294   6.677   6.924   2.483
 6799SOL     OW21295   5.565   6.070   1.942
 6799SOL    HW121296   5.541   5.998   2.008
 6799SOL    HW221297   5.492   6.138   1.938
 6800SOL     OW21298   3.069   4.107   6.454
 6800SOL    HW121299   3.127   4.029   6.477
 6800SOL    HW221300   3.126   4.189   6.444
 6801SOL     OW21301   0.928   3.230   3.202
 6801SOL    HW121302   0.893   3.258   3.113
 6801SOL    HW221303   1.028   3.240   3.203
 6802SOL     OW21304   3.178   4.873   2.595
 6802SOL    HW121305   3.117   4.845   2.520
 6802SOL    HW221306   3.150   4.963   2.628
 6803SOL     OW21307   4.126   2.217   0.754
 6803SOL    HW121308   4.073   2.234   0.838
 6803SOL    HW221309   4.133   2.302   0.702
 6804SOL     OW21310   1.013   6.482   3.496
 6804SOL    HW121311   0.967   6.404   3.453
 6804SOL    HW221312   1.079   6.520   3.431
 6805SOL     OW21313   5.637   1.047   5.479
 6805SOL    HW121314   5.732   1.040   5.451
 6805SOL    HW221315   5.624   1.001   5.567
 6806SOL     OW21316   5.363   6.268   4.805
 6806SOL    HW121317   5.352   6.352   4.859
 6806SOL    HW221318   5.357   6.291   4.708
 6807SOL     OW21319   3.652   3.488   0.023
 6807SOL    HW121320   3.700   3.446   0.100
 6807SOL    HW221321   3.656   3.588   0.032
 6808SOL     OW21322   2.210   3.985   4.148
 6808SOL    HW121323   2.183   3.902   4.196
 6808SOL    HW221324   2.243   4.053   4.213
 6809SOL     OW21325   1.807   3.979   0.041
 6809SOL    HW121326   1.859   3.947   6.987
 6809SOL    HW221327   1.772   4.071   0.023
 6810SOL     OW21328   5.667   1.208   3.786
 6810SOL    HW121329   5.757   1.247   3.805
 6810SOL    HW221330   5.604   1.231   3.861
 6811SOL     OW21331   5.116   5.765   1.952
 6811SOL    HW121332   5.098   5.670   1.925
 6811SOL    HW221333   5.038   5.799   2.005
 6812SOL     OW21334   3.629   2.970   2.766
 6812SOL    HW121335   3.606   2.914   2.687
 6812SOL    HW221336   3.548   2.980   2.824
 6813SOL     OW21337   5.100   3.824   1.314
 6813SOL    HW121338   5.017   3.805   1.262
 6813SOL    HW221339   5.081   3.811   1.412
 6814SOL     OW21340   2.329   2.703   0.582
 6814SOL    HW121341   2.255   2.704   0.649
 6814SOL    HW221342   2.314   2.631   0.515
 6815SOL     OW21343   1.421   0.323   0.486
 6815SOL    HW121344   1.407   0.303   0.389
 6815SOL    HW221345   1.407   0.421   0.502
 6816SOL     OW21346   5.165   4.623   1.640
 6816SOL    HW121347   5.250   4.574   1.661
 6816SOL    HW221348   5.178   4.721   1.655
 6817SOL     OW21349   0.662   2.704   5.939
 6817SOL    HW121350   0.691   2.619   5.982
 6817SOL    HW221351   0.738   2.742   5.886
 6818SOL     OW21352   3.922   5.236   1.415
 6818SOL    HW121353   3.970   5.272   1.495
 6818SOL    HW221354   3.859   5.164   1.443
 6819SOL     OW21355   2.282   1.826   4.051
 6819SOL    HW121356   2.314   1.872   3.968
 6819SOL    HW221357   2.192   1.787   4.034
 6820SOL     OW21358   1.628   5.052   4.415
 6820SOL    HW121359   1.611   4.973   4.355
 6820SOL    HW221360   1.706   5.031   4.475
 6821SOL     OW21361   2.254   3.060   3.947
 6821SOL    HW121362   2.291   2.970   3.974
 6821SOL    HW221363   2.272   3.126   4.020
 6822SOL     OW21364   5.030   1.468   6.069
 6822SOL    HW121365   5.038   1.529   5.990
 6822SOL    HW221366   4.957   1.402   6.052
 6823SOL     OW21367   4.115   3.698   2.250
 6823SOL    HW121368   4.082   3.605   2.264
 6823SOL    HW221369   4.209   3.696   2.217
 6824SOL     OW21370   0.690   5.307   4.990
 6824SOL    HW121371   0.774   5.301   4.936
 6824SOL    HW221372   0.612   5.284   4.932
 6825SOL     OW21373   5.648   0.205   3.772
 6825SOL    HW121374   5.612   0.295   3.748
 6825SOL    HW221375   5.744   0.200   3.746
 6826SOL     OW21376   1.267   3.021   2.953
 6826SOL    HW121377   1.203   3.004   2.878
 6826SOL    HW221378   1.249   3.110   2.994
 6827SOL     OW21379   4.848   5.143   5.265
 6827SOL    HW121380   4.761   5.097   5.286
 6827SOL    HW221381   4.900   5.154   5.350
 6828SOL     OW21382   2.261   1.720   1.039
 6828SOL    HW121383   2.240   1.640   1.094
 6828SOL    HW221384   2.182   1.746   0.984
 6829SOL     OW21385   5.628   4.632   3.746
 6829SOL    HW121386   5.587   4.682   3.822
 6829SOL    HW221387   5.558   4.613   3.677
 6830SOL     OW21388   5.153   1.743   3.808
 6830SOL    HW121389   5.238   1.702   3.774
 6830SOL    HW221390   5.091   1.670   3.838
 6831SOL     OW21391   0.233   1.654   5.845
 6831SOL    HW121392   0.187   1.578   5.799
 6831SOL    HW221393   0.170   1.697   5.910
 6832SOL     OW21394   3.617   4.466   1.271
 6832SOL    HW121395   3.587   4.540   1.331
 6832SOL    HW221396   3.545   4.446   1.204
 6833SOL     OW21397   4.379   5.924   0.343
 6833SOL    HW121398   4.429   5.931   0.256
 6833SOL    HW221399   4.282   5.943   0.327
 6834SOL     OW21400   3.166   5.152   2.708
 6834SOL    HW121401   3.262   5.136   2.733
 6834SOL    HW221402   3.107   5.125   2.784
 6835SOL     OW21403   3.701   0.167   4.858
 6835SOL    HW121404   3.647   0.108   4.797
 6835SOL    HW221405   3.756   0.230   4.803
 6836SOL     OW21406   4.166   5.743   0.090
 6836SOL    HW121407   4.129   5.724   0.181
 6836SOL    HW221408   4.100   5.714   0.020
 6837SOL     OW21409   0.662   2.920   3.139
 6837SOL    HW121410   0.675   2.873   3.226
 6837SOL    HW221411   0.745   2.971   3.116
 6838SOL     OW21412   2.721   1.735   1.081
 6838SOL    HW121413   2.674   1.738   1.169
 6838SOL    HW221414   2.800   1.797   1.082
 6839SOL     OW21415   4.125   1.258   1.872
 6839SOL    HW121416   4.207   1.204   1.889
 6839SOL    HW221417   4.048   1.196   1.856
 6840SOL     OW21418   1.007   1.215   6.197
 6840SOL    HW121419   1.031   1.214   6.100
 6840SOL    HW221420   0.993   1.121   6.229
 6841SOL     OW21421   0.411   2.971   5.745
 6841SOL    HW121422   0.414   2.949   5.647
 6841SOL    HW221423   0.395   2.888   5.798
 6842SOL     OW21424   2.746   4.642   2.599
 6842SOL    HW121425   2.836   4.671   2.632
 6842SOL    HW221426   2.751   4.623   2.501
 6843SOL     OW21427   4.321   0.350   1.479
 6843SOL    HW121428   4.408   0.391   1.454
 6843SOL    HW221429   4.330   0.301   1.566
 6844SOL     OW21430   5.736   0.338   5.101
 6844SOL    HW121431   5.758   0.278   5.177
 6844SOL    HW221432   5.818   0.354   5.045
 6845SOL     OW21433   5.727   1.626   2.765
 6845SOL    HW121434   5.670   1.636   2.846
 6845SOL    HW221435   5.671   1.602   2.686
 6846SOL     OW21436   2.089   3.568   0.195
 6846SOL    HW121437   2.183   3.584   0.226
 6846SOL    HW221438   2.078   3.473   0.167
 6847SOL     OW21439   6.948   2.418   4.452
 6847SOL    HW121440   6.852   2.403   4.430
 6847SOL    HW221441   6.955   2.451   4.547
 6848SOL     OW21442   6.827   5.070   3.771
 6848SOL    HW121443   6.910   5.090   3.721
 6848SOL    HW221444   6.815   5.137   3.845
 6849SOL     OW21445   2.935   4.256   5.482
 6849SOL    HW121446   2.916   4.170   5.435
 6849SOL    HW221447   2.992   4.314   5.423
 6850SOL     OW21448   4.820   0.201   4.261
 6850SOL    HW121449   4.865   0.175   4.176
 6850SOL    HW221450   4.889   0.225   4.330
 6851SOL     OW21451   1.802   4.326   2.956
 6851SOL    HW121452   1.826   4.239   2.999
 6851SOL    HW221453   1.759   4.386   3.023
 6852SOL     OW21454   4.209   3.379   0.251
 6852SOL    HW121455   4.238   3.407   0.343
 6852SOL    HW221456   4.111   3.396   0.240
 6853SOL     OW21457   4.032   4.865   5.957
 6853SOL    HW121458   4.020   4.960   5.986
 6853SOL    HW221459   3.965   4.807   6.003
 6854SOL     OW21460   5.179   6.072   5.594
 6854SOL    HW121461   5.174   6.116   5.504
 6854SOL    HW221462   5.271   6.083   5.631
 6855SOL     OW21463   3.795   5.138   3.278
 6855SOL    HW121464   3.753   5.223   3.245
 6855SOL    HW221465   3.857   5.102   3.208
 6856SOL     OW21466   6.385   2.553   0.554
 6856SOL    HW121467   6.302   2.608   0.560
 6856SOL    HW221468   6.361   2.456   0.555
 6857SOL     OW21469   1.081   4.698   5.947
 6857SOL    HW121470   1.130   4.710   5.861
 6857SOL    HW221471   1.109   4.612   5.990
 6858SOL     OW21472   1.213   3.155   1.483
 6858SOL    HW121473   1.217   3.243   1.435
 6858SOL    HW221474   1.285   3.095   1.450
 6859SOL     OW21475   2.377   1.763   0.802
 6859SOL    HW121476   2.339   1.735   0.890
 6859SOL    HW221477   2.417   1.684   0.756
 6860SOL     OW21478   0.476   6.638   6.948
 6860SOL    HW121479   0.542   6.610   6.879
 6860SOL    HW221480   0.386   6.602   6.924
 6861SOL     OW21481   6.694   3.164   0.064
 6861SOL    HW121482   6.736   3.094   0.122
 6861SOL    HW221483   6.730   3.156   6.996
 6862SOL     OW21484   0.301   4.396   3.769
 6862SOL    HW121485   0.298   4.362   3.675
 6862SOL    HW221486   0.341   4.326   3.828
 6863SOL     OW21487   5.118   1.218   5.499
 6863SOL    HW121488   5.059   1.203   5.420
 6863SOL    HW221489   5.201   1.163   5.490
 6864SOL     OW21490   2.261   3.565   6.572
 6864SOL    HW121491   2.225   3.579   6.664
 6864SOL    HW221492   2.327   3.490   6.573
 6865SOL     OW21493   1.916   0.376   4.145
 6865SOL    HW121494   1.835   0.331   4.107
 6865SOL    HW221495   1.890   0.431   4.224
 6866SOL     OW21496   1.880   4.912   6.881
 6866SOL    HW121497   1.835   4.851   6.946
 6866SOL    HW221498   1.979   4.913   6.899
 6867SOL     OW21499   1.946   2.374   5.975
 6867SOL    HW121500   2.040   2.370   6.009
 6867SOL    HW221501   1.925   2.469   5.950
 6868SOL     OW21502   3.694   4.962   3.623
 6868SOL    HW121503   3.756   5.038   3.608
 6868SOL    HW221504   3.604   4.997   3.650
 6869SOL     OW21505   1.366   0.913   5.720
 6869SOL    HW121506   1.394   0.850   5.647
 6869SOL    HW221507   1.417   0.892   5.803
 6870SOL     OW21508   5.316   2.755   6.685
 6870SOL    HW121509   5.361   2.674   6.723
 6870SOL    HW221510   5.245   2.787   6.747
 6871SOL     OW21511   6.376   2.436   2.646
 6871SOL    HW121512   6.414   2.494   2.718
 6871SOL    HW221513   6.439   2.435   2.568
 6872SOL     OW21514   1.788   4.584   0.777
 6872SOL    HW121515   1.797   4.497   0.729
 6872SOL    HW221516   1.742   4.569   0.865
 6873SOL     OW21517   0.570   4.286   2.697
 6873SOL    HW121518   0.584   4.260   2.602
 6873SOL    HW221519   0.628   4.229   2.756
 6874SOL     OW21520   4.451   6.206   1.985
 6874SOL    HW121521   4.477   6.221   1.890
 6874SOL    HW221522   4.470   6.111   2.011
 6875SOL     OW21523   2.836   1.048   6.402
 6875SOL    HW121524   2.848   0.961   6.353
 6875SOL    HW221525   2.823   1.122   6.336
 6876SOL     OW21526   5.808   5.004   3.462
 6876SOL    HW121527   5.893   5.042   3.425
 6876SOL    HW221528   5.829   4.946   3.541
 6877SOL     OW21529   0.491   4.278   1.418
 6877SOL    HW121530   0.538   4.334   1.486
 6877SOL    HW221531   0.546   4.272   1.335
 6878SOL     OW21532   2.151   0.561   4.244
 6878SOL    HW121533   2.068   0.574   4.190
 6878SOL    HW221534   2.230   0.550   4.183
 6879SOL     OW21535   1.015   1.548   1.797
 6879SOL    HW121536   0.976   1.497   1.721
 6879SOL    HW221537   1.050   1.635   1.764
 6880SOL     OW21538   2.179   6.343   0.743
 6880SOL    HW121539   2.096   6.319   0.793
 6880SOL    HW221540   2.157   6.411   0.673
 6881SOL     OW21541   6.914   3.671   0.423
 6881SOL    HW121542   6.906   3.761   0.381
 6881SOL    HW221543   6.829   3.620   0.408
 6882SOL     OW21544   2.939   6.580   0.590
 6882SOL    HW121545   2.931   6.619   0.498
 6882SOL    HW221546   3.016   6.517   0.592
 6883SOL     OW21547   4.997   0.289   1.077
 6883SOL    HW121548   4.899   0.309   1.070
 6883SOL    HW221549   5.014   0.194   1.053
 6884SOL     OW21550   1.607   5.049   3.263
 6884SOL    HW121551   1.559   4.987   3.325
 6884SOL    HW221552   1.701   5.018   3.251
 6885SOL     OW21553   5.590   4.966   4.738
 6885SOL    HW121554   5.517   4.901   4.760
 6885SOL    HW221555   5.624   4.948   4.646
 6886SOL     OW21556   5.486   3.854   0.429
 6886SOL    HW121557   5.539   3.772   0.406
 6886SOL    HW221558   5.514   3.929   0.369
 6887SOL     OW21559   5.535   6.625   5.547
 6887SOL    HW121560   5.518   6.537   5.502
 6887SOL    HW221561   5.569   6.690   5.480
 6888SOL     OW21562   6.596   4.500   0.628
 6888SOL    HW121563   6.687   4.461   0.640
 6888SOL    HW221564   6.533   4.429   0.595
 6889SOL     OW21565   6.968   2.428   6.046
 6889SOL    HW121566   6.941   2.520   6.074
 6889SOL    HW221567   0.040   2.426   6.022
 6890SOL     OW21568   4.818   4.633   4.434
 6890SOL    HW121569   4.865   4.668   4.515
 6890SOL    HW221570   4.826   4.699   4.360
 6891SOL     OW21571   2.137   1.685   0.613
 6891SOL    HW121572   2.233   1.713   0.608
 6891SOL    HW221573   2.097   1.684   0.521
 6892SOL     OW21574   1.958   1.019   4.755
 6892SOL    HW121575   1.910   1.098   4.793
 6892SOL    HW221576   2.056   1.040   4.749
 6893SOL     OW21577   5.885   3.139   0.287
 6893SOL    HW121578   5.861   3.187   0.202
 6893SOL    HW221579   5.973   3.173   0.320
 6894SOL     OW21580   5.611   5.070   0.250
 6894SOL    HW121581   5.709   5.069   0.269
 6894SOL    HW221582   5.595   5.055   0.153
 6895SOL     OW21583   1.292   5.389   1.917
 6895SOL    HW121584   1.349   5.339   1.981
 6895SOL    HW221585   1.300   5.488   1.935
 6896SOL     OW21586   5.372   0.903   6.267
 6896SOL    HW121587   5.283   0.875   6.229
 6896SOL    HW221588   5.443   0.842   6.235
 6897SOL     OW21589   4.514   2.660   5.041
 6897SOL    HW121590   4.593   2.599   5.035
 6897SOL    HW221591   4.431   2.606   5.053
 6898SOL     OW21592   1.837   6.817   1.290
 6898SOL    HW121593   1.869   6.763   1.367
 6898SOL    HW221594   1.889   6.902   1.285
 6899SOL     OW21595   5.399   5.206   2.332
 6899SOL    HW121596   5.499   5.204   2.321
 6899SOL    HW221597   5.375   5.166   2.420
 6900SOL     OW21598   0.049   3.915   4.541
 6900SOL    HW121599   0.102   3.834   4.515
 6900SOL    HW221600   0.089   3.996   4.499
 6901SOL     OW21601   5.146   4.539   6.184
 6901SOL    HW121602   5.096   4.586   6.256
 6901SOL    HW221603   5.106   4.448   6.169
 6902SOL     OW21604   0.166   5.677   5.938
 6902SOL    HW121605   0.107   5.692   5.858
 6902SOL    HW221606   0.123   5.718   6.019
 6903SOL     OW21607   1.930   6.363   5.628
 6903SOL    HW121608   1.932   6.295   5.555
 6903SOL    HW221609   1.996   6.435   5.609
 6904SOL     OW21610   1.180   0.656   6.240
 6904SOL    HW121611   1.169   0.613   6.330
 6904SOL    HW221612   1.090   0.674   6.200
 6905SOL     OW21613   4.592   6.033   5.744
 6905SOL    HW121614   4.609   5.940   5.712
 6905SOL    HW221615   4.494   6.045   5.762
 6906SOL     OW21616   3.111   1.410   3.547
 6906SOL    HW121617   3.088   1.397   3.644
 6906SOL    HW221618   3.114   1.321   3.501
 6907SOL     OW21619   5.788   2.510   0.455
 6907SOL    HW121620   5.850   2.580   0.489
 6907SOL    HW221621   5.693   2.537   0.471
 6908SOL     OW21622   4.132   6.275   0.607
 6908SOL    HW121623   4.193   6.319   0.673
 6908SOL    HW221624   4.145   6.316   0.517
 6909SOL     OW21625   5.711   4.077   2.057
 6909SOL    HW121626   5.656   4.147   2.013
 6909SOL    HW221627   5.807   4.105   2.058
 6910SOL     OW21628   1.686   2.445   1.937
 6910SOL    HW121629   1.755   2.390   1.890
 6910SOL    HW221630   1.729   2.493   2.014
 6911SOL     OW21631   2.894   6.636   5.399
 6911SOL    HW121632   2.881   6.734   5.413
 6911SOL    HW221633   2.823   6.586   5.449
 6912SOL     OW21634   3.323   4.357   6.587
 6912SOL    HW121635   3.416   4.383   6.561
 6912SOL    HW221636   3.297   4.404   6.671
 6913SOL     OW21637   4.162   5.678   5.963
 6913SOL    HW121638   4.138   5.756   5.905
 6913SOL    HW221639   4.260   5.663   5.960
 6914SOL     OW21640   0.420   2.359   2.621
 6914SOL    HW121641   0.354   2.356   2.546
 6914SOL    HW221642   0.425   2.452   2.657
 6915SOL     OW21643   0.117   3.117   4.215
 6915SOL    HW121644   0.077   3.179   4.281
 6915SOL    HW221645   0.109   3.155   4.123
 6916SOL     OW21646   4.723   6.275   5.797
 6916SOL    HW121647   4.675   6.189   5.777
 6916SOL    HW221648   4.820   6.264   5.778
 6917SOL     OW21649   3.955   6.209   2.426
 6917SOL    HW121650   3.906   6.127   2.453
 6917SOL    HW221651   4.038   6.184   2.377
 6918SOL     OW21652   1.907   3.650   0.374
 6918SOL    HW121653   1.974   3.610   0.312
 6918SOL    HW221654   1.919   3.749   0.377
 6919SOL     OW21655   6.324   6.207   3.044
 6919SOL    HW121656   6.277   6.121   3.023
 6919SOL    HW221657   6.275   6.256   3.116
 6920SOL     OW21658   0.189   2.650   5.385
 6920SOL    HW121659   0.195   2.745   5.413
 6920SOL    HW221660   0.232   2.592   5.454
 6921SOL     OW21661   3.392   0.452   4.189
 6921SOL    HW121662   3.328   0.461   4.266
 6921SOL    HW221663   3.478   0.413   4.223
 6922SOL     OW21664   3.056   4.965   6.746
 6922SOL    HW121665   3.106   5.029   6.687
 6922SOL    HW221666   3.015   4.893   6.690
 6923SOL     OW21667   5.175   6.940   3.188
 6923SOL    HW121668   5.203   7.006   3.258
 6923SOL    HW221669   5.143   6.856   3.232
 6924SOL     OW21670   2.978   5.141   1.900
 6924SOL    HW121671   3.025   5.089   1.828
 6924SOL    HW221672   2.880   5.143   1.881
 6925SOL     OW21673   6.644   6.310   4.493
 6925SOL    HW121674   6.701   6.387   4.523
 6925SOL    HW221675   6.595   6.335   4.409
 6926SOL     OW21676   2.690   2.316   0.443
 6926SOL    HW121677   2.703   2.219   0.419
 6926SOL    HW221678   2.777   2.364   0.433
 6927SOL     OW21679   3.437   0.149   6.704
 6927SOL    HW121680   3.379   0.222   6.742
 6927SOL    HW221681   3.393   0.061   6.719
 6928SOL     OW21682   4.611   6.074   0.526
 6928SOL    HW121683   4.612   5.980   0.493
 6928SOL    HW221684   4.660   6.080   0.613
 6929SOL     OW21685   4.674   5.240   2.916
 6929SOL    HW121686   4.697   5.333   2.888
 6929SOL    HW221687   4.598   5.207   2.861
 6930SOL     OW21688   0.880   6.457   1.563
 6930SOL    HW121689   0.925   6.487   1.647
 6930SOL    HW221690   0.902   6.361   1.546
 6931SOL     OW21691   3.428   3.148   0.836
 6931SOL    HW121692   3.377   3.085   0.895
 6931SOL    HW221693   3.452   3.102   0.751
 6932SOL     OW21694   4.241   0.559   6.580
 6932SOL    HW121695   4.245   0.461   6.564
 6932SOL    HW221696   4.319   0.604   6.537
 6933SOL     OW21697   3.687   6.072   6.046
 6933SOL    HW121698   3.684   6.084   6.145
 6933SOL    HW221699   3.729   6.151   6.003
 6934SOL     OW21700   4.904   5.032   0.277
 6934SOL    HW121701   4.977   4.981   0.322
 6934SOL    HW221702   4.943   5.097   0.212
 6935SOL     OW21703   4.240   5.785   2.280
 6935SOL    HW121704   4.328   5.791   2.327
 6935SOL    HW221705   4.251   5.812   2.185
 6936SOL     OW21706   0.896   1.944   0.004
 6936SOL    HW121707   0.933   2.032   0.035
 6936SOL    HW221708   0.838   1.959   6.949
 6937SOL     OW21709   5.585   4.617   0.377
 6937SOL    HW121710   5.662   4.675   0.403
 6937SOL    HW221711   5.499   4.663   0.399
 6938SOL     OW21712   3.428   0.268   4.979
 6938SOL    HW121713   3.518   0.231   4.956
 6938SOL    HW221714   3.439   0.346   5.040
 6939SOL     OW21715   5.473   3.011   3.510
 6939SOL    HW121716   5.476   2.955   3.427
 6939SOL    HW221717   5.529   2.969   3.581
 6940SOL     OW21718   1.967   6.430   1.743
 6940SOL    HW121719   2.034   6.370   1.787
 6940SOL    HW221720   1.908   6.376   1.683
 6941SOL     OW21721   3.724   3.249   2.743
 6941SOL    HW121722   3.687   3.157   2.756
 6941SOL    HW221723   3.650   3.312   2.721
 6942SOL     OW21724   6.668   4.838   3.265
 6942SOL    HW121725   6.671   4.742   3.235
 6942SOL    HW221726   6.745   4.857   3.325
 6943SOL     OW21727   3.404   5.356   5.600
 6943SOL    HW121728   3.310   5.333   5.624
 6943SOL    HW221729   3.411   5.454   5.581
 6944SOL     OW21730   0.606   5.047   5.193
 6944SOL    HW121731   0.685   5.003   5.150
 6944SOL    HW221732   0.632   5.139   5.223
 6945SOL     OW21733   4.429   1.294   0.606
 6945SOL    HW121734   4.339   1.256   0.586
 6945SOL    HW221735   4.471   1.328   0.522
 6946SOL     OW21736   5.435   6.056   2.831
 6946SOL    HW121737   5.355   5.999   2.815
 6946SOL    HW221738   5.409   6.134   2.888
 6947SOL     OW21739   6.095   4.254   5.344
 6947SOL    HW121740   6.108   4.211   5.434
 6947SOL    HW221741   6.169   4.320   5.328
 6948SOL     OW21742   0.069   4.786   6.605
 6948SOL    HW121743   0.122   4.812   6.524
 6948SOL    HW221744   7.010   4.739   6.576
 6949SOL     OW21745   2.309   1.308   3.251
 6949SOL    HW121746   2.380   1.280   3.187
 6949SOL    HW221747   2.336   1.392   3.297
 6950SOL     OW21748   1.954   1.337   4.112
 6950SOL    HW121749   1.983   1.356   4.018
 6950SOL    HW221750   1.947   1.238   4.125
 6951SOL     OW21751   1.308   4.092   0.044
 6951SOL    HW121752   1.220   4.128   0.073
 6951SOL    HW221753   1.324   4.004   0.089
 6952SOL     OW21754   4.421   5.342   3.387
 6952SOL    HW121755   4.402   5.412   3.456
 6952SOL    HW221756   4.461   5.385   3.306
 6953SOL     OW21757   0.294   1.100   1.775
 6953SOL    HW121758   0.286   1.064   1.682
 6953SOL    HW221759   0.204   1.128   1.808
 6954SOL     OW21760   6.452   4.884   5.860
 6954SOL    HW121761   6.398   4.820   5.805
 6954SOL    HW221762   6.396   4.963   5.884
 6955SOL     OW21763   4.566   5.906   2.599
 6955SOL    HW121764   4.555   6.004   2.616
 6955SOL    HW221765   4.553   5.887   2.502
 6956SOL     OW21766   5.822   5.069   1.451
 6956SOL    HW121767   5.794   5.150   1.504
 6956SOL    HW221768   5.859   5.000   1.513
 6957SOL     OW21769   5.880   4.275   5.168
 6957SOL    HW121770   5.910   4.360   5.124
 6957SOL    HW221771   5.943   4.253   5.243
 6958SOL     OW21772   3.310   3.667   2.298
 6958SOL    HW121773   3.315   3.720   2.383
 6958SOL    HW221774   3.220   3.679   2.257
 6959SOL     OW21775   1.179   3.991   2.588
 6959SOL    HW121776   1.121   3.943   2.653
 6959SOL    HW221777   1.160   3.959   2.495
 6960SOL     OW21778   5.317   4.763   1.372
 6960SOL    HW121779   5.375   4.751   1.291
 6960SOL    HW221780   5.229   4.718   1.358
 6961SOL     OW21781   5.364   2.094   4.871
 6961SOL    HW121782   5.274   2.078   4.829
 6961SOL    HW221783   5.358   2.173   4.932
 6962SOL     OW21784   2.315   6.094   0.790
 6962SOL    HW121785   2.291   6.190   0.776
 6962SOL    HW221786   2.397   6.087   0.846
 6963SOL     OW21787   0.666   6.588   6.778
 6963SOL    HW121788   0.751   6.551   6.816
 6963SOL    HW221789   0.688   6.654   6.706
 6964SOL     OW21790   2.270   1.630   4.912
 6964SOL    HW121791   2.332   1.564   4.871
 6964SOL    HW221792   2.177   1.595   4.909
 6965SOL     OW21793   1.624   1.352   6.889
 6965SOL    HW121794   1.713   1.395   6.905
 6965SOL    HW221795   1.585   1.387   6.804
 6966SOL     OW21796   1.427   6.713   1.082
 6966SOL    HW121797   1.493   6.726   1.156
 6966SOL    HW221798   1.336   6.702   1.120
 6967SOL     OW21799   3.752   0.008   6.562
 6967SOL    HW121800   3.716   0.100   6.544
 6967SOL    HW221801   3.689   6.964   6.523
 6968SOL     OW21802   3.544   0.547   1.866
 6968SOL    HW121803   3.634   0.590   1.874
 6968SOL    HW221804   3.512   0.519   1.957
 6969SOL     OW21805   1.273   3.396   2.772
 6969SOL    HW121806   1.280   3.306   2.729
 6969SOL    HW221807   1.349   3.408   2.836
 6970SOL     OW21808   3.543   5.996   5.766
 6970SOL    HW121809   3.568   6.039   5.853
 6970SOL    HW221810   3.583   6.048   5.691
 6971SOL     OW21811   6.699   4.203   6.710
 6971SOL    HW121812   6.765   4.276   6.694
 6971SOL    HW221813   6.736   4.116   6.676
 6972SOL     OW21814   5.596   4.095   1.640
 6972SOL    HW121815   5.692   4.118   1.655
 6972SOL    HW221816   5.573   4.013   1.691
 6973SOL     OW21817   1.140   1.598   3.222
 6973SOL    HW121818   1.181   1.624   3.135
 6973SOL    HW221819   1.063   1.659   3.242
 6974SOL     OW21820   3.964   3.614   2.955
 6974SOL    HW121821   4.029   3.561   2.899
 6974SOL    HW221822   3.871   3.590   2.928
 6975SOL     OW21823   2.984   5.212   4.885
 6975SOL    HW121824   2.988   5.164   4.973
 6975SOL    HW221825   3.056   5.281   4.882
 6976SOL     OW21826   4.672   5.098   6.203
 6976SOL    HW121827   4.658   5.022   6.267
 6976SOL    HW221828   4.623   5.179   6.237
 6977SOL     OW21829   4.430   4.726   2.368
 6977SOL    HW121830   4.519   4.717   2.411
 6977SOL    HW221831   4.421   4.657   2.296
 6978SOL     OW21832   1.334   3.740   1.134
 6978SOL    HW121833   1.241   3.771   1.148
 6978SOL    HW221834   1.390   3.815   1.098
 6979SOL     OW21835   1.054   3.814   3.079
 6979SOL    HW121836   1.087   3.902   3.046
 6979SOL    HW221837   1.121   3.743   3.057
 6980SOL     OW21838   2.177   4.727   3.286
 6980SOL    HW121839   2.266   4.772   3.282
 6980SOL    HW221840   2.162   4.690   3.378
 6981SOL     OW21841   3.936   2.353   0.104
 6981SOL    HW121842   3.993   2.366   0.185
 6981SOL    HW221843   3.994   2.347   0.023
 6982SOL     OW21844   6.626   0.050   2.046
 6982SOL    HW121845   6.696   0.097   2.100
 6982SOL    HW221846   6.670   7.008   1.985
 6983SOL     OW21847   0.211   0.606   3.755
 6983SOL    HW121848   0.268   0.534   3.793
 6983SOL    HW221849   0.160   0.651   3.829
 6984SOL     OW21850   1.901   4.218   3.618
 6984SOL    HW121851   1.913   4.241   3.522
 6984SOL    HW221852   1.805   4.196   3.636
 6985SOL     OW21853   5.297   3.406   0.876
 6985SOL    HW121854   5.356   3.455   0.812
 6985SOL    HW221855   5.215   3.374   0.829
 6986SOL     OW21856   3.451   5.928   5.182
 6986SOL    HW121857   3.501   5.871   5.117
 6986SOL    HW221858   3.380   5.873   5.227
 6987SOL     OW21859   6.944   1.161   6.794
 6987SOL    HW121860   7.002   1.238   6.822
 6987SOL    HW221861   6.873   1.194   6.731
 6988SOL     OW21862   2.148   0.560   6.108
 6988SOL    HW121863   2.145   0.643   6.163
 6988SOL    HW221864   2.244   0.535   6.091
 6989SOL     OW21865   0.726   3.373   2.294
 6989SOL    HW121866   0.674   3.390   2.210
 6989SOL    HW221867   0.816   3.337   2.271
 6990SOL     OW21868   3.803   4.352   6.690
 6990SOL    HW121869   3.832   4.398   6.605
 6990SOL    HW221870   3.862   4.380   6.765
 6991SOL     OW21871   5.053   4.198   3.639
 6991SOL    HW121872   4.984   4.211   3.568
 6991SOL    HW221873   5.106   4.116   3.619
 6992SOL     OW21874   1.917   5.457   5.954
 6992SOL    HW121875   1.850   5.498   6.015
 6992SOL    HW221876   2.000   5.512   5.953
 6993SOL     OW21877   4.436   2.498   1.725
 6993SOL    HW121878   4.392   2.503   1.636
 6993SOL    HW221879   4.408   2.414   1.772
 6994SOL     OW21880   2.511   1.228   2.896
 6994SOL    HW121881   2.520   1.137   2.936
 6994SOL    HW221882   2.414   1.254   2.897
 6995SOL     OW21883   6.880   4.642   0.793
 6995SOL    HW121884   6.856   4.552   0.756
 6995SOL    HW221885   6.919   4.699   0.721
 6996SOL     OW21886   0.815   1.858   6.532
 6996SOL    HW121887   0.858   1.831   6.446
 6996SOL    HW221888   0.886   1.882   6.599
 6997SOL     OW21889   5.679   6.150   5.996
 6997SOL    HW121890   5.697   6.084   6.069
 6997SOL    HW221891   5.732   6.233   6.012
 6998SOL     OW21892   0.492   0.841   6.910
 6998SOL    HW121893   0.506   0.916   6.845
 6998SOL    HW221894   0.511   0.872   7.003
 6999SOL     OW21895   0.390   2.845   0.081
 6999SOL    HW121896   0.325   2.778   0.043
 6999SOL    HW221897   0.475   2.841   0.030
 7000SOL     OW21898   0.658   5.046   3.530
 7000SOL    HW121899   0.589   5.114   3.506
 7000SOL    HW221900   0.672   5.047   3.629
 7001SOL     OW21901   0.739   1.539   4.179
 7001SOL    HW121902   0.646   1.576   4.188
 7001SOL    HW221903   0.773   1.558   4.087
 7002SOL     OW21904   1.094   4.608   2.678
 7002SOL    HW121905   1.021   4.632   2.614
 7002SOL    HW221906   1.067   4.528   2.731
 7003SOL     OW21907   0.513   5.416   6.200
 7003SOL    HW121908   0.566   5.356   6.140
 7003SOL    HW221909   0.575   5.459   6.266
 7004SOL     OW21910   1.091   0.810   6.540
 7004SOL    HW121911   1.153   0.807   6.619
 7004SOL    HW221912   1.067   0.717   6.512
 7005SOL     OW21913   1.982   5.241   0.265
 7005SOL    HW121914   2.034   5.199   0.190
 7005SOL    HW221915   1.952   5.169   0.328
 7006SOL     OW21916   0.672   0.606   3.853
 7006SOL    HW121917   0.705   0.539   3.919
 7006SOL    HW221918   0.737   0.613   3.777
 7007SOL     OW21919   2.044   0.216   6.464
 7007SOL    HW121920   2.078   0.202   6.557
 7007SOL    HW221921   1.955   0.172   6.454
 7008SOL     OW21922   5.266   3.252   2.483
 7008SOL    HW121923   5.281   3.329   2.545
 7008SOL    HW221924   5.353   3.224   2.443
 7009SOL     OW21925   5.655   5.952   2.549
 7009SOL    HW121926   5.637   5.988   2.458
 7009SOL    HW221927   5.582   5.890   2.575
 7010SOL     OW21928   5.287   3.665   2.308
 7010SOL    HW121929   5.213   3.698   2.365
 7010SOL    HW221930   5.352   3.613   2.364
 7011SOL     OW21931   2.260   6.196   6.259
 7011SOL    HW121932   2.261   6.261   6.336
 7011SOL    HW221933   2.266   6.247   6.173
 7012SOL     OW21934   0.130   4.196   0.597
 7012SOL    HW121935   0.207   4.182   0.535
 7012SOL    HW221936   0.125   4.292   0.622
 7013SOL     OW21937   2.637   2.587   0.285
 7013SOL    HW121938   2.610   2.530   0.207
 7013SOL    HW221939   2.695   2.534   0.346
 7014SOL     OW21940   6.332   3.556   0.564
 7014SOL    HW121941   6.324   3.491   0.640
 7014SOL    HW221942   6.283   3.520   0.485
 7015SOL     OW21943   5.885   6.245   1.289
 7015SOL    HW121944   5.977   6.206   1.300
 7015SOL    HW221945   5.889   6.321   1.224
 7016SOL     OW21946   3.599   5.253   1.089
 7016SOL    HW121947   3.616   5.182   1.021
 7016SOL    HW221948   3.519   5.229   1.143
 7017SOL     OW21949   6.483   4.670   6.423
 7017SOL    HW121950   6.553   4.600   6.405
 7017SOL    HW221951   6.514   4.758   6.389
 7018SOL     OW21952   5.700   2.916   5.048
 7018SOL    HW121953   5.711   2.827   5.002
 7018SOL    HW221954   5.732   2.908   5.142
 7019SOL     OW21955   3.904   5.786   2.325
 7019SOL    HW121956   3.893   5.883   2.343
 7019SOL    HW221957   3.976   5.772   2.258
 7020SOL     OW21958   6.977   1.477   0.640
 7020SOL    HW121959   7.003   1.545   0.708
 7020SOL    HW221960   0.034   1.431   0.606
 7021SOL     OW21961   0.567   2.025   4.903
 7021SOL    HW121962   0.667   2.033   4.902
 7021SOL    HW221963   0.533   2.036   4.996
 7022SOL     OW21964   1.964   3.926   0.965
 7022SOL    HW121965   2.048   3.964   0.926
 7022SOL    HW221966   1.970   3.928   1.065
 7023SOL     OW21967   0.034   1.562   1.171
 7023SOL    HW121968   0.034   1.569   1.071
 7023SOL    HW221969   0.003   1.649   1.210
 7024SOL     OW21970   3.668   3.928   5.526
 7024SOL    HW121971   3.669   3.887   5.434
 7024SOL    HW221972   3.751   3.900   5.575
 7025SOL     OW21973   2.641   0.710   1.221
 7025SOL    HW121974   2.714   0.764   1.180
 7025SOL    HW221975   2.627   0.740   1.316
 7026SOL     OW21976   2.610   2.151   1.069
 7026SOL    HW121977   2.524   2.189   1.101
 7026SOL    HW221978   2.593   2.063   1.024
 7027SOL     OW21979   3.107   4.553   1.198
 7027SOL    HW121980   3.072   4.637   1.156
 7027SOL    HW221981   3.082   4.552   1.295
 7028SOL     OW21982   3.440   0.188   3.104
 7028SOL    HW121983   3.397   0.255   3.044
 7028SOL    HW221984   3.426   0.214   3.200
 7029SOL     OW21985   3.299   3.926   3.498
 7029SOL    HW121986   3.232   3.864   3.457
 7029SOL    HW221987   3.330   3.992   3.428
 7030SOL     OW21988   6.257   6.761   4.915
 7030SOL    HW121989   6.252   6.668   4.951
 7030SOL    HW221990   6.167   6.804   4.919
 7031SOL     OW21991   5.709   5.299   0.571
 7031SOL    HW121992   5.618   5.272   0.540
 7031SOL    HW221993   5.759   5.341   0.495
 7032SOL     OW21994   4.061   5.060   4.453
 7032SOL    HW121995   4.079   4.961   4.451
 7032SOL    HW221996   4.090   5.097   4.541
 7033SOL     OW21997   2.174   2.110   5.278
 7033SOL    HW121998   2.131   2.180   5.335
 7033SOL    HW221999   2.269   2.096   5.308
 7034SOL     OW22000   6.727   2.378   2.143
 7034SOL    HW122001   6.687   2.466   2.170
 7034SOL    HW222002   6.783   2.343   2.218
 7035SOL     OW22003   2.676   2.424   0.999
 7035SOL    HW122004   2.773   2.449   1.000
 7035SOL    HW222005   2.666   2.326   1.017
 7036SOL     OW22006   6.557   1.766   1.855
 7036SOL    HW122007   6.607   1.852   1.855
 7036SOL    HW222008   6.468   1.778   1.898
 7037SOL     OW22009   1.280   0.941   6.245
 7037SOL    HW122010   1.298   0.845   6.267
 7037SOL    HW222011   1.188   0.966   6.277
 7038SOL     OW22012   0.273   4.992   0.068
 7038SOL    HW122013   0.256   5.014   6.996
 7038SOL    HW222014   0.357   4.938   0.075
 7039SOL     OW22015   6.875   6.997   1.317
 7039SOL    HW122016   6.952   0.034   1.299
 7039SOL    HW222017   6.803   0.023   1.365
 7040SOL     OW22018   5.106   2.708   4.541
 7040SOL    HW122019   5.102   2.735   4.444
 7040SOL    HW222020   5.144   2.784   4.594
 7041SOL     OW22021   1.059   6.917   3.917
 7041SOL    HW122022   1.020   6.913   3.825
 7041SOL    HW222023   1.130   6.987   3.920
 7042SOL     OW22024   5.385   5.856   5.125
 7042SOL    HW122025   5.442   5.908   5.061
 7042SOL    HW222026   5.320   5.801   5.073
 7043SOL     OW22027   1.900   5.897   0.538
 7043SOL    HW122028   1.912   5.996   0.546
 7043SOL    HW222029   1.987   5.851   0.557
 7044SOL     OW22030   4.127   6.058   4.983
 7044SOL    HW122031   4.173   6.049   5.072
 7044SOL    HW222032   4.028   6.060   4.996
 7045SOL     OW22033   5.461   6.515   1.973
 7045SOL    HW122034   5.552   6.514   1.932
 7045SOL    HW222035   5.465   6.564   2.060
 7046SOL     OW22036   2.783   1.015   2.838
 7046SOL    HW122037   2.773   0.991   2.742
 7046SOL    HW222038   2.739   1.103   2.855
 7047SOL     OW22039   1.551   7.003   1.062
 7047SOL    HW122040   1.565   0.003   0.966
 7047SOL    HW222041   1.497   6.918   1.067
 7048SOL     OW22042   0.462   5.781   4.014
 7048SOL    HW122043   0.410   5.823   3.940
 7048SOL    HW222044   0.559   5.806   4.005
 7049SOL     OW22045   3.135   1.385   4.574
 7049SOL    HW122046   3.062   1.429   4.521
 7049SOL    HW222047   3.189   1.456   4.620
 7050SOL     OW22048   4.222   4.456   0.910
 7050SOL    HW122049   4.237   4.551   0.885
 7050SOL    HW222050   4.127   4.443   0.938
 7051SOL     OW22051   1.682   1.317   2.097
 7051SOL    HW122052   1.737   1.401   2.100
 7051SOL    HW222053   1.591   1.338   2.061
 7052SOL     OW22054   5.327   2.502   2.883
 7052SOL    HW122055   5.320   2.483   2.785
 7052SOL    HW222056   5.237   2.489   2.925
 7053SOL     OW22057   1.260   4.629   4.101
 7053SOL    HW122058   1.278   4.632   4.199
 7053SOL    HW222059   1.345   4.644   4.051
 7054SOL     OW22060   5.422   0.509   0.173
 7054SOL    HW122061   5.340   0.503   0.116
 7054SOL    HW222062   5.439   0.420   0.216
 7055SOL     OW22063   1.895   0.178   6.921
 7055SOL    HW122064   1.823   0.194   6.854
 7055SOL    HW222065   1.892   0.082   6.951
 7056SOL     OW22066   6.645   5.467   0.843
 7056SOL    HW122067   6.683   5.415   0.920
 7056SOL    HW222068   6.718   5.490   0.779
 7057SOL     OW22069   2.916   5.543   4.605
 7057SOL    HW122070   2.917   5.642   4.593
 7057SOL    HW222071   2.876   5.521   4.694
 7058SOL     OW22072   5.967   2.052   6.087
 7058SOL    HW122073   6.055   2.090   6.117
 7058SOL    HW222074   5.916   2.123   6.037
 7059SOL     OW22075   1.541   0.971   4.803
 7059SOL    HW122076   1.569   0.942   4.711
 7059SOL    HW222077   1.471   1.043   4.796
 7060SOL     OW22078   3.040   2.345   1.639
 7060SOL    HW122079   3.078   2.424   1.592
 7060SOL    HW222080   3.011   2.371   1.731
 7061SOL     OW22081   1.933   0.705   1.178
 7061SOL    HW122082   1.955   0.651   1.259
 7061SOL    HW222083   1.893   0.646   1.108
 7062SOL     OW22084   3.955   0.776   5.208
 7062SOL    HW122085   3.921   0.708   5.272
 7062SOL    HW222086   3.970   0.863   5.256
 7063SOL     OW22087   0.274   1.071   1.474
 7063SOL    HW122088   0.266   1.111   1.382
 7063SOL    HW222089   0.243   0.976   1.472
 7064SOL     OW22090   2.831   1.390   5.494
 7064SOL    HW122091   2.770   1.310   5.491
 7064SOL    HW222092   2.909   1.375   5.433
 7065SOL     OW22093   3.351   6.880   4.240
 7065SOL    HW122094   3.312   6.891   4.149
 7065SOL    HW222095   3.420   6.808   4.238
 7066SOL     OW22096   3.960   0.690   1.027
 7066SOL    HW122097   3.894   0.651   1.092
 7066SOL    HW222098   4.028   0.744   1.076
 7067SOL     OW22099   2.317   4.320   6.505
 7067SOL    HW122100   2.403   4.268   6.506
 7067SOL    HW222101   2.282   4.325   6.412
 7068SOL     OW22102   4.970   4.695   2.968
 7068SOL    HW122103   4.896   4.681   3.033
 7068SOL    HW222104   4.935   4.687   2.875
 7069SOL     OW22105   4.364   0.721   5.155
 7069SOL    HW122106   4.312   0.794   5.199
 7069SOL    HW222107   4.320   0.695   5.069
 7070SOL     OW22108   7.010   1.125   5.857
 7070SOL    HW122109   0.041   1.080   5.927
 7070SOL    HW222110   6.966   1.206   5.895
 7071SOL     OW22111   4.561   5.650   6.601
 7071SOL    HW122112   4.526   5.721   6.662
 7071SOL    HW222113   4.563   5.684   6.507
 7072SOL     OW22114   1.106   3.786   6.420
 7072SOL    HW122115   1.120   3.706   6.363
 7072SOL    HW222116   1.066   3.758   6.508
 7073SOL     OW22117   4.060   0.960   4.073
 7073SOL    HW122118   4.088   0.871   4.109
 7073SOL    HW222119   3.992   1.001   4.134
 7074SOL     OW22120   6.096   3.627   2.209
 7074SOL    HW122121   6.015   3.572   2.186
 7074SOL    HW222122   6.086   3.662   2.302
 7075SOL     OW22123   2.204   5.320   2.546
 7075SOL    HW122124   2.202   5.249   2.475
 7075SOL    HW222125   2.201   5.410   2.502
 7076SOL     OW22126   6.161   2.792   0.689
 7076SOL    HW122127   6.095   2.833   0.752
 7076SOL    HW222128   6.205   2.714   0.734
 7077SOL     OW22129   3.793   5.862   1.533
 7077SOL    HW122130   3.804   5.916   1.449
 7077SOL    HW222131   3.797   5.923   1.612
 7078SOL     OW22132   0.105   1.964   6.682
 7078SOL    HW122133   0.202   1.946   6.700
 7078SOL    HW222134   0.078   2.048   6.730
 7079SOL     OW22135   2.480   5.568   5.438
 7079SOL    HW122136   2.532   5.521   5.366
 7079SOL    HW222137   2.386   5.532   5.440
 7080SOL     OW22138   4.008   1.697   5.790
 7080SOL    HW122139   4.058   1.662   5.870
 7080SOL    HW222140   4.044   1.786   5.765
 7081SOL     OW22141   2.525   5.956   0.065
 7081SOL    HW122142   2.617   5.953   0.026
 7081SOL    HW222143   2.495   6.051   0.074
 7082SOL     OW22144   1.383   5.016   2.282
 7082SOL    HW122145   1.470   4.968   2.295
 7082SOL    HW222146   1.307   4.956   2.308
 7083SOL     OW22147   5.502   3.184   2.369
 7083SOL    HW122148   5.536   3.125   2.295
 7083SOL    HW222149   5.544   3.155   2.455
 7084SOL     OW22150   1.246   5.329   0.266
 7084SOL    HW122151   1.252   5.385   0.184
 7084SOL    HW222152   1.283   5.379   0.344
 7085SOL     OW22153   0.148   3.655   2.191
 7085SOL    HW122154   0.096   3.597   2.253
 7085SOL    HW222155   0.086   3.703   2.129
 7086SOL     OW22156   4.378   0.896   3.841
 7086SOL    HW122157   4.370   0.947   3.926
 7086SOL    HW222158   4.396   0.959   3.766
 7087SOL     OW22159   5.076   2.757   3.473
 7087SOL    HW122160   5.081   2.790   3.568
 7087SOL    HW222161   5.158   2.786   3.423
 7088SOL     OW22162   6.116   2.232   5.435
 7088SOL    HW122163   6.109   2.166   5.360
 7088SOL    HW222164   6.106   2.185   5.522
 7089SOL     OW22165   2.917   5.897   1.059
 7089SOL    HW122166   2.937   5.912   0.962
 7089SOL    HW222167   2.992   5.932   1.114
 7090SOL     OW22168   4.812   3.807   1.292
 7090SOL    HW122169   4.827   3.904   1.270
 7090SOL    HW222170   4.792   3.798   1.389
 7091SOL     OW22171   5.922   0.721   6.991
 7091SOL    HW122172   5.923   0.630   0.008
 7091SOL    HW222173   5.884   0.787   0.031
 7092SOL     OW22174   4.190   6.592   6.144
 7092SOL    HW122175   4.269   6.531   6.146
 7092SOL    HW222176   4.210   6.673   6.089
 7093SOL     OW22177   4.219   3.024   0.572
 7093SOL    HW122178   4.194   2.942   0.623
 7093SOL    HW222179   4.162   3.031   0.490
 7094SOL     OW22180   4.408   0.762   4.639
 7094SOL    HW122181   4.376   0.694   4.573
 7094SOL    HW222182   4.329   0.810   4.678
 7095SOL     OW22183   2.050   4.418   3.730
 7095SOL    HW122184   2.130   4.396   3.675
 7095SOL    HW222185   1.982   4.345   3.720
 7096SOL     OW22186   6.836   5.633   0.119
 7096SOL    HW122187   6.910   5.684   0.075
 7096SOL    HW222188   6.865   5.604   0.210
 7097SOL     OW22189   4.802   1.890   2.724
 7097SOL    HW122190   4.846   1.849   2.804
 7097SOL    HW222191   4.779   1.985   2.745
 7098SOL     OW22192   0.662   1.225   2.733
 7098SOL    HW122193   0.756   1.209   2.702
 7098SOL    HW222194   0.659   1.217   2.833
 7099SOL     OW22195   3.337   2.032   4.607
 7099SOL    HW122196   3.277   2.045   4.686
 7099SOL    HW222197   3.333   1.936   4.578
 7100SOL     OW22198   0.480   3.996   1.538
 7100SOL    HW122199   0.497   4.085   1.496
 7100SOL    HW222200   0.381   3.977   1.537
 7101SOL     OW22201   2.628   5.536   4.363
 7101SOL    HW122202   2.715   5.584   4.374
 7101SOL    HW222203   2.590   5.555   4.273
 7102SOL     OW22204   5.655   1.313   2.678
 7102SOL    HW122205   5.636   1.377   2.603
 7102SOL    HW222206   5.600   1.337   2.757
 7103SOL     OW22207   6.185   3.587   4.179
 7103SOL    HW122208   6.125   3.664   4.202
 7103SOL    HW222209   6.188   3.523   4.256
 7104SOL     OW22210   4.609   2.688   4.132
 7104SOL    HW122211   4.559   2.619   4.080
 7104SOL    HW222212   4.550   2.726   4.203
 7105SOL     OW22213   3.031   4.020   2.098
 7105SOL    HW122214   2.974   4.087   2.145
 7105SOL    HW222215   3.120   4.014   2.143
 7106SOL     OW22216   2.679   2.212   2.525
 7106SOL    HW122217   2.710   2.220   2.430
 7106SOL    HW222218   2.671   2.116   2.549
 7107SOL     OW22219   4.390   0.670   0.507
 7107SOL    HW122220   4.471   0.686   0.450
 7107SOL    HW222221   4.312   0.650   0.447
 7108SOL     OW22222   3.020   6.857   1.553
 7108SOL    HW122223   2.982   6.772   1.590
 7108SOL    HW222224   3.031   6.847   1.454
 7109SOL     OW22225   2.445   4.995   5.829
 7109SOL    HW122226   2.472   4.988   5.925
 7109SOL    HW222227   2.350   4.963   5.819
 7110SOL     OW22228   2.837   5.602   5.772
 7110SOL    HW122229   2.908   5.659   5.813
 7110SOL    HW222230   2.750   5.617   5.820
 7111SOL     OW22231   6.449   1.009   4.765
 7111SOL    HW122232   6.504   1.036   4.844
 7111SOL    HW222233   6.409   0.919   4.781
 7112SOL     OW22234   6.299   5.202   5.031
 7112SOL    HW122235   6.384   5.190   5.082
 7112SOL    HW222236   6.312   5.271   4.959
 7113SOL     OW22237   3.218   0.040   4.988
 7113SOL    HW122238   3.281   6.988   4.974
 7113SOL    HW222239   3.269   0.122   5.012
 7114SOL     OW22240   5.551   4.287   7.004
 7114SOL    HW122241   5.517   4.205   0.024
 7114SOL    HW222242   5.591   4.349   0.047
 7115SOL     OW22243   4.734   3.180   5.968
 7115SOL    HW122244   4.731   3.105   5.902
 7115SOL    HW222245   4.689   3.260   5.929
 7116SOL     OW22246   6.199   5.148   4.649
 7116SOL    HW122247   6.259   5.181   4.576
 7116SOL    HW222248   6.115   5.202   4.651
 7117SOL     OW22249   4.041   0.577   3.059
 7117SOL    HW122250   4.064   0.486   3.025
 7117SOL    HW222251   3.942   0.584   3.070
 7118SOL     OW22252   4.564   4.074   5.600
 7118SOL    HW122253   4.659   4.103   5.601
 7118SOL    HW222254   4.537   4.050   5.507
 7119SOL     OW22255   2.706   6.419   4.365
 7119SOL    HW122256   2.731   6.506   4.322
 7119SOL    HW222257   2.612   6.396   4.342
 7120SOL     OW22258   4.414   1.600   2.336
 7120SOL    HW122259   4.362   1.582   2.253
 7120SOL    HW222260   4.352   1.628   2.409
 7121SOL     OW22261   1.456   6.091   1.937
 7121SOL    HW122262   1.531   6.037   1.900
 7121SOL    HW222263   1.384   6.099   1.868
 7122SOL     OW22264   3.303   1.996   6.080
 7122SOL    HW122265   3.376   1.934   6.108
 7122SOL    HW222266   3.228   1.990   6.146
 7123SOL     OW22267   5.270   4.613   6.647
 7123SOL    HW122268   5.205   4.683   6.619
 7123SOL    HW222269   5.234   4.522   6.626
 7124SOL     OW22270   2.929   2.956   6.405
 7124SOL    HW122271   3.017   2.956   6.357
 7124SOL    HW222272   2.940   2.912   6.494
 7125SOL     OW22273   0.938   6.185   1.526
 7125SOL    HW122274   0.935   6.140   1.437
 7125SOL    HW222275   1.019   6.156   1.576
 7126SOL     OW22276   3.982   4.908   0.861
 7126SOL    HW122277   3.943   4.917   0.769
 7126SOL    HW222278   3.909   4.884   0.926
 7127SOL     OW22279   2.746   6.577   5.115
 7127SOL    HW122280   2.790   6.591   5.204
 7127SOL    HW222281   2.703   6.662   5.085
 7128SOL     OW22282   3.562   4.165   0.202
 7128SOL    HW122283   3.586   4.145   0.107
 7128SOL    HW222284   3.511   4.088   0.240
 7129SOL     OW22285   0.119   2.018   0.100
 7129SOL    HW122286   0.021   2.017   0.118
 7129SOL    HW222287   0.144   2.104   0.054
 7130SOL     OW22288   3.591   0.268   3.985
 7130SOL    HW122289   3.531   0.333   3.937
 7130SOL    HW222290   3.641   0.316   4.057
 7131SOL     OW22291   2.138   1.616   3.010
 7131SOL    HW122292   2.081   1.565   3.073
 7131SOL    HW222293   2.092   1.625   2.921
 7132SOL     OW22294   5.384   4.983   1.886
 7132SOL    HW122295   5.347   4.992   1.978
 7132SOL    HW222296   5.418   4.890   1.873
 7133SOL     OW22297   3.139   5.845   2.333
 7133SOL    HW122298   3.130   5.942   2.355
 7133SOL    HW222299   3.153   5.834   2.235
 7134SOL     OW22300   4.984   4.718   6.891
 7134SOL    HW122301   5.033   4.804   6.903
 7134SOL    HW222302   4.965   4.703   6.794
 7135SOL     OW22303   2.290   4.717   1.320
 7135SOL    HW122304   2.265   4.627   1.355
 7135SOL    HW222305   2.333   4.707   1.230
 7136SOL     OW22306   1.443   3.263   2.588
 7136SOL    HW122307   1.399   3.316   2.516
 7136SOL    HW222308   1.456   3.168   2.557
 7137SOL     OW22309   1.903   0.144   2.089
 7137SOL    HW122310   1.995   0.107   2.099
 7137SOL    HW222311   1.836   0.070   2.099
 7138SOL     OW22312   6.634   3.809   0.380
 7138SOL    HW122313   6.535   3.811   0.367
 7138SOL    HW222314   6.657   3.856   0.465
 7139SOL     OW22315   5.742   6.044   0.998
 7139SOL    HW122316   5.712   6.137   1.019
 7139SOL    HW222317   5.760   6.037   0.900
 7140SOL     OW22318   0.151   4.456   0.605
 7140SOL    HW122319   0.205   4.488   0.527
 7140SOL    HW222320   0.176   4.508   0.687
 7141SOL     OW22321   2.762   1.889   0.623
 7141SOL    HW122322   2.732   1.939   0.705
 7141SOL    HW222323   2.712   1.802   0.617
 7142SOL     OW22324   4.628   6.433   5.581
 7142SOL    HW122325   4.635   6.387   5.492
 7142SOL    HW222326   4.642   6.367   5.654
 7143SOL     OW22327   3.331   2.900   5.834
 7143SOL    HW122328   3.396   2.908   5.909
 7143SOL    HW222329   3.374   2.933   5.749
 7144SOL     OW22330   6.232   1.484   5.727
 7144SOL    HW122331   6.205   1.437   5.643
 7144SOL    HW222332   6.309   1.436   5.769
 7145SOL     OW22333   0.377   3.265   6.924
 7145SOL    HW122334   0.472   3.254   6.951
 7145SOL    HW222335   0.324   3.187   6.956
 7146SOL     OW22336   0.150   1.728   4.604
 7146SOL    HW122337   0.174   1.769   4.692
 7146SOL    HW222338   0.184   1.786   4.530
 7147SOL     OW22339   6.990   0.159   0.544
 7147SOL    HW122340   6.951   0.160   0.452
 7147SOL    HW222341   0.064   0.144   0.539
 7148SOL     OW22342   5.357   6.420   0.817
 7148SOL    HW122343   5.323   6.449   0.727
 7148SOL    HW222344   5.425   6.486   0.850
 7149SOL     OW22345   6.212   4.054   6.755
 7149SOL    HW122346   6.154   4.133   6.738
 7149SOL    HW222347   6.304   4.071   6.718
 7150SOL     OW22348   2.866   2.004   6.984
 7150SOL    HW122349   2.893   1.975   6.893
 7150SOL    HW222350   2.938   1.981   0.025
 7151SOL     OW22351   5.600   2.172   0.123
 7151SOL    HW122352   5.536   2.171   0.046
 7151SOL    HW222353   5.683   2.221   0.097
 7152SOL     OW22354   5.485   0.457   5.123
 7152SOL    HW122355   5.569   0.408   5.102
 7152SOL    HW222356   5.505   0.555   5.134
 7153SOL     OW22357   5.282   5.865   0.598
 7153SOL    HW122358   5.200   5.842   0.545
 7153SOL    HW222359   5.353   5.797   0.583
 7154SOL     OW22360   4.991   0.312   1.755
 7154SOL    HW122361   5.086   0.287   1.734
 7154SOL    HW222362   4.989   0.407   1.788
 7155SOL     OW22363   2.047   0.384   1.165
 7155SOL    HW122364   2.140   0.366   1.133
 7155SOL    HW222365   1.982   0.325   1.115
 7156SOL     OW22366   6.132   3.061   5.475
 7156SOL    HW122367   6.180   3.036   5.559
 7156SOL    HW222368   6.152   2.994   5.403
 7157SOL     OW22369   6.838   3.583   5.256
 7157SOL    HW122370   6.854   3.650   5.183
 7157SOL    HW222371   6.793   3.628   5.333
 7158SOL     OW22372   4.644   0.378   4.089
 7158SOL    HW122373   4.684   0.365   3.998
 7158SOL    HW222374   4.689   0.317   4.154
 7159SOL     OW22375   0.451   6.435   3.014
 7159SOL    HW122376   0.446   6.529   2.980
 7159SOL    HW222377   0.546   6.412   3.033
 7160SOL     OW22378   5.560   6.755   2.825
 7160SOL    HW122379   5.468   6.794   2.820
 7160SOL    HW222380   5.619   6.801   2.760
 7161SOL     OW22381   3.803   3.282   1.997
 7161SOL    HW122382   3.795   3.316   2.091
 7161SOL    HW222383   3.744   3.336   1.937
 7162SOL     OW22384   0.890   6.166   0.739
 7162SOL    HW122385   0.797   6.186   0.710
 7162SOL    HW222386   0.955   6.197   0.669
 7163SOL     OW22387   6.885   6.842   0.277
 7163SOL    HW122388   6.854   6.868   0.368
 7163SOL    HW222389   6.815   6.787   0.232
 7164SOL     OW22390   1.538   6.279   0.017
 7164SOL    HW122391   1.532   6.264   6.943
 7164SOL    HW222392   1.528   6.377   0.036
 7165SOL     OW22393   4.056   2.240   6.447
 7165SOL    HW122394   4.042   2.295   6.529
 7165SOL    HW222395   3.997   2.160   6.448
 7166SOL     OW22396   6.798   6.346   4.852
 7166SOL    HW122397   6.762   6.400   4.928
 7166SOL    HW222398   6.754   6.375   4.766
 7167SOL     OW22399   0.708   3.229   5.451
 7167SOL    HW122400   0.681   3.223   5.355
 7167SOL    HW222401   0.783   3.295   5.461
 7168SOL     OW22402   1.001   0.048   2.390
 7168SOL    HW122403   0.994   7.001   2.320
 7168SOL    HW222404   1.059   0.015   2.465
 7169SOL     OW22405   1.583   4.745   6.002
 7169SOL    HW122406   1.511   4.805   6.038
 7169SOL    HW222407   1.551   4.650   6.004
 7170SOL     OW22408   4.221   2.152   1.520
 7170SOL    HW122409   4.228   2.136   1.618
 7170SOL    HW222410   4.128   2.179   1.497
 7171SOL     OW22411   0.683   5.331   1.540
 7171SOL    HW122412   0.718   5.239   1.521
 7171SOL    HW222413   0.584   5.332   1.527
 7172SOL     OW22414   1.251   2.784   3.551
 7172SOL    HW122415   1.207   2.756   3.637
 7172SOL    HW222416   1.309   2.863   3.568
 7173SOL     OW22417   3.228   5.525   4.488
 7173SOL    HW122418   3.235   5.427   4.470
 7173SOL    HW222419   3.217   5.539   4.587
 7174SOL     OW22420   6.794   3.564   2.247
 7174SOL    HW122421   6.796   3.662   2.270
 7174SOL    HW222422   6.886   3.527   2.254
 7175SOL     OW22423   6.586   3.382   6.125
 7175SOL    HW122424   6.655   3.367   6.195
 7175SOL    HW222425   6.569   3.297   6.075
 7176SOL     OW22426   6.688   1.743   6.786
 7176SOL    HW122427   6.693   1.660   6.842
 7176SOL    HW222428   6.593   1.770   6.774
 7177SOL     OW22429   0.997   5.905   3.501
 7177SOL    HW122430   0.972   5.932   3.594
 7177SOL    HW222431   1.076   5.959   3.471
 7178SOL     OW22432   0.934   6.621   5.600
 7178SOL    HW122433   0.965   6.602   5.693
 7178SOL    HW222434   0.914   6.719   5.591
 7179SOL     OW22435   5.055   3.969   5.952
 7179SOL    HW122436   5.007   4.044   5.907
 7179SOL    HW222437   5.112   3.921   5.886
 7180SOL     OW22438   0.223   2.391   2.114
 7180SOL    HW122439   0.281   2.472   2.104
 7180SOL    HW222440   0.129   2.414   2.090
 7181SOL     OW22441   3.288   0.216   0.281
 7181SOL    HW122442   3.189   0.232   0.278
 7181SOL    HW222443   3.334   0.299   0.310
 7182SOL     OW22444   2.145   1.024   2.712
 7182SOL    HW122445   2.170   0.934   2.677
 7182SOL    HW222446   2.201   1.094   2.668
 7183SOL     OW22447   1.705   0.266   1.073
 7183SOL    HW122448   1.690   0.230   1.165
 7183SOL    HW222449   1.788   0.226   1.034
 7184SOL     OW22450   0.274   1.398   3.514
 7184SOL    HW122451   0.248   1.437   3.426
 7184SOL    HW222452   0.241   1.303   3.519
 7185SOL     OW22453   3.786   0.426   3.520
 7185SOL    HW122454   3.884   0.410   3.507
 7185SOL    HW222455   3.773   0.492   3.595
 7186SOL     OW22456   6.364   2.063   6.730
 7186SOL    HW122457   6.353   2.102   6.822
 7186SOL    HW222458   6.314   2.119   6.664
 7187SOL     OW22459   3.644   3.578   4.198
 7187SOL    HW122460   3.600   3.488   4.188
 7187SOL    HW222461   3.646   3.623   4.109
 7188SOL     OW22462   5.099   4.587   0.072
 7188SOL    HW122463   5.065   4.629   7.012
 7188SOL    HW222464   5.194   4.558   0.059
 7189SOL     OW22465   6.736   2.049   5.786
 7189SOL    HW122466   6.753   2.141   5.822
 7189SOL    HW222467   6.640   2.040   5.760
 7190SOL     OW22468   5.785   6.059   0.742
 7190SOL    HW122469   5.881   6.057   0.715
 7190SOL    HW222470   5.732   6.000   0.680
 7191SOL     OW22471   0.144   4.872   2.797
 7191SOL    HW122472   0.181   4.861   2.705
 7191SOL    HW222473   0.192   4.810   2.860
 7192SOL     OW22474   3.473   4.008   5.693
 7192SOL    HW122475   3.424   4.080   5.644
 7192SOL    HW222476   3.520   3.949   5.627
 7193SOL     OW22477   3.740   1.346   3.272
 7193SOL    HW122478   3.824   1.355   3.326
 7193SOL    HW222479   3.756   1.288   3.192
 7194SOL     OW22480   3.604   2.173   5.287
 7194SOL    HW122481   3.672   2.119   5.338
 7194SOL    HW222482   3.618   2.159   5.189
 7195SOL     OW22483   0.562   4.237   5.478
 7195SOL    HW122484   0.573   4.145   5.441
 7195SOL    HW222485   0.524   4.296   5.406
 7196SOL     OW22486   3.017   3.991   1.789
 7196SOL    HW122487   3.069   4.060   1.739
 7196SOL    HW222488   2.999   4.023   1.882
 7197SOL     OW22489   3.686   4.304   6.226
 7197SOL    HW122490   3.645   4.342   6.309
 7197SOL    HW222491   3.615   4.260   6.171
 7198SOL     OW22492   1.118   0.285   2.301
 7198SOL    HW122493   1.172   0.252   2.223
 7198SOL    HW222494   1.081   0.207   2.351
 7199SOL     OW22495   6.051   0.740   3.306
 7199SOL    HW122496   6.141   0.765   3.269
 7199SOL    HW222497   5.986   0.729   3.230
 7200SOL     OW22498   0.535   3.975   6.704
 7200SOL    HW122499   0.453   3.917   6.708
 7200SOL    HW222500   0.573   3.972   6.612
 7201SOL     OW22501   5.611   5.982   4.454
 7201SOL    HW122502   5.550   5.939   4.388
 7201SOL    HW222503   5.561   6.001   4.539
 7202SOL     OW22504   5.055   0.583   5.887
 7202SOL    HW122505   5.117   0.608   5.961
 7202SOL    HW222506   5.087   0.623   5.801
 7203SOL     OW22507   1.159   1.868   0.998
 7203SOL    HW122508   1.146   1.946   0.936
 7203SOL    HW222509   1.208   1.795   0.950
 7204SOL     OW22510   6.061   0.753   2.865
 7204SOL    HW122511   6.039   0.836   2.917
 7204SOL    HW222512   5.982   0.725   2.811
 7205SOL     OW22513   2.647   1.827   4.010
 7205SOL    HW122514   2.702   1.871   3.939
 7205SOL    HW222515   2.615   1.896   4.074
 7206SOL     OW22516   2.234   2.980   6.312
 7206SOL    HW122517   2.173   2.906   6.338
 7206SOL    HW222518   2.180   3.056   6.275
 7207SOL     OW22519   1.717   2.148   3.333
 7207SOL    HW122520   1.644   2.169   3.397
 7207SOL    HW222521   1.738   2.050   3.337
 7208SOL     OW22522   3.031   0.003   3.694
 7208SOL    HW122523   3.085   0.079   3.731
 7208SOL    HW222524   3.084   6.980   3.624
 7209SOL     OW22525   4.056   0.790   2.196
 7209SOL    HW122526   4.133   0.795   2.133
 7209SOL    HW222527   4.069   0.856   2.271
 7210SOL     OW22528   3.226   1.225   4.350
 7210SOL    HW122529   3.237   1.146   4.410
 7210SOL    HW222530   3.188   1.301   4.402
 7211SOL     OW22531   4.432   5.954   6.031
 7211SOL    HW122532   4.406   5.985   6.123
 7211SOL    HW222533   4.384   6.009   5.963
 7212SOL     OW22534   0.696   5.970   4.493
 7212SOL    HW122535   0.600   5.943   4.497
 7212SOL    HW222536   0.730   5.961   4.399
 7213SOL     OW22537   4.565   2.306   0.205
 7213SOL    HW122538   4.613   2.236   0.152
 7213SOL    HW222539   4.629   2.348   0.270
 7214SOL     OW22540   6.398   1.317   5.905
 7214SOL    HW122541   6.442   1.250   5.845
 7214SOL    HW222542   6.349   1.269   5.978
 7215SOL     OW22543   6.152   1.508   2.518
 7215SOL    HW122544   6.126   1.598   2.482
 7215SOL    HW222545   6.072   1.450   2.525
 7216SOL     OW22546   5.670   6.602   3.908
 7216SOL    HW122547   5.654   6.618   4.005
 7216SOL    HW222548   5.765   6.622   3.886
 7217SOL     OW22549   1.215   3.265   3.167
 7217SOL    HW122550   1.292   3.211   3.201
 7217SOL    HW222551   1.229   3.361   3.190
 7218SOL     OW22552   6.615   2.655   5.373
 7218SOL    HW122553   6.696   2.596   5.368
 7218SOL    HW222554   6.624   2.729   5.307
 7219SOL     OW22555   3.240   5.838   1.753
 7219SOL    HW122556   3.303   5.769   1.789
 7219SOL    HW222557   3.267   5.863   1.661
 7220SOL     OW22558   6.865   3.365   3.668
 7220SOL    HW122559   6.793   3.433   3.679
 7220SOL    HW222560   6.848   3.287   3.727
 7221SOL     OW22561   4.666   4.986   3.541
 7221SOL    HW122562   4.734   4.913   3.535
 7221SOL    HW222563   4.631   4.992   3.634
 7222SOL     OW22564   6.678   6.057   3.841
 7222SOL    HW122565   6.699   6.070   3.745
 7222SOL    HW222566   6.599   6.112   3.866
 7223SOL     OW22567   6.761   5.834   1.937
 7223SOL    HW122568   6.844   5.797   1.896
 7223SOL    HW222569   6.709   5.885   1.869
 7224SOL     OW22570   5.140   2.502   2.279
 7224SOL    HW122571   5.159   2.438   2.353
 7224SOL    HW222572   5.155   2.457   2.191
 7225SOL     OW22573   0.759   5.630   0.198
 7225SOL    HW122574   0.706   5.574   0.134
 7225SOL    HW222575   0.799   5.572   0.268
 7226SOL     OW22576   6.329   6.461   0.119
 7226SOL    HW122577   6.409   6.456   0.179
 7226SOL    HW222578   6.285   6.372   0.114
 7227SOL     OW22579   1.827   1.088   2.063
 7227SOL    HW122580   1.890   1.073   2.138
 7227SOL    HW222581   1.793   1.182   2.067
 7228SOL     OW22582   5.827   3.106   2.983
 7228SOL    HW122583   5.768   3.025   2.985
 7228SOL    HW222584   5.773   3.188   3.002
 7229SOL     OW22585   6.422   0.236   5.259
 7229SOL    HW122586   6.434   0.197   5.350
 7229SOL    HW222587   6.488   0.309   5.245
 7230SOL     OW22588   2.093   4.744   5.167
 7230SOL    HW122589   2.175   4.694   5.196
 7230SOL    HW222590   2.085   4.739   5.067
 7231SOL     OW22591   3.880   3.160   6.275
 7231SOL    HW122592   3.874   3.233   6.207
 7231SOL    HW222593   3.842   3.192   6.362
 7232SOL     OW22594   4.513   5.926   3.424
 7232SOL    HW122595   4.435   5.965   3.472
 7232SOL    HW222596   4.540   5.841   3.468
 7233SOL     OW22597   0.146   1.873   6.274
 7233SOL    HW122598   0.119   1.969   6.265
 7233SOL    HW222599   0.070   1.821   6.313
 7234SOL     OW22600   5.779   4.837   2.882
 7234SOL    HW122601   5.789   4.935   2.898
 7234SOL    HW222602   5.869   4.794   2.881
 7235SOL     OW22603   6.749   0.633   1.505
 7235SOL    HW122604   6.726   0.730   1.512
 7235SOL    HW222605   6.705   0.583   1.579
 7236SOL     OW22606   0.580   3.778   2.689
 7236SOL    HW122607   0.583   3.791   2.590
 7236SOL    HW222608   0.486   3.784   2.721
 7237SOL     OW22609   5.311   1.201   0.107
 7237SOL    HW122610   5.285   1.224   0.201
 7237SOL    HW222611   5.376   1.270   0.073
 7238SOL     OW22612   4.264   3.134   0.128
 7238SOL    HW122613   4.242   3.226   0.162
 7238SOL    HW222614   4.360   3.132   0.100
 7239SOL     OW22615   5.755   2.992   1.609
 7239SOL    HW122616   5.792   3.077   1.571
 7239SOL    HW222617   5.772   2.917   1.545
 7240SOL     OW22618   0.319   2.107   0.242
 7240SOL    HW122619   0.256   2.065   0.177
 7240SOL    HW222620   0.289   2.089   0.335
 7241SOL     OW22621   2.035   0.321   2.726
 7241SOL    HW122622   2.077   0.230   2.725
 7241SOL    HW222623   1.945   0.316   2.768
 7242SOL     OW22624   6.343   3.968   5.650
 7242SOL    HW122625   6.414   4.039   5.653
 7242SOL    HW222626   6.356   3.904   5.726
 7243SOL     OW22627   5.815   4.823   6.248
 7243SOL    HW122628   5.771   4.764   6.316
 7243SOL    HW222629   5.836   4.770   6.166
 7244SOL     OW22630   6.788   6.036   6.469
 7244SOL    HW122631   6.692   6.032   6.440
 7244SOL    HW222632   6.809   5.956   6.524
 7245SOL     OW22633   1.369   2.234   6.985
 7245SOL    HW122634   1.315   2.289   0.024
 7245SOL    HW222635   1.379   2.142   7.022
 7246SOL     OW22636   4.306   6.689   3.948
 7246SOL    HW122637   4.360   6.724   4.024
 7246SOL    HW222638   4.237   6.626   3.983
 7247SOL     OW22639   3.301   4.152   4.818
 7247SOL    HW122640   3.327   4.210   4.741
 7247SOL    HW222641   3.350   4.183   4.900
 7248SOL     OW22642   2.385   1.515   5.168
 7248SOL    HW122643   2.319   1.533   5.095
 7248SOL    HW222644   2.421   1.602   5.203
 7249SOL     OW22645   3.006   5.752   2.698
 7249SOL    HW122646   2.935   5.812   2.661
 7249SOL    HW222647   3.080   5.807   2.737
 7250SOL     OW22648   5.161   5.411   5.756
 7250SOL    HW122649   5.175   5.474   5.679
 7250SOL    HW222650   5.243   5.355   5.768
 7251SOL     OW22651   0.732   6.251   4.446
 7251SOL    HW122652   0.797   6.267   4.371
 7251SOL    HW222653   0.749   6.161   4.486
 7252SOL     OW22654   3.900   3.871   2.277
 7252SOL    HW122655   3.926   3.927   2.355
 7252SOL    HW222656   3.969   3.801   2.261
 7253SOL     OW22657   2.105   5.343   5.069
 7253SOL    HW122658   2.131   5.424   5.017
 7253SOL    HW222659   2.029   5.365   5.130
 7254SOL     OW22660   6.907   3.310   4.070
 7254SOL    HW122661   6.834   3.279   4.009
 7254SOL    HW222662   6.867   3.344   4.155
 7255SOL     OW22663   4.551   4.043   0.489
 7255SOL    HW122664   4.630   4.089   0.529
 7255SOL    HW222665   4.543   3.951   0.528
 7256SOL     OW22666   3.124   6.721   4.150
 7256SOL    HW122667   3.155   6.667   4.229
 7256SOL    HW222668   3.052   6.670   4.101
 7257SOL     OW22669   0.863   1.049   5.234
 7257SOL    HW122670   0.912   1.091   5.158
 7257SOL    HW222671   0.779   1.100   5.252
 7258SOL     OW22672   6.062   2.619   2.402
 7258SOL    HW122673   6.026   2.706   2.369
 7258SOL    HW222674   6.097   2.631   2.495
 7259SOL     OW22675   0.870   4.316   2.528
 7259SOL    HW122676   0.853   4.218   2.537
 7259SOL    HW222677   0.900   4.337   2.435
 7260SOL     OW22678   6.300   3.187   1.093
 7260SOL    HW122679   6.330   3.265   1.148
 7260SOL    HW222680   6.379   3.146   1.047
 7261SOL     OW22681   0.480   4.216   0.038
 7261SOL    HW122682   0.488   4.313   0.061
 7261SOL    HW222683   0.557   4.189   7.004
 7262SOL     OW22684   3.948   0.390   5.222
 7262SOL    HW122685   3.926   0.455   5.150
 7262SOL    HW222686   4.000   0.436   5.294
 7263SOL     OW22687   6.300   5.488   5.200
 7263SOL    HW122688   6.221   5.506   5.259
 7263SOL    HW222689   6.270   5.474   5.106
 7264SOL     OW22690   5.576   1.173   1.642
 7264SOL    HW122691   5.503   1.141   1.704
 7264SOL    HW222692   5.580   1.113   1.562
 7265SOL     OW22693   3.683   0.272   5.858
 7265SOL    HW122694   3.754   0.311   5.916
 7265SOL    HW222695   3.716   0.189   5.815
 7266SOL     OW22696   6.730   1.015   3.250
 7266SOL    HW122697   6.778   0.987   3.333
 7266SOL    HW222698   6.685   1.103   3.265
 7267SOL     OW22699   6.839   3.928   5.069
 7267SOL    HW122700   6.936   3.906   5.073
 7267SOL    HW222701   6.785   3.844   5.076
 7268SOL     OW22702   5.538   6.389   4.380
 7268SOL    HW122703   5.593   6.355   4.304
 7268SOL    HW222704   5.597   6.409   4.458
 7269SOL     OW22705   2.788   5.363   4.154
 7269SOL    HW122706   2.749   5.365   4.247
 7269SOL    HW222707   2.725   5.317   4.092
 7270SOL     OW22708   0.262   0.385   4.709
 7270SOL    HW122709   0.352   0.425   4.695
 7270SOL    HW222710   0.206   0.401   4.628
 7271SOL     OW22711   0.657   4.691   3.236
 7271SOL    HW122712   0.664   4.713   3.333
 7271SOL    HW222713   0.670   4.775   3.182
 7272SOL     OW22714   5.991   4.185   1.447
 7272SOL    HW122715   5.934   4.136   1.513
 7272SOL    HW222716   5.934   4.243   1.390
 7273SOL     OW22717   0.170   1.246   5.282
 7273SOL    HW122718   0.193   1.183   5.208
 7273SOL    HW222719   0.158   1.194   5.367
 7274SOL     OW22720   0.047   5.282   6.214
 7274SOL    HW122721   7.006   5.206   6.217
 7274SOL    HW222722   0.116   5.264   6.144
 7275SOL     OW22723   0.776   5.349   3.427
 7275SOL    HW122724   0.848   5.345   3.358
 7275SOL    HW222725   0.742   5.443   3.434
 7276SOL     OW22726   4.752   6.286   3.526
 7276SOL    HW122727   4.805   6.295   3.442
 7276SOL    HW222728   4.666   6.336   3.517
 7277SOL     OW22729   5.081   0.703   0.426
 7277SOL    HW122730   5.132   0.625   0.462
 7277SOL    HW222731   5.127   0.788   0.450
 7278SOL     OW22732   3.560   2.846   2.472
 7278SOL    HW122733   3.649   2.887   2.489
 7278SOL    HW222734   3.568   2.746   2.477
 7279SOL     OW22735   3.690   6.578   6.113
 7279SOL    HW122736   3.686   6.504   6.181
 7279SOL    HW222737   3.629   6.556   6.036
 7280SOL     OW22738   4.852   1.195   6.271
 7280SOL    HW122739   4.933   1.254   6.281
 7280SOL    HW222740   4.773   1.242   6.309
 7281SOL     OW22741   5.584   1.255   6.175
 7281SOL    HW122742   5.505   1.255   6.236
 7281SOL    HW222743   5.585   1.171   6.121
 7282SOL     OW22744   5.915   6.029   2.803
 7282SOL    HW122745   5.842   5.962   2.815
 7282SOL    HW222746   5.895   6.111   2.857
 7283SOL     OW22747   2.135   1.617   3.754
 7283SOL    HW122748   2.204   1.637   3.685
 7283SOL    HW222749   2.131   1.519   3.770
 7284SOL     OW22750   1.510   1.885   5.409
 7284SOL    HW122751   1.469   1.966   5.368
 7284SOL    HW222752   1.445   1.809   5.407
 7285SOL     OW22753   6.094   5.286   1.815
 7285SOL    HW122754   6.113   5.267   1.911
 7285SOL    HW222755   6.057   5.378   1.805
 7286SOL     OW22756   1.703   3.952   0.841
 7286SOL    HW122757   1.706   4.051   0.824
 7286SOL    HW222758   1.771   3.928   0.910
 7287SOL     OW22759   6.455   1.742   5.744
 7287SOL    HW122760   6.456   1.656   5.796
 7287SOL    HW222761   6.370   1.749   5.693
 7288SOL     OW22762   2.739   0.354   0.230
 7288SOL    HW122763   2.828   0.310   0.232
 7288SOL    HW222764   2.730   0.417   0.307
 7289SOL     OW22765   4.647   2.294   4.159
 7289SOL    HW122766   4.567   2.328   4.208
 7289SOL    HW222767   4.624   2.279   4.063
 7290SOL     OW22768   2.493   5.566   4.621
 7290SOL    HW122769   2.542   5.514   4.691
 7290SOL    HW222770   2.526   5.539   4.531
 7291SOL     OW22771   3.537   4.675   1.425
 7291SOL    HW122772   3.617   4.691   1.482
 7291SOL    HW222773   3.460   4.647   1.483
 7292SOL     OW22774   3.503   0.063   4.728
 7292SOL    HW122775   3.476   0.116   4.647
 7292SOL    HW222776   3.430   0.067   4.796
 7293SOL     OW22777   2.282   1.353   6.653
 7293SOL    HW122778   2.333   1.307   6.581
 7293SOL    HW222779   2.310   1.318   6.742
 7294SOL     OW22780   5.501   5.452   0.002
 7294SOL    HW122781   5.450   5.468   6.941
 7294SOL    HW222782   5.553   5.367   7.019
 7295SOL     OW22783   4.644   0.212   1.517
 7295SOL    HW122784   4.731   0.260   1.519
 7295SOL    HW222785   4.574   0.267   1.563
 7296SOL     OW22786   4.340   5.376   1.208
 7296SOL    HW122787   4.348   5.458   1.151
 7296SOL    HW222788   4.257   5.326   1.182
 7297SOL     OW22789   4.888   6.732   2.081
 7297SOL    HW122790   4.965   6.761   2.025
 7297SOL    HW222791   4.835   6.811   2.110
 7298SOL     OW22792   6.454   3.318   4.214
 7298SOL    HW122793   6.388   3.266   4.268
 7298SOL    HW222794   6.433   3.308   4.117
 7299SOL     OW22795   5.752   3.291   6.810
 7299SOL    HW122796   5.758   3.284   6.711
 7299SOL    HW222797   5.663   3.329   6.836
 7300SOL     OW22798   4.773   5.817   1.526
 7300SOL    HW122799   4.804   5.729   1.562
 7300SOL    HW222800   4.755   5.809   1.428
 7301SOL     OW22801   6.697   1.498   6.473
 7301SOL    HW122802   6.667   1.544   6.556
 7301SOL    HW222803   6.685   1.559   6.395
 7302SOL     OW22804   5.826   0.775   6.188
 7302SOL    HW122805   5.846   0.821   6.102
 7302SOL    HW222806   5.911   0.758   6.237
 7303SOL     OW22807   4.103   0.700   0.773
 7303SOL    HW122808   4.055   0.675   0.857
 7303SOL    HW222809   4.086   0.630   0.703
 7304SOL     OW22810   3.675   3.027   5.164
 7304SOL    HW122811   3.669   2.936   5.125
 7304SOL    HW222812   3.692   3.020   5.263
 7305SOL     OW22813   5.665   1.863   0.387
 7305SOL    HW122814   5.629   1.824   0.472
 7305SOL    HW222815   5.658   1.963   0.391
 7306SOL     OW22816   4.917   4.800   2.105
 7306SOL    HW122817   4.928   4.847   2.193
 7306SOL    HW222818   4.982   4.724   2.100
 7307SOL     OW22819   4.502   6.367   2.201
 7307SOL    HW122820   4.486   6.309   2.121
 7307SOL    HW222821   4.507   6.310   2.283
 7308SOL     OW22822   6.100   0.832   4.317
 7308SOL    HW122823   6.110   0.798   4.224
 7308SOL    HW222824   6.024   0.897   4.321
 7309SOL     OW22825   4.416   5.160   1.475
 7309SOL    HW122826   4.493   5.098   1.463
 7309SOL    HW222827   4.451   5.253   1.487
 7310SOL     OW22828   1.830   5.625   1.743
 7310SOL    HW122829   1.877   5.548   1.700
 7310SOL    HW222830   1.870   5.643   1.833
 7311SOL     OW22831   2.746   1.920   2.055
 7311SOL    HW122832   2.727   1.858   1.978
 7311SOL    HW222833   2.782   2.006   2.020
 7312SOL     OW22834   6.744   2.424   6.299
 7312SOL    HW122835   6.689   2.452   6.221
 7312SOL    HW222836   6.726   2.328   6.320
 7313SOL     OW22837   3.621   2.169   6.264
 7313SOL    HW122838   3.635   2.192   6.361
 7313SOL    HW222839   3.525   2.184   6.241
 7314SOL     OW22840   0.906   2.520   4.236
 7314SOL    HW122841   0.863   2.488   4.152
 7314SOL    HW222842   0.849   2.592   4.277
 7315SOL     OW22843   0.081   0.793   5.876
 7315SOL    HW122844   0.102   0.734   5.797
 7315SOL    HW222845   7.007   0.793   5.891
 7316SOL     OW22846   3.854   2.954   4.740
 7316SOL    HW122847   3.842   2.997   4.829
 7316SOL    HW222848   3.945   2.913   4.734
 7317SOL     OW22849   2.710   1.111   4.075
 7317SOL    HW122850   2.744   1.204   4.080
 7317SOL    HW222851   2.788   1.047   4.078
 7318SOL     OW22852   1.161   1.467   1.233
 7318SOL    HW122853   1.136   1.396   1.299
 7318SOL    HW222854   1.195   1.423   1.149
 7319SOL     OW22855   0.335   4.001   6.262
 7319SOL    HW122856   0.313   3.998   6.164
 7319SOL    HW222857   0.288   4.078   6.304
 7320SOL     OW22858   0.401   1.704   2.403
 7320SOL    HW122859   0.359   1.672   2.488
 7320SOL    HW222860   0.446   1.627   2.358
 7321SOL     OW22861   2.811   1.623   4.071
 7321SOL    HW122862   2.750   1.693   4.033
 7321SOL    HW222863   2.879   1.667   4.130
 7322SOL     OW22864   0.497   3.407   1.486
 7322SOL    HW122865   0.460   3.470   1.554
 7322SOL    HW222866   0.520   3.320   1.530
 7323SOL     OW22867   2.194   4.076   3.106
 7323SOL    HW122868   2.200   4.109   3.011
 7323SOL    HW222869   2.201   3.977   3.107
 7324SOL     OW22870   5.206   5.067   3.070
 7324SOL    HW122871   5.268   5.010   3.124
 7324SOL    HW222872   5.120   5.077   3.119
 7325SOL     OW22873   3.053   5.905   0.422
 7325SOL    HW122874   3.102   5.826   0.383
 7325SOL    HW222875   3.109   5.946   0.494
 7326SOL     OW22876   2.517   0.848   4.372
 7326SOL    HW122877   2.512   0.890   4.281
 7326SOL    HW222878   2.431   0.802   4.393
 7327SOL     OW22879   1.454   3.243   5.570
 7327SOL    HW122880   1.461   3.188   5.653
 7327SOL    HW222881   1.431   3.184   5.492
 7328SOL     OW22882   2.261   6.974   6.674
 7328SOL    HW122883   2.293   0.041   6.699
 7328SOL    HW222884   2.166   6.979   6.643
 7329SOL     OW22885   4.563   3.465   1.639
 7329SOL    HW122886   4.483   3.500   1.686
 7329SOL    HW222887   4.552   3.367   1.622
 7330SOL     OW22888   4.422   1.918   0.730
 7330SOL    HW122889   4.465   1.951   0.814
 7330SOL    HW222890   4.474   1.839   0.696
 7331SOL     OW22891   4.703   1.524   1.700
 7331SOL    HW122892   4.775   1.466   1.739
 7331SOL    HW222893   4.744   1.592   1.640
 7332SOL     OW22894   3.850   6.066   0.540
 7332SOL    HW122895   3.783   6.091   0.470
 7332SOL    HW222896   3.829   6.115   0.624
 7333SOL     OW22897   0.602   5.046   2.706
 7333SOL    HW122898   0.654   5.113   2.758
 7333SOL    HW222899   0.514   5.085   2.680
 7334SOL     OW22900   3.212   0.152   4.540
 7334SOL    HW122901   3.192   0.168   4.637
 7334SOL    HW222902   3.225   0.054   4.525
 7335SOL     OW22903   2.142   3.538   2.923
 7335SOL    HW122904   2.142   3.549   2.824
 7335SOL    HW222905   2.212   3.470   2.949
 7336SOL     OW22906   1.841   6.375   3.966
 7336SOL    HW122907   1.811   6.291   3.922
 7336SOL    HW222908   1.839   6.364   4.065
 7337SOL     OW22909   4.804   2.455   1.771
 7337SOL    HW122910   4.760   2.544   1.778
 7337SOL    HW222911   4.844   2.445   1.680
 7338SOL     OW22912   7.011   3.220   0.171
 7338SOL    HW122913   0.001   3.152   0.243
 7338SOL    HW222914   6.945   3.288   0.202
 7339SOL     OW22915   1.222   5.653   4.839
 7339SOL    HW122916   1.253   5.618   4.751
 7339SOL    HW222917   1.297   5.700   4.885
 7340SOL     OW22918   2.738   6.415   0.079
 7340SOL    HW122919   2.789   6.435   7.020
 7340SOL    HW222920   2.692   6.498   0.111
 7341SOL     OW22921   6.588   1.929   0.939
 7341SOL    HW122922   6.680   1.890   0.938
 7341SOL    HW222923   6.591   2.022   0.902
 7342SOL     OW22924   0.974   6.164   2.082
 7342SOL    HW122925   0.922   6.219   2.017
 7342SOL    HW222926   0.912   6.107   2.136
 7343SOL     OW22927   6.157   3.125   0.323
 7343SOL    HW122928   6.230   3.075   0.371
 7343SOL    HW222929   6.198   3.193   0.263
 7344SOL     OW22930   2.750   6.562   6.147
 7344SOL    HW122931   2.805   6.561   6.064
 7344SOL    HW222932   2.766   6.478   6.199
 7345SOL     OW22933   3.721   5.751   5.724
 7345SOL    HW122934   3.795   5.814   5.748
 7345SOL    HW222935   3.633   5.797   5.735
 7346SOL     OW22936   4.046   5.209   1.945
 7346SOL    HW122937   3.981   5.134   1.927
 7346SOL    HW222938   3.995   5.293   1.961
 7347SOL     OW22939   5.920   1.315   0.269
 7347SOL    HW122940   5.839   1.299   0.213
 7347SOL    HW222941   5.920   1.410   0.301
 7348SOL     OW22942   6.712   5.145   0.284
 7348SOL    HW122943   6.676   5.053   0.293
 7348SOL    HW222944   6.643   5.211   0.313
 7349SOL     OW22945   3.965   1.716   1.349
 7349SOL    HW122946   3.939   1.714   1.446
 7349SOL    HW222947   4.033   1.787   1.334
 7350SOL     OW22948   3.726   0.807   4.380
 7350SOL    HW122949   3.747   0.743   4.453
 7350SOL    HW222950   3.633   0.841   4.391
 7351SOL     OW22951   2.197   4.686   3.580
 7351SOL    HW122952   2.128   4.698   3.652
 7351SOL    HW222953   2.232   4.592   3.582
 7352SOL     OW22954   5.903   3.234   4.260
 7352SOL    HW122955   5.988   3.257   4.308
 7352SOL    HW222956   5.924   3.173   4.184
 7353SOL     OW22957   6.284   0.974   5.328
 7353SOL    HW122958   6.329   1.063   5.326
 7353SOL    HW222959   6.329   0.912   5.264
 7354SOL     OW22960   0.987   1.767   2.833
 7354SOL    HW122961   0.915   1.706   2.867
 7354SOL    HW222962   1.035   1.722   2.758
 7355SOL     OW22963   3.236   1.744   0.694
 7355SOL    HW122964   3.219   1.741   0.596
 7355SOL    HW222965   3.157   1.707   0.743
 7356SOL     OW22966   4.425   4.293   6.192
 7356SOL    HW122967   4.409   4.281   6.290
 7356SOL    HW222968   4.384   4.380   6.162
 7357SOL     OW22969   4.906   6.476   1.941
 7357SOL    HW122970   4.882   6.563   1.983
 7357SOL    HW222971   4.852   6.464   1.857
 7358SOL     OW22972   4.851   0.145   3.226
 7358SOL    HW122973   4.880   0.087   3.150
 7358SOL    HW222974   4.872   0.240   3.205
 7359SOL     OW22975   4.013   6.845   2.155
 7359SOL    HW122976   4.013   6.753   2.194
 7359SOL    HW222977   4.068   6.905   2.211
 7360SOL     OW22978   2.767   3.820   5.226
 7360SOL    HW122979   2.752   3.749   5.294
 7360SOL    HW222980   2.845   3.795   5.168
 7361SOL     OW22981   6.816   0.475   3.145
 7361SOL    HW122982   6.791   0.541   3.215
 7361SOL    HW222983   6.759   0.490   3.064
 7362SOL     OW22984   3.689   5.699   0.322
 7362SOL    HW122985   3.643   5.635   0.384
 7362SOL    HW222986   3.622   5.735   0.257
 7363SOL     OW22987   4.114   0.876   1.181
 7363SOL    HW122988   4.204   0.861   1.222
 7363SOL    HW222989   4.123   0.928   1.097
 7364SOL     OW22990   6.188   6.274   1.865
 7364SOL    HW122991   6.147   6.327   1.791
 7364SOL    HW222992   6.169   6.318   1.953
 7365SOL     OW22993   4.900   3.673   2.599
 7365SOL    HW122994   4.882   3.576   2.581
 7365SOL    HW222995   4.973   3.705   2.539
 7366SOL     OW22996   2.434   0.139   3.478
 7366SOL    HW122997   2.490   0.166   3.400
 7366SOL    HW222998   2.471   0.056   3.519
 7367SOL     OW22999   4.280   1.095   6.699
 7367SOL    HW123000   4.271   1.065   6.794
 7367SOL    HW223001   4.371   1.133   6.684
 7368SOL     OW23002   3.023   3.452   3.511
 7368SOL    HW123003   2.986   3.441   3.419
 7368SOL    HW223004   2.962   3.409   3.577
 7369SOL     OW23005   5.911   3.867   0.063
 7369SOL    HW123006   5.898   3.960   0.095
 7369SOL    HW223007   5.826   3.833   0.022
 7370SOL     OW23008   1.695   1.528   4.716
 7370SOL    HW123009   1.612   1.501   4.668
 7370SOL    HW223010   1.774   1.483   4.674
 7371SOL     OW23011   3.902   0.769   3.435
 7371SOL    HW123012   3.819   0.728   3.397
 7371SOL    HW223013   3.889   0.789   3.532
 7372SOL     OW23014   4.963   0.891   5.365
 7372SOL    HW123015   5.007   0.945   5.293
 7372SOL    HW223016   4.933   0.804   5.327
 7373SOL     OW23017   5.990   3.029   4.513
 7373SOL    HW123018   5.911   2.977   4.481
 7373SOL    HW223019   6.047   3.054   4.435
 7374SOL     OW23020   0.800   2.446   6.607
 7374SOL    HW123021   0.784   2.542   6.630
 7374SOL    HW223022   0.881   2.439   6.549
 7375SOL     OW23023   2.265   3.138   0.326
 7375SOL    HW123024   2.248   3.202   0.251
 7375SOL    HW223025   2.208   3.163   0.405
 7376SOL     OW23026   6.531   4.943   0.345
 7376SOL    HW123027   6.458   4.893   0.298
 7376SOL    HW223028   6.491   5.007   0.410
 7377SOL     OW23029   2.699   5.600   1.098
 7377SOL    HW123030   2.741   5.624   1.186
 7377SOL    HW223031   2.693   5.501   1.090
 7378SOL     OW23032   1.856   5.186   5.574
 7378SOL    HW123033   1.778   5.134   5.609
 7378SOL    HW223034   1.863   5.173   5.476
 7379SOL     OW23035   4.729   2.016   2.367
 7379SOL    HW123036   4.664   1.946   2.336
 7379SOL    HW223037   4.782   1.980   2.444
 7380SOL     OW23038   5.205   3.705   1.802
 7380SOL    HW123039   5.202   3.689   1.900
 7380SOL    HW223040   5.138   3.646   1.756
 7381SOL     OW23041   3.758   6.518   1.803
 7381SOL    HW123042   3.659   6.526   1.815
 7381SOL    HW223043   3.804   6.567   1.877
 7382SOL     OW23044   0.368   2.249   6.357
 7382SOL    HW123045   0.395   2.209   6.445
 7382SOL    HW223046   0.440   2.233   6.290
 7383SOL     OW23047   2.188   6.707   0.857
 7383SOL    HW123048   2.168   6.805   0.862
 7383SOL    HW223049   2.271   6.692   0.804
 7384SOL     OW23050   6.598   6.742   0.172
 7384SOL    HW123051   6.550   6.809   0.229
 7384SOL    HW223052   6.542   6.722   0.091
 7385SOL     OW23053   6.334   4.803   3.186
 7385SOL    HW123054   6.400   4.729   3.177
 7385SOL    HW223055   6.375   4.888   3.155
 7386SOL     OW23056   5.910   4.425   0.046
 7386SOL    HW123057   5.851   4.491   0.000
 7386SOL    HW223058   5.991   4.409   7.014
 7387SOL     OW23059   6.703   5.494   3.900
 7387SOL    HW123060   6.620   5.465   3.853
 7387SOL    HW223061   6.734   5.582   3.863
 7388SOL     OW23062   2.540   4.544   2.719
 7388SOL    HW123063   2.630   4.579   2.694
 7388SOL    HW223064   2.505   4.485   2.647
 7389SOL     OW23065   6.544   3.031   0.714
 7389SOL    HW123066   6.556   2.932   0.701
 7389SOL    HW223067   6.512   3.048   0.807
 7390SOL     OW23068   2.814   2.161   3.436
 7390SOL    HW123069   2.836   2.226   3.509
 7390SOL    HW223070   2.749   2.094   3.470
 7391SOL     OW23071   3.378   4.166   2.988
 7391SOL    HW123072   3.312   4.135   3.057
 7391SOL    HW223073   3.449   4.222   3.031
 7392SOL     OW23074   3.372   6.601   0.834
 7392SOL    HW123075   3.284   6.648   0.825
 7392SOL    HW223076   3.420   6.634   0.915
 7393SOL     OW23077   5.254   5.673   3.323
 7393SOL    HW123078   5.190   5.659   3.247
 7393SOL    HW223079   5.222   5.749   3.379
 7394SOL     OW23080   2.315   2.104   6.066
 7394SOL    HW123081   2.293   2.119   6.162
 7394SOL    HW223082   2.391   2.039   6.059
 7395SOL     OW23083   3.006   6.172   1.226
 7395SOL    HW123084   3.061   6.094   1.255
 7395SOL    HW223085   3.066   6.244   1.190
 7396SOL     OW23086   1.387   5.211   2.109
 7396SOL    HW123087   1.410   5.130   2.162
 7396SOL    HW223088   1.295   5.241   2.133
 7397SOL     OW23089   5.934   4.477   4.000
 7397SOL    HW123090   5.889   4.467   3.911
 7397SOL    HW223091   6.031   4.500   3.987
 7398SOL     OW23092   2.917   5.109   2.376
 7398SOL    HW123093   2.960   5.018   2.374
 7398SOL    HW223094   2.934   5.155   2.289
 7399SOL     OW23095   5.948   1.663   5.544
 7399SOL    HW123096   5.946   1.711   5.456
 7399SOL    HW223097   5.941   1.565   5.528
 7400SOL     OW23098   4.137   3.314   5.614
 7400SOL    HW123099   4.235   3.319   5.635
 7400SOL    HW223100   4.106   3.401   5.576
 7401SOL     OW23101   1.706   2.536   3.824
 7401SOL    HW123102   1.687   2.556   3.729
 7401SOL    HW223103   1.766   2.456   3.830
 7402SOL     OW23104   3.527   5.541   4.502
 7402SOL    HW123105   3.432   5.521   4.480
 7402SOL    HW223106   3.542   5.639   4.505
 7403SOL     OW23107   1.753   4.387   3.952
 7403SOL    HW123108   1.844   4.346   3.951
 7403SOL    HW223109   1.684   4.315   3.968
 7404SOL     OW23110   2.607   3.905   0.717
 7404SOL    HW123111   2.688   3.847   0.729
 7404SOL    HW223112   2.568   3.926   0.807
 7405SOL     OW23113   3.786   6.725   5.699
 7405SOL    HW123114   3.770   6.630   5.671
 7405SOL    HW223115   3.816   6.779   5.620
 7406SOL     OW23116   0.431   2.494   4.482
 7406SOL    HW123117   0.438   2.439   4.398
 7406SOL    HW223118   0.335   2.517   4.497
 7407SOL     OW23119   1.050   6.558   5.357
 7407SOL    HW123120   1.004   6.580   5.443
 7407SOL    HW223121   1.140   6.600   5.356
 7408SOL     OW23122   4.440   5.568   5.182
 7408SOL    HW123123   4.467   5.597   5.090
 7408SOL    HW223124   4.516   5.519   5.225
 7409SOL     OW23125   6.303   4.862   1.577
 7409SOL    HW123126   6.295   4.931   1.505
 7409SOL    HW223127   6.255   4.779   1.549
 7410SOL     OW23128   6.457   0.955   1.133
 7410SOL    HW123129   6.545   0.999   1.146
 7410SOL    HW223130   6.470   0.857   1.118
 7411SOL     OW23131   3.788   1.799   5.501
 7411SOL    HW123132   3.881   1.836   5.505
 7411SOL    HW223133   3.774   1.737   5.578
 7412SOL     OW23134   4.357   6.986   0.115
 7412SOL    HW123135   4.264   6.951   0.120
 7412SOL    HW223136   4.398   6.959   0.028
 7413SOL     OW23137   5.280   0.711   3.462
 7413SOL    HW123138   5.321   0.800   3.485
 7413SOL    HW223139   5.306   0.644   3.532
 7414SOL     OW23140   2.584   1.184   3.850
 7414SOL    HW123141   2.643   1.162   3.927
 7414SOL    HW223142   2.566   1.101   3.797
 7415SOL     OW23143   4.052   0.295   6.430
 7415SOL    HW123144   3.967   0.344   6.411
 7415SOL    HW223145   4.079   0.311   6.525
 7416SOL     OW23146   1.237   0.416   1.493
 7416SOL    HW123147   1.228   0.481   1.568
 7416SOL    HW223148   1.184   0.449   1.414
 7417SOL     OW23149   0.311   0.245   2.419
 7417SOL    HW123150   0.343   0.167   2.473
 7417SOL    HW223151   0.360   0.328   2.448
 7418SOL     OW23152   1.381   3.590   6.147
 7418SOL    HW123153   1.473   3.597   6.107
 7418SOL    HW223154   1.314   3.617   6.078
 7419SOL     OW23155   6.283   3.214   4.408
 7419SOL    HW123156   6.295   3.174   4.499
 7419SOL    HW223157   6.244   3.147   4.346
 7420SOL     OW23158   0.031   6.734   0.950
 7420SOL    HW123159   0.085   6.652   0.932
 7420SOL    HW223160   0.091   6.814   0.950
 7421SOL     OW23161   6.039   3.722   1.296
 7421SOL    HW123162   5.988   3.807   1.286
 7421SOL    HW223163   6.047   3.699   1.392
 7422SOL     OW23164   5.309   3.305   1.516
 7422SOL    HW123165   5.242   3.340   1.451
 7422SOL    HW223166   5.346   3.218   1.483
 7423SOL     OW23167   4.666   2.679   6.092
 7423SOL    HW123168   4.640   2.584   6.076
 7423SOL    HW223169   4.705   2.689   6.183
 7424SOL     OW23170   0.307   2.469   4.160
 7424SOL    HW123171   0.402   2.489   4.181
 7424SOL    HW223172   0.264   2.424   4.238
 7425SOL     OW23173   5.473   0.357   1.253
 7425SOL    HW123174   5.548   0.359   1.186
 7425SOL    HW223175   5.448   0.450   1.278
 7426SOL     OW23176   3.294   3.106   5.432
 7426SOL    HW123177   3.346   3.116   5.348
 7426SOL    HW223178   3.300   3.011   5.464
 7427SOL     OW23179   2.645   0.420   2.522
 7427SOL    HW123180   2.549   0.430   2.493
 7427SOL    HW223181   2.673   0.500   2.574
 7428SOL     OW23182   2.839   0.259   4.862
 7428SOL    HW123183   2.846   0.323   4.939
 7428SOL    HW223184   2.915   0.195   4.864
 7429SOL     OW23185   1.044   0.990   2.490
 7429SOL    HW123186   1.078   0.896   2.485
 7429SOL    HW223187   0.959   0.997   2.439
 7430SOL     OW23188   0.084   4.091   2.957
 7430SOL    HW123189   0.154   4.163   2.961
 7430SOL    HW223190   0.124   4.004   2.983
 7431SOL     OW23191   0.749   2.228   4.628
 7431SOL    HW123192   0.768   2.155   4.693
 7431SOL    HW223193   0.682   2.292   4.666
 7432SOL     OW23194   1.501   1.172   2.767
 7432SOL    HW123195   1.470   1.256   2.812
 7432SOL    HW223196   1.440   1.152   2.689
 7433SOL     OW23197   3.435   6.850   6.543
 7433SOL    HW123198   3.526   6.835   6.504
 7433SOL    HW223199   3.431   6.810   6.635
 7434SOL     OW23200   4.020   0.342   3.443
 7434SOL    HW123201   4.097   0.369   3.501
 7434SOL    HW223202   4.054   0.285   3.368
 7435SOL     OW23203   5.197   4.679   2.692
 7435SOL    HW123204   5.136   4.756   2.708
 7435SOL    HW223205   5.180   4.608   2.760
 7436SOL     OW23206   5.282   2.668   6.088
 7436SOL    HW123207   5.328   2.583   6.062
 7436SOL    HW223208   5.287   2.733   6.013
 7437SOL     OW23209   3.162   0.607   1.309
 7437SOL    HW123210   3.133   0.687   1.362
 7437SOL    HW223211   3.224   0.636   1.236
 7438SOL     OW23212   1.687   0.270   6.779
 7438SOL    HW123213   1.676   0.268   6.680
 7438SOL    HW223214   1.643   0.189   6.819
 7439SOL     OW23215   1.448   4.511   6.022
 7439SOL    HW123216   1.446   4.498   5.923
 7439SOL    HW223217   1.357   4.496   6.059
 7440SOL     OW23218   5.508   3.256   3.630
 7440SOL    HW123219   5.514   3.333   3.567
 7440SOL    HW223220   5.500   3.171   3.579
 7441SOL     OW23221   4.303   6.265   0.950
 7441SOL    HW123222   4.361   6.198   0.904
 7441SOL    HW223223   4.215   6.223   0.973
 7442SOL     OW23224   5.866   1.044   5.745
 7442SOL    HW123225   5.852   1.141   5.722
 7442SOL    HW223226   5.778   0.996   5.742
 7443SOL     OW23227   0.114   0.086   1.285
 7443SOL    HW123228   0.174   0.136   1.223
 7443SOL    HW223229   0.143   7.015   1.290
 7444SOL     OW23230   1.523   6.250   6.782
 7444SOL    HW123231   1.566   6.204   6.704
 7444SOL    HW223232   1.493   6.342   6.755
 7445SOL     OW23233   3.528   5.574   2.729
 7445SOL    HW123234   3.458   5.508   2.757
 7445SOL    HW223235   3.514   5.598   2.633
 7446SOL     OW23236   6.557   5.083   0.048
 7446SOL    HW123237   6.495   5.160   0.038
 7446SOL    HW223238   6.623   5.102   0.121
 7447SOL     OW23239   0.913   5.879   0.578
 7447SOL    HW123240   0.895   5.963   0.629
 7447SOL    HW223241   1.009   5.853   0.590
 7448SOL     OW23242   4.119   4.899   6.763
 7448SOL    HW123243   4.107   4.919   6.666
 7448SOL    HW223244   4.216   4.901   6.786
 7449SOL     OW23245   6.435   4.203   6.654
 7449SOL    HW123246   6.533   4.203   6.677
 7449SOL    HW223247   6.413   4.284   6.600
 7450SOL     OW23248   5.572   2.802   0.199
 7450SOL    HW123249   5.606   2.717   0.161
 7450SOL    HW223250   5.542   2.863   0.125
 7451SOL     OW23251   4.564   4.654   3.060
 7451SOL    HW123252   4.533   4.622   2.971
 7451SOL    HW223253   4.535   4.749   3.074
 7452SOL     OW23254   6.445   5.874   6.213
 7452SOL    HW123255   6.511   5.799   6.216
 7452SOL    HW223256   6.408   5.883   6.120
 7453SOL     OW23257   4.183   5.490   6.394
 7453SOL    HW123258   4.126   5.545   6.333
 7453SOL    HW223259   4.161   5.511   6.489
 7454SOL     OW23260   4.163   1.931   0.799
 7454SOL    HW123261   4.144   2.025   0.772
 7454SOL    HW223262   4.253   1.904   0.764
 7455SOL     OW23263   6.418   0.338   3.242
 7455SOL    HW123264   6.479   0.266   3.207
 7455SOL    HW223265   6.431   0.421   3.189
 7456SOL     OW23266   3.057   1.684   6.047
 7456SOL    HW123267   3.068   1.736   5.962
 7456SOL    HW223268   2.967   1.641   6.049
 7457SOL     OW23269   1.210   1.269   2.850
 7457SOL    HW123270   1.127   1.298   2.897
 7457SOL    HW223271   1.280   1.341   2.858
 7458SOL     OW23272   0.300   5.471   4.868
 7458SOL    HW123273   0.208   5.507   4.857
 7458SOL    HW223274   0.336   5.498   4.957
 7459SOL     OW23275   5.785   0.083   3.430
 7459SOL    HW123276   5.690   0.111   3.443
 7459SOL    HW223277   5.793   0.033   3.343
 7460SOL     OW23278   0.767   0.470   1.393
 7460SOL    HW123279   0.745   0.461   1.491
 7460SOL    HW223280   0.735   0.389   1.345
 7461SOL     OW23281   1.912   4.520   4.679
 7461SOL    HW123282   1.870   4.432   4.696
 7461SOL    HW223283   2.011   4.512   4.690
 7462SOL     OW23284   1.833   4.731   0.049
 7462SOL    HW123285   1.766   4.657   0.042
 7462SOL    HW223286   1.916   4.697   0.094
 7463SOL     OW23287   4.843   5.249   1.664
 7463SOL    HW123288   4.830   5.212   1.572
 7463SOL    HW223289   4.932   5.221   1.699
 7464SOL     OW23290   5.325   5.293   4.869
 7464SOL    HW123291   5.229   5.299   4.843
 7464SOL    HW223292   5.344   5.360   4.942
 7465SOL     OW23293   1.546   4.193   6.607
 7465SOL    HW123294   1.569   4.158   6.516
 7465SOL    HW223295   1.526   4.290   6.601
 7466SOL     OW23296   0.748   0.605   5.422
 7466SOL    HW123297   0.791   0.665   5.354
 7466SOL    HW223298   0.664   0.566   5.384
 7467SOL     OW23299   0.755   3.547   4.552
 7467SOL    HW123300   0.781   3.641   4.531
 7467SOL    HW223301   0.695   3.512   4.480
 7468SOL     OW23302   5.478   2.750   5.599
 7468SOL    HW123303   5.546   2.678   5.589
 7468SOL    HW223304   5.518   2.838   5.575
 7469SOL     OW23305   0.096   2.312   0.437
 7469SOL    HW123306   0.131   2.221   0.459
 7469SOL    HW223307   0.034   2.306   0.359
 7470SOL     OW23308   4.853   3.020   3.858
 7470SOL    HW123309   4.820   3.070   3.777
 7470SOL    HW223310   4.952   3.009   3.852
 7471SOL     OW23311   3.572   6.643   6.784
 7471SOL    HW123312   3.504   6.689   6.842
 7471SOL    HW223313   3.649   6.612   6.839
 7472SOL     OW23314   0.448   0.228   5.830
 7472SOL    HW123315   0.476   0.296   5.898
 7472SOL    HW223316   0.517   0.223   5.758
 7473SOL     OW23317   4.022   6.177   3.263
 7473SOL    HW123318   4.013   6.087   3.220
 7473SOL    HW223319   3.931   6.213   3.282
 7474SOL     OW23320   5.815   2.541   0.183
 7474SOL    HW123321   5.832   2.635   0.152
 7474SOL    HW223322   5.822   2.538   0.283
 7475SOL     OW23323   5.074   2.737   0.803
 7475SOL    HW123324   5.052   2.651   0.757
 7475SOL    HW223325   5.173   2.751   0.804
 7476SOL     OW23326   2.376   1.194   2.638
 7476SOL    HW123327   2.377   1.259   2.562
 7476SOL    HW223328   2.437   1.226   2.710
 7477SOL     OW23329   2.693   3.742   5.701
 7477SOL    HW123330   2.675   3.840   5.707
 7477SOL    HW223331   2.680   3.711   5.607
 7478SOL     OW23332   0.131   2.146   6.256
 7478SOL    HW123333   0.202   2.197   6.305
 7478SOL    HW223334   0.148   2.151   6.158
 7479SOL     OW23335   4.916   2.825   1.306
 7479SOL    HW123336   4.845   2.848   1.240
 7479SOL    HW223337   4.889   2.744   1.358
 7480SOL     OW23338   3.501   5.956   2.729
 7480SOL    HW123339   3.563   6.034   2.740
 7480SOL    HW223340   3.548   5.883   2.679
 7481SOL     OW23341   6.961   3.495   6.448
 7481SOL    HW123342   6.929   3.587   6.429
 7481SOL    HW223343   0.034   3.488   6.425
 7482SOL     OW23344   4.551   2.613   4.446
 7482SOL    HW123345   4.552   2.550   4.524
 7482SOL    HW223346   4.494   2.576   4.373
 7483SOL     OW23347   4.965   1.776   6.441
 7483SOL    HW123348   4.939   1.696   6.385
 7483SOL    HW223349   5.064   1.786   6.438
 7484SOL     OW23350   2.752   0.805   4.507
 7484SOL    HW123351   2.741   0.833   4.603
 7484SOL    HW223352   2.662   0.802   4.463
 7485SOL     OW23353   4.025   0.246   6.726
 7485SOL    HW123354   3.956   0.175   6.743
 7485SOL    HW223355   4.109   0.224   6.775
 7486SOL     OW23356   4.391   6.813   1.024
 7486SOL    HW123357   4.435   6.725   1.044
 7486SOL    HW223358   4.421   6.847   0.935
 7487SOL     OW23359   3.169   6.134   4.299
 7487SOL    HW123360   3.192   6.208   4.237
 7487SOL    HW223361   3.232   6.135   4.377
 7488SOL     OW23362   1.260   6.126   4.214
 7488SOL    HW123363   1.246   6.157   4.308
 7488SOL    HW223364   1.294   6.032   4.215
 7489SOL     OW23365   5.153   3.160   6.594
 7489SOL    HW123366   5.209   3.095   6.542
 7489SOL    HW223367   5.060   3.124   6.601
 7490SOL     OW23368   1.788   3.107   1.519
 7490SOL    HW123369   1.850   3.062   1.583
 7490SOL    HW223370   1.816   3.086   1.425
 7491SOL     OW23371   4.295   3.803   6.663
 7491SOL    HW123372   4.350   3.778   6.743
 7491SOL    HW223373   4.233   3.728   6.640
 7492SOL     OW23374   1.689   0.653   3.844
 7492SOL    HW123375   1.614   0.686   3.786
 7492SOL    HW223376   1.651   0.621   3.931
 7493SOL     OW23377   6.686   5.076   4.838
 7493SOL    HW123378   6.662   5.026   4.922
 7493SOL    HW223379   6.652   5.170   4.846
 7494SOL     OW23380   6.208   1.304   1.992
 7494SOL    HW123381   6.133   1.366   1.968
 7494SOL    HW223382   6.291   1.356   2.008
 7495SOL     OW23383   1.369   3.013   4.491
 7495SOL    HW123384   1.448   3.063   4.457
 7495SOL    HW223385   1.382   2.991   4.587
 7496SOL     OW23386   6.382   3.724   2.779
 7496SOL    HW123387   6.296   3.676   2.799
 7496SOL    HW223388   6.433   3.737   2.864
 7497SOL     OW23389   6.466   0.143   1.205
 7497SOL    HW123390   6.407   0.114   1.129
 7497SOL    HW223391   6.411   0.161   1.286
 7498SOL     OW23392   2.647   6.781   3.880
 7498SOL    HW123393   2.636   6.727   3.964
 7498SOL    HW223394   2.733   6.830   3.883
 7499SOL     OW23395   2.729   1.445   3.561
 7499SOL    HW123396   2.631   1.454   3.579
 7499SOL    HW223397   2.779   1.519   3.607
 7500SOL     OW23398   3.733   1.259   4.261
 7500SOL    HW123399   3.664   1.315   4.306
 7500SOL    HW223400   3.766   1.305   4.179
 7501SOL     OW23401   6.122   2.099   3.873
 7501SOL    HW123402   6.062   2.090   3.953
 7501SOL    HW223403   6.068   2.130   3.795
 7502SOL     OW23404   4.027   1.014   3.558
 7502SOL    HW123405   4.055   0.929   3.603
 7502SOL    HW223406   3.931   1.032   3.577
 7503SOL     OW23407   1.747   5.918   1.093
 7503SOL    HW123408   1.777   5.915   0.997
 7503SOL    HW223409   1.809   5.976   1.145
 7504SOL     OW23410   5.540   6.500   4.702
 7504SOL    HW123411   5.448   6.532   4.726
 7504SOL    HW223412   5.592   6.575   4.663
 7505SOL     OW23413   0.929   6.393   5.901
 7505SOL    HW123414   0.890   6.373   5.811
 7505SOL    HW223415   0.942   6.308   5.952
 7506SOL     OW23416   3.503   2.061   4.252
 7506SOL    HW123417   3.428   2.107   4.300
 7506SOL    HW223418   3.589   2.107   4.273
 7507SOL     OW23419   6.570   3.978   6.182
 7507SOL    HW123420   6.506   3.989   6.258
 7507SOL    HW223421   6.607   3.885   6.182
 7508SOL     OW23422   2.989   6.181   0.551
 7508SOL    HW123423   2.938   6.247   0.495
 7508SOL    HW223424   3.083   6.214   0.564
 7509SOL     OW23425   6.302   4.575   2.363
 7509SOL    HW123426   6.235   4.607   2.296
 7509SOL    HW223427   6.295   4.630   2.446
 7510SOL     OW23428   3.276   4.006   1.515
 7510SOL    HW123429   3.262   3.974   1.421
 7510SOL    HW223430   3.217   4.085   1.532
 7511SOL     OW23431   4.753   6.261   3.874
 7511SOL    HW123432   4.777   6.172   3.915
 7511SOL    HW223433   4.659   6.258   3.841
 7512SOL     OW23434   4.131   0.152   0.958
 7512SOL    HW123435   4.229   0.149   0.980
 7512SOL    HW223436   4.094   0.059   0.957
 7513SOL     OW23437   0.963   0.835   2.026
 7513SOL    HW123438   0.957   0.930   2.057
 7513SOL    HW223439   1.058   0.811   2.008
 7514SOL     OW23440   0.428   0.047   0.675
 7514SOL    HW123441   0.445   0.132   0.724
 7514SOL    HW223442   0.490   0.041   0.597
 7515SOL     OW23443   0.122   4.760   5.188
 7515SOL    HW123444   0.175   4.776   5.105
 7515SOL    HW223445   0.092   4.848   5.226
 7516SOL     OW23446   1.978   6.193   5.407
 7516SOL    HW123447   1.985   6.099   5.373
 7516SOL    HW223448   2.070   6.228   5.427
 7517SOL     OW23449   0.629   2.286   6.738
 7517SOL    HW123450   0.566   2.339   6.793
 7517SOL    HW223451   0.692   2.347   6.690
 7518SOL     OW23452   3.864   1.979   4.548
 7518SOL    HW123453   3.959   1.991   4.519
 7518SOL    HW223454   3.861   1.972   4.648
 7519SOL     OW23455   3.493   6.665   4.885
 7519SOL    HW123456   3.459   6.702   4.799
 7519SOL    HW223457   3.481   6.733   4.957
 7520SOL     OW23458   1.793   1.257   0.758
 7520SOL    HW123459   1.870   1.319   0.772
 7520SOL    HW223460   1.803   1.209   0.671
 7521SOL     OW23461   4.199   1.340   5.293
 7521SOL    HW123462   4.277   1.306   5.241
 7521SOL    HW223463   4.231   1.382   5.378
 7522SOL     OW23464   1.765   6.561   4.481
 7522SOL    HW123465   1.745   6.649   4.525
 7522SOL    HW223466   1.691   6.496   4.501
 7523SOL     OW23467   5.754   1.795   0.132
 7523SOL    HW123468   5.721   1.864   0.068
 7523SOL    HW223469   5.706   1.805   0.219
 7524SOL     OW23470   0.535   3.439   5.509
 7524SOL    HW123471   0.553   3.507   5.581
 7524SOL    HW223472   0.602   3.366   5.514
 7525SOL     OW23473   1.970   4.854   5.765
 7525SOL    HW123474   1.884   4.891   5.732
 7525SOL    HW223475   1.968   4.754   5.758
 7526SOL     OW23476   1.663   4.221   0.826
 7526SOL    HW123477   1.709   4.281   0.761
 7526SOL    HW223478   1.564   4.227   0.812
 7527SOL     OW23479   2.710   5.272   2.802
 7527SOL    HW123480   2.778   5.346   2.802
 7527SOL    HW223481   2.667   5.266   2.712
 7528SOL     OW23482   6.111   2.706   6.683
 7528SOL    HW123483   6.133   2.782   6.744
 7528SOL    HW223484   6.162   2.716   6.597
 7529SOL     OW23485   5.579   3.141   4.871
 7529SOL    HW123486   5.634   3.164   4.952
 7529SOL    HW223487   5.583   3.216   4.805
 7530SOL     OW23488   1.242   2.744   3.003
 7530SOL    HW123489   1.174   2.715   3.070
 7530SOL    HW223490   1.262   2.842   3.015
 7531SOL     OW23491   3.969   1.879   3.785
 7531SOL    HW123492   3.878   1.889   3.824
 7531SOL    HW223493   3.977   1.790   3.740
 7532SOL     OW23494   4.900   5.309   6.308
 7532SOL    HW123495   4.938   5.217   6.317
 7532SOL    HW223496   4.823   5.306   6.244
 7533SOL     OW23497   4.400   4.575   2.158
 7533SOL    HW123498   4.494   4.563   2.126
 7533SOL    HW223499   4.343   4.500   2.123
 7534SOL     OW23500   4.356   5.745   5.360
 7534SOL    HW123501   4.382   5.675   5.293
 7534SOL    HW223502   4.429   5.756   5.427
 7535SOL     OW23503   0.405   6.742   4.407
 7535SOL    HW123504   0.388   6.821   4.347
 7535SOL    HW223505   0.402   6.771   4.503
 7536SOL     OW23506   6.555   6.306   2.935
 7536SOL    HW123507   6.460   6.291   2.966
 7536SOL    HW223508   6.616   6.246   2.986
 7537SOL     OW23509   1.803   0.110   2.569
 7537SOL    HW123510   1.871   0.100   2.496
 7537SOL    HW223511   1.841   0.166   2.642
 7538SOL     OW23512   0.041   4.914   0.164
 7538SOL    HW123513   0.059   4.817   0.174
 7538SOL    HW223514   0.116   4.958   0.116
 7539SOL     OW23515   6.626   0.486   4.204
 7539SOL    HW123516   6.605   0.572   4.157
 7539SOL    HW223517   6.722   0.485   4.230
 7540SOL     OW23518   5.257   4.397   3.219
 7540SOL    HW123519   5.176   4.339   3.220
 7540SOL    HW223520   5.312   4.381   3.301
 7541SOL     OW23521   2.159   4.119   6.763
 7541SOL    HW123522   2.215   4.170   6.698
 7541SOL    HW223523   2.141   4.027   6.728
 7542SOL     OW23524   6.110   5.716   4.735
 7542SOL    HW123525   6.034   5.662   4.699
 7542SOL    HW223526   6.098   5.812   4.709
 7543SOL     OW23527   2.275   1.020   0.587
 7543SOL    HW123528   2.261   0.934   0.638
 7543SOL    HW223529   2.318   0.999   0.499
 7544SOL     OW23530   6.055   1.470   4.597
 7544SOL    HW123531   5.985   1.398   4.603
 7544SOL    HW223532   6.119   1.448   4.523
 7545SOL     OW23533   1.523   5.624   5.127
 7545SOL    HW123534   1.617   5.594   5.139
 7545SOL    HW223535   1.483   5.645   5.217
 7546SOL     OW23536   2.284   2.784   2.012
 7546SOL    HW123537   2.320   2.795   2.105
 7546SOL    HW223538   2.245   2.870   1.981
 7547SOL     OW23539   4.518   0.060   2.059
 7547SOL    HW123540   4.479   7.001   2.098
 7547SOL    HW223541   4.461   0.138   2.084
 7548SOL     OW23542   3.053   2.049   6.225
 7548SOL    HW123543   2.958   2.070   6.203
 7548SOL    HW223544   3.110   2.130   6.209
 7549SOL     OW23545   5.476   0.777   4.508
 7549SOL    HW123546   5.466   0.733   4.418
 7549SOL    HW223547   5.397   0.754   4.565
 7550SOL     OW23548   2.147   5.970   4.716
 7550SOL    HW123549   2.147   5.875   4.686
 7550SOL    HW223550   2.200   5.978   4.800
 7551SOL     OW23551   6.059   3.464   6.436
 7551SOL    HW123552   6.054   3.532   6.363
 7551SOL    HW223553   6.102   3.380   6.401
 7552SOL     OW23554   2.619   6.010   4.783
 7552SOL    HW123555   2.570   6.036   4.866
 7552SOL    HW223556   2.616   6.085   4.717
 7553SOL     OW23557   6.030   6.469   5.936
 7553SOL    HW123558   6.028   6.467   5.836
 7553SOL    HW223559   5.939   6.448   5.972
 7554SOL     OW23560   4.821   1.681   1.491
 7554SOL    HW123561   4.907   1.642   1.524
 7554SOL    HW223562   4.807   1.655   1.396
 7555SOL     OW23563   4.343   5.414   4.245
 7555SOL    HW123564   4.379   5.380   4.158
 7555SOL    HW223565   4.270   5.353   4.276
 7556SOL     OW23566   1.332   5.797   0.933
 7556SOL    HW123567   1.418   5.749   0.916
 7556SOL    HW223568   1.350   5.894   0.948
 7557SOL     OW23569   4.428   6.332   1.171
 7557SOL    HW123570   4.379   6.394   1.233
 7557SOL    HW223571   4.370   6.311   1.092
 7558SOL     OW23572   0.510   1.777   3.724
 7558SOL    HW123573   0.541   1.787   3.630
 7558SOL    HW223574   0.579   1.812   3.786
 7559SOL     OW23575   2.860   0.412   5.097
 7559SOL    HW123576   2.781   0.473   5.099
 7559SOL    HW223577   2.846   0.338   5.163
 7560SOL     OW23578   1.136   1.068   5.737
 7560SOL    HW123579   1.113   1.090   5.642
 7560SOL    HW223580   1.219   1.013   5.739
 7561SOL     OW23581   5.267   1.044   5.172
 7561SOL    HW123582   5.286   1.011   5.265
 7561SOL    HW223583   5.352   1.071   5.128
 7562SOL     OW23584   2.078   5.503   3.690
 7562SOL    HW123585   2.098   5.427   3.628
 7562SOL    HW223586   1.986   5.491   3.728
 7563SOL     OW23587   2.728   6.140   3.527
 7563SOL    HW123588   2.769   6.225   3.558
 7563SOL    HW223589   2.786   6.098   3.457
 7564SOL     OW23590   4.806   2.803   5.553
 7564SOL    HW123591   4.804   2.716   5.504
 7564SOL    HW223592   4.897   2.844   5.544
 7565SOL     OW23593   6.472   3.076   5.537
 7565SOL    HW123594   6.473   3.006   5.609
 7565SOL    HW223595   6.479   3.166   5.579
 7566SOL     OW23596   5.023   4.710   1.340
 7566SOL    HW123597   4.993   4.678   1.430
 7566SOL    HW223598   4.960   4.675   1.270
 7567SOL     OW23599   1.646   0.334   3.993
 7567SOL    HW123600   1.554   0.303   3.967
 7567SOL    HW223601   1.690   0.377   3.914
 7568SOL     OW23602   6.482   4.238   1.214
 7568SOL    HW123603   6.394   4.190   1.213
 7568SOL    HW223604   6.531   4.216   1.298
 7569SOL     OW23605   4.517   3.525   0.961
 7569SOL    HW123606   4.572   3.485   0.887
 7569SOL    HW223607   4.570   3.595   1.008
 7570SOL     OW23608   0.836   3.054   2.208
 7570SOL    HW123609   0.918   3.001   2.232
 7570SOL    HW223610   0.763   3.033   2.272
 7571SOL     OW23611   4.845   1.568   2.956
 7571SOL    HW123612   4.883   1.516   2.879
 7571SOL    HW223613   4.771   1.515   2.998
 7572SOL     OW23614   4.329   6.697   3.380
 7572SOL    HW123615   4.370   6.607   3.366
 7572SOL    HW223616   4.391   6.753   3.436
 7573SOL     OW23617   4.651   6.552   6.771
 7573SOL    HW123618   4.637   6.491   6.693
 7573SOL    HW223619   4.749   6.563   6.787
 7574SOL     OW23620   0.598   2.811   4.108
 7574SOL    HW123621   0.522   2.871   4.133
 7574SOL    HW223622   0.587   2.780   4.014
 7575SOL     OW23623   0.171   6.956   0.865
 7575SOL    HW123624   0.198   0.017   0.910
 7575SOL    HW223625   0.234   6.937   0.790
 7576SOL     OW23626   4.222   2.592   0.082
 7576SOL    HW123627   4.253   2.658   0.151
 7576SOL    HW223628   4.221   2.636   7.016
 7577SOL     OW23629   0.116   0.550   6.159
 7577SOL    HW123630   0.159   0.597   6.236
 7577SOL    HW223631   0.182   0.541   6.084
 7578SOL     OW23632   6.136   6.199   2.715
 7578SOL    HW123633   6.075   6.134   2.760
 7578SOL    HW223634   6.113   6.292   2.743
 7579SOL     OW23635   1.091   1.549   6.935
 7579SOL    HW123636   1.178   1.509   6.906
 7579SOL    HW223637   1.109   1.624   6.999
 7580SOL     OW23638   1.825   5.013   2.814
 7580SOL    HW123639   1.814   4.935   2.751
 7580SOL    HW223640   1.753   5.080   2.796
 7581SOL     OW23641   0.283   6.864   0.619
 7581SOL    HW123642   0.264   6.855   0.521
 7581SOL    HW223643   0.347   6.940   0.634
 7582SOL     OW23644   2.318   1.129   6.207
 7582SOL    HW123645   2.225   1.114   6.242
 7582SOL    HW223646   2.342   1.226   6.217
 7583SOL     OW23647   5.756   3.638   2.083
 7583SOL    HW123648   5.792   3.547   2.060
 7583SOL    HW223649   5.656   3.634   2.090
 7584SOL     OW23650   0.111   1.159   3.473
 7584SOL    HW123651   0.063   1.200   3.395
 7584SOL    HW223652   0.070   1.070   3.494
 7585SOL     OW23653   1.401   1.439   5.562
 7585SOL    HW123654   1.403   1.345   5.598
 7585SOL    HW223655   1.351   1.440   5.476
 7586SOL     OW23656   1.604   6.552   3.939
 7586SOL    HW123657   1.685   6.493   3.937
 7586SOL    HW223658   1.615   6.621   4.010
 7587SOL     OW23659   4.876   7.020   1.769
 7587SOL    HW123660   4.929   0.079   1.752
 7587SOL    HW223661   4.891   6.955   1.695
 7588SOL     OW23662   1.746   3.449   4.950
 7588SOL    HW123663   1.722   3.361   4.992
 7588SOL    HW223664   1.843   3.466   4.964
 7589SOL     OW23665   6.558   0.165   2.316
 7589SOL    HW123666   6.559   0.171   2.216
 7589SOL    HW223667   6.647   0.195   2.351
 7590SOL     OW23668   6.174   1.296   0.708
 7590SOL    HW123669   6.080   1.274   0.737
 7590SOL    HW223670   6.203   1.381   0.752
 7591SOL     OW23671   3.070   4.007   4.854
 7591SOL    HW123672   3.152   4.063   4.844
 7591SOL    HW223673   3.025   4.029   4.940
 7592SOL     OW23674   0.799   6.486   3.808
 7592SOL    HW123675   0.852   6.553   3.757
 7592SOL    HW223676   0.744   6.532   3.877
 7593SOL     OW23677   6.543   1.132   6.362
 7593SOL    HW123678   6.589   1.045   6.382
 7593SOL    HW223679   6.605   1.191   6.310
 7594SOL     OW23680   6.943   3.476   5.699
 7594SOL    HW123681   6.855   3.430   5.710
 7594SOL    HW223682   6.965   3.482   5.602
 7595SOL     OW23683   0.634   3.354   6.678
 7595SOL    HW123684   0.636   3.451   6.702
 7595SOL    HW223685   0.712   3.307   6.720
 7596SOL     OW23686   2.650   1.630   0.571
 7596SOL    HW123687   2.569   1.573   0.583
 7596SOL    HW223688   2.732   1.574   0.577
 7597SOL     OW23689   2.241   4.353   0.938
 7597SOL    HW123690   2.228   4.451   0.923
 7597SOL    HW223691   2.205   4.328   1.028
 7598SOL     OW23692   5.568   0.889   2.289
 7598SOL    HW123693   5.546   0.836   2.206
 7598SOL    HW223694   5.531   0.842   2.369
 7599SOL     OW23695   3.401   3.582   0.385
 7599SOL    HW123696   3.473   3.632   0.434
 7599SOL    HW223697   3.355   3.520   0.448
 7600SOL     OW23698   1.167   0.124   3.944
 7600SOL    HW123699   1.087   0.183   3.933
 7600SOL    HW223700   1.239   0.175   3.991
 7601SOL     OW23701   3.158   6.403   1.214
 7601SOL    HW123702   3.136   6.460   1.135
 7601SOL    HW223703   3.248   6.430   1.249
 7602SOL     OW23704   0.863   1.828   1.075
 7602SOL    HW123705   0.962   1.824   1.066
 7602SOL    HW223706   0.829   1.911   1.031
 7603SOL     OW23707   4.313   0.988   6.238
 7603SOL    HW123708   4.411   0.994   6.215
 7603SOL    HW223709   4.304   0.961   6.334
 7604SOL     OW23710   2.097   2.555   5.414
 7604SOL    HW123711   2.192   2.578   5.390
 7604SOL    HW223712   2.091   2.458   5.439
 7605SOL     OW23713   3.020   5.855   0.078
 7605SOL    HW123714   3.012   5.948   0.114
 7605SOL    HW223715   3.083   5.856   0.000
 7606SOL     OW23716   6.588   0.819   3.146
 7606SOL    HW123717   6.626   0.742   3.198
 7606SOL    HW223718   6.628   0.904   3.180
 7607SOL     OW23719   1.627   5.743   5.584
 7607SOL    HW123720   1.632   5.832   5.629
 7607SOL    HW223721   1.693   5.680   5.628
 7608SOL     OW23722   0.010   2.317   6.534
 7608SOL    HW123723   0.005   2.394   6.470
 7608SOL    HW223724   0.086   2.257   6.508
 7609SOL     OW23725   3.927   0.574   5.029
 7609SOL    HW123726   3.948   0.662   5.073
 7609SOL    HW223727   3.829   0.569   5.011
 7610SOL     OW23728   3.981   4.881   4.712
 7610SOL    HW123729   4.023   4.840   4.793
 7610SOL    HW223730   4.041   4.866   4.633
 7611SOL     OW23731   4.486   1.955   6.910
 7611SOL    HW123732   4.404   2.010   6.893
 7611SOL    HW223733   4.517   1.914   6.825
 7612SOL     OW23734   4.475   1.766   2.901
 7612SOL    HW123735   4.492   1.863   2.918
 7612SOL    HW223736   4.532   1.711   2.962
 7613SOL     OW23737   0.241   0.925   6.547
 7613SOL    HW123738   0.258   0.998   6.481
 7613SOL    HW223739   0.250   0.837   6.502
 7614SOL     OW23740   5.915   4.847   0.122
 7614SOL    HW123741   6.000   4.886   0.086
 7614SOL    HW223742   5.937   4.769   0.180
 7615SOL     OW23743   5.687   2.981   6.293
 7615SOL    HW123744   5.688   3.069   6.244
 7615SOL    HW223745   5.604   2.930   6.270
 7616SOL     OW23746   6.717   6.539   2.473
 7616SOL    HW123747   6.683   6.450   2.504
 7616SOL    HW223748   6.660   6.573   2.398
 7617SOL     OW23749   6.072   4.012   2.893
 7617SOL    HW123750   6.087   3.946   2.819
 7617SOL    HW223751   5.983   3.994   2.936
 7618SOL     OW23752   2.475   1.852   0.030
 7618SOL    HW123753   2.446   1.902   0.112
 7618SOL    HW223754   2.502   1.918   6.983
 7619SOL     OW23755   0.855   0.695   5.648
 7619SOL    HW123756   0.825   0.647   5.566
 7619SOL    HW223757   0.951   0.722   5.639
 7620SOL     OW23758   3.046   3.794   0.137
 7620SOL    HW123759   3.032   3.844   0.222
 7620SOL    HW223760   3.130   3.740   0.143
 7621SOL     OW23761   6.295   5.254   0.311
 7621SOL    HW123762   6.354   5.261   0.231
 7621SOL    HW223763   6.234   5.333   0.316
 7622SOL     OW23764   3.212   3.714   1.682
 7622SOL    HW123765   3.231   3.810   1.661
 7622SOL    HW223766   3.236   3.696   1.777
 7623SOL     OW23767   5.321   4.757   2.298
 7623SOL    HW123768   5.350   4.683   2.238
 7623SOL    HW223769   5.237   4.730   2.345
 7624SOL     OW23770   0.544   2.937   2.677
 7624SOL    HW123771   0.486   3.001   2.728
 7624SOL    HW223772   0.612   2.898   2.739
 7625SOL     OW23773   5.251   0.283   1.686
 7625SOL    HW123774   5.308   0.251   1.762
 7625SOL    HW223775   5.291   0.365   1.646
 7626SOL     OW23776   4.733   0.011   0.197
 7626SOL    HW123777   4.803   6.970   0.166
 7626SOL    HW223778   4.736   0.092   0.138
 7627SOL     OW23779   4.233   2.628   6.061
 7627SOL    HW123780   4.307   2.660   6.001
 7627SOL    HW223781   4.205   2.703   6.121
 7628SOL     OW23782   3.105   2.830   0.709
 7628SOL    HW123783   3.024   2.826   0.767
 7628SOL    HW223784   3.083   2.875   0.623
 7629SOL     OW23785   5.771   2.521   3.212
 7629SOL    HW123786   5.723   2.595   3.259
 7629SOL    HW223787   5.866   2.519   3.242
 7630SOL     OW23788   0.991   6.345   3.918
 7630SOL    HW123789   0.899   6.374   3.893
 7630SOL    HW223790   1.015   6.383   4.007
 7631SOL     OW23791   1.665   1.127   6.132
 7631SOL    HW123792   1.761   1.150   6.113
 7631SOL    HW223793   1.655   1.107   6.230
 7632SOL     OW23794   4.161   5.808   1.070
 7632SOL    HW123795   4.158   5.767   0.979
 7632SOL    HW223796   4.091   5.767   1.128
 7633SOL     OW23797   5.311   0.991   1.721
 7633SOL    HW123798   5.379   0.935   1.673
 7633SOL    HW223799   5.229   1.000   1.664
 7634SOL     OW23800   0.432   2.161   6.615
 7634SOL    HW123801   0.442   2.063   6.634
 7634SOL    HW223802   0.511   2.210   6.652
 7635SOL     OW23803   1.368   3.547   5.765
 7635SOL    HW123804   1.354   3.634   5.812
 7635SOL    HW223805   1.427   3.561   5.686
 7636SOL     OW23806   6.839   3.404   3.398
 7636SOL    HW123807   6.820   3.314   3.360
 7636SOL    HW223808   6.872   3.394   3.492
 7637SOL     OW23809   1.120   4.103   5.407
 7637SOL    HW123810   1.087   4.170   5.475
 7637SOL    HW223811   1.067   4.113   5.323
 7638SOL     OW23812   0.261   6.222   1.230
 7638SOL    HW123813   0.170   6.241   1.267
 7638SOL    HW223814   0.322   6.298   1.252
 7639SOL     OW23815   2.703   6.248   0.414
 7639SOL    HW123816   2.627   6.249   0.349
 7639SOL    HW223817   2.666   6.243   0.507
 7640SOL     OW23818   3.209   0.631   0.813
 7640SOL    HW123819   3.230   0.538   0.845
 7640SOL    HW223820   3.293   0.686   0.813
 7641SOL     OW23821   6.643   4.969   5.149
 7641SOL    HW123822   6.614   5.051   5.199
 7641SOL    HW223823   6.743   4.965   5.147
 7642SOL     OW23824   5.857   0.971   3.894
 7642SOL    HW123825   5.877   1.010   3.804
 7642SOL    HW223826   5.922   0.897   3.912
 7643SOL     OW23827   5.402   2.516   4.731
 7643SOL    HW123828   5.310   2.489   4.703
 7643SOL    HW223829   5.434   2.591   4.672
 7644SOL     OW23830   5.284   4.212   0.715
 7644SOL    HW123831   5.202   4.264   0.693
 7644SOL    HW223832   5.362   4.250   0.665
 7645SOL     OW23833   4.540   5.124   6.602
 7645SOL    HW123834   4.564   5.058   6.672
 7645SOL    HW223835   4.621   5.176   6.576
 7646SOL     OW23836   6.719   2.008   1.872
 7646SOL    HW123837   6.769   2.019   1.958
 7646SOL    HW223838   6.784   1.984   1.800
 7647SOL     OW23839   6.726   1.697   3.845
 7647SOL    HW123840   6.700   1.778   3.791
 7647SOL    HW223841   6.747   1.725   3.938
 7648SOL     OW23842   1.802   2.202   1.143
 7648SOL    HW123843   1.732   2.254   1.094
 7648SOL    HW223844   1.808   2.234   1.237
 7649SOL     OW23845   3.978   0.671   0.072
 7649SOL    HW123846   4.048   0.654   0.003
 7649SOL    HW223847   3.989   0.763   0.109
 7650SOL     OW23848   3.225   2.270   0.641
 7650SOL    HW123849   3.296   2.323   0.595
 7650SOL    HW223850   3.155   2.243   0.575
 7651SOL     OW23851   3.693   5.537   6.594
 7651SOL    HW123852   3.678   5.629   6.559
 7651SOL    HW223853   3.671   5.469   6.524
 7652SOL     OW23854   0.070   0.587   5.317
 7652SOL    HW123855   0.164   0.610   5.344
 7652SOL    HW223856   0.066   0.489   5.295
 7653SOL     OW23857   1.834   6.568   6.897
 7653SOL    HW123858   1.852   6.471   6.915
 7653SOL    HW223859   1.871   6.623   6.972
 7654SOL     OW23860   6.855   2.449   5.584
 7654SOL    HW123861   6.909   2.372   5.617
 7654SOL    HW223862   6.887   2.476   5.493
 7655SOL     OW23863   3.509   1.742   4.788
 7655SOL    HW123864   3.606   1.726   4.809
 7655SOL    HW223865   3.479   1.827   4.831
 7656SOL     OW23866   6.089   3.797   6.843
 7656SOL    HW123867   6.038   3.809   6.928
 7656SOL    HW223868   6.104   3.886   6.800
 7657SOL     OW23869   0.853   3.859   4.852
 7657SOL    HW123870   0.877   3.834   4.946
 7657SOL    HW223871   0.755   3.879   4.847
 7658SOL     OW23872   2.409   0.631   1.576
 7658SOL    HW123873   2.371   0.573   1.504
 7658SOL    HW223874   2.334   0.669   1.631
 7659SOL     OW23875   5.469   4.524   5.925
 7659SOL    HW123876   5.380   4.565   5.941
 7659SOL    HW223877   5.506   4.555   5.838
 7660SOL     OW23878   6.653   6.440   5.503
 7660SOL    HW123879   6.736   6.432   5.448
 7660SOL    HW223880   6.581   6.384   5.463
 7661SOL     OW23881   2.398   0.673   5.448
 7661SOL    HW123882   2.431   0.584   5.418
 7661SOL    HW223883   2.407   0.680   5.548
 7662SOL     OW23884   0.020   6.261   1.349
 7662SOL    HW123885   7.013   6.330   1.414
 7662SOL    HW223886   6.967   6.228   1.295
 7663SOL     OW23887   1.047   6.032   4.667
 7663SOL    HW123888   0.986   6.105   4.699
 7663SOL    HW223889   1.107   6.004   4.742
 7664SOL     OW23890   5.542   2.348   2.290
 7664SOL    HW123891   5.557   2.332   2.387
 7664SOL    HW223892   5.566   2.442   2.267
 7665SOL     OW23893   2.866   0.657   5.532
 7665SOL    HW123894   2.892   0.593   5.604
 7665SOL    HW223895   2.771   0.686   5.545
 7666SOL     OW23896   6.147   5.464   4.069
 7666SOL    HW123897   6.115   5.369   4.062
 7666SOL    HW223898   6.183   5.494   3.981
 7667SOL     OW23899   4.475   5.383   1.640
 7667SOL    HW123900   4.554   5.348   1.691
 7667SOL    HW223901   4.427   5.451   1.694
 7668SOL     OW23902   1.817   5.564   0.289
 7668SOL    HW123903   1.818   5.529   0.383
 7668SOL    HW223904   1.742   5.630   0.279
 7669SOL     OW23905   3.093   1.811   6.548
 7669SOL    HW123906   3.068   1.804   6.451
 7669SOL    HW223907   3.125   1.722   6.580
 7670SOL     OW23908   1.055   0.395   0.797
 7670SOL    HW123909   1.043   0.320   0.862
 7670SOL    HW223910   1.055   0.482   0.846
 7671SOL     OW23911   3.459   0.027   1.451
 7671SOL    HW123912   3.518   6.986   1.498
 7671SOL    HW223913   3.375   7.006   1.423
 7672SOL     OW23914   5.561   3.402   2.015
 7672SOL    HW123915   5.504   3.320   2.020
 7672SOL    HW223916   5.647   3.386   2.063
 7673SOL     OW23917   2.058   6.510   5.174
 7673SOL    HW123918   2.051   6.580   5.104
 7673SOL    HW223919   1.972   6.461   5.181
 7674SOL     OW23920   3.348   5.479   3.837
 7674SOL    HW123921   3.381   5.407   3.897
 7674SOL    HW223922   3.414   5.554   3.834
 7675SOL     OW23923   3.764   6.257   3.296
 7675SOL    HW123924   3.689   6.313   3.259
 7675SOL    HW223925   3.776   6.278   3.393
 7676SOL     OW23926   3.052   3.263   5.233
 7676SOL    HW123927   3.128   3.203   5.206
 7676SOL    HW223928   2.988   3.273   5.157
 7677SOL     OW23929   0.364   6.182   6.898
 7677SOL    HW123930   0.389   6.119   6.824
 7677SOL    HW223931   0.350   6.273   6.860
 7678SOL     OW23932   3.866   0.871   5.586
 7678SOL    HW123933   3.792   0.923   5.544
 7678SOL    HW223934   3.886   0.908   5.676
 7679SOL     OW23935   2.460   4.760   4.176
 7679SOL    HW123936   2.444   4.816   4.095
 7679SOL    HW223937   2.549   4.783   4.216
 7680SOL     OW23938   2.035   6.618   4.434
 7680SOL    HW123939   2.036   6.641   4.336
 7680SOL    HW223940   1.947   6.577   4.458
 7681SOL     OW23941   2.145   1.977   5.662
 7681SOL    HW123942   2.105   2.014   5.746
 7681SOL    HW223943   2.099   1.892   5.637
 7682SOL     OW23944   3.241   0.663   1.875
 7682SOL    HW123945   3.222   0.620   1.963
 7682SOL    HW223946   3.340   0.673   1.863
 7683SOL     OW23947   0.361   4.402   4.429
 7683SOL    HW123948   0.435   4.335   4.428
 7683SOL    HW223949   0.326   4.412   4.523
 7684SOL     OW23950   4.784   3.463   1.806
 7684SOL    HW123951   4.716   3.475   1.734
 7684SOL    HW223952   4.810   3.367   1.813
 7685SOL     OW23953   2.356   0.165   0.105
 7685SOL    HW123954   2.439   0.121   0.139
 7685SOL    HW223955   2.372   0.202   0.014
 7686SOL     OW23956   6.834   0.463   3.700
 7686SOL    HW123957   6.793   0.548   3.734
 7686SOL    HW223958   6.911   0.485   3.640
 7687SOL     OW23959   5.510   3.339   5.742
 7687SOL    HW123960   5.481   3.431   5.718
 7687SOL    HW223961   5.610   3.336   5.746
 7688SOL     OW23962   6.501   3.323   0.248
 7688SOL    HW123963   6.539   3.235   0.274
 7688SOL    HW223964   6.566   3.396   0.272
 7689SOL     OW23965   5.694   0.044   2.395
 7689SOL    HW123966   5.656   0.104   2.465
 7689SOL    HW223967   5.708   0.097   2.311
 7690SOL     OW23968   6.093   4.462   2.036
 7690SOL    HW123969   6.151   4.418   2.104
 7690SOL    HW223970   6.144   4.536   1.991
 7691SOL     OW23971   5.201   3.063   3.596
 7691SOL    HW123972   5.295   3.042   3.568
 7691SOL    HW223973   5.157   3.117   3.525
 7692SOL     OW23974   2.133   6.745   2.142
 7692SOL    HW123975   2.142   6.818   2.210
 7692SOL    HW223976   2.213   6.745   2.082
 7693SOL     OW23977   2.571   1.925   0.923
 7693SOL    HW123978   2.502   1.877   0.869
 7693SOL    HW223979   2.624   1.859   0.976
 7694SOL     OW23980   4.155   2.475   0.670
 7694SOL    HW123981   4.126   2.513   0.758
 7694SOL    HW223982   4.202   2.546   0.617
 7695SOL     OW23983   5.112   6.750   3.754
 7695SOL    HW123984   5.161   6.666   3.730
 7695SOL    HW223985   5.163   6.799   3.825
 7696SOL     OW23986   3.246   1.657   5.756
 7696SOL    HW123987   3.334   1.643   5.802
 7696SOL    HW223988   3.215   1.751   5.771
 7697SOL     OW23989   5.945   6.833   3.085
 7697SOL    HW123990   5.993   6.873   3.006
 7697SOL    HW223991   5.877   6.898   3.118
 7698SOL     OW23992   6.305   3.034   1.378
 7698SOL    HW123993   6.322   2.968   1.305
 7698SOL    HW223994   6.210   3.028   1.407
 7699SOL     OW23995   3.943   6.181   6.298
 7699SOL    HW123996   4.012   6.135   6.241
 7699SOL    HW223997   3.869   6.117   6.318
 7700SOL     OW23998   6.810   5.253   2.223
 7700SOL    HW123999   6.806   5.287   2.317
 7700SOL    HW224000   6.718   5.253   2.184
 7701SOL     OW24001   3.186   1.250   6.533
 7701SOL    HW124002   3.262   1.313   6.550
 7701SOL    HW224003   3.117   1.296   6.476
 7702SOL     OW24004   6.010   6.055   5.831
 7702SOL    HW124005   5.923   6.023   5.793
 7702SOL    HW224006   5.993   6.105   5.916
 7703SOL     OW24007   6.782   6.530   5.916
 7703SOL    HW124008   6.799   6.607   5.977
 7703SOL    HW224009   6.861   6.469   5.918
 7704SOL     OW24010   1.840   2.013   4.884
 7704SOL    HW124011   1.768   2.070   4.845
 7704SOL    HW224012   1.799   1.942   4.942
 7705SOL     OW24013   0.682   4.521   0.317
 7705SOL    HW124014   0.721   4.606   0.352
 7705SOL    HW224015   0.642   4.469   0.393
 7706SOL     OW24016   3.221   3.406   2.302
 7706SOL    HW124017   3.267   3.494   2.287
 7706SOL    HW224018   3.209   3.392   2.400
 7707SOL     OW24019   0.216   4.845   6.390
 7707SOL    HW124020   0.239   4.851   6.293
 7707SOL    HW224021   0.301   4.844   6.444
 7708SOL     OW24022   0.258   0.311   4.397
 7708SOL    HW124023   0.277   0.304   4.300
 7708SOL    HW224024   0.273   0.222   4.440
 7709SOL     OW24025   5.911   4.568   1.083
 7709SOL    HW124026   5.945   4.477   1.057
 7709SOL    HW224027   5.831   4.591   1.027
 7710SOL     OW24028   6.472   3.211   2.377
 7710SOL    HW124029   6.496   3.304   2.349
 7710SOL    HW224030   6.466   3.152   2.297
 7711SOL     OW24031   0.746   4.023   3.369
 7711SOL    HW124032   0.728   3.932   3.407
 7711SOL    HW224033   0.826   4.062   3.414
 7712SOL     OW24034   1.370   4.803   4.454
 7712SOL    HW124035   1.453   4.837   4.409
 7712SOL    HW224036   1.339   4.719   4.409
 7713SOL     OW24037   0.955   5.283   0.661
 7713SOL    HW124038   1.018   5.272   0.584
 7713SOL    HW224039   0.936   5.380   0.674
 7714SOL     OW24040   5.904   1.687   4.995
 7714SOL    HW124041   5.891   1.588   5.007
 7714SOL    HW224042   5.986   1.704   4.941
 7715SOL     OW24043   3.879   3.682   6.606
 7715SOL    HW124044   3.970   3.639   6.604
 7715SOL    HW224045   3.814   3.621   6.649
 7716SOL     OW24046   1.220   1.083   6.687
 7716SOL    HW124047   1.133   1.125   6.711
 7716SOL    HW224048   1.230   0.996   6.736
 7717SOL     OW24049   0.969   1.463   5.854
 7717SOL    HW124050   1.043   1.526   5.832
 7717SOL    HW224051   0.884   1.514   5.867
 7718SOL     OW24052   0.396   3.251   3.258
 7718SOL    HW124053   0.338   3.252   3.340
 7718SOL    HW224054   0.477   3.308   3.274
 7719SOL     OW24055   1.958   6.195   5.032
 7719SOL    HW124056   1.903   6.142   4.967
 7719SOL    HW224057   1.973   6.141   5.114
 7720SOL     OW24058   4.608   1.554   6.686
 7720SOL    HW124059   4.570   1.645   6.704
 7720SOL    HW224060   4.675   1.559   6.612
 7721SOL     OW24061   5.878   5.764   2.492
 7721SOL    HW124062   5.895   5.711   2.575
 7721SOL    HW224063   5.784   5.796   2.492
 7722SOL     OW24064   7.006   6.074   4.378
 7722SOL    HW124065   6.968   6.135   4.447
 7722SOL    HW224066   0.051   6.016   4.419
 7723SOL     OW24067   4.054   4.575   6.739
 7723SOL    HW124068   4.076   4.491   6.789
 7723SOL    HW224069   4.046   4.651   6.803
 7724SOL     OW24070   1.434   4.329   0.083
 7724SOL    HW124071   1.405   4.259   0.149
 7724SOL    HW224072   1.435   4.290   7.016
 7725SOL     OW24073   5.286   3.221   4.985
 7725SOL    HW124074   5.292   3.291   4.914
 7725SOL    HW224075   5.374   3.210   5.030
 7726SOL     OW24076   1.953   3.048   0.309
 7726SOL    HW124077   1.914   2.956   0.316
 7726SOL    HW224078   1.985   3.078   0.399
 7727SOL     OW24079   5.903   0.471   2.632
 7727SOL    HW124080   5.837   0.411   2.678
 7727SOL    HW224081   5.904   0.560   2.677
 7728SOL     OW24082   2.212   3.328   5.254
 7728SOL    HW124083   2.198   3.267   5.176
 7728SOL    HW224084   2.275   3.285   5.319
 7729SOL     OW24085   6.881   1.196   2.756
 7729SOL    HW124086   6.795   1.156   2.789
 7729SOL    HW224087   6.894   1.286   2.797
 7730SOL     OW24088   5.851   4.506   6.034
 7730SOL    HW124089   5.760   4.476   6.063
 7730SOL    HW224090   5.920   4.470   6.098
 7731SOL     OW24091   6.836   0.638   6.537
 7731SOL    HW124092   6.829   0.570   6.464
 7731SOL    HW224093   6.747   0.650   6.580
 7732SOL     OW24094   4.263   0.966   6.963
 7732SOL    HW124095   4.279   0.886   6.905
 7732SOL    HW224096   4.181   0.950   7.019
 7733SOL     OW24097   6.437   5.793   1.214
 7733SOL    HW124098   6.473   5.765   1.125
 7733SOL    HW224099   6.367   5.864   1.201
 7734SOL     OW24100   3.957   3.754   3.469
 7734SOL    HW124101   4.010   3.797   3.396
 7734SOL    HW224102   3.997   3.666   3.492
 7735SOL     OW24103   1.158   5.682   0.520
 7735SOL    HW124104   1.156   5.742   0.599
 7735SOL    HW224105   1.133   5.733   0.438
 7736SOL     OW24106   1.568   1.574   0.889
 7736SOL    HW124107   1.562   1.518   0.807
 7736SOL    HW224108   1.489   1.635   0.894
 7737SOL     OW24109   4.942   4.731   6.314
 7737SOL    HW124110   4.903   4.688   6.233
 7737SOL    HW224111   4.880   4.802   6.348
 7738SOL     OW24112   1.701   1.468   5.288
 7738SOL    HW124113   1.665   1.379   5.260
 7738SOL    HW224114   1.764   1.456   5.365
 7739SOL     OW24115   0.998   2.766   0.144
 7739SOL    HW124116   0.978   2.729   0.053
 7739SOL    HW224117   1.033   2.859   0.135
 7740SOL     OW24118   2.255   1.314   4.334
 7740SOL    HW124119   2.229   1.261   4.415
 7740SOL    HW224120   2.228   1.265   4.251
 7741SOL     OW24121   0.025   4.107   6.252
 7741SOL    HW124122   6.992   4.154   6.185
 7741SOL    HW224123   0.076   4.175   6.305
 7742SOL     OW24124   4.455   2.164   3.561
 7742SOL    HW124125   4.367   2.133   3.525
 7742SOL    HW224126   4.442   2.248   3.614
 7743SOL     OW24127   3.167   0.829   6.537
 7743SOL    HW124128   3.212   0.877   6.461
 7743SOL    HW224129   3.097   0.888   6.576
 7744SOL     OW24130   0.495   6.634   4.883
 7744SOL    HW124131   0.584   6.589   4.881
 7744SOL    HW224132   0.425   6.566   4.908
 7745SOL     OW24133   2.733   0.053   0.510
 7745SOL    HW124134   2.712   0.041   0.608
 7745SOL    HW224135   2.832   0.051   0.497
 7746SOL     OW24136   6.829   6.599   0.720
 7746SOL    HW124137   6.781   6.518   0.753
 7746SOL    HW224138   6.881   6.640   0.795
 7747SOL     OW24139   0.148   5.836   1.420
 7747SOL    HW124140   0.050   5.841   1.405
 7747SOL    HW224141   0.184   5.927   1.441
 7748SOL     OW24142   4.113   0.879   6.116
 7748SOL    HW124143   4.201   0.914   6.149
 7748SOL    HW224144   4.042   0.947   6.135
 7749SOL     OW24145   3.333   3.826   2.883
 7749SOL    HW124146   3.286   3.914   2.881
 7749SOL    HW224147   3.407   3.826   2.815
 7750SOL     OW24148   5.259   4.997   6.312
 7750SOL    HW124149   5.333   4.986   6.379
 7750SOL    HW224150   5.291   5.053   6.236
 7751SOL     OW24151   0.457   1.099   4.989
 7751SOL    HW124152   0.485   1.145   4.905
 7751SOL    HW224153   0.529   1.109   5.058
 7752SOL     OW24154   6.404   4.403   5.544
 7752SOL    HW124155   6.456   4.320   5.564
 7752SOL    HW224156   6.364   4.438   5.629
 7753SOL     OW24157   3.151   0.693   4.917
 7753SOL    HW124158   3.180   0.707   5.011
 7753SOL    HW224159   3.089   0.614   4.912
 7754SOL     OW24160   6.439   0.686   1.095
 7754SOL    HW124161   6.472   0.602   1.138
 7754SOL    HW224162   6.346   0.672   1.060
 7755SOL     OW24163   1.417   6.040   5.110
 7755SOL    HW124164   1.364   6.112   5.155
 7755SOL    HW224165   1.497   6.018   5.165
 7756SOL     OW24166   4.036   5.922   3.139
 7756SOL    HW124167   3.990   5.883   3.059
 7756SOL    HW224168   4.117   5.868   3.160
 7757SOL     OW24169   3.397   0.260   5.967
 7757SOL    HW124170   3.495   0.273   5.950
 7757SOL    HW224171   3.347   0.340   5.934
 7758SOL     OW24172   2.335   2.198   6.318
 7758SOL    HW124173   2.251   2.252   6.313
 7758SOL    HW224174   2.411   2.251   6.281
 7759SOL     OW24175   1.844   0.655   4.627
 7759SOL    HW124176   1.813   0.581   4.686
 7759SOL    HW224177   1.937   0.681   4.653
 7760SOL     OW24178   5.273   2.332   3.223
 7760SOL    HW124179   5.209   2.260   3.251
 7760SOL    HW224180   5.284   2.330   3.123
 7761SOL     OW24181   4.510   1.308   6.785
 7761SOL    HW124182   4.426   1.357   6.807
 7761SOL    HW224183   4.589   1.363   6.813
 7762SOL     OW24184   1.092   2.415   0.647
 7762SOL    HW124185   1.107   2.426   0.745
 7762SOL    HW224186   1.173   2.374   0.605
 7763SOL     OW24187   2.300   2.492   0.900
 7763SOL    HW124188   2.364   2.506   0.975
 7763SOL    HW224189   2.319   2.405   0.855
 7764SOL     OW24190   3.146   3.351   1.871
 7764SOL    HW124191   3.164   3.403   1.787
 7764SOL    HW224192   3.047   3.345   1.886
 7765SOL     OW24193   6.790   1.621   1.948
 7765SOL    HW124194   6.803   1.673   2.032
 7765SOL    HW224195   6.708   1.653   1.901
 7766SOL     OW24196   0.019   2.821   6.550
 7766SOL    HW124197   6.991   2.906   6.560
 7766SOL    HW224198   0.028   2.777   6.639
 7767SOL     OW24199   5.463   4.022   5.095
 7767SOL    HW124200   5.456   4.118   5.066
 7767SOL    HW224201   5.408   3.965   5.033
 7768SOL     OW24202   3.711   5.471   1.492
 7768SOL    HW124203   3.763   5.422   1.562
 7768SOL    HW224204   3.763   5.473   1.407
 7769SOL     OW24205   5.633   2.273   2.538
 7769SOL    HW124206   5.594   2.355   2.579
 7769SOL    HW224207   5.724   2.295   2.501
 7770SOL     OW24208   3.601   6.343   1.090
 7770SOL    HW124209   3.586   6.419   1.027
 7770SOL    HW224210   3.572   6.257   1.046
 7771SOL     OW24211   1.418   1.443   4.610
 7771SOL    HW124212   1.345   1.502   4.646
 7771SOL    HW224213   1.422   1.452   4.511
 7772SOL     OW24214   5.659   0.639   5.412
 7772SOL    HW124215   5.722   0.678   5.479
 7772SOL    HW224216   5.710   0.594   5.339
 7773SOL     OW24217   3.960   4.343   6.172
 7773SOL    HW124218   3.860   4.345   6.163
 7773SOL    HW224219   4.001   4.391   6.094
 7774SOL     OW24220   5.507   2.002   6.694
 7774SOL    HW124221   5.546   2.082   6.647
 7774SOL    HW224222   5.574   1.927   6.693
 7775SOL     OW24223   1.781   6.802   2.473
 7775SOL    HW124224   1.754   6.898   2.473
 7775SOL    HW224225   1.790   6.770   2.378
 7776SOL     OW24226   3.406   4.151   0.603
 7776SOL    HW124227   3.403   4.230   0.541
 7776SOL    HW224228   3.491   4.153   0.655
 7777SOL     OW24229   0.633   0.564   6.260
 7777SOL    HW124230   0.711   0.507   6.236
 7777SOL    HW224231   0.605   0.544   6.354
 7778SOL     OW24232   4.280   1.651   1.996
 7778SOL    HW124233   4.350   1.654   1.925
 7778SOL    HW224234   4.254   1.744   2.021
 7779SOL     OW24235   4.094   3.034   0.309
 7779SOL    HW124236   4.153   3.041   0.228
 7779SOL    HW224237   4.020   2.970   0.291
 7780SOL     OW24238   0.920   0.277   4.623
 7780SOL    HW124239   0.943   0.184   4.595
 7780SOL    HW224240   0.881   0.326   4.545
 7781SOL     OW24241   1.687   3.879   5.561
 7781SOL    HW124242   1.668   3.885   5.463
 7781SOL    HW224243   1.786   3.869   5.575
 7782SOL     OW24244   4.450   4.517   7.021
 7782SOL    HW124245   4.421   4.608   0.026
 7782SOL    HW224246   4.442   4.452   0.072
 7783SOL     OW24247   2.984   6.104   0.226
 7783SOL    HW124248   2.963   6.023   0.281
 7783SOL    HW224249   2.926   6.180   0.255
 7784SOL     OW24250   6.438   4.040   0.541
 7784SOL    HW124251   6.528   4.008   0.570
 7784SOL    HW224252   6.390   3.967   0.493
 7785SOL     OW24253   1.524   6.191   6.328
 7785SOL    HW124254   1.547   6.183   6.425
 7785SOL    HW224255   1.464   6.116   6.302
 7786SOL     OW24256   3.527   4.086   5.278
 7786SOL    HW124257   3.527   3.988   5.258
 7786SOL    HW224258   3.617   4.125   5.258
 7787SOL     OW24259   3.129   2.173   5.393
 7787SOL    HW124260   3.161   2.218   5.310
 7787SOL    HW224261   3.137   2.074   5.383
 7788SOL     OW24262   6.816   2.175   1.205
 7788SOL    HW124263   6.877   2.117   1.151
 7788SOL    HW224264   6.770   2.120   1.275
 7789SOL     OW24265   1.587   0.217   1.844
 7789SOL    HW124266   1.596   0.210   1.944
 7789SOL    HW224267   1.490   0.224   1.820
 7790SOL     OW24268   7.020   3.155   2.470
 7790SOL    HW124269   6.920   3.156   2.468
 7790SOL    HW224270   0.031   3.105   2.391
 7791SOL     OW24271   0.061   5.373   5.589
 7791SOL    HW124272   7.010   5.421   5.633
 7791SOL    HW224273   0.148   5.413   5.620
 7792SOL     OW24274   1.790   5.723   6.255
 7792SOL    HW124275   1.736   5.742   6.173
 7792SOL    HW224276   1.887   5.735   6.236
 7793SOL     OW24277   2.302   0.651   6.482
 7793SOL    HW124278   2.286   0.700   6.397
 7793SOL    HW224279   2.394   0.674   6.517
 7794SOL     OW24280   5.535   5.127   2.786
 7794SOL    HW124281   5.508   5.222   2.774
 7794SOL    HW224282   5.634   5.122   2.804
 7795SOL     OW24283   0.958   4.029   6.694
 7795SOL    HW124284   0.921   4.105   6.748
 7795SOL    HW224285   1.051   4.009   6.724
 7796SOL     OW24286   4.136   3.538   4.800
 7796SOL    HW124287   4.124   3.453   4.851
 7796SOL    HW224288   4.226   3.577   4.822
 7797SOL     OW24289   1.330   6.819   3.535
 7797SOL    HW124290   1.238   6.784   3.518
 7797SOL    HW224291   1.374   6.763   3.606
 7798SOL     OW24292   4.294   5.860   6.456
 7798SOL    HW124293   4.195   5.843   6.455
 7798SOL    HW224294   4.330   5.840   6.546
 7799SOL     OW24295   6.144   6.058   2.123
 7799SOL    HW124296   6.087   6.089   2.047
 7799SOL    HW224297   6.097   5.985   2.173
 7800SOL     OW24298   0.983   5.957   1.870
 7800SOL    HW124299   0.888   5.927   1.861
 7800SOL    HW224300   0.989   6.022   1.946
 7801SOL     OW24301   4.327   2.044   5.071
 7801SOL    HW124302   4.283   2.019   5.157
 7801SOL    HW224303   4.287   1.992   4.997
 7802SOL     OW24304   5.758   2.720   6.868
 7802SOL    HW124305   5.669   2.704   6.911
 7802SOL    HW224306   5.826   2.742   6.938
 7803SOL     OW24307   3.409   3.840   5.922
 7803SOL    HW124308   3.424   3.891   5.838
 7803SOL    HW224309   3.496   3.806   5.957
 7804SOL     OW24310   5.116   0.680   6.391
 7804SOL    HW124311   5.078   0.710   6.303
 7804SOL    HW224312   5.117   0.758   6.455
 7805SOL     OW24313   5.377   3.087   1.391
 7805SOL    HW124314   5.432   3.032   1.328
 7805SOL    HW224315   5.300   3.128   1.341
 7806SOL     OW24316   5.023   2.851   0.055
 7806SOL    HW124317   4.943   2.813   0.100
 7806SOL    HW224318   5.089   2.881   0.124
 7807SOL     OW24319   0.786   3.705   0.015
 7807SOL    HW124320   0.787   3.609   7.011
 7807SOL    HW224321   0.693   3.730   0.043
 7808SOL     OW24322   0.234   0.941   5.375
 7808SOL    HW124323   0.213   0.923   5.471
 7808SOL    HW224324   0.150   0.966   5.327
 7809SOL     OW24325   1.443   5.667   5.400
 7809SOL    HW124326   1.408   5.577   5.426
 7809SOL    HW224327   1.487   5.709   5.479
 7810SOL     OW24328   2.943   1.499   6.820
 7810SOL    HW124329   2.996   1.520   6.902
 7810SOL    HW224330   2.883   1.421   6.838
 7811SOL     OW24331   6.662   4.679   5.133
 7811SOL    HW124332   6.637   4.771   5.164
 7811SOL    HW224333   6.680   4.621   5.213
 7812SOL     OW24334   0.109   1.798   3.550
 7812SOL    HW124335   0.016   1.769   3.529
 7812SOL    HW224336   0.141   1.749   3.632
 7813SOL     OW24337   6.376   2.287   0.908
 7813SOL    HW124338   6.333   2.198   0.916
 7813SOL    HW224339   6.395   2.323   0.999
 7814SOL     OW24340   1.974   2.912   5.181
 7814SOL    HW124341   1.878   2.929   5.203
 7814SOL    HW224342   2.019   2.998   5.159
 7815SOL     OW24343   6.904   1.848   5.418
 7815SOL    HW124344   6.867   1.841   5.510
 7815SOL    HW224345   6.911   1.945   5.392
 7816SOL     OW24346   0.818   4.849   5.025
 7816SOL    HW124347   0.751   4.884   4.959
 7816SOL    HW224348   0.781   4.767   5.069
 7817SOL     OW24349   5.390   3.053   5.807
 7817SOL    HW124350   5.333   3.117   5.755
 7817SOL    HW224351   5.471   3.030   5.753
 7818SOL     OW24352   5.551   3.416   3.426
 7818SOL    HW124353   5.496   3.497   3.444
 7818SOL    HW224354   5.504   3.358   3.359
 7819SOL     OW24355   1.023   1.326   1.409
 7819SOL    HW124356   0.956   1.364   1.345
 7819SOL    HW224357   0.994   1.345   1.503
 7820SOL     OW24358   2.843   6.869   6.483
 7820SOL    HW124359   2.843   6.797   6.414
 7820SOL    HW224360   2.898   6.841   6.561
 7821SOL     OW24361   2.978   5.461   0.982
 7821SOL    HW124362   2.934   5.399   0.917
 7821SOL    HW224363   2.907   5.503   1.040
 7822SOL     OW24364   1.586   6.415   5.511
 7822SOL    HW124365   1.633   6.379   5.591
 7822SOL    HW224366   1.633   6.497   5.478
 7823SOL     OW24367   1.971   3.553   5.495
 7823SOL    HW124368   1.917   3.593   5.569
 7823SOL    HW224369   2.040   3.491   5.533
 7824SOL     OW24370   1.004   3.027   5.311
 7824SOL    HW124371   1.040   2.983   5.229
 7824SOL    HW224372   1.074   3.029   5.382
 7825SOL     OW24373   2.490   0.616   0.209
 7825SOL    HW124374   2.411   0.614   0.148
 7825SOL    HW224375   2.572   0.590   0.159
 7826SOL     OW24376   0.822   3.935   6.077
 7826SOL    HW124377   0.735   3.924   6.124
 7826SOL    HW224378   0.852   3.847   6.040
 7827SOL     OW24379   6.139   4.935   4.103
 7827SOL    HW124380   6.217   4.909   4.046
 7827SOL    HW224381   6.152   5.029   4.135
 7828SOL     OW24382   1.156   5.652   6.005
 7828SOL    HW124383   1.163   5.744   5.966
 7828SOL    HW224384   1.077   5.647   6.065
 7829SOL     OW24385   4.469   5.003   0.634
 7829SOL    HW124386   4.388   4.945   0.631
 7829SOL    HW224387   4.544   4.954   0.677
 7830SOL     OW24388   1.845   5.370   3.795
 7830SOL    HW124389   1.801   5.429   3.864
 7830SOL    HW224390   1.781   5.301   3.765
 7831SOL     OW24391   1.774   0.147   6.489
 7831SOL    HW124392   1.731   0.070   6.442
 7831SOL    HW224393   1.753   0.232   6.442
 7832SOL     OW24394   6.611   1.397   5.640
 7832SOL    HW124395   6.527   1.365   5.599
 7832SOL    HW224396   6.686   1.336   5.617
 7833SOL     OW24397   1.153   0.190   3.154
 7833SOL    HW124398   1.245   0.152   3.145
 7833SOL    HW224399   1.112   0.160   3.240
 7834SOL     OW24400   6.682   3.715   5.054
 7834SOL    HW124401   6.663   3.624   5.089
 7834SOL    HW224402   6.642   3.725   4.963
 7835SOL     OW24403   3.592   2.387   5.655
 7835SOL    HW124404   3.522   2.322   5.685
 7835SOL    HW224405   3.566   2.426   5.567
 7836SOL     OW24406   3.013   3.735   5.111
 7836SOL    HW124407   3.095   3.788   5.131
 7836SOL    HW224408   3.039   3.648   5.069
 7837SOL     OW24409   1.004   5.638   6.550
 7837SOL    HW124410   1.011   5.712   6.618
 7837SOL    HW224411   0.997   5.550   6.598
 7838SOL     OW24412   4.171   5.145   1.603
 7838SOL    HW124413   4.264   5.160   1.570
 7838SOL    HW224414   4.106   5.171   1.532
 7839SOL     OW24415   6.081   3.915   4.860
 7839SOL    HW124416   6.029   3.954   4.785
 7839SOL    HW224417   6.063   3.816   4.866
 7840SOL     OW24418   2.045   2.506   3.541
 7840SOL    HW124419   2.066   2.602   3.560
 7840SOL    HW224420   2.083   2.480   3.453
 7841SOL     OW24421   4.416   1.705   5.681
 7841SOL    HW124422   4.511   1.673   5.681
 7841SOL    HW224423   4.396   1.749   5.769
 7842SOL     OW24424   1.174   0.667   0.936
 7842SOL    HW124425   1.253   0.612   0.910
 7842SOL    HW224426   1.191   0.763   0.912
 7843SOL     OW24427   6.813   6.604   2.194
 7843SOL    HW124428   6.902   6.591   2.238
 7843SOL    HW224429   6.777   6.515   2.165
 7844SOL     OW24430   4.074   0.076   2.468
 7844SOL    HW124431   4.018   7.021   2.491
 7844SOL    HW224432   4.046   0.154   2.524
 7845SOL     OW24433   6.452   3.228   1.503
 7845SOL    HW124434   6.385   3.168   1.459
 7845SOL    HW224435   6.512   3.267   1.433
 7846SOL     OW24436   0.726   1.580   0.539
 7846SOL    HW124437   0.729   1.481   0.525
 7846SOL    HW224438   0.632   1.608   0.557
 7847SOL     OW24439   5.603   4.468   6.150
 7847SOL    HW124440   5.549   4.487   6.232
 7847SOL    HW224441   5.548   4.489   6.069
 7848SOL     OW24442   4.073   5.031   0.411
 7848SOL    HW124443   4.040   5.019   0.505
 7848SOL    HW224444   4.110   4.945   0.377
 7849SOL     OW24445   4.356   5.306   6.677
 7849SOL    HW124446   4.418   5.230   6.656
 7849SOL    HW224447   4.263   5.282   6.648
 7850SOL     OW24448   6.913   0.978   3.517
 7850SOL    HW124449   6.936   0.903   3.455
 7850SOL    HW224450   6.937   0.952   3.610
 7851SOL     OW24451   0.505   5.021   0.552
 7851SOL    HW124452   0.413   5.024   0.514
 7851SOL    HW224453   0.500   5.006   0.651
 7852SOL     OW24454   1.111   3.304   6.119
 7852SOL    HW124455   1.132   3.322   6.023
 7852SOL    HW224456   1.193   3.316   6.174
 7853SOL     OW24457   4.042   2.992   1.746
 7853SOL    HW124458   4.138   2.988   1.716
 7853SOL    HW224459   3.983   2.995   1.666
 7854SOL     OW24460   3.824   1.160   1.253
 7854SOL    HW124461   3.727   1.153   1.230
 7854SOL    HW224462   3.865   1.069   1.249
 7855SOL     OW24463   5.120   6.462   3.903
 7855SOL    HW124464   5.206   6.432   3.944
 7855SOL    HW224465   5.118   6.437   3.807
 7856SOL     OW24466   2.308   6.296   5.919
 7856SOL    HW124467   2.360   6.216   5.950
 7856SOL    HW224468   2.370   6.360   5.874
 7857SOL     OW24469   6.425   5.079   0.563
 7857SOL    HW124470   6.429   5.170   0.605
 7857SOL    HW224471   6.366   5.020   0.618
 7858SOL     OW24472   0.557   3.824   6.162
 7858SOL    HW124473   0.552   3.728   6.134
 7858SOL    HW224474   0.465   3.864   6.159
 7859SOL     OW24475   4.733   2.226   0.807
 7859SOL    HW124476   4.795   2.177   0.868
 7859SOL    HW224477   4.639   2.199   0.827
 7860SOL     OW24478   1.959   1.855   3.484
 7860SOL    HW124479   1.956   1.872   3.583
 7860SOL    HW224480   2.006   1.931   3.438
 7861SOL     OW24481   1.746   5.878   0.831
 7861SOL    HW124482   1.729   5.976   0.820
 7861SOL    HW224483   1.742   5.833   0.741
 7862SOL     OW24484   1.438   6.557   0.065
 7862SOL    HW124485   1.358   6.559   0.006
 7862SOL    HW224486   1.410   6.544   0.160
 7863SOL     OW24487   0.123   3.937   3.674
 7863SOL    HW124488   0.071   3.879   3.738
 7863SOL    HW224489   0.220   3.928   3.694
 7864SOL     OW24490   3.021   5.160   5.139
 7864SOL    HW124491   3.119   5.144   5.125
 7864SOL    HW224492   3.008   5.226   5.213
 7865SOL     OW24493   6.218   5.170   3.927
 7865SOL    HW124494   6.122   5.167   3.954
 7865SOL    HW224495   6.226   5.215   3.838
 7866SOL     OW24496   1.300   1.033   5.405
 7866SOL    HW124497   1.330   1.036   5.310
 7866SOL    HW224498   1.374   1.063   5.465
 7867SOL     OW24499   3.674   4.898   3.341
 7867SOL    HW124500   3.726   4.978   3.312
 7867SOL    HW224501   3.672   4.894   3.441
 7868SOL     OW24502   3.452   6.080   1.317
 7868SOL    HW124503   3.547   6.087   1.287
 7868SOL    HW224504   3.429   6.161   1.372
 7869SOL     OW24505   5.680   4.765   0.009
 7869SOL    HW124506   5.755   4.820   0.046
 7869SOL    HW224507   5.717   4.682   6.991
 7870SOL     OW24508   6.830   6.995   3.787
 7870SOL    HW124509   6.783   0.037   3.729
 7870SOL    HW224510   6.927   6.993   3.763
 7871SOL     OW24511   4.696   1.088   0.440
 7871SOL    HW124512   4.629   1.084   0.514
 7871SOL    HW224513   4.765   1.016   0.454
 7872SOL     OW24514   6.852   4.339   3.893
 7872SOL    HW124515   6.898   4.324   3.805
 7872SOL    HW224516   6.775   4.276   3.900
 7873SOL     OW24517   4.212   2.512   6.592
 7873SOL    HW124518   4.175   2.594   6.549
 7873SOL    HW224519   4.312   2.515   6.592
 7874SOL     OW24520   6.479   2.800   6.909
 7874SOL    HW124521   6.463   2.883   6.962
 7874SOL    HW224522   6.525   2.824   6.824
 7875SOL     OW24523   0.130   4.703   6.967
 7875SOL    HW124524   0.072   4.650   6.905
 7875SOL    HW224525   0.120   4.668   0.036
 7876SOL     OW24526   1.191   6.652   3.335
 7876SOL    HW124527   1.221   6.671   3.241
 7876SOL    HW224528   1.265   6.606   3.384
 7877SOL     OW24529   0.633   2.815   2.030
 7877SOL    HW124530   0.685   2.731   2.019
 7877SOL    HW224531   0.668   2.867   2.108
 7878SOL     OW24532   3.695   0.553   2.276
 7878SOL    HW124533   3.702   0.639   2.326
 7878SOL    HW224534   3.675   0.479   2.341
 7879SOL     OW24535   2.735   5.845   2.549
 7879SOL    HW124536   2.681   5.836   2.633
 7879SOL    HW224537   2.768   5.755   2.521
 7880SOL     OW24538   0.755   4.475   2.017
 7880SOL    HW124539   0.783   4.382   1.992
 7880SOL    HW224540   0.668   4.497   1.973
 7881SOL     OW24541   4.813   2.556   3.553
 7881SOL    HW124542   4.884   2.622   3.578
 7881SOL    HW224543   4.755   2.538   3.632
 7882SOL     OW24544   0.044   2.784   6.847
 7882SOL    HW124545   6.993   2.835   6.887
 7882SOL    HW224546   0.059   2.701   6.901
 7883SOL     OW24547   0.770   6.830   4.653
 7883SOL    HW124548   0.728   6.908   4.700
 7883SOL    HW224549   0.700   6.765   4.626
 7884SOL     OW24550   1.797   2.689   4.255
 7884SOL    HW124551   1.703   2.665   4.232
 7884SOL    HW224552   1.801   2.728   4.347
 7885SOL     OW24553   6.957   6.140   6.790
 7885SOL    HW124554   6.940   6.042   6.805
 7885SOL    HW224555   6.877   6.192   6.820
 7886SOL     OW24556   4.791   4.143   0.577
 7886SOL    HW124557   4.816   4.204   0.653
 7886SOL    HW224558   4.864   4.144   0.508
 7887SOL     OW24559   4.708   2.187   6.077
 7887SOL    HW124560   4.685   2.091   6.093
 7887SOL    HW224561   4.772   2.218   6.147
 7888SOL     OW24562   3.810   5.873   4.373
 7888SOL    HW124563   3.814   5.922   4.287
 7888SOL    HW224564   3.847   5.781   4.361
 7889SOL     OW24565   6.411   4.989   3.886
 7889SOL    HW124566   6.470   4.974   3.966
 7889SOL    HW224567   6.341   5.057   3.908
 7890SOL     OW24568   1.633   3.798   2.669
 7890SOL    HW124569   1.719   3.846   2.680
 7890SOL    HW224570   1.611   3.749   2.753
 7891SOL     OW24571   0.734   4.182   3.173
 7891SOL    HW124572   0.727   4.121   3.252
 7891SOL    HW224573   0.750   4.276   3.204
 7892SOL     OW24574   2.353   2.108   4.942
 7892SOL    HW124575   2.317   2.102   4.849
 7892SOL    HW224576   2.288   2.066   5.006
 7893SOL     OW24577   5.185   6.706   1.098
 7893SOL    HW124578   5.233   6.703   1.011
 7893SOL    HW224579   5.160   6.801   1.119
 7894SOL     OW24580   2.857   0.110   1.136
 7894SOL    HW124581   2.949   0.121   1.176
 7894SOL    HW224582   2.830   0.196   1.093
 7895SOL     OW24583   0.496   1.618   4.192
 7895SOL    HW124584   0.428   1.612   4.266
 7895SOL    HW224585   0.451   1.600   4.104
 7896SOL     OW24586   3.658   2.184   6.526
 7896SOL    HW124587   3.704   2.245   6.591
 7896SOL    HW224588   3.560   2.182   6.545
 7897SOL     OW24589   2.902   3.570   6.980
 7897SOL    HW124590   2.975   3.636   6.999
 7897SOL    HW224591   2.910   3.492   0.018
 7898SOL     OW24592   5.205   1.474   4.283
 7898SOL    HW124593   5.189   1.389   4.232
 7898SOL    HW224594   5.119   1.506   4.323
 7899SOL     OW24595   4.503   1.074   2.323
 7899SOL    HW124596   4.543   1.161   2.294
 7899SOL    HW224597   4.464   1.085   2.415
 7900SOL     OW24598   0.742   5.862   1.844
 7900SOL    HW124599   0.690   5.861   1.759
 7900SOL    HW224600   0.680   5.874   1.922
 7901SOL     OW24601   6.176   4.642   1.478
 7901SOL    HW124602   6.224   4.561   1.446
 7901SOL    HW224603   6.115   4.675   1.406
 7902SOL     OW24604   5.096   4.287   6.101
 7902SOL    HW124605   5.007   4.298   6.057
 7902SOL    HW224606   5.166   4.272   6.031
 7903SOL     OW24607   0.176   2.749   1.788
 7903SOL    HW124608   0.275   2.756   1.772
 7903SOL    HW224609   0.147   2.826   1.845
 7904SOL     OW24610   5.645   2.465   3.504
 7904SOL    HW124611   5.549   2.445   3.484
 7904SOL    HW224612   5.674   2.545   3.453
 7905SOL     OW24613   1.864   1.527   2.137
 7905SOL    HW124614   1.951   1.483   2.160
 7905SOL    HW224615   1.822   1.564   2.219
 7906SOL     OW24616   0.895   5.019   6.920
 7906SOL    HW124617   0.979   5.039   6.870
 7906SOL    HW224618   0.875   4.921   6.917
 7907SOL     OW24619   0.665   2.560   2.566
 7907SOL    HW124620   0.753   2.597   2.594
 7907SOL    HW224621   0.678   2.472   2.520
 7908SOL     OW24622   0.336   1.498   2.903
 7908SOL    HW124623   0.246   1.485   2.862
 7908SOL    HW224624   0.405   1.450   2.849
 7909SOL     OW24625   4.344   6.559   4.810
 7909SOL    HW124626   4.361   6.649   4.851
 7909SOL    HW224627   4.346   6.489   4.881
 7910SOL     OW24628   6.586   2.916   5.739
 7910SOL    HW124629   6.606   2.828   5.782
 7910SOL    HW224630   6.666   2.975   5.746
 7911SOL     OW24631   0.082   5.533   6.328
 7911SOL    HW124632   0.073   5.434   6.313
 7911SOL    HW224633   7.021   5.578   6.302
 7912SOL     OW24634   6.925   5.752   5.318
 7912SOL    HW124635   6.868   5.802   5.253
 7912SOL    HW224636   6.866   5.703   5.382
 7913SOL     OW24637   1.609   6.470   6.592
 7913SOL    HW124638   1.667   6.391   6.611
 7913SOL    HW224639   1.619   6.496   6.495
 7914SOL     OW24640   6.011   4.804   0.576
 7914SOL    HW124641   6.019   4.822   0.674
 7914SOL    HW224642   6.071   4.865   0.525
 7915SOL     OW24643   2.923   0.940   3.038
 7915SOL    HW124644   2.876   0.983   2.961
 7915SOL    HW224645   2.860   0.879   3.086
 7916SOL     OW24646   4.333   3.783   5.290
 7916SOL    HW124647   4.238   3.790   5.258
 7916SOL    HW224648   4.361   3.687   5.291
 7917SOL     OW24649   3.926   4.055   3.725
 7917SOL    HW124650   3.944   4.114   3.804
 7917SOL    HW224651   3.896   4.111   3.648
 7918SOL     OW24652   5.437   1.865   1.712
 7918SOL    HW124653   5.467   1.926   1.785
 7918SOL    HW224654   5.517   1.832   1.661
 7919SOL     OW24655   5.176   3.902   2.707
 7919SOL    HW124656   5.263   3.950   2.718
 7919SOL    HW224657   5.108   3.941   2.770
 7920SOL     OW24658   0.416   6.437   0.846
 7920SOL    HW124659   0.411   6.345   0.886
 7920SOL    HW224660   0.324   6.475   0.839
 7921SOL     OW24661   3.278   5.382   2.223
 7921SOL    HW124662   3.222   5.459   2.190
 7921SOL    HW224663   3.235   5.296   2.196
 7922SOL     OW24664   0.834   4.501   4.917
 7922SOL    HW124665   0.816   4.559   4.996
 7922SOL    HW224666   0.771   4.523   4.844
 7923SOL     OW24667   1.033   2.088   3.535
 7923SOL    HW124668   1.124   2.095   3.576
 7923SOL    HW224669   1.034   2.129   3.444
 7924SOL     OW24670   2.155   1.085   3.431
 7924SOL    HW124671   2.231   1.085   3.495
 7924SOL    HW224672   2.092   1.160   3.454
 7925SOL     OW24673   0.834   1.190   0.265
 7925SOL    HW124674   0.814   1.093   0.254
 7925SOL    HW224675   0.797   1.240   0.186
 7926SOL     OW24676   3.027   0.669   1.705
 7926SOL    HW124677   2.992   0.754   1.667
 7926SOL    HW224678   3.120   0.682   1.738
 7927SOL     OW24679   4.618   5.353   4.540
 7927SOL    HW124680   4.542   5.345   4.605
 7927SOL    HW224681   4.594   5.417   4.468
 7928SOL     OW24682   0.540   3.747   0.084
 7928SOL    HW124683   0.485   3.669   0.112
 7928SOL    HW224684   0.480   3.826   0.067
 7929SOL     OW24685   3.733   4.069   4.929
 7929SOL    HW124686   3.752   4.121   4.845
 7929SOL    HW224687   3.649   4.103   4.970
 7930SOL     OW24688   3.916   6.853   2.503
 7930SOL    HW124689   3.847   6.784   2.480
 7930SOL    HW224690   4.007   6.810   2.504
 7931SOL     OW24691   2.989   3.150   5.750
 7931SOL    HW124692   2.999   3.178   5.654
 7931SOL    HW224693   2.962   3.054   5.754
 7932SOL     OW24694   3.034   1.038   0.383
 7932SOL    HW124695   2.957   1.098   0.408
 7932SOL    HW224696   3.043   0.966   0.452
 7933SOL     OW24697   2.430   1.372   6.254
 7933SOL    HW124698   2.511   1.394   6.309
 7933SOL    HW224699   2.359   1.441   6.272
 7934SOL     OW24700   4.443   2.021   5.806
 7934SOL    HW124701   4.377   2.034   5.880
 7934SOL    HW224702   4.492   1.934   5.820
 7935SOL     OW24703   5.129   5.517   1.844
 7935SOL    HW124704   5.140   5.422   1.872
 7935SOL    HW224705   5.152   5.526   1.747
 7936SOL     OW24706   4.031   6.214   1.860
 7936SOL    HW124707   4.031   6.302   1.811
 7936SOL    HW224708   4.095   6.219   1.936
 7937SOL     OW24709   5.866   1.577   6.070
 7937SOL    HW124710   5.896   1.632   6.148
 7937SOL    HW224711   5.928   1.591   5.994
 7938SOL     OW24712   6.539   4.609   4.098
 7938SOL    HW124713   6.550   4.526   4.153
 7938SOL    HW224714   6.616   4.617   4.034
 7939SOL     OW24715   6.964   5.989   3.337
 7939SOL    HW124716   6.956   6.088   3.346
 7939SOL    HW224717   6.881   5.952   3.296
 7940SOL     OW24718   1.877   6.425   0.725
 7940SOL    HW124719   1.848   6.470   0.640
 7940SOL    HW224720   1.798   6.387   0.772
 7941SOL     OW24721   0.823   0.719   0.826
 7941SOL    HW124722   0.881   0.742   0.748
 7941SOL    HW224723   0.877   0.721   0.910
 7942SOL     OW24724   1.071   0.279   1.794
 7942SOL    HW124725   1.025   0.203   1.746
 7942SOL    HW224726   1.004   0.350   1.815
 7943SOL     OW24727   6.259   2.098   0.402
 7943SOL    HW124728   6.162   2.121   0.401
 7943SOL    HW224729   6.269   1.999   0.414
 7944SOL     OW24730   6.949   4.228   2.049
 7944SOL    HW124731   6.850   4.239   2.050
 7944SOL    HW224732   6.974   4.147   2.101
 7945SOL     OW24733   5.346   0.128   1.366
 7945SOL    HW124734   5.271   0.159   1.424
 7945SOL    HW224735   5.377   0.204   1.309
 7946SOL     OW24736   2.341   1.478   5.514
 7946SOL    HW124737   2.434   1.511   5.498
 7946SOL    HW224738   2.282   1.510   5.439
 7947SOL     OW24739   4.537   5.333   6.307
 7947SOL    HW124740   4.466   5.358   6.374
 7947SOL    HW224741   4.526   5.389   6.225
 7948SOL     OW24742   0.873   5.309   5.403
 7948SOL    HW124743   0.965   5.344   5.385
 7948SOL    HW224744   0.828   5.366   5.472
 7949SOL     OW24745   6.996   3.262   4.411
 7949SOL    HW124746   6.903   3.293   4.394
 7949SOL    HW224747   0.015   3.324   4.477
 7950SOL     OW24748   3.257   5.090   4.053
 7950SOL    HW124749   3.182   5.151   4.081
 7950SOL    HW224750   3.324   5.143   4.000
 7951SOL     OW24751   2.250   3.719   0.543
 7951SOL    HW124752   2.264   3.818   0.539
 7951SOL    HW224753   2.334   3.672   0.516
 7952SOL     OW24754   5.745   4.447   0.650
 7952SOL    HW124755   5.786   4.358   0.672
 7952SOL    HW224756   5.753   4.507   0.729
 7953SOL     OW24757   2.116   4.173   1.903
 7953SOL    HW124758   2.182   4.107   1.868
 7953SOL    HW224759   2.089   4.147   1.996
 7954SOL     OW24760   5.887   4.902   4.027
 7954SOL    HW124761   5.840   4.980   4.068
 7954SOL    HW224762   5.981   4.899   4.060
 7955SOL     OW24763   1.938   6.444   6.322
 7955SOL    HW124764   1.970   6.417   6.232
 7955SOL    HW224765   1.941   6.365   6.383
 7956SOL     OW24766   5.697   5.844   2.889
 7956SOL    HW124767   5.614   5.899   2.891
 7956SOL    HW224768   5.681   5.761   2.837
 7957SOL     OW24769   1.893   2.351   0.749
 7957SOL    HW124770   1.885   2.261   0.791
 7957SOL    HW224771   1.950   2.410   0.807
 7958SOL     OW24772   2.509   5.569   3.675
 7958SOL    HW124773   2.479   5.665   3.669
 7958SOL    HW224774   2.572   5.550   3.600
 7959SOL     OW24775   4.752   5.611   1.888
 7959SOL    HW124776   4.750   5.571   1.797
 7959SOL    HW224777   4.819   5.562   1.944
 7960SOL     OW24778   1.833   2.417   1.310
 7960SOL    HW124779   1.767   2.490   1.290
 7960SOL    HW224780   1.879   2.436   1.396
 7961SOL     OW24781   0.711   5.884   0.338
 7961SOL    HW124782   0.689   5.790   0.311
 7961SOL    HW224783   0.776   5.882   0.414
 7962SOL     OW24784   1.529   0.150   2.669
 7962SOL    HW124785   1.619   0.137   2.627
 7962SOL    HW224786   1.473   0.069   2.653
 7963SOL     OW24787   0.446   6.397   6.236
 7963SOL    HW124788   0.363   6.341   6.235
 7963SOL    HW224789   0.505   6.367   6.310
 7964SOL     OW24790   6.262   5.400   3.331
 7964SOL    HW124791   6.245   5.302   3.332
 7964SOL    HW224792   6.357   5.418   3.358
 7965SOL     OW24793   4.062   1.334   0.440
 7965SOL    HW124794   3.972   1.338   0.397
 7965SOL    HW224795   4.055   1.290   0.530
 7966SOL     OW24796   0.159   1.047   3.892
 7966SOL    HW124797   0.083   1.056   3.956
 7966SOL    HW224798   0.170   1.132   3.841
 7967SOL     OW24799   3.166   0.560   3.494
 7967SOL    HW124800   3.203   0.468   3.480
 7967SOL    HW224801   3.087   0.573   3.435
 7968SOL     OW24802   2.355   0.909   0.965
 7968SOL    HW124803   2.364   0.816   1.000
 7968SOL    HW224804   2.263   0.922   0.929
 7969SOL     OW24805   3.624   1.558   3.441
 7969SOL    HW124806   3.659   1.480   3.389
 7969SOL    HW224807   3.526   1.546   3.458
 7970SOL     OW24808   0.585   4.426   3.261
 7970SOL    HW124809   0.589   4.524   3.244
 7970SOL    HW224810   0.605   4.408   3.357
 7971SOL     OW24811   2.968   1.979   2.246
 7971SOL    HW124812   2.914   1.898   2.267
 7971SOL    HW224813   2.981   1.985   2.147
 7972SOL     OW24814   5.802   6.136   1.793
 7972SOL    HW124815   5.872   6.067   1.770
 7972SOL    HW224816   5.716   6.090   1.813
 7973SOL     OW24817   5.318   2.041   3.058
 7973SOL    HW124818   5.232   2.090   3.065
 7973SOL    HW224819   5.361   2.036   3.148
 7974SOL     OW24820   5.075   6.207   4.407
 7974SOL    HW124821   5.082   6.148   4.326
 7974SOL    HW224822   4.981   6.240   4.416
 7975SOL     OW24823   1.587   1.972   2.329
 7975SOL    HW124824   1.661   2.015   2.380
 7975SOL    HW224825   1.529   2.043   2.288
 7976SOL     OW24826   1.351   6.885   6.811
 7976SOL    HW124827   1.395   6.885   6.722
 7976SOL    HW224828   1.420   6.879   6.883
 7977SOL     OW24829   5.117   6.221   1.200
 7977SOL    HW124830   5.042   6.201   1.137
 7977SOL    HW224831   5.202   6.230   1.148
 7978SOL     OW24832   3.153   1.883   5.870
 7978SOL    HW124833   3.127   1.958   5.808
 7978SOL    HW224834   3.187   1.921   5.956
 7979SOL     OW24835   4.824   5.979   4.013
 7979SOL    HW124836   4.895   5.931   4.064
 7979SOL    HW224837   4.783   6.050   4.070
 7980SOL     OW24838   2.829   0.546   2.192
 7980SOL    HW124839   2.832   0.575   2.096
 7980SOL    HW224840   2.829   0.446   2.195
 7981SOL     OW24841   0.774   6.409   2.314
 7981SOL    HW124842   0.837   6.332   2.307
 7981SOL    HW224843   0.770   6.441   2.409
 7982SOL     OW24844   0.242   2.992   0.580
 7982SOL    HW124845   0.166   2.946   0.627
 7982SOL    HW224846   0.207   3.071   0.530
 7983SOL     OW24847   5.513   2.443   1.020
 7983SOL    HW124848   5.434   2.430   1.081
 7983SOL    HW224849   5.568   2.359   1.018
 7984SOL     OW24850   6.446   0.528   0.683
 7984SOL    HW124851   6.515   0.563   0.620
 7984SOL    HW224852   6.485   0.453   0.738
 7985SOL     OW24853   1.065   1.413   0.824
 7985SOL    HW124854   1.007   1.332   0.831
 7985SOL    HW224855   1.009   1.494   0.805
 7986SOL     OW24856   4.747   3.724   0.667
 7986SOL    HW124857   4.806   3.656   0.623
 7986SOL    HW224858   4.653   3.711   0.634
 7987SOL     OW24859   0.520   3.427   5.105
 7987SOL    HW124860   0.603   3.445   5.051
 7987SOL    HW224861   0.449   3.491   5.077
 7988SOL     OW24862   2.804   1.071   5.386
 7988SOL    HW124863   2.715   1.032   5.410
 7988SOL    HW224864   2.876   1.011   5.418
 7989SOL     OW24865   3.553   3.549   6.619
 7989SOL    HW124866   3.495   3.472   6.593
 7989SOL    HW224867   3.529   3.629   6.563
 7990SOL     OW24868   2.200   2.684   4.811
 7990SOL    HW124869   2.213   2.729   4.723
 7990SOL    HW224870   2.215   2.586   4.800
 7991SOL     OW24871   2.510   3.223   5.967
 7991SOL    HW124872   2.604   3.236   5.936
 7991SOL    HW224873   2.494   3.279   6.048
 7992SOL     OW24874   2.914   1.499   0.727
 7992SOL    HW124875   2.938   1.475   0.633
 7992SOL    HW224876   2.888   1.417   0.778
 7993SOL     OW24877   2.798   5.417   6.143
 7993SOL    HW124878   2.833   5.489   6.083
 7993SOL    HW224879   2.699   5.424   6.150
 7994SOL     OW24880   5.649   0.366   4.494
 7994SOL    HW124881   5.746   0.363   4.519
 7994SOL    HW224882   5.633   0.307   4.415
 7995SOL     OW24883   4.296   5.356   2.488
 7995SOL    HW124884   4.240   5.429   2.448
 7995SOL    HW224885   4.265   5.267   2.452
 7996SOL     OW24886   4.325   1.481   5.500
 7996SOL    HW124887   4.418   1.445   5.502
 7996SOL    HW224888   4.316   1.557   5.564
 7997SOL     OW24889   5.354   3.076   0.854
 7997SOL    HW124890   5.292   3.056   0.931
 7997SOL    HW224891   5.432   3.128   0.887
 7998SOL     OW24892   6.604   4.961   6.079
 7998SOL    HW124893   6.642   5.052   6.093
 7998SOL    HW224894   6.548   4.960   5.996
 7999SOL     OW24895   2.727   2.628   5.643
 7999SOL    HW124896   2.775   2.698   5.589
 7999SOL    HW224897   2.654   2.588   5.588
 8000SOL     OW24898   4.757   0.557   5.990
 8000SOL    HW124899   4.720   0.506   6.068
 8000SOL    HW224900   4.856   0.554   5.992
 8001SOL     OW24901   2.413   5.022   0.239
 8001SOL    HW124902   2.472   4.956   0.285
 8001SOL    HW224903   2.348   5.059   0.305
 8002SOL     OW24904   4.802   2.241   5.739
 8002SOL    HW124905   4.747   2.159   5.751
 8002SOL    HW224906   4.748   2.322   5.763
 8003SOL     OW24907   5.106   5.564   3.110
 8003SOL    HW124908   5.012   5.531   3.121
 8003SOL    HW224909   5.160   5.494   3.063
 8004SOL     OW24910   1.002   4.071   3.445
 8004SOL    HW124911   1.063   3.999   3.480
 8004SOL    HW224912   1.028   4.094   3.351
 8005SOL     OW24913   2.020   0.803   2.401
 8005SOL    HW124914   2.063   0.759   2.322
 8005SOL    HW224915   2.087   0.814   2.474
 8006SOL     OW24916   4.267   5.773   1.980
 8006SOL    HW124917   4.191   5.825   1.940
 8006SOL    HW224918   4.340   5.836   2.007
 8007SOL     OW24919   0.258   1.351   4.269
 8007SOL    HW124920   0.192   1.377   4.199
 8007SOL    HW224921   0.268   1.426   4.334
 8008SOL     OW24922   5.753   5.579   1.368
 8008SOL    HW124923   5.731   5.489   1.329
 8008SOL    HW224924   5.672   5.637   1.366
 8009SOL     OW24925   6.982   6.950   3.118
 8009SOL    HW124926   0.005   0.013   3.120
 8009SOL    HW224927   6.902   6.954   3.178
 8010SOL     OW24928   1.967   2.020   6.933
 8010SOL    HW124929   2.048   2.077   6.950
 8010SOL    HW224930   1.967   1.991   6.837
 8011SOL     OW24931   2.140   2.957   6.950
 8011SOL    HW124932   2.191   2.910   7.022
 8011SOL    HW224933   2.170   2.923   6.861
 8012SOL     OW24934   2.421   6.553   3.262
 8012SOL    HW124935   2.470   6.640   3.256
 8012SOL    HW224936   2.479   6.484   3.306
 8013SOL     OW24937   6.346   5.403   4.822
 8013SOL    HW124938   6.441   5.375   4.835
 8013SOL    HW224939   6.324   5.404   4.725
 8014SOL     OW24940   2.608   6.850   6.981
 8014SOL    HW124941   2.609   6.922   6.911
 8014SOL    HW224942   2.556   6.772   6.947
 8015SOL     OW24943   1.499   2.119   0.526
 8015SOL    HW124944   1.545   2.031   0.517
 8015SOL    HW224945   1.407   2.113   0.489
 8016SOL     OW24946   4.151   6.278   2.085
 8016SOL    HW124947   4.207   6.360   2.090
 8016SOL    HW224948   4.058   6.298   2.114
 8017SOL     OW24949   6.483   3.590   5.351
 8017SOL    HW124950   6.490   3.685   5.381
 8017SOL    HW224951   6.543   3.533   5.406
 8018SOL     OW24952   4.842   3.167   3.639
 8018SOL    HW124953   4.836   3.262   3.607
 8018SOL    HW224954   4.886   3.111   3.569
 8019SOL     OW24955   3.378   5.157   1.201
 8019SOL    HW124956   3.316   5.235   1.196
 8019SOL    HW224957   3.360   5.106   1.286
 8020SOL     OW24958   5.809   0.393   6.439
 8020SOL    HW124959   5.756   0.340   6.373
 8020SOL    HW224960   5.799   0.352   6.530
 8021SOL     OW24961   6.323   1.226   1.211
 8021SOL    HW124962   6.360   1.150   1.158
 8021SOL    HW224963   6.227   1.208   1.232
 8022SOL     OW24964   5.111   5.353   3.764
 8022SOL    HW124965   5.133   5.273   3.820
 8022SOL    HW224966   5.028   5.395   3.799
 8023SOL     OW24967   0.414   6.004   3.806
 8023SOL    HW124968   0.410   6.071   3.732
 8023SOL    HW224969   0.325   6.000   3.851
 8024SOL     OW24970   4.254   5.589   4.622
 8024SOL    HW124971   4.345   5.560   4.648
 8024SOL    HW224972   4.200   5.510   4.591
 8025SOL     OW24973   3.500   5.841   0.552
 8025SOL    HW124974   3.499   5.909   0.478
 8025SOL    HW224975   3.486   5.750   0.513
 8026SOL     OW24976   2.250   1.859   6.234
 8026SOL    HW124977   2.281   1.898   6.321
 8026SOL    HW224978   2.329   1.838   6.176
 8027SOL     OW24979   4.276   3.145   5.275
 8027SOL    HW124980   4.353   3.193   5.318
 8027SOL    HW224981   4.273   3.051   5.307
 8028SOL     OW24982   6.023   5.112   0.693
 8028SOL    HW124983   5.932   5.150   0.681
 8028SOL    HW224984   6.067   5.103   0.603
 8029SOL     OW24985   3.287   4.085   6.159
 8029SOL    HW124986   3.297   4.120   6.066
 8029SOL    HW224987   3.276   4.162   6.222
 8030SOL     OW24988   6.480   3.487   1.000
 8030SOL    HW124989   6.560   3.547   1.000
 8030SOL    HW224990   6.433   3.493   1.088
 8031SOL     OW24991   3.866   6.375   1.070
 8031SOL    HW124992   3.768   6.359   1.077
 8031SOL    HW224993   3.886   6.423   0.985
 8032SOL     OW24994   4.755   3.571   5.668
 8032SOL    HW124995   4.849   3.598   5.689
 8032SOL    HW224996   4.719   3.629   5.596
 8033SOL     OW24997   6.275   1.752   1.704
 8033SOL    HW124998   6.353   1.814   1.704
 8033SOL    HW224999   6.203   1.790   1.762
 8034SOL     OW25000   6.455   2.017   5.729
 8034SOL    HW125001   6.373   2.039   5.781
 8034SOL    HW225002   6.474   1.919   5.734
 8035SOL     OW25003   5.432   6.070   5.690
 8035SOL    HW125004   5.532   6.070   5.679
 8035SOL    HW225005   5.409   6.039   5.782
 8036SOL     OW25006   1.641   4.364   1.822
 8036SOL    HW125007   1.613   4.281   1.870
 8036SOL    HW225008   1.741   4.370   1.821
 8037SOL     OW25009   2.330   3.218   1.753
 8037SOL    HW125010   2.354   3.315   1.762
 8037SOL    HW225011   2.260   3.207   1.682
 8038SOL     OW25012   5.500   1.206   4.165
 8038SOL    HW125013   5.585   1.203   4.112
 8038SOL    HW225014   5.438   1.135   4.132
 8039SOL     OW25015   2.017   5.980   3.875
 8039SOL    HW125016   2.059   5.897   3.911
 8039SOL    HW225017   2.069   6.060   3.907
 8040SOL     OW25018   5.827   5.871   6.701
 8040SOL    HW125019   5.920   5.879   6.737
 8040SOL    HW225020   5.830   5.872   6.601
 8041SOL     OW25021   3.033   2.345   1.229
 8041SOL    HW125022   3.090   2.264   1.231
 8041SOL    HW225023   3.077   2.418   1.281
 8042SOL     OW25024   2.003   5.128   6.729
 8042SOL    HW125025   1.950   5.052   6.768
 8042SOL    HW225026   2.032   5.190   6.802
 8043SOL     OW25027   2.878   0.449   1.382
 8043SOL    HW125028   2.838   0.464   1.473
 8043SOL    HW225029   2.952   0.515   1.367
 8044SOL     OW25030   3.137   3.080   2.018
 8044SOL    HW125031   3.043   3.070   2.050
 8044SOL    HW225032   3.157   3.177   2.003
 8045SOL     OW25033   6.248   2.767   3.577
 8045SOL    HW125034   6.345   2.779   3.597
 8045SOL    HW225035   6.198   2.751   3.662
 8046SOL     OW25036   6.741   5.506   5.052
 8046SOL    HW125037   6.838   5.517   5.076
 8046SOL    HW225038   6.685   5.558   5.116
 8047SOL     OW25039   2.511   6.853   4.469
 8047SOL    HW125040   2.588   6.887   4.415
 8047SOL    HW225041   2.449   6.929   4.490
 8048SOL     OW25042   5.411   0.351   5.395
 8048SOL    HW125043   5.431   0.422   5.326
 8048SOL    HW225044   5.313   0.353   5.416
 8049SOL     OW25045   1.846   6.915   6.940
 8049SOL    HW125046   1.756   6.958   6.946
 8049SOL    HW225047   1.861   6.858   7.021
 8050SOL     OW25048   0.215   3.156   1.763
 8050SOL    HW125049   0.200   3.249   1.798
 8050SOL    HW225050   0.304   3.152   1.719
 8051SOL     OW25051   2.553   1.638   3.827
 8051SOL    HW125052   2.650   1.627   3.805
 8051SOL    HW225053   2.542   1.707   3.898
 8052SOL     OW25054   3.880   1.770   2.632
 8052SOL    HW125055   3.783   1.750   2.620
 8052SOL    HW225056   3.902   1.857   2.588
 8053SOL     OW25057   4.301   3.493   1.712
 8053SOL    HW125058   4.237   3.532   1.645
 8053SOL    HW225059   4.274   3.400   1.735
 8054SOL     OW25060   4.788   6.296   4.416
 8054SOL    HW125061   4.716   6.234   4.386
 8054SOL    HW225062   4.753   6.389   4.422
 8055SOL     OW25063   1.698   0.115   5.384
 8055SOL    HW125064   1.789   0.119   5.426
 8055SOL    HW225065   1.703   0.070   5.295
 8056SOL     OW25066   4.419   1.095   2.586
 8056SOL    HW125067   4.489   1.163   2.607
 8056SOL    HW225068   4.331   1.124   2.623
 8057SOL     OW25069   3.422   6.931   3.746
 8057SOL    HW125070   3.464   6.989   3.816
 8057SOL    HW225071   3.347   6.879   3.787
 8058SOL     OW25072   1.962   0.060   2.963
 8058SOL    HW125073   2.023   0.048   2.885
 8058SOL    HW225074   1.981   0.147   3.008
 8059SOL     OW25075   1.390   1.281   4.088
 8059SOL    HW125076   1.366   1.239   4.000
 8059SOL    HW225077   1.488   1.298   4.091
 8060SOL     OW25078   0.536   2.794   5.193
 8060SOL    HW125079   0.633   2.775   5.207
 8060SOL    HW225080   0.484   2.709   5.199
 8061SOL     OW25081   5.905   6.724   3.371
 8061SOL    HW125082   5.819   6.677   3.395
 8061SOL    HW225083   5.905   6.743   3.273
 8062SOL     OW25084   1.310   3.033   1.926
 8062SOL    HW125085   1.250   3.065   1.853
 8062SOL    HW225086   1.391   3.091   1.931
 8063SOL     OW25087   2.549   2.985   5.806
 8063SOL    HW125088   2.529   3.063   5.865
 8063SOL    HW225089   2.464   2.949   5.769
 8064SOL     OW25090   6.242   2.531   5.823
 8064SOL    HW125091   6.291   2.487   5.748
 8064SOL    HW225092   6.144   2.519   5.810
 8065SOL     OW25093   4.667   0.099   6.343
 8065SOL    HW125094   4.579   0.091   6.296
 8065SOL    HW225095   4.731   0.031   6.308
 8066SOL     OW25096   1.865   0.115   1.488
 8066SOL    HW125097   1.784   0.092   1.435
 8066SOL    HW225098   1.894   0.208   1.468
 8067SOL     OW25099   4.497   2.544   2.430
 8067SOL    HW125100   4.545   2.603   2.495
 8067SOL    HW225101   4.442   2.478   2.479
 8068SOL     OW25102   6.655   4.634   4.580
 8068SOL    HW125103   6.726   4.665   4.516
 8068SOL    HW225104   6.697   4.609   4.667
 8069SOL     OW25105   0.947   6.650   2.272
 8069SOL    HW125106   0.989   6.668   2.361
 8069SOL    HW225107   0.878   6.578   2.282
 8070SOL     OW25108   3.481   0.495   2.129
 8070SOL    HW125109   3.444   0.416   2.179
 8070SOL    HW225110   3.564   0.527   2.174
 8071SOL     OW25111   5.334   4.774   0.307
 8071SOL    HW125112   5.344   4.754   0.210
 8071SOL    HW225113   5.399   4.846   0.332
 8072SOL     OW25114   4.160   0.878   3.113
 8072SOL    HW125115   4.174   0.951   3.179
 8072SOL    HW225116   4.112   0.802   3.156
 8073SOL     OW25117   4.871   0.226   6.063
 8073SOL    HW125118   4.854   0.145   6.118
 8073SOL    HW225119   4.882   0.306   6.122
 8074SOL     OW25120   2.877   4.183   0.254
 8074SOL    HW125121   2.784   4.152   0.272
 8074SOL    HW225122   2.875   4.263   0.194
 8075SOL     OW25123   6.140   1.719   3.975
 8075SOL    HW125124   6.216   1.738   4.037
 8075SOL    HW225125   6.054   1.744   4.019
 8076SOL     OW25126   4.732   3.312   6.790
 8076SOL    HW125127   4.774   3.227   6.824
 8076SOL    HW225128   4.781   3.343   6.709
 8077SOL     OW25129   0.747   0.588   0.329
 8077SOL    HW125130   0.753   0.496   0.367
 8077SOL    HW225131   0.836   0.614   0.291
 8078SOL     OW25132   5.824   3.550   0.881
 8078SOL    HW125133   5.790   3.526   0.790
 8078SOL    HW225134   5.921   3.573   0.876
 8079SOL     OW25135   1.336   2.451   0.863
 8079SOL    HW125136   1.361   2.538   0.907
 8079SOL    HW225137   1.350   2.460   0.764
 8080SOL     OW25138   4.051   5.389   6.935
 8080SOL    HW125139   4.127   5.332   6.967
 8080SOL    HW225140   4.029   5.366   6.840
 8081SOL     OW25141   5.783   2.355   4.788
 8081SOL    HW125142   5.748   2.406   4.866
 8081SOL    HW225143   5.755   2.259   4.796
 8082SOL     OW25144   6.538   3.726   4.817
 8082SOL    HW125145   6.479   3.800   4.847
 8082SOL    HW225146   6.497   3.679   4.739
 8083SOL     OW25147   5.657   1.697   4.886
 8083SOL    HW125148   5.748   1.711   4.926
 8083SOL    HW225149   5.668   1.657   4.794
 8084SOL     OW25150   6.203   0.319   0.382
 8084SOL    HW125151   6.127   0.255   0.365
 8084SOL    HW225152   6.197   0.354   0.475
 8085SOL     OW25153   4.799   2.348   0.556
 8085SOL    HW125154   4.778   2.309   0.645
 8085SOL    HW225155   4.884   2.400   0.561
 8086SOL     OW25156   2.393   5.490   5.773
 8086SOL    HW125157   2.364   5.575   5.730
 8086SOL    HW225158   2.463   5.446   5.716
 8087SOL     OW25159   2.621   3.532   0.758
 8087SOL    HW125160   2.543   3.514   0.818
 8087SOL    HW225161   2.627   3.461   0.688
 8088SOL     OW25162   4.548   0.527   3.374
 8088SOL    HW125163   4.508   0.616   3.351
 8088SOL    HW225164   4.479   0.456   3.361
 8089SOL     OW25165   6.805   2.810   0.841
 8089SOL    HW125166   6.713   2.773   0.824
 8089SOL    HW225167   6.873   2.745   0.807
 8090SOL     OW25168   4.469   1.544   5.108
 8090SOL    HW125169   4.464   1.629   5.055
 8090SOL    HW225170   4.413   1.474   5.063
 8091SOL     OW25171   1.887   3.499   5.242
 8091SOL    HW125172   1.919   3.528   5.332
 8091SOL    HW225173   1.842   3.576   5.197
 8092SOL     OW25174   6.369   1.874   4.468
 8092SOL    HW125175   6.302   1.817   4.422
 8092SOL    HW225176   6.392   1.952   4.409
 8093SOL     OW25177   5.983   5.393   0.745
 8093SOL    HW125178   5.947   5.487   0.752
 8093SOL    HW225179   5.923   5.331   0.794
 8094SOL     OW25180   0.321   3.508   3.880
 8094SOL    HW125181   0.290   3.490   3.787
 8094SOL    HW225182   0.420   3.494   3.886
 8095SOL     OW25183   6.465   3.244   4.867
 8095SOL    HW125184   6.541   3.282   4.815
 8095SOL    HW225185   6.399   3.203   4.804
 8096SOL     OW25186   4.759   0.288   0.640
 8096SOL    HW125187   4.817   0.365   0.666
 8096SOL    HW225188   4.663   0.311   0.658
 8097SOL     OW25189   4.431   2.006   3.926
 8097SOL    HW125190   4.483   1.997   3.840
 8097SOL    HW225191   4.488   1.977   4.002
 8098SOL     OW25192   2.022   2.013   4.493
 8098SOL    HW125193   2.020   1.979   4.587
 8098SOL    HW225194   1.944   1.975   4.443
 8099SOL     OW25195   3.690   6.441   4.245
 8099SOL    HW125196   3.668   6.420   4.150
 8099SOL    HW225197   3.766   6.506   4.248
 8100SOL     OW25198   6.505   6.169   1.304
 8100SOL    HW125199   6.483   6.216   1.219
 8100SOL    HW225200   6.570   6.225   1.356
 8101SOL     OW25201   0.778   4.838   1.864
 8101SOL    HW125202   0.848   4.774   1.833
 8101SOL    HW225203   0.802   4.930   1.834
 8102SOL     OW25204   6.629   6.881   5.796
 8102SOL    HW125205   6.701   6.940   5.759
 8102SOL    HW225206   6.552   6.879   5.733
 8103SOL     OW25207   2.442   2.440   2.293
 8103SOL    HW125208   2.470   2.452   2.389
 8103SOL    HW225209   2.524   2.426   2.237
 8104SOL     OW25210   2.557   0.104   6.202
 8104SOL    HW125211   2.511   0.040   6.264
 8104SOL    HW225212   2.490   0.142   6.138
 8105SOL     OW25213   2.018   2.647   2.934
 8105SOL    HW125214   1.949   2.658   2.863
 8105SOL    HW225215   1.998   2.708   3.010
 8106SOL     OW25216   0.807   3.903   5.573
 8106SOL    HW125217   0.711   3.925   5.586
 8106SOL    HW225218   0.862   3.945   5.645
 8107SOL     OW25219   1.026   5.317   6.619
 8107SOL    HW125220   1.024   5.248   6.547
 8107SOL    HW225221   1.079   5.283   6.696
 8108SOL     OW25222   2.424   2.710   6.212
 8108SOL    HW125223   2.396   2.801   6.241
 8108SOL    HW225224   2.438   2.709   6.113
 8109SOL     OW25225   0.288   5.566   5.593
 8109SOL    HW125226   0.365   5.578   5.656
 8109SOL    HW225227   0.315   5.597   5.502
 8110SOL     OW25228   1.191   4.750   0.587
 8110SOL    HW125229   1.111   4.703   0.626
 8110SOL    HW225230   1.167   4.845   0.569
 8111SOL     OW25231   3.166   5.921   4.155
 8111SOL    HW125232   3.163   6.009   4.203
 8111SOL    HW225233   3.089   5.916   4.091
 8112SOL     OW25234   4.109   1.359   4.075
 8112SOL    HW125235   4.056   1.351   3.991
 8112SOL    HW225236   4.060   1.419   4.139
 8113SOL     OW25237   3.238   2.467   5.629
 8113SOL    HW125238   3.254   2.486   5.532
 8113SOL    HW225239   3.297   2.392   5.658
 8114SOL     OW25240   3.115   3.786   1.424
 8114SOL    HW125241   3.032   3.734   1.405
 8114SOL    HW225242   3.158   3.753   1.509
 8115SOL     OW25243   3.942   2.791   1.067
 8115SOL    HW125244   3.847   2.783   1.099
 8115SOL    HW225245   3.954   2.880   1.021
 8116SOL     OW25246   5.240   1.388   5.704
 8116SOL    HW125247   5.277   1.455   5.640
 8116SOL    HW225248   5.176   1.329   5.656
 8117SOL     OW25249   3.199   2.743   5.653
 8117SOL    HW125250   3.228   2.648   5.665
 8117SOL    HW225251   3.233   2.798   5.730
 8118SOL     OW25252   0.920   2.021   4.455
 8118SOL    HW125253   0.968   2.108   4.465
 8118SOL    HW225254   0.895   2.007   4.360
 8119SOL     OW25255   1.588   6.490   2.480
 8119SOL    HW125256   1.517   6.529   2.422
 8119SOL    HW225257   1.559   6.401   2.515
 8120SOL     OW25258   4.681   4.378   2.503
 8120SOL    HW125259   4.741   4.344   2.574
 8120SOL    HW225260   4.601   4.422   2.545
 8121SOL     OW25261   6.819   5.656   3.108
 8121SOL    HW125262   6.784   5.642   3.015
 8121SOL    HW225263   6.755   5.613   3.173
 8122SOL     OW25264   6.988   5.421   1.801
 8122SOL    HW125265   6.980   5.390   1.896
 8122SOL    HW225266   6.928   5.500   1.787
 8123SOL     OW25267   1.441   5.364   6.743
 8123SOL    HW125268   1.453   5.460   6.769
 8123SOL    HW225269   1.397   5.314   6.818
 8124SOL     OW25270   1.747   6.128   3.017
 8124SOL    HW125271   1.652   6.125   2.986
 8124SOL    HW225272   1.768   6.220   3.051
 8125SOL     OW25273   5.362   5.309   3.061
 8125SOL    HW125274   5.300   5.369   3.011
 8125SOL    HW225275   5.328   5.215   3.057
 8126SOL     OW25276   0.116   4.799   1.490
 8126SOL    HW125277   0.104   4.702   1.469
 8126SOL    HW225278   0.206   4.828   1.458
 8127SOL     OW25279   4.302   5.566   1.015
 8127SOL    HW125280   4.208   5.536   1.037
 8127SOL    HW225281   4.299   5.630   0.939
 8128SOL     OW25282   3.905   1.727   5.196
 8128SOL    HW125283   3.947   1.642   5.229
 8128SOL    HW225284   3.891   1.789   5.272
 8129SOL     OW25285   4.550   6.130   6.709
 8129SOL    HW125286   4.628   6.070   6.690
 8129SOL    HW225287   4.545   6.200   6.637
 8130SOL     OW25288   0.771   0.335   6.293
 8130SOL    HW125289   0.745   0.264   6.359
 8130SOL    HW225290   0.854   0.306   6.244
 8131SOL     OW25291   2.300   1.743   1.564
 8131SOL    HW125292   2.302   1.810   1.490
 8131SOL    HW225293   2.219   1.685   1.555
 8132SOL     OW25294   5.770   4.388   3.044
 8132SOL    HW125295   5.727   4.307   3.005
 8132SOL    HW225296   5.847   4.361   3.102
 8133SOL     OW25297   0.514   5.361   2.112
 8133SOL    HW125298   0.529   5.451   2.153
 8133SOL    HW225299   0.556   5.291   2.170
 8134SOL     OW25300   2.690   3.170   1.692
 8134SOL    HW125301   2.696   3.077   1.656
 8134SOL    HW225302   2.594   3.197   1.699
 8135SOL     OW25303   3.772   6.420   2.404
 8135SOL    HW125304   3.834   6.499   2.406
 8135SOL    HW225305   3.822   6.339   2.432
 8136SOL     OW25306   2.096   5.928   1.888
 8136SOL    HW125307   2.124   5.874   1.967
 8136SOL    HW225308   2.153   5.905   1.810
 8137SOL     OW25309   3.010   3.703   5.522
 8137SOL    HW125310   2.991   3.796   5.553
 8137SOL    HW225311   2.949   3.680   5.446
 8138SOL     OW25312   4.466   1.049   3.645
 8138SOL    HW125313   4.546   1.098   3.612
 8138SOL    HW225314   4.388   1.070   3.587
 8139SOL     OW25315   1.632   2.973   6.042
 8139SOL    HW125316   1.544   3.011   6.070
 8139SOL    HW225317   1.620   2.920   5.958
 8140SOL     OW25318   5.046   1.515   1.263
 8140SOL    HW125319   4.949   1.497   1.247
 8140SOL    HW225320   5.084   1.566   1.186
 8141SOL     OW25321   5.917   0.746   5.311
 8141SOL    HW125322   5.841   0.766   5.249
 8141SOL    HW225323   5.929   0.822   5.374
 8142SOL     OW25324   3.871   5.764   0.523
 8142SOL    HW125325   3.796   5.764   0.456
 8142SOL    HW225326   3.875   5.853   0.569
 8143SOL     OW25327   5.528   5.037   6.967
 8143SOL    HW125328   5.553   4.940   6.968
 8143SOL    HW225329   5.576   5.083   6.893
 8144SOL     OW25330   1.717   5.330   6.803
 8144SOL    HW125331   1.617   5.317   6.799
 8144SOL    HW225332   1.752   5.343   6.710
 8145SOL     OW25333   5.228   5.770   5.725
 8145SOL    HW125334   5.312   5.746   5.774
 8145SOL    HW225335   5.233   5.866   5.697
 8146SOL     OW25336   6.933   6.221   5.086
 8146SOL    HW125337   6.910   6.270   5.002
 8146SOL    HW225338   6.992   6.278   5.143
 8147SOL     OW25339   2.370   0.036   4.591
 8147SOL    HW125340   2.332   0.122   4.625
 8147SOL    HW225341   2.305   6.986   4.610
 8148SOL     OW25342   5.248   4.383   0.371
 8148SOL    HW125343   5.256   4.353   0.276
 8148SOL    HW225344   5.159   4.426   0.385
 8149SOL     OW25345   1.940   6.807   5.254
 8149SOL    HW125346   2.023   6.819   5.308
 8149SOL    HW225347   1.919   6.891   5.205
 8150SOL     OW25348   0.409   4.097   0.785
 8150SOL    HW125349   0.368   4.032   0.722
 8150SOL    HW225350   0.509   4.085   0.786
 8151SOL     OW25351   6.264   4.172   1.841
 8151SOL    HW125352   6.288   4.266   1.863
 8151SOL    HW225353   6.290   4.112   1.917
 8152SOL     OW25354   5.044   2.118   3.944
 8152SOL    HW125355   4.983   2.073   4.009
 8152SOL    HW225356   4.993   2.140   3.861
 8153SOL     OW25357   0.400   1.572   1.062
 8153SOL    HW125358   0.355   1.659   1.043
 8153SOL    HW225359   0.358   1.530   1.143
 8154SOL     OW25360   0.744   1.023   3.789
 8154SOL    HW125361   0.816   1.056   3.729
 8154SOL    HW225362   0.663   1.000   3.735
 8155SOL     OW25363   1.113   4.822   4.563
 8155SOL    HW125364   1.205   4.808   4.525
 8155SOL    HW225365   1.091   4.748   4.626
 8156SOL     OW25366   1.543   4.031   0.416
 8156SOL    HW125367   1.487   3.994   0.342
 8156SOL    HW225368   1.559   3.959   0.484
 8157SOL     OW25369   6.049   4.372   4.712
 8157SOL    HW125370   6.004   4.434   4.776
 8157SOL    HW225371   6.099   4.425   4.644
 8158SOL     OW25372   6.313   4.997   6.211
 8158SOL    HW125373   6.225   4.980   6.256
 8158SOL    HW225374   6.344   4.913   6.166
 8159SOL     OW25375   2.386   6.787   5.230
 8159SOL    HW125376   2.449   6.825   5.163
 8159SOL    HW225377   2.436   6.766   5.314
 8160SOL     OW25378   5.456   2.742   2.871
 8160SOL    HW125379   5.382   2.786   2.820
 8160SOL    HW225380   5.437   2.644   2.880
 8161SOL     OW25381   0.481   2.461   1.710
 8161SOL    HW125382   0.477   2.432   1.615
 8161SOL    HW225383   0.574   2.452   1.744
 8162SOL     OW25384   0.260   5.989   5.487
 8162SOL    HW125385   0.166   5.970   5.515
 8162SOL    HW225386   0.274   5.958   5.393
 8163SOL     OW25387   3.027   5.086   5.604
 8163SOL    HW125388   2.977   5.027   5.540
 8163SOL    HW225389   3.121   5.055   5.612
 8164SOL     OW25390   5.144   1.890   0.324
 8164SOL    HW125391   5.080   1.816   0.303
 8164SOL    HW225392   5.237   1.858   0.309
 8165SOL     OW25393   0.748   2.711   6.367
 8165SOL    HW125394   0.811   2.638   6.339
 8165SOL    HW225395   0.659   2.696   6.325
 8166SOL     OW25396   2.941   1.989   4.438
 8166SOL    HW125397   2.946   2.016   4.534
 8166SOL    HW225398   2.888   2.057   4.387
 8167SOL     OW25399   1.741   2.777   3.206
 8167SOL    HW125400   1.708   2.767   3.300
 8167SOL    HW225401   1.671   2.822   3.151
 8168SOL     OW25402   1.401   6.473   2.758
 8168SOL    HW125403   1.441   6.530   2.829
 8168SOL    HW225404   1.474   6.424   2.709
 8169SOL     OW25405   4.673   4.430   0.360
 8169SOL    HW125406   4.644   4.335   0.349
 8169SOL    HW225407   4.680   4.453   0.457
 8170SOL     OW25408   0.041   4.598   3.388
 8170SOL    HW125409   6.979   4.550   3.405
 8170SOL    HW225410   0.025   4.673   3.324
 8171SOL     OW25411   1.658   1.573   1.618
 8171SOL    HW125412   1.573   1.599   1.663
 8171SOL    HW225413   1.718   1.652   1.608
 8172SOL     OW25414   1.408   4.656   0.759
 8172SOL    HW125415   1.458   4.586   0.708
 8172SOL    HW225416   1.331   4.688   0.704
 8173SOL     OW25417   5.643   6.655   1.601
 8173SOL    HW125418   5.613   6.630   1.509
 8173SOL    HW225419   5.575   6.626   1.668
 8174SOL     OW25420   2.683   6.349   3.897
 8174SOL    HW125421   2.780   6.374   3.891
 8174SOL    HW225422   2.641   6.395   3.976
 8175SOL     OW25423   0.575   2.006   5.878
 8175SOL    HW125424   0.500   2.067   5.900
 8175SOL    HW225425   0.547   1.911   5.895
 8176SOL     OW25426   3.086   4.960   7.014
 8176SOL    HW125427   3.042   4.879   0.029
 8176SOL    HW225428   3.066   4.965   6.916
 8177SOL     OW25429   3.349   0.846   2.271
 8177SOL    HW125430   3.352   0.910   2.348
 8177SOL    HW225431   3.271   0.869   2.212
 8178SOL     OW25432   2.485   5.952   1.532
 8178SOL    HW125433   2.520   5.931   1.441
 8178SOL    HW225434   2.538   6.027   1.572
 8179SOL     OW25435   6.634   6.813   3.738
 8179SOL    HW125436   6.606   6.828   3.833
 8179SOL    HW225437   6.730   6.836   3.727
 8180SOL     OW25438   4.837   5.030   0.584
 8180SOL    HW125439   4.936   5.018   0.590
 8180SOL    HW225440   4.801   4.973   0.509
 8181SOL     OW25441   6.316   0.777   6.800
 8181SOL    HW125442   6.337   0.715   6.876
 8181SOL    HW225443   6.218   0.794   6.797
 8182SOL     OW25444   3.421   3.810   3.147
 8182SOL    HW125445   3.518   3.790   3.161
 8182SOL    HW225446   3.393   3.777   3.057
 8183SOL     OW25447   0.319   0.304   5.391
 8183SOL    HW125448   0.403   0.331   5.438
 8183SOL    HW225449   0.260   0.252   5.453
 8184SOL     OW25450   0.094   6.002   5.008
 8184SOL    HW125451   0.063   5.970   4.918
 8184SOL    HW225452   0.022   6.058   5.049
 8185SOL     OW25453   0.383   6.085   4.804
 8185SOL    HW125454   0.347   5.999   4.842
 8185SOL    HW225455   0.372   6.084   4.705
 8186SOL     OW25456   1.469   5.501   0.329
 8186SOL    HW125457   1.427   5.592   0.338
 8186SOL    HW225458   1.496   5.468   0.420
 8187SOL     OW25459   1.352   6.721   4.800
 8187SOL    HW125460   1.325   6.633   4.761
 8187SOL    HW225461   1.426   6.706   4.867
 8188SOL     OW25462   1.141   2.718   2.558
 8188SOL    HW125463   1.155   2.796   2.498
 8188SOL    HW225464   1.196   2.641   2.526
 8189SOL     OW25465   6.721   5.444   4.388
 8189SOL    HW125466   6.695   5.356   4.348
 8189SOL    HW225467   6.791   5.487   4.331
 8190SOL     OW25468   5.486   3.610   2.620
 8190SOL    HW125469   5.517   3.679   2.685
 8190SOL    HW225470   5.514   3.636   2.528
 8191SOL     OW25471   4.947   5.326   0.725
 8191SOL    HW125472   4.889   5.319   0.645
 8191SOL    HW225473   4.927   5.411   0.774
 8192SOL     OW25474   0.042   5.770   3.108
 8192SOL    HW125475   6.978   5.727   3.127
 8192SOL    HW225476   0.116   5.712   3.144
 8193SOL     OW25477   0.337   4.727   4.320
 8193SOL    HW125478   0.421   4.686   4.356
 8193SOL    HW225479   0.356   4.819   4.288
 8194SOL     OW25480   5.295   0.195   1.965
 8194SOL    HW125481   5.294   0.251   2.048
 8194SOL    HW225482   5.201   0.171   1.940
 8195SOL     OW25483   6.727   6.564   3.335
 8195SOL    HW125484   6.739   6.563   3.236
 8195SOL    HW225485   6.767   6.648   3.372
 8196SOL     OW25486   5.043   0.124   2.792
 8196SOL    HW125487   5.130   0.174   2.797
 8196SOL    HW225488   5.044   0.063   2.713
 8197SOL     OW25489   3.963   1.413   3.396
 8197SOL    HW125490   4.008   1.470   3.327
 8197SOL    HW225491   4.020   1.410   3.478
 8198SOL     OW25492   2.192   5.290   0.594
 8198SOL    HW125493   2.095   5.308   0.607
 8198SOL    HW225494   2.245   5.373   0.617
 8199SOL     OW25495   6.114   2.526   0.275
 8199SOL    HW125496   6.147   2.580   0.198
 8199SOL    HW225497   6.077   2.587   0.345
 8200SOL     OW25498   6.251   4.754   0.128
 8200SOL    HW125499   6.174   4.696   0.155
 8200SOL    HW225500   6.258   4.755   0.028
 8201SOL     OW25501   5.452   0.789   5.153
 8201SOL    HW125502   5.529   0.835   5.197
 8201SOL    HW225503   5.439   0.825   5.060
 8202SOL     OW25504   0.580   5.592   1.905
 8202SOL    HW125505   0.623   5.651   1.836
 8202SOL    HW225506   0.645   5.574   1.979
 8203SOL     OW25507   1.526   2.984   0.448
 8203SOL    HW125508   1.449   3.045   0.465
 8203SOL    HW225509   1.564   3.004   0.357
 8204SOL     OW25510   1.551   3.504   0.481
 8204SOL    HW125511   1.611   3.522   0.559
 8204SOL    HW225512   1.476   3.571   0.481
 8205SOL     OW25513   6.995   3.840   6.146
 8205SOL    HW125514   6.946   3.799   6.223
 8205SOL    HW225515   7.020   3.934   6.169
 8206SOL     OW25516   3.402   0.684   1.186
 8206SOL    HW125517   3.421   0.619   1.113
 8206SOL    HW225518   3.451   0.656   1.269
 8207SOL     OW25519   4.043   3.687   4.339
 8207SOL    HW125520   4.052   3.773   4.389
 8207SOL    HW225521   4.089   3.614   4.389
 8208SOL     OW25522   2.593   6.996   6.761
 8208SOL    HW125523   2.511   0.008   6.717
 8208SOL    HW225524   2.674   0.018   6.725
 8209SOL     OW25525   5.921   2.283   3.982
 8209SOL    HW125526   5.851   2.231   4.030
 8209SOL    HW225527   5.979   2.331   4.049
 8210SOL     OW25528   2.284   2.494   6.320
 8210SOL    HW125529   2.214   2.449   6.265
 8210SOL    HW225530   2.316   2.576   6.273
 8211SOL     OW25531   3.831   4.658   1.188
 8211SOL    HW125532   3.783   4.605   1.259
 8211SOL    HW225533   3.926   4.672   1.215
 8212SOL     OW25534   1.914   3.256   2.831
 8212SOL    HW125535   1.931   3.174   2.886
 8212SOL    HW225536   1.988   3.269   2.766
 8213SOL     OW25537   6.285   4.951   0.761
 8213SOL    HW125538   6.260   4.857   0.787
 8213SOL    HW225539   6.219   5.015   0.799
 8214SOL     OW25540   4.898   3.582   3.198
 8214SOL    HW125541   4.850   3.638   3.131
 8214SOL    HW225542   4.910   3.634   3.283
 8215SOL     OW25543   3.870   5.057   1.778
 8215SOL    HW125544   3.910   4.971   1.810
 8215SOL    HW225545   3.787   5.037   1.725
 8216SOL     OW25546   5.475   3.474   3.830
 8216SOL    HW125547   5.405   3.404   3.838
 8216SOL    HW225548   5.553   3.438   3.779
 8217SOL     OW25549   2.280   5.666   0.304
 8217SOL    HW125550   2.330   5.691   0.387
 8217SOL    HW225551   2.301   5.732   0.232
 8218SOL     OW25552   4.842   2.203   6.633
 8218SOL    HW125553   4.908   2.272   6.664
 8218SOL    HW225554   4.795   2.164   6.713
 8219SOL     OW25555   5.261   2.154   0.221
 8219SOL    HW125556   5.180   2.151   0.279
 8219SOL    HW225557   5.246   2.098   0.140
 8220SOL     OW25558   4.027   3.582   1.663
 8220SOL    HW125559   3.940   3.539   1.637
 8220SOL    HW225560   4.061   3.540   1.746
 8221SOL     OW25561   5.896   3.975   3.566
 8221SOL    HW125562   5.956   3.993   3.488
 8221SOL    HW225563   5.834   4.053   3.578
 8222SOL     OW25564   6.308   1.106   3.278
 8222SOL    HW125565   6.210   1.107   3.255
 8222SOL    HW225566   6.360   1.139   3.200
 8223SOL     OW25567   0.476   5.075   6.825
 8223SOL    HW125568   0.534   5.041   6.751
 8223SOL    HW225569   0.389   5.107   6.788
 8224SOL     OW25570   0.829   4.014   2.518
 8224SOL    HW125571   0.862   3.920   2.519
 8224SOL    HW225572   0.818   4.045   2.423
 8225SOL     OW25573   5.052   1.238   1.507
 8225SOL    HW125574   5.074   1.149   1.547
 8225SOL    HW225575   5.137   1.284   1.480
 8226SOL     OW25576   3.700   0.527   6.882
 8226SOL    HW125577   3.650   0.501   6.799
 8226SOL    HW225578   3.739   0.445   6.924
 8227SOL     OW25579   6.499   4.067   3.396
 8227SOL    HW125580   6.501   4.000   3.470
 8227SOL    HW225581   6.426   4.043   3.332
 8228SOL     OW25582   0.095   1.365   4.049
 8228SOL    HW125583   0.131   1.340   3.959
 8228SOL    HW225584   0.003   1.328   4.060
 8229SOL     OW25585   5.504   5.681   0.522
 8229SOL    HW125586   5.484   5.748   0.451
 8229SOL    HW225587   5.473   5.591   0.492
 8230SOL     OW25588   5.341   0.093   3.036
 8230SOL    HW125589   5.309   0.114   3.128
 8230SOL    HW225590   5.324   7.021   3.016
 8231SOL     OW25591   3.941   5.758   1.220
 8231SOL    HW125592   3.887   5.840   1.237
 8231SOL    HW225593   3.951   5.707   1.306
 8232SOL     OW25594   2.688   1.422   0.016
 8232SOL    HW125595   2.617   1.393   0.080
 8232SOL    HW225596   2.658   1.504   6.992
 8233SOL     OW25597   0.511   5.578   5.747
 8233SOL    HW125598   0.598   5.612   5.783
 8233SOL    HW225599   0.467   5.521   5.816
 8234SOL     OW25600   2.417   3.343   6.586
 8234SOL    HW125601   2.516   3.352   6.570
 8234SOL    HW225602   2.389   3.249   6.565
 8235SOL     OW25603   4.767   2.433   6.366
 8235SOL    HW125604   4.862   2.434   6.336
 8235SOL    HW225605   4.732   2.339   6.363
 8236SOL     OW25606   6.293   2.676   1.308
 8236SOL    HW125607   6.194   2.666   1.318
 8236SOL    HW225608   6.339   2.616   1.374
 8237SOL     OW25609   3.910   6.239   5.740
 8237SOL    HW125610   3.857   6.263   5.821
 8237SOL    HW225611   3.880   6.294   5.663
 8238SOL     OW25612   1.002   0.936   6.285
 8238SOL    HW125613   1.040   0.906   6.373
 8238SOL    HW225614   0.937   0.867   6.252
 8239SOL     OW25615   5.742   1.357   0.025
 8239SOL    HW125616   5.818   1.397   6.998
 8239SOL    HW225617   5.694   1.429   0.075
 8240SOL     OW25618   3.741   3.314   3.108
 8240SOL    HW125619   3.779   3.384   3.168
 8240SOL    HW225620   3.813   3.250   3.081
 8241SOL     OW25621   4.847   6.061   1.599
 8241SOL    HW125622   4.782   6.118   1.650
 8241SOL    HW225623   4.801   5.979   1.565
 8242SOL     OW25624   1.294   4.135   5.122
 8242SOL    HW125625   1.340   4.142   5.210
 8242SOL    HW225626   1.197   4.114   5.137
 8243SOL     OW25627   0.308   3.143   4.969
 8243SOL    HW125628   0.276   3.169   5.060
 8243SOL    HW225629   0.361   3.059   4.976
 8244SOL     OW25630   2.576   5.445   5.209
 8244SOL    HW125631   2.507   5.384   5.169
 8244SOL    HW225632   2.655   5.391   5.239
 8245SOL     OW25633   4.348   3.914   1.325
 8245SOL    HW125634   4.416   3.843   1.313
 8245SOL    HW225635   4.257   3.873   1.335
 8246SOL     OW25636   5.530   3.438   5.158
 8246SOL    HW125637   5.517   3.339   5.159
 8246SOL    HW225638   5.463   3.481   5.219
 8247SOL     OW25639   0.945   6.479   6.772
 8247SOL    HW125640   0.935   6.380   6.762
 8247SOL    HW225641   1.042   6.502   6.782
 8248SOL     OW25642   0.162   4.200   3.576
 8248SOL    HW125643   0.156   4.114   3.626
 8248SOL    HW225644   0.129   4.187   3.483
 8249SOL     OW25645   1.164   5.498   2.873
 8249SOL    HW125646   1.208   5.557   2.940
 8249SOL    HW225647   1.154   5.548   2.786
 8250SOL     OW25648   3.357   3.338   2.091
 8250SOL    HW125649   3.372   3.245   2.123
 8250SOL    HW225650   3.273   3.375   2.133
 8251SOL     OW25651   5.966   0.713   4.900
 8251SOL    HW125652   6.028   0.778   4.856
 8251SOL    HW225653   6.017   0.660   4.968
 8252SOL     OW25654   0.865   3.654   4.264
 8252SOL    HW125655   0.878   3.734   4.205
 8252SOL    HW225656   0.883   3.680   4.359
 8253SOL     OW25657   3.273   3.605   5.921
 8253SOL    HW125658   3.246   3.588   5.826
 8253SOL    HW225659   3.322   3.692   5.927
 8254SOL     OW25660   5.245   5.689   2.734
 8254SOL    HW125661   5.179   5.653   2.668
 8254SOL    HW225662   5.315   5.741   2.686
 8255SOL     OW25663   4.130   4.780   3.872
 8255SOL    HW125664   4.038   4.817   3.862
 8255SOL    HW225665   4.185   4.808   3.793
 8256SOL     OW25666   5.338   2.551   3.677
 8256SOL    HW125667   5.315   2.509   3.589
 8256SOL    HW225668   5.366   2.480   3.741
 8257SOL     OW25669   6.270   4.588   4.137
 8257SOL    HW125670   6.222   4.624   4.057
 8257SOL    HW225671   6.367   4.577   4.115
 8258SOL     OW25672   5.420   2.106   6.917
 8258SOL    HW125673   5.351   2.055   6.968
 8258SOL    HW225674   5.436   2.061   6.829
 8259SOL     OW25675   4.658   1.211   0.929
 8259SOL    HW125676   4.737   1.199   0.870
 8259SOL    HW225677   4.585   1.149   0.900
 8260SOL     OW25678   3.396   5.749   6.610
 8260SOL    HW125679   3.491   5.737   6.583
 8260SOL    HW225680   3.392   5.786   6.703
 8261SOL     OW25681   4.905   1.347   1.730
 8261SOL    HW125682   4.931   1.308   1.641
 8261SOL    HW225683   4.988   1.374   1.779
 8262SOL     OW25684   6.609   2.145   1.605
 8262SOL    HW125685   6.530   2.083   1.602
 8262SOL    HW225686   6.652   2.140   1.695
 8263SOL     OW25687   5.429   1.584   0.730
 8263SOL    HW125688   5.356   1.639   0.769
 8263SOL    HW225689   5.474   1.531   0.802
 8264SOL     OW25690   2.001   4.379   1.570
 8264SOL    HW125691   1.935   4.435   1.518
 8264SOL    HW225692   2.002   4.286   1.532
 8265SOL     OW25693   1.798   0.284   2.845
 8265SOL    HW125694   1.729   0.318   2.782
 8265SOL    HW225695   1.760   0.279   2.937
 8266SOL     OW25696   3.525   0.724   2.986
 8266SOL    HW125697   3.461   0.797   3.011
 8266SOL    HW225698   3.611   0.738   3.035
 8267SOL     OW25699   0.010   3.957   0.655
 8267SOL    HW125700   6.979   3.915   0.583
 8267SOL    HW225701   0.054   4.039   0.620
 8268SOL     OW25702   3.130   5.394   6.780
 8268SOL    HW125703   3.216   5.394   6.831
 8268SOL    HW225704   3.054   5.409   6.842
 8269SOL     OW25705   6.261   2.313   0.175
 8269SOL    HW125706   6.224   2.398   0.213
 8269SOL    HW225707   6.269   2.244   0.247
 8270SOL     OW25708   2.573   6.146   4.490
 8270SOL    HW125709   2.492   6.182   4.536
 8270SOL    HW225710   2.549   6.061   4.443
 8271SOL     OW25711   6.965   2.197   3.081
 8271SOL    HW125712   7.009   2.143   3.153
 8271SOL    HW225713   0.003   2.269   3.050
 8272SOL     OW25714   3.483   1.480   4.012
 8272SOL    HW125715   3.410   1.506   4.074
 8272SOL    HW225716   3.509   1.558   3.955
 8273SOL     OW25717   1.721   6.454   2.073
 8273SOL    HW125718   1.673   6.542   2.068
 8273SOL    HW225719   1.742   6.434   2.169
 8274SOL     OW25720   5.498   4.032   3.826
 8274SOL    HW125721   5.422   4.005   3.884
 8274SOL    HW225722   5.493   4.131   3.808
 8275SOL     OW25723   5.604   2.123   0.390
 8275SOL    HW125724   5.661   2.191   0.437
 8275SOL    HW225725   5.603   2.142   0.292
 8276SOL     OW25726   0.526   1.446   2.731
 8276SOL    HW125727   0.569   1.357   2.718
 8276SOL    HW225728   0.563   1.511   2.665
 8277SOL     OW25729   0.316   1.408   0.028
 8277SOL    HW125730   0.395   1.351   0.050
 8277SOL    HW225731   0.342   1.475   6.982
 8278SOL     OW25732   1.191   2.752   0.767
 8278SOL    HW125733   1.279   2.792   0.744
 8278SOL    HW225734   1.133   2.750   0.685
 8279SOL     OW25735   0.407   6.172   3.572
 8279SOL    HW125736   0.458   6.257   3.582
 8279SOL    HW225737   0.311   6.188   3.596
 8280SOL     OW25738   3.686   2.414   5.931
 8280SOL    HW125739   3.705   2.405   5.833
 8280SOL    HW225740   3.601   2.464   5.944
 8281SOL     OW25741   4.863   5.331   2.421
 8281SOL    HW125742   4.922   5.256   2.449
 8281SOL    HW225743   4.771   5.317   2.458
 8282SOL     OW25744   6.168   3.109   6.177
 8282SOL    HW125745   6.175   3.129   6.275
 8282SOL    HW225746   6.083   3.060   6.159
 8283SOL     OW25747   1.872   2.669   5.961
 8283SOL    HW125748   1.882   2.730   5.882
 8283SOL    HW225749   1.911   2.713   6.042
 8284SOL     OW25750   6.147   4.529   1.739
 8284SOL    HW125751   6.218   4.461   1.758
 8284SOL    HW225752   6.151   4.556   1.643
 8285SOL     OW25753   4.094   3.417   3.765
 8285SOL    HW125754   4.082   3.322   3.795
 8285SOL    HW225755   4.100   3.476   3.845
 8286SOL     OW25756   0.632   2.631   6.772
 8286SOL    HW125757   0.596   2.676   6.691
 8286SOL    HW225758   0.562   2.570   6.811
 8287SOL     OW25759   1.514   6.714   4.293
 8287SOL    HW125760   1.441   6.774   4.260
 8287SOL    HW225761   1.491   6.619   4.269
 8288SOL     OW25762   2.830   1.846   3.467
 8288SOL    HW125763   2.824   1.865   3.369
 8288SOL    HW225764   2.918   1.803   3.487
 8289SOL     OW25765   0.452   6.110   0.133
 8289SOL    HW125766   0.475   6.207   0.131
 8289SOL    HW225767   0.392   6.088   0.056
 8290SOL     OW25768   6.094   2.352   1.175
 8290SOL    HW125769   6.032   2.407   1.118
 8290SOL    HW225770   6.189   2.375   1.152
 8291SOL     OW25771   4.320   0.858   0.687
 8291SOL    HW125772   4.349   0.808   0.606
 8291SOL    HW225773   4.240   0.813   0.727
 8292SOL     OW25774   3.032   0.210   5.926
 8292SOL    HW125775   2.965   0.272   5.885
 8292SOL    HW225776   3.018   0.118   5.890
 8293SOL     OW25777   6.006   5.157   5.011
 8293SOL    HW125778   6.102   5.184   5.011
 8293SOL    HW225779   5.975   5.143   4.917
 8294SOL     OW25780   6.221   3.199   0.053
 8294SOL    HW125781   6.154   3.161   7.013
 8294SOL    HW225782   6.277   3.268   0.006
 8295SOL     OW25783   4.895   3.091   6.848
 8295SOL    HW125784   4.867   3.059   6.758
 8295SOL    HW225785   4.990   3.065   6.865
 8296SOL     OW25786   1.213   5.216   5.826
 8296SOL    HW125787   1.152   5.241   5.751
 8296SOL    HW225788   1.268   5.137   5.799
 8297SOL     OW25789   1.543   2.840   4.132
 8297SOL    HW125790   1.496   2.895   4.062
 8297SOL    HW225791   1.623   2.890   4.164
 8298SOL     OW25792   4.492   1.677   1.827
 8298SOL    HW125793   4.461   1.716   1.741
 8298SOL    HW225794   4.568   1.614   1.809
 8299SOL     OW25795   6.081   2.571   1.668
 8299SOL    HW125796   6.146   2.592   1.741
 8299SOL    HW225797   6.104   2.481   1.629
 8300SOL     OW25798   1.613   5.542   3.226
 8300SOL    HW125799   1.587   5.533   3.322
 8300SOL    HW225800   1.599   5.455   3.179
 8301SOL     OW25801   2.797   1.966   6.429
 8301SOL    HW125802   2.819   2.056   6.467
 8301SOL    HW225803   2.809   1.969   6.329
 8302SOL     OW25804   5.799   5.874   5.497
 8302SOL    HW125805   5.835   5.940   5.431
 8302SOL    HW225806   5.874   5.838   5.553
 8303SOL     OW25807   6.943   0.225   6.414
 8303SOL    HW125808   0.016   0.219   6.436
 8303SOL    HW225809   6.898   0.287   6.478
 8304SOL     OW25810   0.107   3.415   0.699
 8304SOL    HW125811   0.138   3.483   0.633
 8304SOL    HW225812   0.170   3.411   0.777
 8305SOL     OW25813   3.308   5.322   3.016
 8305SOL    HW125814   3.390   5.266   3.032
 8305SOL    HW225815   3.274   5.357   3.103
 8306SOL     OW25816   1.721   3.096   4.173
 8306SOL    HW125817   1.774   3.029   4.121
 8306SOL    HW225818   1.754   3.188   4.152
 8307SOL     OW25819   4.218   5.698   0.800
 8307SOL    HW125820   4.245   5.779   0.749
 8307SOL    HW225821   4.172   5.634   0.738
 8308SOL     OW25822   3.186   0.552   2.139
 8308SOL    HW125823   3.284   0.534   2.139
 8308SOL    HW225824   3.138   0.477   2.094
 8309SOL     OW25825   5.904   6.823   2.251
 8309SOL    HW125826   5.848   6.820   2.168
 8309SOL    HW225827   5.967   6.901   2.246
 8310SOL     OW25828   6.388   4.802   6.642
 8310SOL    HW125829   6.293   4.830   6.628
 8310SOL    HW225830   6.416   4.740   6.569
 8311SOL     OW25831   6.090   0.176   6.230
 8311SOL    HW125832   6.056   0.099   6.285
 8311SOL    HW225833   6.133   0.243   6.291
 8312SOL     OW25834   4.940   6.295   1.476
 8312SOL    HW125835   4.926   6.209   1.525
 8312SOL    HW225836   4.851   6.336   1.455
 8313SOL     OW25837   3.870   1.516   2.756
 8313SOL    HW125838   3.870   1.610   2.721
 8313SOL    HW225839   3.776   1.485   2.769
 8314SOL     OW25840   6.998   6.596   3.079
 8314SOL    HW125841   6.904   6.562   3.079
 8314SOL    HW225842   7.022   6.628   3.170
 8315SOL     OW25843   5.022   4.732   6.579
 8315SOL    HW125844   4.995   4.721   6.483
 8315SOL    HW225845   5.052   4.826   6.595
 8316SOL     OW25846   2.939   5.406   6.588
 8316SOL    HW125847   3.016   5.433   6.646
 8316SOL    HW225848   2.860   5.385   6.645
 8317SOL     OW25849   2.392   4.335   1.503
 8317SOL    HW125850   2.426   4.306   1.413
 8317SOL    HW225851   2.407   4.261   1.569
 8318SOL     OW25852   2.959   1.030   5.704
 8318SOL    HW125853   2.996   0.974   5.778
 8318SOL    HW225854   2.982   0.988   5.616
 8319SOL     OW25855   2.933   0.425   5.763
 8319SOL    HW125856   3.031   0.413   5.779
 8319SOL    HW225857   2.891   0.467   5.843
 8320SOL     OW25858   4.312   4.988   1.256
 8320SOL    HW125859   4.231   4.986   1.198
 8320SOL    HW225860   4.306   5.065   1.319
 8321SOL     OW25861   6.781   1.039   0.919
 8321SOL    HW125862   6.784   1.080   1.010
 8321SOL    HW225863   6.712   0.967   0.917
 8322SOL     OW25864   5.552   6.967   0.085
 8322SOL    HW125865   5.647   6.990   0.106
 8322SOL    HW225866   5.519   6.899   0.150
 8323SOL     OW25867   2.053   0.935   1.927
 8323SOL    HW125868   1.978   0.994   1.957
 8323SOL    HW225869   2.129   0.992   1.895
 8324SOL     OW25870   6.756   1.377   2.274
 8324SOL    HW125871   6.819   1.344   2.344
 8324SOL    HW225872   6.799   1.371   2.184
 8325SOL     OW25873   4.032   3.770   4.870
 8325SOL    HW125874   3.984   3.819   4.797
 8325SOL    HW225875   4.076   3.689   4.832
 8326SOL     OW25876   4.170   2.772   6.538
 8326SOL    HW125877   4.087   2.819   6.508
 8326SOL    HW225878   4.207   2.817   6.619
 8327SOL     OW25879   5.701   2.378   6.197
 8327SOL    HW125880   5.622   2.348   6.250
 8327SOL    HW225881   5.744   2.456   6.242
 8328SOL     OW25882   2.336   2.808   4.056
 8328SOL    HW125883   2.393   2.728   4.071
 8328SOL    HW225884   2.306   2.845   4.144
 8329SOL     OW25885   0.613   2.575   4.926
 8329SOL    HW125886   0.628   2.536   4.835
 8329SOL    HW225887   0.693   2.558   4.984
 8330SOL     OW25888   2.405   6.696   0.684
 8330SOL    HW125889   2.491   6.646   0.681
 8330SOL    HW225890   2.422   6.792   0.706
 8331SOL     OW25891   2.685   6.914   1.087
 8331SOL    HW125892   2.723   7.001   1.120
 8331SOL    HW225893   2.586   6.913   1.101
 8332SOL     OW25894   4.971   6.237   3.710
 8332SOL    HW125895   4.955   6.251   3.613
 8332SOL    HW225896   4.887   6.253   3.761
 8333SOL     OW25897   1.663   5.075   5.739
 8333SOL    HW125898   1.696   5.103   5.830
 8333SOL    HW225899   1.563   5.078   5.738
 8334SOL     OW25900   6.509   6.905   4.276
 8334SOL    HW125901   6.476   6.995   4.305
 8334SOL    HW225902   6.595   6.885   4.322
 8335SOL     OW25903   6.153   6.190   5.487
 8335SOL    HW125904   6.053   6.190   5.479
 8335SOL    HW225905   6.178   6.210   5.581
 8336SOL     OW25906   0.973   2.026   2.972
 8336SOL    HW125907   0.935   1.940   2.935
 8336SOL    HW225908   1.072   2.023   2.968
 8337SOL     OW25909   0.503   6.435   2.210
 8337SOL    HW125910   0.599   6.415   2.231
 8337SOL    HW225911   0.471   6.372   2.139
 8338SOL     OW25912   1.877   4.992   0.812
 8338SOL    HW125913   1.785   4.973   0.778
 8338SOL    HW225914   1.934   4.910   0.804
 8339SOL     OW25915   5.860   0.742   3.134
 8339SOL    HW125916   5.770   0.729   3.176
 8339SOL    HW225917   5.856   0.820   3.072
 8340SOL     OW25918   4.516   3.827   1.686
 8340SOL    HW125919   4.436   3.791   1.734
 8340SOL    HW225920   4.502   3.924   1.667
 8341SOL     OW25921   2.377   6.960   0.705
 8341SOL    HW125922   2.353   7.009   0.621
 8341SOL    HW225923   2.462   6.997   0.742
 8342SOL     OW25924   5.161   6.934   1.303
 8342SOL    HW125925   5.169   6.854   1.362
 8342SOL    HW225926   5.208   7.012   1.344
 8343SOL     OW25927   0.385   5.037   5.608
 8343SOL    HW125928   0.436   5.124   5.614
 8343SOL    HW225929   0.427   4.970   5.668
 8344SOL     OW25930   3.965   6.858   5.092
 8344SOL    HW125931   3.950   6.805   5.009
 8344SOL    HW225932   3.881   6.859   5.147
 8345SOL     OW25933   6.379   1.509   2.977
 8345SOL    HW125934   6.292   1.527   2.932
 8345SOL    HW225935   6.453   1.551   2.925
 8346SOL     OW25936   3.570   5.333   2.150
 8346SOL    HW125937   3.481   5.376   2.159
 8346SOL    HW225938   3.613   5.364   2.065
 8347SOL     OW25939   3.248   5.261   4.453
 8347SOL    HW125940   3.279   5.238   4.545
 8347SOL    HW225941   3.252   5.180   4.395
 8348SOL     OW25942   1.919   0.661   0.779
 8348SOL    HW125943   1.835   0.711   0.759
 8348SOL    HW225944   1.906   0.606   0.861
 8349SOL     OW25945   6.360   5.312   1.737
 8349SOL    HW125946   6.290   5.276   1.799
 8349SOL    HW225947   6.360   5.412   1.741
 8350SOL     OW25948   6.495   0.682   4.823
 8350SOL    HW125949   6.468   0.639   4.909
 8350SOL    HW225950   6.447   0.639   4.747
 8351SOL     OW25951   3.268   6.128   1.757
 8351SOL    HW125952   3.197   6.168   1.813
 8351SOL    HW225953   3.229   6.056   1.699
 8352SOL     OW25954   6.498   6.143   2.111
 8352SOL    HW125955   6.444   6.114   2.032
 8352SOL    HW225956   6.445   6.127   2.194
 8353SOL     OW25957   1.531   3.423   2.109
 8353SOL    HW125958   1.627   3.418   2.136
 8353SOL    HW225959   1.520   3.492   2.038
 8354SOL     OW25960   2.871   0.640   0.241
 8354SOL    HW125961   2.964   0.660   0.270
 8354SOL    HW225962   2.820   0.599   0.317
 8355SOL     OW25963   3.027   1.128   0.702
 8355SOL    HW125964   3.120   1.128   0.740
 8355SOL    HW225965   2.998   1.034   0.684
 8356SOL     OW25966   2.874   5.601   0.478
 8356SOL    HW125967   2.873   5.547   0.562
 8356SOL    HW225968   2.841   5.694   0.498
 8357SOL     OW25969   4.498   6.097   3.211
 8357SOL    HW125970   4.419   6.157   3.225
 8357SOL    HW225971   4.520   6.051   3.297
 8358SOL     OW25972   3.004   2.026   5.053
 8358SOL    HW125973   3.065   1.962   5.007
 8358SOL    HW225974   3.050   2.114   5.062
 8359SOL     OW25975   4.349   4.613   3.872
 8359SOL    HW125976   4.364   4.587   3.777
 8359SOL    HW225977   4.254   4.641   3.884
 8360SOL     OW25978   4.033   0.327   2.952
 8360SOL    HW125979   4.047   0.232   2.979
 8360SOL    HW225980   4.088   0.347   2.870
 8361SOL     OW25981   1.516   0.244   2.931
 8361SOL    HW125982   1.496   0.340   2.947
 8361SOL    HW225983   1.516   0.226   2.833
 8362SOL     OW25984   2.042   3.137   0.535
 8362SOL    HW125985   2.126   3.108   0.581
 8362SOL    HW225986   2.002   3.215   0.583
 8363SOL     OW25987   0.554   3.473   1.225
 8363SOL    HW125988   0.568   3.383   1.268
 8363SOL    HW225989   0.477   3.519   1.269
 8364SOL     OW25990   6.692   4.311   5.119
 8364SOL    HW125991   6.636   4.307   5.037
 8364SOL    HW225992   6.648   4.370   5.187
 8365SOL     OW25993   1.132   3.697   6.023
 8365SOL    HW125994   1.036   3.676   6.011
 8365SOL    HW225995   1.164   3.753   5.947
 8366SOL     OW25996   2.388   7.016   2.671
 8366SOL    HW125997   2.473   0.007   2.620
 8366SOL    HW225998   2.408   6.961   2.752
 8367SOL     OW25999   5.094   5.647   3.674
 8367SOL    HW126000   5.082   5.741   3.641
 8367SOL    HW226001   5.009   5.615   3.715
 8368SOL     OW26002   3.443   5.603   6.203
 8368SOL    HW126003   3.405   5.693   6.183
 8368SOL    HW226004   3.504   5.575   6.129
 8369SOL     OW26005   2.640   1.779   1.317
 8369SOL    HW126006   2.547   1.752   1.341
 8369SOL    HW226007   2.677   1.838   1.389
 8370SOL     OW26008   1.890   1.148   7.017
 8370SOL    HW126009   1.888   1.239   6.976
 8370SOL    HW226010   1.967   1.141   0.056
 8371SOL     OW26011   1.804   2.349   0.295
 8371SOL    HW126012   1.899   2.376   0.311
 8371SOL    HW226013   1.745   2.430   0.304
 8372SOL     OW26014   6.705   0.574   1.202
 8372SOL    HW126015   6.796   0.543   1.175
 8372SOL    HW226016   6.711   0.625   1.288
 8373SOL     OW26017   1.533   6.445   4.506
 8373SOL    HW126018   1.482   6.428   4.421
 8373SOL    HW226019   1.470   6.443   4.584
 8374SOL     OW26020   6.757   0.845   5.964
 8374SOL    HW126021   6.806   0.789   6.031
 8374SOL    HW226022   6.695   0.786   5.911
 8375SOL     OW26023   4.078   0.623   6.168
 8375SOL    HW126024   4.094   0.718   6.142
 8375SOL    HW226025   4.148   0.594   6.233
 8376SOL     OW26026   4.265   0.172   4.508
 8376SOL    HW126027   4.239   0.215   4.422
 8376SOL    HW226028   4.365   0.171   4.515
 8377SOL     OW26029   5.916   4.945   1.238
 8377SOL    HW126030   5.880   4.991   1.319
 8377SOL    HW226031   5.896   4.999   1.156
 8378SOL     OW26032   4.714   2.820   3.584
 8378SOL    HW126033   4.732   2.832   3.682
 8378SOL    HW226034   4.775   2.880   3.532
 8379SOL     OW26035   5.071   2.755   2.150
 8379SOL    HW126036   5.073   2.681   2.218
 8379SOL    HW226037   5.153   2.812   2.160
 8380SOL     OW26038   5.548   1.449   3.587
 8380SOL    HW126039   5.582   1.395   3.664
 8380SOL    HW226040   5.613   1.444   3.511
 8381SOL     OW26041   1.950   5.248   4.036
 8381SOL    HW126042   1.969   5.344   4.059
 8381SOL    HW226043   1.852   5.233   4.035
 8382SOL     OW26044   0.688   4.912   2.112
 8382SOL    HW126045   0.715   4.881   2.020
 8382SOL    HW226046   0.619   4.983   2.104
 8383SOL     OW26047   3.307   1.159   5.295
 8383SOL    HW126048   3.332   1.090   5.363
 8383SOL    HW226049   3.275   1.242   5.342
 8384SOL     OW26050   0.847   6.807   1.590
 8384SOL    HW126051   0.812   6.776   1.679
 8384SOL    HW226052   0.771   6.817   1.526
 8385SOL     OW26053   4.535   2.002   1.002
 8385SOL    HW126054   4.511   2.089   1.044
 8385SOL    HW226055   4.557   1.936   1.074
 8386SOL     OW26056   0.496   3.782   2.406
 8386SOL    HW126057   0.569   3.715   2.394
 8386SOL    HW226058   0.441   3.787   2.322
 8387SOL     OW26059   1.093   2.115   1.876
 8387SOL    HW126060   1.038   2.169   1.939
 8387SOL    HW226061   1.078   2.017   1.893
 8388SOL     OW26062   0.982   6.550   2.901
 8388SOL    HW126063   0.936   6.539   2.989
 8388SOL    HW226064   0.981   6.646   2.874
 8389SOL     OW26065   6.082   2.980   3.277
 8389SOL    HW126066   6.129   3.018   3.198
 8389SOL    HW226067   5.994   3.026   3.289
 8390SOL     OW26068   5.805   2.080   6.727
 8390SOL    HW126069   5.897   2.117   6.740
 8390SOL    HW226070   5.812   1.984   6.700
 8391SOL     OW26071   6.645   6.861   1.194
 8391SOL    HW126072   6.699   6.907   1.264
 8391SOL    HW226073   6.591   6.789   1.236
 8392SOL     OW26074   3.405   3.114   5.164
 8392SOL    HW126075   3.498   3.096   5.131
 8392SOL    HW226076   3.341   3.053   5.116
 8393SOL     OW26077   5.458   6.956   1.053
 8393SOL    HW126078   5.484   6.910   1.138
 8393SOL    HW226079   5.378   7.014   1.069
 8394SOL     OW26080   5.957   2.863   2.248
 8394SOL    HW126081   5.977   2.819   2.160
 8394SOL    HW226082   6.020   2.940   2.261
 8395SOL     OW26083   2.248   1.037   4.791
 8395SOL    HW126084   2.318   0.965   4.793
 8395SOL    HW226085   2.258   1.094   4.873
 8396SOL     OW26086   5.086   5.147   3.981
 8396SOL    HW126087   5.072   5.064   4.033
 8396SOL    HW226088   5.127   5.217   4.039
 8397SOL     OW26089   6.364   6.859   2.993
 8397SOL    HW126090   6.268   6.885   2.982
 8397SOL    HW226091   6.370   6.761   3.011
 8398SOL     OW26092   6.093   2.125   6.515
 8398SOL    HW126093   6.099   2.025   6.512
 8398SOL    HW226094   6.008   2.155   6.472
 8399SOL     OW26095   0.470   4.423   2.257
 8399SOL    HW126096   0.410   4.495   2.293
 8399SOL    HW226097   0.549   4.465   2.212
 8400SOL     OW26098   1.175   1.058   4.874
 8400SOL    HW126099   1.232   1.125   4.826
 8400SOL    HW226100   1.095   1.104   4.913
 8401SOL     OW26101   2.350   0.378   5.487
 8401SOL    HW126102   2.286   0.410   5.557
 8401SOL    HW226103   2.422   0.323   5.529
 8402SOL     OW26104   3.053   0.349   6.654
 8402SOL    HW126105   3.039   0.270   6.594
 8402SOL    HW226106   3.095   0.423   6.602
 8403SOL     OW26107   5.566   4.869   5.073
 8403SOL    HW126108   5.493   4.877   5.141
 8403SOL    HW226109   5.527   4.879   4.981
 8404SOL     OW26110   1.104   1.238   0.301
 8404SOL    HW126111   1.171   1.243   0.227
 8404SOL    HW226112   1.013   1.223   0.263
 8405SOL     OW26113   3.826   6.870   5.473
 8405SOL    HW126114   3.926   6.875   5.476
 8405SOL    HW226115   3.796   6.867   5.378
 8406SOL     OW26116   5.444   0.314   5.913
 8406SOL    HW126117   5.410   0.273   5.997
 8406SOL    HW226118   5.437   0.413   5.919
 8407SOL     OW26119   4.390   0.565   4.415
 8407SOL    HW126120   4.465   0.503   4.437
 8407SOL    HW226121   4.303   0.520   4.436
 8408SOL     OW26122   4.162   1.917   1.381
 8408SOL    HW126123   4.216   1.865   1.315
 8408SOL    HW226124   4.218   1.989   1.422
 8409SOL     OW26125   4.409   2.246   1.843
 8409SOL    HW126126   4.386   2.221   1.938
 8409SOL    HW226127   4.504   2.221   1.825
 8410SOL     OW26128   6.805   1.471   1.333
 8410SOL    HW126129   6.785   1.569   1.324
 8410SOL    HW226130   6.868   1.444   1.260
 8411SOL     OW26131   0.869   5.897   1.059
 8411SOL    HW126132   0.771   5.921   1.056
 8411SOL    HW226133   0.879   5.802   1.086
 8412SOL     OW26134   2.516   2.869   6.864
 8412SOL    HW126135   2.446   2.820   6.812
 8412SOL    HW226136   2.572   2.924   6.801
 8413SOL     OW26137   3.722   5.772   4.649
 8413SOL    HW126138   3.737   5.825   4.566
 8413SOL    HW226139   3.806   5.723   4.674
 8414SOL     OW26140   1.599   6.800   0.832
 8414SOL    HW126141   1.530   6.871   0.845
 8414SOL    HW226142   1.600   6.740   0.912
 8415SOL     OW26143   3.518   1.559   6.329
 8415SOL    HW126144   3.590   1.519   6.387
 8415SOL    HW226145   3.489   1.491   6.261
 8416SOL     OW26146   0.572   2.295   5.172
 8416SOL    HW126147   0.649   2.353   5.147
 8416SOL    HW226148   0.497   2.351   5.207
 8417SOL     OW26149   1.815   3.461   6.043
 8417SOL    HW126150   1.833   3.470   6.141
 8417SOL    HW226151   1.808   3.364   6.019
 8418SOL     OW26152   0.721   5.875   2.367
 8418SOL    HW126153   0.773   5.821   2.433
 8418SOL    HW226154   0.635   5.904   2.408
 8419SOL     OW26155   3.422   1.623   4.513
 8419SOL    HW126156   3.393   1.708   4.470
 8419SOL    HW226157   3.434   1.638   4.611
 8420SOL     OW26158   3.300   1.339   2.208
 8420SOL    HW126159   3.389   1.343   2.253
 8420SOL    HW226160   3.263   1.432   2.200
 8421SOL     OW26161   4.585   6.823   6.689
 8421SOL    HW126162   4.632   6.830   6.601
 8421SOL    HW226163   4.576   6.727   6.714
 8422SOL     OW26164   5.296   2.166   4.052
 8422SOL    HW126165   5.201   2.149   4.025
 8422SOL    HW226166   5.341   2.079   4.071
 8423SOL     OW26167   6.479   5.860   0.211
 8423SOL    HW126168   6.546   5.836   0.141
 8423SOL    HW226169   6.483   5.959   0.228
 8424SOL     OW26170   3.446   0.558   5.179
 8424SOL    HW126171   3.493   0.598   5.258
 8424SOL    HW226172   3.362   0.609   5.161
 8425SOL     OW26173   3.825   3.568   2.056
 8425SOL    HW126174   3.780   3.657   2.060
 8425SOL    HW226175   3.821   3.525   2.147
 8426SOL     OW26176   3.667   3.443   1.806
 8426SOL    HW126177   3.580   3.396   1.791
 8426SOL    HW226178   3.661   3.537   1.774
 8427SOL     OW26179   3.949   3.158   3.035
 8427SOL    HW126180   3.999   3.194   2.956
 8427SOL    HW226181   4.007   3.160   3.116
 8428SOL     OW26182   5.906   0.291   2.054
 8428SOL    HW126183   5.868   0.208   2.095
 8428SOL    HW226184   5.832   0.358   2.039
 8429SOL     OW26185   3.075   6.153   5.257
 8429SOL    HW126186   3.145   6.185   5.193
 8429SOL    HW226187   3.113   6.150   5.350
 8430SOL     OW26188   4.902   6.366   5.170
 8430SOL    HW126189   4.896   6.446   5.111
 8430SOL    HW226190   4.899   6.283   5.114
 8431SOL     OW26191   2.206   3.226   5.957
 8431SOL    HW126192   2.304   3.203   5.965
 8431SOL    HW226193   2.196   3.308   5.901
 8432SOL     OW26194   6.540   5.255   5.999
 8432SOL    HW126195   6.635   5.285   6.009
 8432SOL    HW226196   6.479   5.332   6.016
 8433SOL     OW26197   5.168   2.172   0.972
 8433SOL    HW126198   5.161   2.076   0.999
 8433SOL    HW226199   5.121   2.229   1.040
 8434SOL     OW26200   2.882   6.171   4.896
 8434SOL    HW126201   2.847   6.166   4.990
 8434SOL    HW226202   2.974   6.134   4.892
 8435SOL     OW26203   6.419   2.000   2.897
 8435SOL    HW126204   6.347   1.942   2.858
 8435SOL    HW226205   6.499   1.997   2.836
 8436SOL     OW26206   1.797   5.643   2.542
 8436SOL    HW126207   1.789   5.605   2.634
 8436SOL    HW226208   1.840   5.733   2.547
 8437SOL     OW26209   1.627   6.118   0.719
 8437SOL    HW126210   1.679   6.179   0.659
 8437SOL    HW226211   1.552   6.076   0.667
 8438SOL     OW26212   1.197   4.254   2.664
 8438SOL    HW126213   1.195   4.163   2.623
 8438SOL    HW226214   1.108   4.274   2.707
 8439SOL     OW26215   6.251   4.250   2.287
 8439SOL    HW126216   6.327   4.315   2.294
 8439SOL    HW226217   6.229   4.216   2.378
 8440SOL     OW26218   1.866   1.938   2.392
 8440SOL    HW126219   1.925   1.860   2.415
 8440SOL    HW226220   1.921   2.008   2.345
 8441SOL     OW26221   6.764   2.307   5.875
 8441SOL    HW126222   6.726   2.382   5.929
 8441SOL    HW226223   6.828   2.344   5.807
 8442SOL     OW26224   3.731   2.564   0.159
 8442SOL    HW126225   3.809   2.501   0.154
 8442SOL    HW226226   3.648   2.517   0.128
 8443SOL     OW26227   2.015   4.379   2.807
 8443SOL    HW126228   2.097   4.336   2.845
 8443SOL    HW226229   1.936   4.354   2.863
 8444SOL     OW26230   5.840   5.269   4.611
 8444SOL    HW126231   5.760   5.275   4.552
 8444SOL    HW226232   5.829   5.191   4.673
 8445SOL     OW26233   4.537   6.547   0.010
 8445SOL    HW126234   4.588   6.557   6.949
 8445SOL    HW226235   4.440   6.532   7.015
 8446SOL     OW26236   6.802   5.714   4.659
 8446SOL    HW126237   6.710   5.693   4.626
 8446SOL    HW226238   6.853   5.629   4.672
 8447SOL     OW26239   3.670   1.622   4.243
 8447SOL    HW126240   3.658   1.687   4.318
 8447SOL    HW226241   3.614   1.541   4.260
 8448SOL     OW26242   3.299   5.981   3.024
 8448SOL    HW126243   3.258   5.923   3.095
 8448SOL    HW226244   3.248   5.969   2.939
 8449SOL     OW26245   1.628   2.293   4.067
 8449SOL    HW126246   1.629   2.388   4.035
 8449SOL    HW226247   1.585   2.289   4.157
 8450SOL     OW26248   6.672   0.979   0.351
 8450SOL    HW126249   6.634   1.053   0.406
 8450SOL    HW226250   6.768   0.996   0.333
 8451SOL     OW26251   4.061   2.761   1.310
 8451SOL    HW126252   4.026   2.834   1.369
 8451SOL    HW226253   4.022   2.771   1.218
 8452SOL     OW26254   4.865   1.308   5.582
 8452SOL    HW126255   4.960   1.304   5.552
 8452SOL    HW226256   4.858   1.362   5.666
 8453SOL     OW26257   6.824   0.343   0.112
 8453SOL    HW126258   6.766   0.420   0.088
 8453SOL    HW226259   6.781   0.290   0.186
 8454SOL     OW26260   6.062   6.094   6.362
 8454SOL    HW126261   6.091   6.158   6.433
 8454SOL    HW226262   6.100   6.122   6.274
 8455SOL     OW26263   6.517   0.931   2.367
 8455SOL    HW126264   6.462   1.009   2.337
 8455SOL    HW226265   6.462   0.848   2.364
 8456SOL     OW26266   6.947   0.453   2.015
 8456SOL    HW126267   6.940   0.474   1.918
 8456SOL    HW226268   0.001   0.501   2.054
 8457SOL     OW26269   6.957   0.329   4.924
 8457SOL    HW126270   0.008   0.356   4.984
 8457SOL    HW226271   6.958   0.230   4.911
 8458SOL     OW26272   0.988   6.824   6.681
 8458SOL    HW126273   0.896   6.847   6.651
 8458SOL    HW226274   0.984   6.783   6.772
 8459SOL     OW26275   1.032   5.910   3.172
 8459SOL    HW126276   1.125   5.908   3.209
 8459SOL    HW226277   0.975   5.969   3.229
 8460SOL     OW26278   4.038   3.689   3.195
 8460SOL    HW126279   4.042   3.789   3.187
 8460SOL    HW226280   4.004   3.650   3.110
 8461SOL     OW26281   6.107   3.342   3.675
 8461SOL    HW126282   6.063   3.371   3.760
 8461SOL    HW226283   6.136   3.247   3.683
 8462SOL     OW26284   2.842   2.635   1.700
 8462SOL    HW126285   2.873   2.558   1.756
 8462SOL    HW226286   2.743   2.644   1.708
 8463SOL     OW26287   6.211   0.660   1.536
 8463SOL    HW126288   6.269   0.736   1.507
 8463SOL    HW226289   6.257   0.608   1.607
 8464SOL     OW26290   6.817   1.181   4.497
 8464SOL    HW126291   6.785   1.275   4.488
 8464SOL    HW226292   6.915   1.177   4.478
 8465SOL     OW26293   1.691   1.636   0.388
 8465SOL    HW126294   1.611   1.670   0.338
 8465SOL    HW226295   1.673   1.543   0.421
 8466SOL     OW26296   0.954   0.001   4.538
 8466SOL    HW126297   0.913   6.961   4.603
 8466SOL    HW226298   0.915   7.011   4.447
 8467SOL     OW26299   4.189   5.262   0.455
 8467SOL    HW126300   4.287   5.262   0.435
 8467SOL    HW226301   4.147   5.180   0.417
 8468SOL     OW26302   3.408   2.573   0.227
 8468SOL    HW126303   3.340   2.584   0.156
 8468SOL    HW226304   3.463   2.492   0.209
 8469SOL     OW26305   4.406   2.307   5.790
 8469SOL    HW126306   4.308   2.319   5.803
 8469SOL    HW226307   4.432   2.212   5.807
 8470SOL     OW26308   1.923   3.011   6.817
 8470SOL    HW126309   1.896   2.915   6.825
 8470SOL    HW226310   2.010   3.026   6.862
 8471SOL     OW26311   4.615   1.819   4.597
 8471SOL    HW126312   4.522   1.819   4.561
 8471SOL    HW226313   4.653   1.912   4.592
 8472SOL     OW26314   1.265   6.701   3.081
 8472SOL    HW126315   1.229   6.755   3.005
 8472SOL    HW226316   1.356   6.668   3.058
 8473SOL     OW26317   6.523   6.045   6.413
 8473SOL    HW126318   6.516   6.130   6.361
 8473SOL    HW226319   6.477   5.971   6.363
 8474SOL     OW26320   4.113   5.693   0.389
 8474SOL    HW126321   4.102   5.654   0.480
 8474SOL    HW226322   4.079   5.787   0.388
 8475SOL     OW26323   4.691   2.135   2.837
 8475SOL    HW126324   4.623   2.167   2.771
 8475SOL    HW226325   4.646   2.110   2.922
 8476SOL     OW26326   4.539   0.317   2.741
 8476SOL    HW126327   4.608   0.298   2.811
 8476SOL    HW226328   4.543   0.414   2.715
 8477SOL     OW26329   3.013   6.946   3.093
 8477SOL    HW126330   3.004   6.870   3.029
 8477SOL    HW226331   3.100   6.994   3.077
 8478SOL     OW26332   1.563   0.413   5.735
 8478SOL    HW126333   1.602   0.466   5.660
 8478SOL    HW226334   1.502   0.470   5.789
 8479SOL     OW26335   5.526   0.721   2.485
 8479SOL    HW126336   5.574   0.759   2.564
 8479SOL    HW226337   5.527   0.622   2.490
 8480SOL     OW26338   1.800   1.533   1.196
 8480SOL    HW126339   1.720   1.490   1.153
 8480SOL    HW226340   1.843   1.468   1.259
 8481SOL     OW26341   4.467   0.138   5.783
 8481SOL    HW126342   4.434   0.188   5.704
 8481SOL    HW226343   4.502   0.049   5.753
 8482SOL     OW26344   0.160   0.488   1.547
 8482SOL    HW126345   0.106   0.561   1.503
 8482SOL    HW226346   0.255   0.518   1.557
 8483SOL     OW26347   5.389   6.269   1.823
 8483SOL    HW126348   5.390   6.295   1.726
 8483SOL    HW226349   5.425   6.344   1.878
 8484SOL     OW26350   6.832   4.711   5.532
 8484SOL    HW126351   6.881   4.672   5.454
 8484SOL    HW226352   6.849   4.655   5.613
 8485SOL     OW26353   1.860   3.462   6.309
 8485SOL    HW126354   1.826   3.515   6.387
 8485SOL    HW226355   1.949   3.423   6.332
 8486SOL     OW26356   4.247   0.798   2.482
 8486SOL    HW126357   4.177   0.870   2.481
 8486SOL    HW226358   4.334   0.836   2.449
 8487SOL     OW26359   4.437   0.770   0.934
 8487SOL    HW126360   4.432   0.842   0.865
 8487SOL    HW226361   4.391   0.800   1.017
 8488SOL     OW26362   6.323   3.636   5.118
 8488SOL    HW126363   6.373   3.723   5.116
 8488SOL    HW226364   6.343   3.588   5.203
 8489SOL     OW26365   3.383   6.676   2.770
 8489SOL    HW126366   3.321   6.752   2.751
 8489SOL    HW226367   3.331   6.597   2.802
 8490SOL     OW26368   4.051   5.196   2.363
 8490SOL    HW126369   4.036   5.117   2.423
 8490SOL    HW226370   3.967   5.249   2.356
 8491SOL     OW26371   1.095   1.065   1.460
 8491SOL    HW126372   1.038   1.146   1.443
 8491SOL    HW226373   1.186   1.080   1.422
 8492SOL     OW26374   5.869   3.877   4.415
 8492SOL    HW126375   5.852   3.785   4.450
 8492SOL    HW226376   5.823   3.888   4.326
 8493SOL     OW26377   3.668   2.756   1.081
 8493SOL    HW126378   3.633   2.717   0.995
 8493SOL    HW226379   3.609   2.727   1.157
 8494SOL     OW26380   3.527   6.095   6.654
 8494SOL    HW126381   3.532   6.195   6.663
 8494SOL    HW226382   3.522   6.070   6.558
 8495SOL     OW26383   0.902   2.661   6.883
 8495SOL    HW126384   0.922   2.737   6.821
 8495SOL    HW226385   0.824   2.609   6.848
 8496SOL     OW26386   0.777   2.094   3.639
 8496SOL    HW126387   0.765   2.005   3.683
 8496SOL    HW226388   0.867   2.097   3.594
 8497SOL     OW26389   5.572   3.844   3.366
 8497SOL    HW126390   5.638   3.905   3.323
 8497SOL    HW226391   5.505   3.899   3.417
 8498SOL     OW26392   6.699   0.913   1.481
 8498SOL    HW126393   6.688   0.950   1.389
 8498SOL    HW226394   6.775   0.958   1.527
 8499SOL     OW26395   0.378   3.997   0.181
 8499SOL    HW126396   0.401   4.075   0.123
 8499SOL    HW226397   0.399   4.019   0.277
 8500SOL     OW26398   2.807   0.261   5.555
 8500SOL    HW126399   2.859   0.315   5.621
 8500SOL    HW226400   2.724   0.226   5.599
 8501SOL     OW26401   2.634   4.007   5.722
 8501SOL    HW126402   2.687   4.088   5.748
 8501SOL    HW226403   2.576   4.029   5.644
 8502SOL     OW26404   0.561   6.726   1.304
 8502SOL    HW126405   0.591   6.666   1.378
 8502SOL    HW226406   0.582   6.684   1.216
 8503SOL     OW26407   3.816   5.648   3.528
 8503SOL    HW126408   3.774   5.564   3.494
 8503SOL    HW226409   3.805   5.721   3.461
 8504SOL     OW26410   1.287   5.053   3.061
 8504SOL    HW126411   1.290   5.060   3.160
 8504SOL    HW226412   1.330   4.968   3.032
 8505SOL     OW26413   4.638   2.164   3.358
 8505SOL    HW126414   4.728   2.203   3.379
 8505SOL    HW226415   4.590   2.144   3.444
 8506SOL     OW26416   1.007   5.828   6.734
 8506SOL    HW126417   0.957   5.864   6.813
 8506SOL    HW226418   1.012   5.899   6.663
 8507SOL     OW26419   1.696   0.445   4.771
 8507SOL    HW126420   1.598   0.468   4.769
 8507SOL    HW226421   1.706   0.345   4.772
 8508SOL     OW26422   0.203   3.197   5.568
 8508SOL    HW126423   0.286   3.155   5.606
 8508SOL    HW226424   0.153   3.243   5.641
 8509SOL     OW26425   5.977   2.040   4.969
 8509SOL    HW126426   5.992   1.973   4.897
 8509SOL    HW226427   5.884   2.031   5.004
 8510SOL     OW26428   5.168   0.154   2.449
 8510SOL    HW126429   5.094   0.222   2.444
 8510SOL    HW226430   5.174   0.105   2.363
 8511SOL     OW26431   6.630   5.324   1.690
 8511SOL    HW126432   6.647   5.423   1.682
 8511SOL    HW226433   6.533   5.309   1.710
 8512SOL     OW26434   3.727   3.139   0.986
 8512SOL    HW126435   3.664   3.093   1.047
 8512SOL    HW226436   3.677   3.177   0.908
 8513SOL     OW26437   1.030   3.081   0.622
 8513SOL    HW126438   1.036   3.132   0.708
 8513SOL    HW226439   0.967   3.127   0.560
 8514SOL     OW26440   2.313   2.716   5.048
 8514SOL    HW126441   2.267   2.697   4.961
 8514SOL    HW226442   2.329   2.814   5.057
 8515SOL     OW26443   2.673   0.823   0.505
 8515SOL    HW126444   2.682   0.734   0.461
 8515SOL    HW226445   2.688   0.813   0.604
 8516SOL     OW26446   6.084   3.308   4.940
 8516SOL    HW126447   6.057   3.242   4.870
 8516SOL    HW226448   6.144   3.377   4.900
 8517SOL     OW26449   1.716   1.957   5.983
 8517SOL    HW126450   1.797   1.920   6.029
 8517SOL    HW226451   1.721   2.057   5.982
 8518SOL     OW26452   5.414   4.731   0.044
 8518SOL    HW126453   5.384   4.636   0.047
 8518SOL    HW226454   5.514   4.735   0.042
 8519SOL     OW26455   0.647   3.760   0.565
 8519SOL    HW126456   0.679   3.690   0.502
 8519SOL    HW226457   0.614   3.839   0.513
 8520SOL     OW26458   3.143   3.889   6.017
 8520SOL    HW126459   3.191   3.939   6.088
 8520SOL    HW226460   3.207   3.864   5.944
 8521SOL     OW26461   2.144   6.639   4.931
 8521SOL    HW126462   2.107   6.560   4.882
 8521SOL    HW226463   2.242   6.628   4.943
 8522SOL     OW26464   0.569   0.409   6.896
 8522SOL    HW126465   0.489   0.469   6.900
 8522SOL    HW226466   0.620   0.416   6.982
 8523SOL     OW26467   3.982   1.721   1.075
 8523SOL    HW126468   3.967   1.690   1.169
 8523SOL    HW226469   3.903   1.774   1.044
 8524SOL     OW26470   2.830   6.193   5.169
 8524SOL    HW126471   2.758   6.233   5.226
 8524SOL    HW226472   2.914   6.185   5.223
 8525SOL     OW26473   6.159   3.029   2.347
 8525SOL    HW126474   6.200   2.995   2.432
 8525SOL    HW226475   6.169   3.129   2.343
 8526SOL     OW26476   0.460   4.817   6.530
 8526SOL    HW126477   0.530   4.835   6.598
 8526SOL    HW226478   0.500   4.766   6.453
 8527SOL     OW26479   3.147   0.587   6.141
 8527SOL    HW126480   3.224   0.524   6.154
 8527SOL    HW226481   3.180   0.673   6.102
 8528SOL     OW26482   5.619   0.635   1.205
 8528SOL    HW126483   5.665   0.557   1.163
 8528SOL    HW226484   5.679   0.674   1.275
 8529SOL     OW26485   0.802   6.490   6.163
 8529SOL    HW126486   0.827   6.442   6.079
 8529SOL    HW226487   0.864   6.567   6.177
 8530SOL     OW26488   3.831   3.379   2.526
 8530SOL    HW126489   3.925   3.393   2.496
 8530SOL    HW226490   3.830   3.353   2.622
 8531SOL     OW26491   6.385   5.621   2.996
 8531SOL    HW126492   6.362   5.692   3.062
 8531SOL    HW226493   6.390   5.660   2.905
 8532SOL     OW26494   3.444   5.626   0.069
 8532SOL    HW126495   3.391   5.618   7.010
 8532SOL    HW226496   3.419   5.553   0.132
 8533SOL     OW26497   2.246   6.046   4.981
 8533SOL    HW126498   2.233   5.955   5.021
 8533SOL    HW226499   2.173   6.107   5.013
 8534SOL     OW26500   1.950   2.927   2.062
 8534SOL    HW126501   2.042   2.895   2.039
 8534SOL    HW226502   1.904   2.959   1.980
 8535SOL     OW26503   6.199   0.291   1.906
 8535SOL    HW126504   6.279   0.337   1.946
 8535SOL    HW226505   6.116   0.335   1.938
 8536SOL     OW26506   1.322   0.956   3.739
 8536SOL    HW126507   1.359   0.864   3.724
 8536SOL    HW226508   1.390   1.024   3.713
 8537SOL     OW26509   6.076   0.979   3.448
 8537SOL    HW126510   6.083   1.037   3.367
 8537SOL    HW226511   6.070   0.883   3.421
 8538SOL     OW26512   0.832   2.348   6.946
 8538SOL    HW126513   0.738   2.312   6.943
 8538SOL    HW226514   0.845   2.398   0.007
 8539SOL     OW26515   5.156   3.032   1.958
 8539SOL    HW126516   5.170   3.085   1.875
 8539SOL    HW226517   5.081   2.966   1.944
 8540SOL     OW26518   4.125   0.479   1.627
 8540SOL    HW126519   4.172   0.418   1.563
 8540SOL    HW226520   4.077   0.551   1.576
 8541SOL     OW26521   2.198   3.155   3.409
 8541SOL    HW126522   2.250   3.075   3.379
 8541SOL    HW226523   2.163   3.140   3.501
 8542SOL     OW26524   2.975   4.715   6.540
 8542SOL    HW126525   2.978   4.615   6.545
 8542SOL    HW226526   2.905   4.749   6.602
 8543SOL     OW26527   3.905   1.883   6.720
 8543SOL    HW126528   3.809   1.875   6.748
 8543SOL    HW226529   3.912   1.945   6.642
 8544SOL     OW26530   6.398   1.828   4.744
 8544SOL    HW126531   6.431   1.841   4.651
 8544SOL    HW226532   6.354   1.738   4.751
 8545SOL     OW26533   4.276   6.518   5.408
 8545SOL    HW126534   4.282   6.440   5.469
 8545SOL    HW226535   4.180   6.548   5.401
 8546SOL     OW26536   3.547   1.961   0.111
 8546SOL    HW126537   3.544   2.008   0.023
 8546SOL    HW226538   3.512   1.868   0.101
 8547SOL     OW26539   1.682   4.694   2.106
 8547SOL    HW126540   1.760   4.656   2.055
 8547SOL    HW226541   1.653   4.627   2.175
 8548SOL     OW26542   6.158   2.078   5.697
 8548SOL    HW126543   6.122   2.001   5.749
 8548SOL    HW226544   6.153   2.161   5.753
 8549SOL     OW26545   5.259   2.966   5.401
 8549SOL    HW126546   5.253   2.988   5.303
 8549SOL    HW226547   5.351   2.934   5.422
 8550SOL     OW26548   1.515   4.537   5.475
 8550SOL    HW126549   1.448   4.610   5.465
 8550SOL    HW226550   1.605   4.577   5.492
 8551SOL     OW26551   2.397   4.105   1.196
 8551SOL    HW126552   2.412   4.040   1.271
 8551SOL    HW226553   2.299   4.121   1.185
 8552SOL     OW26554   3.010   6.370   4.492
 8552SOL    HW126555   2.982   6.428   4.569
 8552SOL    HW226556   3.079   6.418   4.438
 8553SOL     OW26557   6.238   5.739   6.831
 8553SOL    HW126558   6.211   5.778   6.919
 8553SOL    HW226559   6.337   5.725   6.831
 8554SOL     OW26560   6.098   3.966   0.283
 8554SOL    HW126561   6.117   4.008   0.194
 8554SOL    HW226562   6.016   3.910   0.277
 8555SOL     OW26563   2.395   6.608   4.489
 8555SOL    HW126564   2.433   6.699   4.476
 8555SOL    HW226565   2.301   6.605   4.454
 8556SOL     OW26566   5.903   6.940   4.423
 8556SOL    HW126567   5.834   6.892   4.369
 8556SOL    HW226568   5.984   6.958   4.367
 8557SOL     OW26569   6.935   2.004   0.848
 8557SOL    HW126570   6.971   2.088   0.808
 8557SOL    HW226571   6.897   1.947   0.775
 8558SOL     OW26572   1.613   4.479   2.293
 8558SOL    HW126573   1.657   4.391   2.279
 8558SOL    HW226574   1.515   4.465   2.308
 8559SOL     OW26575   0.924   1.559   5.290
 8559SOL    HW126576   0.931   1.658   5.289
 8559SOL    HW226577   0.991   1.521   5.354
 8560SOL     OW26578   6.739   2.685   6.808
 8560SOL    HW126579   6.744   2.682   6.708
 8560SOL    HW226580   6.664   2.628   6.839
 8561SOL     OW26581   4.655   6.001   6.251
 8561SOL    HW126582   4.595   6.065   6.205
 8561SOL    HW226583   4.724   6.051   6.303
 8562SOL     OW26584   3.869   0.190   4.367
 8562SOL    HW126585   3.774   0.212   4.388
 8562SOL    HW226586   3.919   0.274   4.348
 8563SOL     OW26587   3.000   2.832   6.625
 8563SOL    HW126588   3.065   2.757   6.612
 8563SOL    HW226589   2.996   2.854   6.723
 8564SOL     OW26590   1.112   6.299   3.287
 8564SOL    HW126591   1.196   6.264   3.246
 8564SOL    HW226592   1.045   6.225   3.293
 8565SOL     OW26593   3.516   1.025   1.447
 8565SOL    HW126594   3.592   1.018   1.512
 8565SOL    HW226595   3.454   0.948   1.461
 8566SOL     OW26596   1.786   3.855   4.108
 8566SOL    HW126597   1.764   3.950   4.129
 8566SOL    HW226598   1.804   3.845   4.010
 8567SOL     OW26599   5.189   6.187   6.255
 8567SOL    HW126600   5.270   6.137   6.285
 8567SOL    HW226601   5.201   6.284   6.275
 8568SOL     OW26602   5.443   0.299   0.332
 8568SOL    HW126603   5.506   0.316   0.408
 8568SOL    HW226604   5.369   0.240   0.363
 8569SOL     OW26605   3.559   0.678   5.407
 8569SOL    HW126606   3.507   0.660   5.490
 8569SOL    HW226607   3.656   0.660   5.423
 8570SOL     OW26608   6.478   3.520   6.369
 8570SOL    HW126609   6.469   3.498   6.272
 8570SOL    HW226610   6.521   3.444   6.417
 8571SOL     OW26611   0.023   4.405   5.660
 8571SOL    HW126612   0.117   4.428   5.634
 8571SOL    HW226613   0.023   4.349   5.742
 8572SOL     OW26614   2.763   5.166   6.034
 8572SOL    HW126615   2.762   5.245   6.094
 8572SOL    HW226616   2.822   5.184   5.955
 8573SOL     OW26617   3.333   5.700   4.154
 8573SOL    HW126618   3.432   5.710   4.150
 8573SOL    HW226619   3.291   5.790   4.169
 8574SOL     OW26620   0.558   4.221   4.370
 8574SOL    HW126621   0.575   4.128   4.337
 8574SOL    HW226622   0.549   4.283   4.293
 8575SOL     OW26623   2.992   3.501   6.601
 8575SOL    HW126624   3.057   3.484   6.527
 8575SOL    HW226625   2.915   3.438   6.593
 8576SOL     OW26626   2.106   6.964   0.831
 8576SOL    HW126627   2.199   6.989   0.804
 8576SOL    HW226628   2.050   6.949   0.750
 8577SOL     OW26629   6.353   5.562   4.540
 8577SOL    HW126630   6.389   5.654   4.525
 8577SOL    HW226631   6.261   5.568   4.578
 8578SOL     OW26632   4.395   0.767   3.348
 8578SOL    HW126633   4.306   0.746   3.307
 8578SOL    HW226634   4.430   0.852   3.309
 8579SOL     OW26635   0.844   4.869   2.337
 8579SOL    HW126636   0.792   4.875   2.251
 8579SOL    HW226637   0.782   4.881   2.414
 8580SOL     OW26638   2.604   5.603   5.896
 8580SOL    HW126639   2.578   5.610   5.992
 8580SOL    HW226640   2.544   5.537   5.850
 8581SOL     OW26641   3.315   3.362   0.566
 8581SOL    HW126642   3.218   3.338   0.558
 8581SOL    HW226643   3.341   3.365   0.662
 8582SOL     OW26644   3.781   5.001   0.174
 8582SOL    HW126645   3.794   4.994   0.075
 8582SOL    HW226646   3.831   5.080   0.208
 8583SOL     OW26647   5.477   6.878   4.707
 8583SOL    HW126648   5.560   6.840   4.666
 8583SOL    HW226649   5.502   6.939   4.782
 8584SOL     OW26650   0.325   5.478   6.412
 8584SOL    HW126651   0.229   5.502   6.399
 8584SOL    HW226652   0.371   5.476   6.323
 8585SOL     OW26653   1.555   1.958   0.946
 8585SOL    HW126654   1.623   1.923   0.881
 8585SOL    HW226655   1.526   2.049   0.919
 8586SOL     OW26656   4.048   5.113   3.923
 8586SOL    HW126657   3.967   5.056   3.936
 8586SOL    HW226658   4.118   5.088   3.991
 8587SOL     OW26659   6.341   1.570   1.288
 8587SOL    HW126660   6.389   1.565   1.201
 8587SOL    HW226661   6.335   1.665   1.318
 8588SOL     OW26662   3.555   2.776   6.317
 8588SOL    HW126663   3.582   2.686   6.283
 8588SOL    HW226664   3.636   2.826   6.346
 8589SOL     OW26665   2.663   1.599   4.743
 8589SOL    HW126666   2.608   1.520   4.770
 8589SOL    HW226667   2.664   1.607   4.643
 8590SOL     OW26668   5.395   5.059   5.305
 8590SOL    HW126669   5.374   5.044   5.402
 8590SOL    HW226670   5.494   5.070   5.293
 8591SOL     OW26671   0.765   2.978   0.249
 8591SOL    HW126672   0.700   3.030   0.303
 8591SOL    HW226673   0.803   2.904   0.306
 8592SOL     OW26674   6.323   6.361   6.694
 8592SOL    HW126675   6.394   6.431   6.704
 8592SOL    HW226676   6.340   6.287   6.759
 8593SOL     OW26677   0.509   5.615   3.246
 8593SOL    HW126678   0.557   5.669   3.178
 8593SOL    HW226679   0.551   5.629   3.336
 8594SOL     OW26680   3.915   3.988   2.940
 8594SOL    HW126681   3.947   3.988   3.035
 8594SOL    HW226682   3.963   3.918   2.888
 8595SOL     OW26683   1.605   2.817   1.750
 8595SOL    HW126684   1.540   2.766   1.805
 8595SOL    HW226685   1.654   2.755   1.689
 8596SOL     OW26686   6.692   4.062   2.346
 8596SOL    HW126687   6.677   4.066   2.445
 8596SOL    HW226688   6.772   4.118   2.322
 8597SOL     OW26689   2.019   1.455   0.808
 8597SOL    HW126690   2.087   1.383   0.821
 8597SOL    HW226691   2.058   1.529   0.754
 8598SOL     OW26692   6.301   3.239   1.752
 8598SOL    HW126693   6.212   3.198   1.736
 8598SOL    HW226694   6.363   3.217   1.677
 8599SOL     OW26695   0.828   2.867   0.863
 8599SOL    HW126696   0.801   2.881   0.958
 8599SOL    HW226697   0.926   2.885   0.854
 8600SOL     OW26698   6.643   2.496   6.031
 8600SOL    HW126699   6.664   2.584   5.989
 8600SOL    HW226700   6.545   2.491   6.051
 8601SOL     OW26701   0.594   0.269   4.809
 8601SOL    HW126702   0.560   0.349   4.760
 8601SOL    HW226703   0.668   0.297   4.871
 8602SOL     OW26704   1.477   6.576   1.872
 8602SOL    HW126705   1.492   6.495   1.814
 8602SOL    HW226706   1.382   6.607   1.861
 8603SOL     OW26707   4.713   3.681   1.545
 8603SOL    HW126708   4.720   3.581   1.544
 8603SOL    HW226709   4.637   3.708   1.604
 8604SOL     OW26710   6.155   2.749   2.907
 8604SOL    HW126711   6.109   2.831   2.871
 8604SOL    HW226712   6.246   2.775   2.942
 8605SOL     OW26713   3.256   5.121   1.572
 8605SOL    HW126714   3.173   5.071   1.548
 8605SOL    HW226715   3.281   5.101   1.667
 8606SOL     OW26716   4.065   5.175   4.703
 8606SOL    HW126717   3.981   5.124   4.717
 8606SOL    HW226718   4.113   5.184   4.791
 8607SOL     OW26719   2.668   6.289   0.710
 8607SOL    HW126720   2.590   6.245   0.754
 8607SOL    HW226721   2.753   6.248   0.743
 8608SOL     OW26722   5.696   6.699   2.393
 8608SOL    HW126723   5.779   6.711   2.339
 8608SOL    HW226724   5.666   6.604   2.387
 8609SOL     OW26725   5.261   0.204   5.729
 8609SOL    HW126726   5.314   0.229   5.810
 8609SOL    HW226727   5.164   0.222   5.745
 8610SOL     OW26728   6.467   6.312   5.373
 8610SOL    HW126729   6.501   6.296   5.280
 8610SOL    HW226730   6.380   6.362   5.367
 8611SOL     OW26731   1.559   2.058   3.093
 8611SOL    HW126732   1.467   2.085   3.120
 8611SOL    HW226733   1.626   2.121   3.134
 8612SOL     OW26734   5.210   3.187   4.527
 8612SOL    HW126735   5.128   3.152   4.572
 8612SOL    HW226736   5.184   3.230   4.440
 8613SOL     OW26737   1.172   0.532   0.384
 8613SOL    HW126738   1.248   0.579   0.429
 8613SOL    HW226739   1.109   0.498   0.453
 8614SOL     OW26740   1.579   2.261   3.552
 8614SOL    HW126741   1.636   2.343   3.543
 8614SOL    HW226742   1.570   2.237   3.648
 8615SOL     OW26743   4.961   1.626   5.848
 8615SOL    HW126744   4.883   1.685   5.868
 8615SOL    HW226745   5.018   1.668   5.777
 8616SOL     OW26746   0.890   3.179   0.082
 8616SOL    HW126747   0.867   3.102   0.142
 8616SOL    HW226748   0.926   3.254   0.137
 8617SOL     OW26749   6.046   3.293   0.524
 8617SOL    HW126750   5.980   3.225   0.555
 8617SOL    HW226751   6.111   3.250   0.460
 8618SOL     OW26752   3.429   1.552   2.745
 8618SOL    HW126753   3.490   1.537   2.822
 8618SOL    HW226754   3.334   1.560   2.778
 8619SOL     OW26755   4.014   6.664   0.748
 8619SOL    HW126756   3.925   6.651   0.703
 8619SOL    HW226757   4.055   6.575   0.766
 8620SOL     OW26758   6.315   5.954   3.698
 8620SOL    HW126759   6.281   5.979   3.607
 8620SOL    HW226760   6.239   5.924   3.755
 8621SOL     OW26761   5.157   0.957   3.804
 8621SOL    HW126762   5.149   0.901   3.887
 8621SOL    HW226763   5.087   0.930   3.739
 8622SOL     OW26764   4.767   5.581   6.221
 8622SOL    HW126765   4.667   5.577   6.223
 8622SOL    HW226766   4.802   5.525   6.146
 8623SOL     OW26767   6.479   1.795   3.940
 8623SOL    HW126768   6.467   1.710   3.888
 8623SOL    HW226769   6.535   1.777   4.021
 8624SOL     OW26770   6.174   3.072   3.696
 8624SOL    HW126771   6.079   3.057   3.725
 8624SOL    HW226772   6.201   3.000   3.631
 8625SOL     OW26773   3.674   1.291   6.176
 8625SOL    HW126774   3.701   1.251   6.088
 8625SOL    HW226775   3.754   1.297   6.236
 8626SOL     OW26776   3.032   3.831   2.389
 8626SOL    HW126777   2.994   3.753   2.339
 8626SOL    HW226778   3.069   3.897   2.323
 8627SOL     OW26779   2.656   0.201   6.999
 8627SOL    HW126780   2.670   0.271   6.929
 8627SOL    HW226781   2.678   0.239   0.065
 8628SOL     OW26782   5.918   1.635   1.012
 8628SOL    HW126783   5.921   1.536   1.029
 8628SOL    HW226784   5.899   1.652   0.916
 8629SOL     OW26785   1.478   6.007   3.486
 8629SOL    HW126786   1.514   5.923   3.447
 8629SOL    HW226787   1.539   6.083   3.464
 8630SOL     OW26788   5.369   5.051   3.927
 8630SOL    HW126789   5.289   5.111   3.934
 8630SOL    HW226790   5.452   5.104   3.946
 8631SOL     OW26791   4.225   6.460   3.494
 8631SOL    HW126792   4.280   6.411   3.562
 8631SOL    HW226793   4.225   6.558   3.515
 8632SOL     OW26794   3.442   1.061   2.870
 8632SOL    HW126795   3.364   1.123   2.858
 8632SOL    HW226796   3.432   1.010   2.955
 8633SOL     OW26797   6.583   6.369   2.647
 8633SOL    HW126798   6.589   6.380   2.747
 8633SOL    HW226799   6.488   6.353   2.621
 8634SOL     OW26800   6.342   6.052   1.898
 8634SOL    HW126801   6.293   5.966   1.887
 8634SOL    HW226802   6.288   6.126   1.859
 8635SOL     OW26803   6.297   3.551   5.750
 8635SOL    HW126804   6.232   3.529   5.822
 8635SOL    HW226805   6.339   3.640   5.768
 8636SOL     OW26806   6.130   5.130   0.968
 8636SOL    HW126807   6.088   5.189   1.037
 8636SOL    HW226808   6.080   5.137   0.882
 8637SOL     OW26809   1.185   0.842   1.617
 8637SOL    HW126810   1.284   0.840   1.605
 8637SOL    HW226811   1.146   0.919   1.566
 8638SOL     OW26812   5.503   4.710   1.158
 8638SOL    HW126813   5.488   4.796   1.110
 8638SOL    HW226814   5.586   4.716   1.213
 8639SOL     OW26815   5.977   2.694   2.030
 8639SOL    HW126816   5.977   2.765   1.959
 8639SOL    HW226817   5.883   2.679   2.061
 8640SOL     OW26818   5.107   5.970   1.643
 8640SOL    HW126819   5.011   5.997   1.638
 8640SOL    HW226820   5.134   5.962   1.739
 8641SOL     OW26821   4.993   4.725   3.527
 8641SOL    HW126822   5.042   4.802   3.486
 8641SOL    HW226823   4.918   4.697   3.467
 8642SOL     OW26824   4.094   1.257   2.215
 8642SOL    HW126825   4.173   1.207   2.180
 8642SOL    HW226826   4.060   1.320   2.145
 8643SOL     OW26827   4.661   0.359   0.073
 8643SOL    HW126828   4.722   0.315   0.139
 8643SOL    HW226829   4.682   0.457   0.068
 8644SOL     OW26830   6.573   3.291   5.266
 8644SOL    HW126831   6.610   3.351   5.195
 8644SOL    HW226832   6.493   3.243   5.229
 8645SOL     OW26833   6.432   3.801   1.710
 8645SOL    HW126834   6.443   3.706   1.682
 8645SOL    HW226835   6.418   3.805   1.809
 8646SOL     OW26836   4.873   6.383   0.726
 8646SOL    HW126837   4.954   6.369   0.669
 8646SOL    HW226838   4.900   6.384   0.822
 8647SOL     OW26839   4.679   4.933   2.065
 8647SOL    HW126840   4.768   4.906   2.102
 8647SOL    HW226841   4.678   4.919   1.966
 8648SOL     OW26842   5.922   0.699   4.015
 8648SOL    HW126843   5.970   0.612   4.014
 8648SOL    HW226844   5.848   0.697   3.948
 8649SOL     OW26845   6.167   4.237   5.633
 8649SOL    HW126846   6.163   4.157   5.693
 8649SOL    HW226847   6.258   4.243   5.592
 8650SOL     OW26848   0.368   5.708   1.453
 8650SOL    HW126849   0.360   5.611   1.475
 8650SOL    HW226850   0.277   5.748   1.442
 8651SOL     OW26851   4.223   3.195   1.061
 8651SOL    HW126852   4.302   3.256   1.071
 8651SOL    HW226853   4.150   3.223   1.123
 8652SOL     OW26854   0.730   2.703   4.333
 8652SOL    HW126855   0.756   2.772   4.400
 8652SOL    HW226856   0.652   2.736   4.280
 8653SOL     OW26857   5.315   2.950   6.480
 8653SOL    HW126858   5.357   2.940   6.390
 8653SOL    HW226859   5.347   2.876   6.540
 8654SOL     OW26860   1.288   4.947   1.635
 8654SOL    HW126861   1.302   5.000   1.719
 8654SOL    HW226862   1.253   4.856   1.658
 8655SOL     OW26863   5.648   6.179   2.728
 8655SOL    HW126864   5.710   6.125   2.672
 8655SOL    HW226865   5.569   6.122   2.755
 8656SOL     OW26866   6.436   2.372   1.863
 8656SOL    HW126867   6.377   2.296   1.837
 8656SOL    HW226868   6.508   2.339   1.923
 8657SOL     OW26869   2.839   4.781   0.621
 8657SOL    HW126870   2.895   4.827   0.552
 8657SOL    HW226871   2.896   4.758   0.700
 8658SOL     OW26872   1.307   5.614   6.233
 8658SOL    HW126873   1.301   5.523   6.274
 8658SOL    HW226874   1.274   5.611   6.138
 8659SOL     OW26875   4.305   6.896   4.673
 8659SOL    HW126876   4.221   6.912   4.724
 8659SOL    HW226877   4.382   6.938   4.720
 8660SOL     OW26878   5.354   4.473   6.969
 8660SOL    HW126879   5.333   4.481   6.871
 8660SOL    HW226880   5.428   4.408   6.982
 8661SOL     OW26881   6.410   3.497   1.756
 8661SOL    HW126882   6.390   3.535   1.846
 8661SOL    HW226883   6.387   3.400   1.755
 8662SOL     OW26884   0.492   0.771   6.568
 8662SOL    HW126885   0.454   0.859   6.598
 8662SOL    HW226886   0.591   0.780   6.555
 8663SOL     OW26887   2.721   5.078   1.083
 8663SOL    HW126888   2.763   5.024   1.156
 8663SOL    HW226889   2.760   5.052   0.995
 8664SOL     OW26890   4.626   4.965   1.538
 8664SOL    HW126891   4.700   5.016   1.492
 8664SOL    HW226892   4.641   4.867   1.527
 8665SOL     OW26893   5.220   5.089   4.394
 8665SOL    HW126894   5.196   4.993   4.381
 8665SOL    HW226895   5.253   5.102   4.488
 8666SOL     OW26896   6.568   4.353   4.219
 8666SOL    HW126897   6.558   4.336   4.317
 8666SOL    HW226898   6.634   4.289   4.180
 8667SOL     OW26899   5.662   2.252   3.269
 8667SOL    HW126900   5.616   2.274   3.182
 8667SOL    HW226901   5.727   2.325   3.290
 8668SOL     OW26902   3.354   0.883   4.822
 8668SOL    HW126903   3.397   0.941   4.892
 8668SOL    HW226904   3.301   0.811   4.867
 8669SOL     OW26905   4.193   6.550   6.434
 8669SOL    HW126906   4.115   6.496   6.463
 8669SOL    HW226907   4.176   6.587   6.343
 8670SOL     OW26908   4.298   4.705   2.822
 8670SOL    HW126909   4.310   4.777   2.890
 8670SOL    HW226910   4.238   4.738   2.749
 8671SOL     OW26911   6.331   6.306   2.514
 8671SOL    HW126912   6.240   6.291   2.552
 8671SOL    HW226913   6.345   6.246   2.435
 8672SOL     OW26914   3.523   5.361   5.042
 8672SOL    HW126915   3.590   5.311   4.987
 8672SOL    HW226916   3.508   5.451   5.001
 8673SOL     OW26917   4.922   2.145   0.163
 8673SOL    HW126918   4.958   2.183   0.248
 8673SOL    HW226919   4.915   2.045   0.171
 8674SOL     OW26920   0.743   0.088   3.054
 8674SOL    HW126921   0.759   7.014   3.052
 8674SOL    HW226922   0.816   0.134   3.004
 8675SOL     OW26923   2.631   1.725   2.895
 8675SOL    HW126924   2.636   1.819   2.926
 8675SOL    HW226925   2.540   1.688   2.916
 8676SOL     OW26926   4.464   1.280   4.296
 8676SOL    HW126927   4.524   1.301   4.219
 8676SOL    HW226928   4.374   1.250   4.262
 8677SOL     OW26929   2.071   3.747   5.726
 8677SOL    HW126930   2.043   3.809   5.652
 8677SOL    HW226931   1.991   3.698   5.760
 8678SOL     OW26932   1.753   0.681   6.111
 8678SOL    HW126933   1.673   0.717   6.062
 8678SOL    HW226934   1.755   0.582   6.102
 8679SOL     OW26935   5.956   1.899   4.721
 8679SOL    HW126936   6.014   1.974   4.689
 8679SOL    HW226937   5.929   1.842   4.643
 8680SOL     OW26938   0.918   3.649   0.393
 8680SOL    HW126939   0.966   3.612   0.472
 8680SOL    HW226940   0.983   3.695   0.332
 8681SOL     OW26941   4.120   3.738   1.454
 8681SOL    HW126942   4.135   3.676   1.377
 8681SOL    HW226943   4.074   3.689   1.528
 8682SOL     OW26944   1.263   5.767   2.662
 8682SOL    HW126945   1.201   5.845   2.653
 8682SOL    HW226946   1.228   5.690   2.609
 8683SOL     OW26947   4.835   2.959   6.591
 8683SOL    HW126948   4.884   2.918   6.515
 8683SOL    HW226949   4.819   2.889   6.662
 8684SOL     OW26950   6.323   3.018   3.395
 8684SOL    HW126951   6.345   2.948   3.462
 8684SOL    HW226952   6.226   3.011   3.370
 8685SOL     OW26953   0.061   1.436   5.755
 8685SOL    HW126954   0.130   1.364   5.750
 8685SOL    HW226955   7.022   1.427   5.679
 8686SOL     OW26956   6.353   1.601   4.133
 8686SOL    HW126957   6.437   1.567   4.176
 8686SOL    HW226958   6.335   1.549   4.049
 8687SOL     OW26959   3.594   1.001   2.644
 8687SOL    HW126960   3.537   1.029   2.567
 8687SOL    HW226961   3.556   1.038   2.729
 8688SOL     OW26962   1.278   6.929   2.042
 8688SOL    HW126963   1.319   6.852   2.092
 8688SOL    HW226964   1.308   6.927   1.947
 8689SOL     OW26965   5.047   4.540   1.059
 8689SOL    HW126966   4.979   4.507   0.994
 8689SOL    HW226967   5.051   4.640   1.057
 8690SOL     OW26968   1.559   1.042   2.450
 8690SOL    HW126969   1.542   1.122   2.392
 8690SOL    HW226970   1.473   0.993   2.464
 8691SOL     OW26971   5.936   1.675   0.466
 8691SOL    HW126972   5.935   1.634   0.375
 8691SOL    HW226973   5.928   1.774   0.458
 8692SOL     OW26974   1.599   1.162   3.770
 8692SOL    HW126975   1.580   1.248   3.818
 8692SOL    HW226976   1.631   1.093   3.836
 8693SOL     OW26977   5.307   2.272   6.688
 8693SOL    HW126978   5.360   2.347   6.727
 8693SOL    HW226979   5.350   2.185   6.710
 8694SOL     OW26980   3.855   0.050   6.814
 8694SOL    HW126981   3.849   6.984   6.856
 8694SOL    HW226982   3.803   0.050   6.728
 8695SOL     OW26983   4.505   4.344   5.542
 8695SOL    HW126984   4.504   4.290   5.458
 8695SOL    HW226985   4.543   4.289   5.616
 8696SOL     OW26986   2.508   5.333   0.667
 8696SOL    HW126987   2.563   5.331   0.583
 8696SOL    HW226988   2.513   5.244   0.713
 8697SOL     OW26989   4.905   4.992   6.749
 8697SOL    HW126990   4.871   5.072   6.701
 8697SOL    HW226991   5.001   4.977   6.726
 8698SOL     OW26992   5.700   5.863   4.938
 8698SOL    HW126993   5.663   5.773   4.962
 8698SOL    HW226994   5.797   5.866   4.962
 8699SOL     OW26995   1.498   1.541   4.975
 8699SOL    HW126996   1.552   1.460   4.955
 8699SOL    HW226997   1.527   1.579   5.064
 8700SOL     OW26998   2.993   2.336   6.001
 8700SOL    HW126999   3.056   2.263   5.973
 8700SOL    HW227000   2.951   2.376   5.919
 8701SOL     OW27001   1.334   1.166   3.524
 8701SOL    HW127002   1.278   1.220   3.460
 8701SOL    HW227003   1.290   1.078   3.540
 8702SOL     OW27004   5.129   6.543   6.878
 8702SOL    HW127005   5.168   6.451   6.890
 8702SOL    HW227006   5.050   6.554   6.938
 8703SOL     OW27007   1.451   5.052   1.402
 8703SOL    HW127008   1.370   5.090   1.356
 8703SOL    HW227009   1.421   4.993   1.477
 8704SOL     OW27010   0.967   4.312   1.717
 8704SOL    HW127011   0.995   4.406   1.736
 8704SOL    HW227012   0.890   4.287   1.776
 8705SOL     OW27013   4.842   6.692   4.149
 8705SOL    HW127014   4.870   6.630   4.222
 8705SOL    HW227015   4.830   6.640   4.065
 8706SOL     OW27016   4.833   1.023   5.574
 8706SOL    HW127017   4.860   1.119   5.572
 8706SOL    HW227018   4.879   0.974   5.500
 8707SOL     OW27019   4.431   1.879   5.426
 8707SOL    HW127020   4.410   1.823   5.506
 8707SOL    HW227021   4.464   1.968   5.456
 8708SOL     OW27022   4.160   1.643   0.496
 8708SOL    HW127023   4.158   1.620   0.593
 8708SOL    HW227024   4.119   1.569   0.443
 8709SOL     OW27025   5.436   3.318   0.440
 8709SOL    HW127026   5.408   3.225   0.461
 8709SOL    HW227027   5.523   3.316   0.389
 8710SOL     OW27028   6.378   3.021   3.869
 8710SOL    HW127029   6.288   3.030   3.826
 8710SOL    HW227030   6.449   3.034   3.800
 8711SOL     OW27031   1.230   1.194   4.487
 8711SOL    HW127032   1.292   1.266   4.457
 8711SOL    HW227033   1.267   1.105   4.462
 8712SOL     OW27034   3.366   0.509   6.867
 8712SOL    HW127035   3.301   0.580   6.839
 8712SOL    HW227036   3.435   0.548   6.927
 8713SOL     OW27037   6.139   4.813   2.504
 8713SOL    HW127038   6.112   4.905   2.475
 8713SOL    HW227039   6.239   4.808   2.507
 8714SOL     OW27040   1.566   1.535   4.376
 8714SOL    HW127041   1.474   1.546   4.338
 8714SOL    HW227042   1.601   1.624   4.404
 8715SOL     OW27043   5.906   1.078   2.732
 8715SOL    HW127044   5.937   1.159   2.682
 8715SOL    HW227045   5.849   1.022   2.672
 8716SOL     OW27046   0.378   1.228   2.182
 8716SOL    HW127047   0.381   1.289   2.262
 8716SOL    HW227048   0.450   1.159   2.190
 8717SOL     OW27049   4.237   3.442   0.831
 8717SOL    HW127050   4.291   3.361   0.809
 8717SOL    HW227051   4.297   3.522   0.834
 8718SOL     OW27052   6.965   2.868   5.891
 8718SOL    HW127053   0.034   2.893   5.916
 8718SOL    HW227054   6.926   2.939   5.834
 8719SOL     OW27055   5.942   0.884   5.961
 8719SOL    HW127056   5.982   0.808   5.910
 8719SOL    HW227057   5.904   0.951   5.898
 8720SOL     OW27058   4.966   3.430   5.410
 8720SOL    HW127059   4.876   3.392   5.430
 8720SOL    HW227060   5.013   3.453   5.495
 8721SOL     OW27061   6.661   0.850   5.181
 8721SOL    HW127062   6.600   0.810   5.249
 8721SOL    HW227063   6.736   0.785   5.163
 8722SOL     OW27064   3.267   2.948   0.919
 8722SOL    HW127065   3.327   2.882   0.963
 8722SOL    HW227066   3.221   2.905   0.841
 8723SOL     OW27067   7.002   5.847   0.367
 8723SOL    HW127068   0.053   5.889   0.316
 8723SOL    HW227069   6.945   5.918   0.408
 8724SOL     OW27070   4.963   6.191   6.898
 8724SOL    HW127071   4.878   6.141   6.915
 8724SOL    HW227072   4.972   6.209   6.801
 8725SOL     OW27073   2.294   6.025   1.198
 8725SOL    HW127074   2.346   5.941   1.184
 8725SOL    HW227075   2.352   6.104   1.178
 8726SOL     OW27076   6.937   0.832   1.163
 8726SOL    HW127077   6.978   0.743   1.186
 8726SOL    HW227078   6.899   0.828   1.071
 8727SOL     OW27079   5.611   6.666   1.039
 8727SOL    HW127080   5.559   6.695   0.959
 8727SOL    HW227081   5.670   6.590   1.014
 8728SOL     OW27082   2.447   6.048   5.485
 8728SOL    HW127083   2.490   6.014   5.402
 8728SOL    HW227084   2.355   6.083   5.463
 8729SOL     OW27085   4.757   6.196   4.693
 8729SOL    HW127086   4.660   6.170   4.696
 8729SOL    HW227087   4.793   6.179   4.601
 8730SOL     OW27088   6.418   6.046   0.928
 8730SOL    HW127089   6.514   6.055   0.955
 8730SOL    HW227090   6.408   6.067   0.831
 8731SOL     OW27091   0.529   1.489   2.296
 8731SOL    HW127092   0.585   1.498   2.378
 8731SOL    HW227093   0.587   1.463   2.219
 8732SOL     OW27094   6.763   6.215   2.342
 8732SOL    HW127095   6.705   6.283   2.295
 8732SOL    HW227096   6.857   6.223   2.310
 8733SOL     OW27097   0.060   0.227   0.931
 8733SOL    HW127098   6.996   0.182   0.932
 8733SOL    HW227099   0.056   0.308   0.873
 8734SOL     OW27100   6.574   6.413   0.783
 8734SOL    HW127101   6.501   6.359   0.740
 8734SOL    HW227102   6.633   6.353   0.836
 8735SOL     OW27103   0.422   2.925   6.391
 8735SOL    HW127104   0.468   2.911   6.303
 8735SOL    HW227105   0.476   2.989   6.446
 8736SOL     OW27106   0.235   4.838   5.949
 8736SOL    HW127107   0.288   4.812   6.030
 8736SOL    HW227108   0.157   4.777   5.939
 8737SOL     OW27109   4.098   6.289   6.780
 8737SOL    HW127110   4.086   6.198   6.743
 8737SOL    HW227111   4.074   6.289   6.877
 8738SOL     OW27112   0.538   3.847   5.845
 8738SOL    HW127113   0.528   3.933   5.795
 8738SOL    HW227114   0.530   3.863   5.943
 8739SOL     OW27115   1.160   3.765   5.739
 8739SOL    HW127116   1.127   3.680   5.697
 8739SOL    HW227117   1.220   3.812   5.674
 8740SOL     OW27118   1.550   6.398   0.683
 8740SOL    HW127119   1.457   6.361   0.672
 8740SOL    HW227120   1.579   6.388   0.778
 8741SOL     OW27121   1.807   3.500   2.181
 8741SOL    HW127122   1.778   3.595   2.183
 8741SOL    HW227123   1.853   3.481   2.094
 8742SOL     OW27124   4.529   5.823   2.350
 8742SOL    HW127125   4.597   5.890   2.322
 8742SOL    HW227126   4.553   5.733   2.313
 8743SOL     OW27127   2.427   5.026   2.238
 8743SOL    HW127128   2.383   4.994   2.154
 8743SOL    HW227129   2.512   5.073   2.215
 8744SOL     OW27130   3.162   3.522   5.667
 8744SOL    HW127131   3.142   3.429   5.634
 8744SOL    HW227132   3.147   3.587   5.593
 8745SOL     OW27133   5.874   1.756   6.884
 8745SOL    HW127134   5.802   1.820   6.909
 8745SOL    HW227135   5.962   1.804   6.880
 8746SOL     OW27136   5.352   3.414   4.775
 8746SOL    HW127137   5.400   3.342   4.726
 8746SOL    HW227138   5.417   3.464   4.833
 8747SOL     OW27139   0.351   2.188   3.953
 8747SOL    HW127140   0.423   2.183   4.023
 8747SOL    HW227141   0.264   2.207   3.997
 8748SOL     OW27142   2.878   0.051   0.066
 8748SOL    HW127143   2.805   0.083   0.006
 8748SOL    HW227144   2.872   6.976   0.076
 8749SOL     OW27145   3.822   1.760   3.457
 8749SOL    HW127146   3.745   1.697   3.444
 8749SOL    HW227147   3.907   1.709   3.463
 8750SOL     OW27148   2.056   0.677   5.199
 8750SOL    HW127149   2.086   0.742   5.269
 8750SOL    HW227150   2.057   0.722   5.109
 8751SOL     OW27151   1.691   6.540   3.336
 8751SOL    HW127152   1.730   6.491   3.414
 8751SOL    HW227153   1.649   6.625   3.368
 8752SOL     OW27154   2.470   0.723   6.035
 8752SOL    HW127155   2.454   0.762   6.126
 8752SOL    HW227156   2.424   0.779   5.967
 8753SOL     OW27157   5.467   1.246   5.136
 8753SOL    HW127158   5.446   1.336   5.097
 8753SOL    HW227159   5.555   1.250   5.183
 8754SOL     OW27160   1.978   1.107   5.636
 8754SOL    HW127161   1.920   1.033   5.601
 8754SOL    HW227162   2.069   1.070   5.656
 8755SOL     OW27163   2.374   2.053   0.318
 8755SOL    HW127164   2.452   2.066   0.380
 8755SOL    HW227165   2.363   2.133   0.260
 8756SOL     OW27166   1.996   4.617   4.328
 8756SOL    HW127167   1.910   4.620   4.379
 8756SOL    HW227168   1.981   4.656   4.237
 8757SOL     OW27169   3.611   5.401   4.192
 8757SOL    HW127170   3.589   5.463   4.267
 8757SOL    HW227171   3.566   5.313   4.208
 8758SOL     OW27172   5.053   6.585   2.583
 8758SOL    HW127173   4.957   6.590   2.553
 8758SOL    HW227174   5.109   6.641   2.523
 8759SOL     OW27175   5.318   0.489   6.130
 8759SOL    HW127176   5.260   0.409   6.117
 8759SOL    HW227177   5.388   0.469   6.198
 8760SOL     OW27178   2.150   3.043   3.700
 8760SOL    HW127179   2.198   3.040   3.788
 8760SOL    HW227180   2.123   2.950   3.674
 8761SOL     OW27181   5.255   6.133   1.485
 8761SOL    HW127182   5.200   6.079   1.549
 8761SOL    HW227183   5.351   6.106   1.493
 8762SOL     OW27184   0.867   4.839   1.001
 8762SOL    HW127185   0.928   4.760   1.003
 8762SOL    HW227186   0.857   4.874   1.094
 8763SOL     OW27187   0.310   6.379   6.690
 8763SOL    HW127188   0.344   6.453   6.632
 8763SOL    HW227189   0.230   6.338   6.646
 8764SOL     OW27190   3.435   1.766   6.162
 8764SOL    HW127191   3.464   1.697   6.229
 8764SOL    HW227192   3.388   1.722   6.086
 8765SOL     OW27193   6.500   0.321   4.699
 8765SOL    HW127194   6.596   0.338   4.679
 8765SOL    HW227195   6.490   0.286   4.792
 8766SOL     OW27196   1.968   4.434   2.237
 8766SOL    HW127197   1.957   4.497   2.160
 8766SOL    HW227198   1.885   4.380   2.248
 8767SOL     OW27199   4.875   0.505   5.569
 8767SOL    HW127200   4.835   0.488   5.479
 8767SOL    HW227201   4.817   0.465   5.639
 8768SOL     OW27202   0.845   3.983   7.024
 8768SOL    HW127203   0.822   3.971   0.096
 8768SOL    HW227204   0.904   3.909   6.994
 8769SOL     OW27205   1.974   0.779   6.252
 8769SOL    HW127206   1.934   0.765   6.343
 8769SOL    HW227207   1.918   0.733   6.184
 8770SOL     OW27208   5.559   1.637   2.979
 8770SOL    HW127209   5.549   1.613   3.075
 8770SOL    HW227210   5.508   1.721   2.960
 8771SOL     OW27211   2.871   2.947   5.316
 8771SOL    HW127212   2.955   2.969   5.267
 8771SOL    HW227213   2.818   3.030   5.330
 8772SOL     OW27214   6.725   6.891   6.677
 8772SOL    HW127215   6.644   6.907   6.732
 8772SOL    HW227216   6.720   6.944   6.593
 8773SOL     OW27217   2.597   2.038   2.881
 8773SOL    HW127218   2.558   2.000   2.797
 8773SOL    HW227219   2.605   2.137   2.872
 8774SOL     OW27220   1.237   0.817   6.792
 8774SOL    HW127221   1.319   0.761   6.801
 8774SOL    HW227222   1.164   0.777   6.847
 8775SOL     OW27223   6.244   6.004   4.251
 8775SOL    HW127224   6.212   5.912   4.230
 8775SOL    HW227225   6.219   6.066   4.177
 8776SOL     OW27226   3.250   3.848   5.186
 8776SOL    HW127227   3.327   3.844   5.121
 8776SOL    HW227228   3.274   3.798   5.269
 8777SOL     OW27229   6.110   5.837   2.817
 8777SOL    HW127230   6.056   5.913   2.780
 8777SOL    HW227231   6.067   5.803   2.900
 8778SOL     OW27232   1.064   2.959   2.792
 8778SOL    HW127233   1.006   3.003   2.723
 8778SOL    HW227234   1.042   2.861   2.797
 8779SOL     OW27235   1.816   4.639   1.485
 8779SOL    HW127236   1.863   4.650   1.397
 8779SOL    HW227237   1.810   4.727   1.531
 8780SOL     OW27238   1.817   5.596   5.045
 8780SOL    HW127239   1.787   5.600   4.950
 8780SOL    HW227240   1.859   5.507   5.063
 8781SOL     OW27241   1.063   2.306   2.884
 8781SOL    HW127242   1.116   2.342   2.961
 8781SOL    HW227243   0.967   2.298   2.910
 8782SOL     OW27244   5.159   1.284   3.597
 8782SOL    HW127245   5.178   1.360   3.535
 8782SOL    HW227246   5.211   1.297   3.681
 8783SOL     OW27247   6.434   2.823   5.497
 8783SOL    HW127248   6.501   2.761   5.457
 8783SOL    HW227249   6.464   2.918   5.484
 8784SOL     OW27250   6.055   4.267   5.945
 8784SOL    HW127251   6.015   4.358   5.929
 8784SOL    HW227252   6.041   4.210   5.865
 8785SOL     OW27253   5.284   4.266   5.884
 8785SOL    HW127254   5.294   4.341   5.818
 8785SOL    HW227255   5.373   4.222   5.898
 8786SOL     OW27256   1.773   6.046   7.008
 8786SOL    HW127257   1.677   6.064   6.988
 8786SOL    HW227258   1.788   6.055   0.082
 8787SOL     OW27259   1.307   2.695   6.795
 8787SOL    HW127260   1.311   2.696   6.695
 8787SOL    HW227261   1.283   2.604   6.827
 8788SOL     OW27262   1.187   2.141   5.450
 8788SOL    HW127263   1.114   2.174   5.389
 8788SOL    HW227264   1.272   2.130   5.397
 8789SOL     OW27265   0.257   1.099   0.492
 8789SOL    HW127266   0.244   1.000   0.487
 8789SOL    HW227267   0.168   1.145   0.490
 8790SOL     OW27268   3.985   1.113   6.194
 8790SOL    HW127269   3.936   1.162   6.122
 8790SOL    HW227270   4.073   1.159   6.211
 8791SOL     OW27271   5.197   6.150   5.132
 8791SOL    HW127272   5.141   6.197   5.201
 8791SOL    HW227273   5.268   6.097   5.178
 8792SOL     OW27274   5.304   6.733   2.555
 8792SOL    HW127275   5.361   6.773   2.482
 8792SOL    HW227276   5.341   6.644   2.580
 8793SOL     OW27277   0.905   4.342   3.437
 8793SOL    HW127278   0.942   4.251   3.457
 8793SOL    HW227279   0.828   4.361   3.499
 8794SOL     OW27280   2.597   5.756   2.775
 8794SOL    HW127281   2.612   5.665   2.812
 8794SOL    HW227282   2.568   5.817   2.849
 8795SOL     OW27283   3.180   6.196   4.582
 8795SOL    HW127284   3.122   6.269   4.546
 8795SOL    HW227285   3.132   6.151   4.657
 8796SOL     OW27286   4.869   2.211   4.863
 8796SOL    HW127287   4.936   2.285   4.871
 8796SOL    HW227288   4.830   2.192   4.953
 8797SOL     OW27289   0.696   5.806   6.558
 8797SOL    HW127290   0.771   5.766   6.506
 8797SOL    HW227291   0.717   5.802   6.656
 8798SOL     OW27292   3.095   3.297   5.508
 8798SOL    HW127293   3.182   3.251   5.524
 8798SOL    HW227294   3.054   3.262   5.423
 8799SOL     OW27295   3.052   0.804   2.098
 8799SOL    HW127296   3.124   0.744   2.132
 8799SOL    HW227297   3.069   0.897   2.131
 8800SOL     OW27298   4.029   3.905   0.799
 8800SOL    HW127299   3.961   3.962   0.753
 8800SOL    HW227300   3.985   3.823   0.836
 8801SOL     OW27301   3.215   6.545   5.727
 8801SOL    HW127302   3.284   6.584   5.666
 8801SOL    HW227303   3.196   6.450   5.701
 8802SOL     OW27304   2.039   6.084   1.450
 8802SOL    HW127305   1.972   6.146   1.492
 8802SOL    HW227306   2.131   6.111   1.476
 8803SOL     OW27307   3.972   6.015   2.175
 8803SOL    HW127308   3.984   5.960   2.092
 8803SOL    HW227309   3.877   6.046   2.181
 8804SOL     OW27310   2.701   0.877   1.862
 8804SOL    HW127311   2.762   0.805   1.896
 8804SOL    HW227312   2.609   0.862   1.899
 8805SOL     OW27313   0.857   0.167   4.042
 8805SOL    HW127314   0.899   0.115   4.116
 8805SOL    HW227315   0.835   0.105   3.966
 8806SOL     OW27316   1.676   4.949   0.074
 8806SOL    HW127317   1.605   4.938   0.004
 8806SOL    HW227318   1.737   4.870   0.072
 8807SOL     OW27319   2.597   5.217   6.402
 8807SOL    HW127320   2.585   5.269   6.487
 8807SOL    HW227321   2.563   5.271   6.325
 8808SOL     OW27322   5.559   2.698   0.909
 8808SOL    HW127323   5.622   2.621   0.900
 8808SOL    HW227324   5.519   2.698   1.001
 8809SOL     OW27325   6.170   5.109   0.084
 8809SOL    HW127326   6.245   5.066   0.134
 8809SOL    HW227327   6.190   5.206   0.069
 8810SOL     OW27328   4.926   1.557   3.750
 8810SOL    HW127329   4.898   1.552   3.846
 8810SOL    HW227330   4.859   1.509   3.694
 8811SOL     OW27331   1.035   0.729   3.474
 8811SOL    HW127332   1.119   0.784   3.468
 8811SOL    HW227333   0.996   0.719   3.382
 8812SOL     OW27334   2.640   0.906   6.984
 8812SOL    HW127335   2.688   0.870   6.904
 8812SOL    HW227336   2.704   0.958   0.016
 8813SOL     OW27337   1.073   5.549   0.989
 8813SOL    HW127338   1.063   5.499   1.076
 8813SOL    HW227339   1.165   5.588   0.984
 8814SOL     OW27340   5.596   6.870   5.398
 8814SOL    HW127341   5.573   6.865   5.300
 8814SOL    HW227342   5.574   6.962   5.432
 8815SOL     OW27343   5.891   5.274   3.162
 8815SOL    HW127344   5.937   5.229   3.085
 8815SOL    HW227345   5.792   5.266   3.150
 8816SOL     OW27346   0.650   5.202   2.274
 8816SOL    HW127347   0.745   5.179   2.252
 8816SOL    HW227348   0.649   5.256   2.358
 8817SOL     OW27349   2.161   3.882   5.255
 8817SOL    HW127350   2.239   3.937   5.226
 8817SOL    HW227351   2.179   3.785   5.233
 8818SOL     OW27352   6.968   4.614   5.326
 8818SOL    HW127353   6.952   4.522   5.289
 8818SOL    HW227354   7.020   4.667   5.259
 8819SOL     OW27355   6.876   0.531   4.389
 8819SOL    HW127356   6.849   0.627   4.396
 8819SOL    HW227357   6.936   0.508   4.465
 8820SOL     OW27358   1.033   2.634   3.134
 8820SOL    HW127359   0.949   2.687   3.127
 8820SOL    HW227360   1.051   2.613   3.230
 8821SOL     OW27361   1.534   6.942   6.629
 8821SOL    HW127362   1.591   6.864   6.654
 8821SOL    HW227363   1.532   6.951   6.530
 8822SOL     OW27364   1.570   2.584   4.064
 8822SOL    HW127365   1.542   2.680   4.073
 8822SOL    HW227366   1.605   2.568   3.971
 8823SOL     OW27367   2.483   5.011   1.241
 8823SOL    HW127368   2.492   5.099   1.288
 8823SOL    HW227369   2.550   5.007   1.167
 8824SOL     OW27370   4.751   4.499   0.929
 8824SOL    HW127371   4.726   4.524   1.022
 8824SOL    HW227372   4.722   4.405   0.910
 8825SOL     OW27373   2.321   2.302   0.182
 8825SOL    HW127374   2.263   2.264   0.110
 8825SOL    HW227375   2.398   2.352   0.141
 8826SOL     OW27376   5.692   0.448   1.847
 8826SOL    HW127377   5.622   0.377   1.848
 8826SOL    HW227378   5.702   0.487   1.938
 8827SOL     OW27379   6.114   1.696   3.488
 8827SOL    HW127380   6.119   1.619   3.551
 8827SOL    HW227381   6.040   1.756   3.515
 8828SOL     OW27382   1.247   6.204   3.882
 8828SOL    HW127383   1.163   6.240   3.923
 8828SOL    HW227384   1.312   6.279   3.868
 8829SOL     OW27385   1.526   0.746   1.430
 8829SOL    HW127386   1.571   0.662   1.462
 8829SOL    HW227387   1.585   0.791   1.363
 8830SOL     OW27388   1.373   1.207   0.499
 8830SOL    HW127389   1.396   1.143   0.425
 8830SOL    HW227390   1.276   1.197   0.522
 8831SOL     OW27391   6.435   0.789   1.806
 8831SOL    HW127392   6.440   0.757   1.712
 8831SOL    HW227393   6.339   0.792   1.835
 8832SOL     OW27394   5.976   1.600   2.182
 8832SOL    HW127395   5.999   1.565   2.091
 8832SOL    HW227396   5.879   1.584   2.201
 8833SOL     OW27397   1.183   5.460   2.301
 8833SOL    HW127398   1.204   5.523   2.226
 8833SOL    HW227399   1.092   5.421   2.287
 8834SOL     OW27400   6.237   4.156   3.759
 8834SOL    HW127401   6.236   4.085   3.689
 8834SOL    HW227402   6.143   4.185   3.778
 8835SOL     OW27403   0.495   1.336   0.613
 8835SOL    HW127404   0.586   1.302   0.589
 8835SOL    HW227405   0.495   1.366   0.708
 8836SOL     OW27406   4.668   1.699   2.061
 8836SOL    HW127407   4.594   1.683   1.997
 8836SOL    HW227408   4.746   1.739   2.013
 8837SOL     OW27409   0.220   2.363   2.394
 8837SOL    HW127410   0.221   2.461   2.416
 8837SOL    HW227411   0.226   2.351   2.295
 8838SOL     OW27412   1.447   6.443   4.254
 8838SOL    HW127413   1.499   6.369   4.213
 8838SOL    HW227414   1.387   6.485   4.186
 8839SOL     OW27415   5.286   5.655   4.541
 8839SOL    HW127416   5.343   5.612   4.611
 8839SOL    HW227417   5.302   5.611   4.453
 8840SOL     OW27418   3.902   0.863   1.965
 8840SOL    HW127419   3.841   0.943   1.973
 8840SOL    HW227420   3.940   0.842   2.054
 8841SOL     OW27421   3.881   6.930   3.770
 8841SOL    HW127422   3.889   6.999   3.842
 8841SOL    HW227423   3.824   6.965   3.696
 8842SOL     OW27424   1.550   2.195   1.992
 8842SOL    HW127425   1.509   2.137   1.922
 8842SOL    HW227426   1.577   2.282   1.952
 8843SOL     OW27427   6.960   2.910   4.157
 8843SOL    HW127428   6.962   2.824   4.209
 8843SOL    HW227429   0.022   2.958   4.170
 8844SOL     OW27430   5.936   1.598   0.212
 8844SOL    HW127431   5.875   1.669   0.179
 8844SOL    HW227432   5.993   1.566   0.137
 8845SOL     OW27433   5.019   2.341   7.024
 8845SOL    HW127434   5.023   2.264   0.064
 8845SOL    HW227435   5.011   2.426   0.051
 8846SOL     OW27436   3.103   4.854   3.992
 8846SOL    HW127437   3.046   4.865   4.073
 8846SOL    HW227438   3.186   4.910   4.001
 8847SOL     OW27439   1.160   1.382   3.412
 8847SOL    HW127440   1.062   1.372   3.429
 8847SOL    HW227441   1.175   1.449   3.339
 8848SOL     OW27442   0.618   1.308   3.738
 8848SOL    HW127443   0.571   1.395   3.722
 8848SOL    HW227444   0.619   1.255   3.653
 8849SOL     OW27445   3.046   6.832   1.293
 8849SOL    HW127446   2.960   6.789   1.266
 8849SOL    HW227447   3.071   6.901   1.225
 8850SOL     OW27448   3.186   2.295   0.000
 8850SOL    HW127449   3.217   2.271   0.092
 8850SOL    HW227450   3.099   2.343   0.005
 8851SOL     OW27451   2.136   3.535   2.273
 8851SOL    HW127452   2.204   3.480   2.321
 8851SOL    HW227453   2.167   3.553   2.179
 8852SOL     OW27454   0.520   2.296   4.773
 8852SOL    HW127455   0.508   2.384   4.818
 8852SOL    HW227456   0.530   2.224   4.842
 8853SOL     OW27457   4.526   0.746   1.940
 8853SOL    HW127458   4.610   0.759   1.887
 8853SOL    HW227459   4.541   0.676   2.010
 8854SOL     OW27460   6.868   2.756   4.919
 8854SOL    HW127461   6.914   2.771   5.006
 8854SOL    HW227462   6.936   2.749   4.846
 8855SOL     OW27463   5.003   5.075   1.211
 8855SOL    HW127464   5.008   4.977   1.229
 8855SOL    HW227465   4.981   5.091   1.115
 8856SOL     OW27466   5.641   0.483   5.727
 8856SOL    HW127467   5.725   0.515   5.684
 8856SOL    HW227468   5.654   0.390   5.762
 8857SOL     OW27469   6.652   2.218   6.732
 8857SOL    HW127470   6.557   2.236   6.705
 8857SOL    HW227471   6.653   2.150   6.804
 8858SOL     OW27472   6.598   5.347   4.856
 8858SOL    HW127473   6.646   5.381   4.937
 8858SOL    HW227474   6.633   5.395   4.775
 8859SOL     OW27475   0.824   5.546   3.133
 8859SOL    HW127476   0.909   5.530   3.184
 8859SOL    HW227477   0.781   5.630   3.165
 8860SOL     OW27478   6.418   2.712   2.127
 8860SOL    HW127479   6.494   2.652   2.155
 8860SOL    HW227480   6.443   2.807   2.144
 8861SOL     OW27481   3.151   2.538   1.461
 8861SOL    HW127482   3.096   2.621   1.461
 8861SOL    HW227483   3.215   2.539   1.538
 8862SOL     OW27484   4.505   4.729   4.716
 8862SOL    HW127485   4.425   4.699   4.769
 8862SOL    HW227486   4.529   4.658   4.650
 8863SOL     OW27487   1.441   3.512   1.795
 8863SOL    HW127488   1.421   3.570   1.716
 8863SOL    HW227489   1.520   3.548   1.844
 8864SOL     OW27490   6.146   1.719   4.857
 8864SOL    HW127491   6.131   1.801   4.802
 8864SOL    HW227492   6.136   1.638   4.800
 8865SOL     OW27493   2.862   1.274   0.861
 8865SOL    HW127494   2.827   1.213   0.932
 8865SOL    HW227495   2.934   1.227   0.809
 8866SOL     OW27496   6.043   6.851   1.919
 8866SOL    HW127497   6.115   6.901   1.967
 8866SOL    HW227498   6.021   6.898   1.833
 8867SOL     OW27499   5.873   2.696   2.936
 8867SOL    HW127500   5.849   2.617   2.992
 8867SOL    HW227501   5.972   2.703   2.928
 8868SOL     OW27502   0.182   2.865   3.250
 8868SOL    HW127503   0.163   2.928   3.175
 8868SOL    HW227504   0.200   2.917   3.334
 8869SOL     OW27505   4.618   0.024   3.354
 8869SOL    HW127506   4.702   0.058   3.312
 8869SOL    HW227507   4.595   0.082   3.432
 8870SOL     OW27508   0.779   0.675   1.885
 8870SOL    HW127509   0.826   0.707   1.968
 8870SOL    HW227510   0.798   0.577   1.873
 8871SOL     OW27511   0.126   6.627   1.231
 8871SOL    HW127512   0.027   6.635   1.244
 8871SOL    HW227513   0.167   6.591   1.315
 8872SOL     OW27514   6.677   4.655   3.671
 8872SOL    HW127515   6.763   4.697   3.699
 8872SOL    HW227516   6.607   4.671   3.741
 8873SOL     OW27517   1.751   1.484   3.735
 8873SOL    HW127518   1.825   1.498   3.669
 8873SOL    HW227519   1.668   1.529   3.702
 8874SOL     OW27520   2.802   5.869   0.526
 8874SOL    HW127521   2.888   5.887   0.479
 8874SOL    HW227522   2.821   5.842   0.621
 8875SOL     OW27523   6.115   3.016   4.256
 8875SOL    HW127524   6.136   2.922   4.283
 8875SOL    HW227525   6.091   3.018   4.159
 8876SOL     OW27526   4.427   0.564   0.773
 8876SOL    HW127527   4.421   0.599   0.680
 8876SOL    HW227528   4.429   0.641   0.837
 8877SOL     OW27529   0.758   4.517   1.170
 8877SOL    HW127530   0.811   4.440   1.136
 8877SOL    HW227531   0.757   4.516   1.270
 8878SOL     OW27532   4.922   3.707   2.228
 8878SOL    HW127533   5.008   3.709   2.179
 8878SOL    HW227534   4.891   3.612   2.239
 8879SOL     OW27535   6.868   4.058   4.076
 8879SOL    HW127536   6.922   3.975   4.089
 8879SOL    HW227537   6.923   4.138   4.102
 8880SOL     OW27538   4.154   1.952   2.957
 8880SOL    HW127539   4.081   1.885   2.944
 8880SOL    HW227540   4.194   1.974   2.868
 8881SOL     OW27541   3.953   5.039   3.100
 8881SOL    HW127542   3.883   4.996   3.044
 8881SOL    HW227543   4.016   4.969   3.135
 8882SOL     OW27544   3.848   1.275   0.281
 8882SOL    HW127545   3.858   1.284   0.182
 8882SOL    HW227546   3.753   1.296   0.307
 8883SOL     OW27547   0.705   6.373   3.052
 8883SOL    HW127548   0.774   6.428   3.098
 8883SOL    HW227549   0.712   6.278   3.082
 8884SOL     OW27550   4.540   2.444   6.033
 8884SOL    HW127551   4.468   2.412   5.971
 8884SOL    HW227552   4.607   2.371   6.047
 8885SOL     OW27553   6.023   4.703   1.292
 8885SOL    HW127554   6.008   4.793   1.253
 8885SOL    HW227555   5.995   4.633   1.226
 8886SOL     OW27556   5.012   6.670   0.300
 8886SOL    HW127557   4.992   6.760   0.339
 8886SOL    HW227558   4.960   6.601   0.349
 8887SOL     OW27559   3.814   0.239   1.804
 8887SOL    HW127560   3.749   0.268   1.734
 8887SOL    HW227561   3.884   0.309   1.815
 8888SOL     OW27562   3.810   2.118   2.231
 8888SOL    HW127563   3.750   2.118   2.311
 8888SOL    HW227564   3.762   2.162   2.155
 8889SOL     OW27565   1.602   4.676   6.643
 8889SOL    HW127566   1.603   4.703   6.547
 8889SOL    HW227567   1.693   4.645   6.670
 8890SOL     OW27568   1.642   5.762   0.240
 8890SOL    HW127569   1.626   5.758   0.142
 8890SOL    HW227570   1.624   5.854   0.274
 8891SOL     OW27571   6.225   3.482   5.425
 8891SOL    HW127572   6.175   3.468   5.340
 8891SOL    HW227573   6.313   3.525   5.406
 8892SOL     OW27574   2.220   5.397   4.769
 8892SOL    HW127575   2.308   5.367   4.805
 8892SOL    HW227576   2.190   5.335   4.696
 8893SOL     OW27577   0.491   4.758   5.151
 8893SOL    HW127578   0.448   4.838   5.110
 8893SOL    HW227579   0.427   4.713   5.214
 8894SOL     OW27580   5.344   2.515   1.552
 8894SOL    HW127581   5.344   2.607   1.511
 8894SOL    HW227582   5.437   2.492   1.581
 8895SOL     OW27583   0.063   3.523   1.433
 8895SOL    HW127584   0.024   3.585   1.502
 8895SOL    HW227585   0.102   3.577   1.359
 8896SOL     OW27586   0.862   1.376   3.824
 8896SOL    HW127587   0.918   1.326   3.889
 8896SOL    HW227588   0.773   1.331   3.815
 8897SOL     OW27589   1.551   5.277   4.303
 8897SOL    HW127590   1.582   5.362   4.345
 8897SOL    HW227591   1.576   5.200   4.362
 8898SOL     OW27592   5.641   5.117   2.551
 8898SOL    HW127593   5.602   5.046   2.493
 8898SOL    HW227594   5.602   5.111   2.643
 8899SOL     OW27595   2.230   4.438   1.781
 8899SOL    HW127596   2.202   4.462   1.687
 8899SOL    HW227597   2.213   4.341   1.797
 8900SOL     OW27598   3.862   1.673   4.585
 8900SOL    HW127599   3.790   1.704   4.524
 8900SOL    HW227600   3.822   1.638   4.670
 8901SOL     OW27601   1.476   5.091   5.112
 8901SOL    HW127602   1.380   5.063   5.117
 8901SOL    HW227603   1.492   5.166   5.177
 8902SOL     OW27604   0.660   5.127   6.470
 8902SOL    HW127605   0.695   5.171   6.553
 8902SOL    HW227606   0.564   5.154   6.458
 8903SOL     OW27607   0.504   0.480   4.655
 8903SOL    HW127608   0.467   0.573   4.665
 8903SOL    HW227609   0.524   0.463   4.558
 8904SOL     OW27610   0.161   1.270   3.053
 8904SOL    HW127611   0.182   1.360   3.092
 8904SOL    HW227612   0.088   1.228   3.106
 8905SOL     OW27613   2.104   4.763   1.586
 8905SOL    HW127614   2.186   4.818   1.572
 8905SOL    HW227615   2.112   4.678   1.533
 8906SOL     OW27616   6.065   0.881   6.806
 8906SOL    HW127617   6.053   0.980   6.805
 8906SOL    HW227618   5.990   0.838   6.857
 8907SOL     OW27619   2.704   3.154   5.327
 8907SOL    HW127620   2.630   3.111   5.275
 8907SOL    HW227621   2.666   3.197   5.409
 8908SOL     OW27622   1.507   5.970   5.952
 8908SOL    HW127623   1.443   5.983   5.875
 8908SOL    HW227624   1.588   5.921   5.920
 8909SOL     OW27625   2.557   6.258   1.909
 8909SOL    HW127626   2.579   6.301   1.997
 8909SOL    HW227627   2.516   6.169   1.925
 8910SOL     OW27628   1.162   0.930   3.954
 8910SOL    HW127629   1.079   0.901   3.906
 8910SOL    HW227630   1.235   0.947   3.888
 8911SOL     OW27631   5.340   2.751   4.255
 8911SOL    HW127632   5.369   2.687   4.184
 8911SOL    HW227633   5.240   2.761   4.251
 8912SOL     OW27634   3.828   2.928   3.534
 8912SOL    HW127635   3.800   2.846   3.485
 8912SOL    HW227636   3.776   3.006   3.499
 8913SOL     OW27637   5.135   5.616   0.933
 8913SOL    HW127638   5.164   5.613   0.837
 8913SOL    HW227639   5.131   5.711   0.963
 8914SOL     OW27640   5.038   5.606   5.269
 8914SOL    HW127641   5.046   5.646   5.360
 8914SOL    HW227642   5.086   5.518   5.267
 8915SOL     OW27643   2.588   0.934   3.735
 8915SOL    HW127644   2.606   0.858   3.798
 8915SOL    HW227645   2.548   0.897   3.650
 8916SOL     OW27646   5.997   0.805   2.309
 8916SOL    HW127647   6.075   0.760   2.265
 8916SOL    HW227648   6.025   0.841   2.398
 8917SOL     OW27649   5.781   2.278   0.607
 8917SOL    HW127650   5.818   2.289   0.699
 8917SOL    HW227651   5.788   2.365   0.557
 8918SOL     OW27652   1.564   3.356   2.922
 8918SOL    HW127653   1.641   3.380   2.863
 8918SOL    HW227654   1.590   3.281   2.983
 8919SOL     OW27655   6.329   2.912   2.560
 8919SOL    HW127656   6.266   2.835   2.566
 8919SOL    HW227657   6.279   2.997   2.579
 8920SOL     OW27658   0.752   1.933   0.722
 8920SOL    HW127659   0.724   1.981   0.639
 8920SOL    HW227660   0.692   1.854   0.736
 8921SOL     OW27661   0.817   2.454   1.349
 8921SOL    HW127662   0.892   2.485   1.408
 8921SOL    HW227663   0.788   2.362   1.377
 8922SOL     OW27664   3.138   4.868   3.449
 8922SOL    HW127665   3.166   4.886   3.544
 8922SOL    HW227666   3.086   4.783   3.446
 8923SOL     OW27667   2.463   1.402   3.627
 8923SOL    HW127668   2.433   1.381   3.720
 8923SOL    HW227669   2.384   1.417   3.569
 8924SOL     OW27670   6.294   4.940   4.909
 8924SOL    HW127671   6.303   5.021   4.967
 8924SOL    HW227672   6.251   4.966   4.823
 8925SOL     OW27673   0.633   6.729   3.897
 8925SOL    HW127674   0.560   6.724   3.829
 8925SOL    HW227675   0.603   6.681   3.981
 8926SOL     OW27676   5.820   2.320   0.019
 8926SOL    HW127677   5.795   2.403   0.068
 8926SOL    HW227678   5.918   2.322   7.021
 8927SOL     OW27679   1.092   1.563   6.528
 8927SOL    HW127680   1.076   1.540   6.432
 8927SOL    HW227681   1.037   1.503   6.586
 8928SOL     OW27682   1.417   6.811   5.554
 8928SOL    HW127683   1.394   6.880   5.485
 8928SOL    HW227684   1.481   6.850   5.620
 8929SOL     OW27685   6.859   1.399   3.440
 8929SOL    HW127686   6.898   1.422   3.529
 8929SOL    HW227687   6.796   1.471   3.411
 8930SOL     OW27688   2.140   5.573   2.783
 8930SOL    HW127689   2.230   5.530   2.776
 8930SOL    HW227690   2.128   5.637   2.707
 8931SOL     OW27691   4.062   3.055   6.969
 8931SOL    HW127692   4.138   3.067   0.008
 8931SOL    HW227693   3.999   3.132   6.976
 8932SOL     OW27694   0.285   3.945   2.516
 8932SOL    HW127695   0.316   4.004   2.590
 8932SOL    HW227696   0.363   3.900   2.473
 8933SOL     OW27697   5.216   1.800   6.105
 8933SOL    HW127698   5.192   1.793   6.008
 8933SOL    HW227699   5.218   1.708   6.145
 8934SOL     OW27700   2.476   6.236   3.029
 8934SOL    HW127701   2.476   6.335   3.018
 8934SOL    HW227702   2.407   6.210   3.097
 8935SOL     OW27703   0.130   5.597   6.859
 8935SOL    HW127704   0.120   5.517   6.917
 8935SOL    HW227705   0.095   5.576   6.767
 8936SOL     OW27706   4.432   2.990   1.075
 8936SOL    HW127707   4.388   2.910   1.116
 8936SOL    HW227708   4.365   3.064   1.066
 8937SOL     OW27709   0.067   1.320   6.443
 8937SOL    HW127710   0.108   1.266   6.517
 8937SOL    HW227711   7.012   1.370   6.478
 8938SOL     OW27712   4.669   5.846   1.778
 8938SOL    HW127713   4.680   5.753   1.813
 8938SOL    HW227714   4.706   5.850   1.685
 8939SOL     OW27715   5.697   2.097   4.365
 8939SOL    HW127716   5.620   2.049   4.322
 8939SOL    HW227717   5.688   2.093   4.464
 8940SOL     OW27718   5.509   6.886   2.434
 8940SOL    HW127719   5.566   6.967   2.420
 8940SOL    HW227720   5.560   6.805   2.406
 8941SOL     OW27721   3.717   1.645   6.974
 8941SOL    HW127722   3.768   1.658   0.034
 8941SOL    HW227723   3.779   1.617   6.901
 8942SOL     OW27724   1.298   2.169   5.911
 8942SOL    HW127725   1.226   2.102   5.894
 8942SOL    HW227726   1.285   2.248   5.851
 8943SOL     OW27727   5.213   3.809   0.821
 8943SOL    HW127728   5.294   3.833   0.874
 8943SOL    HW227729   5.185   3.887   0.766
 8944SOL     OW27730   4.121   5.724   1.457
 8944SOL    HW127731   4.191   5.778   1.504
 8944SOL    HW227732   4.135   5.627   1.478
 8945SOL     OW27733   2.268   1.093   3.960
 8945SOL    HW127734   2.243   1.052   3.872
 8945SOL    HW227735   2.297   1.188   3.945
 8946SOL     OW27736   3.793   0.740   4.644
 8946SOL    HW127737   3.796   0.816   4.710
 8946SOL    HW227738   3.867   0.676   4.665
 8947SOL     OW27739   3.778   3.371   5.192
 8947SOL    HW127740   3.770   3.466   5.162
 8947SOL    HW227741   3.873   3.341   5.186
 8948SOL     OW27742   5.461   4.623   3.531
 8948SOL    HW127743   5.535   4.673   3.488
 8948SOL    HW227744   5.395   4.687   3.570
 8949SOL     OW27745   1.534   5.678   6.081
 8949SOL    HW127746   1.458   5.740   6.061
 8949SOL    HW227747   1.511   5.620   6.159
 8950SOL     OW27748   4.705   2.820   4.561
 8950SOL    HW127749   4.636   2.763   4.515
 8950SOL    HW227750   4.667   2.857   4.646
 8951SOL     OW27751   2.846   2.142   5.440
 8951SOL    HW127752   2.836   2.107   5.347
 8951SOL    HW227753   2.941   2.171   5.454
 8952SOL     OW27754   6.349   6.719   3.443
 8952SOL    HW127755   6.295   6.752   3.366
 8952SOL    HW227756   6.415   6.651   3.411
 8953SOL     OW27757   1.439   5.139   5.552
 8953SOL    HW127758   1.385   5.074   5.606
 8953SOL    HW227759   1.512   5.091   5.505
 8954SOL     OW27760   2.689   6.169   6.130
 8954SOL    HW127761   2.777   6.156   6.084
 8954SOL    HW227762   2.701   6.231   6.208
 8955SOL     OW27763   6.943   3.749   4.326
 8955SOL    HW127764   6.862   3.727   4.271
 8955SOL    HW227765   6.989   3.665   4.353
 8956SOL     OW27766   0.874   0.685   4.640
 8956SOL    HW127767   0.951   0.623   4.653
 8956SOL    HW227768   0.856   0.696   4.542
 8957SOL     OW27769   3.526   6.012   1.746
 8957SOL    HW127770   3.512   5.999   1.648
 8957SOL    HW227771   3.449   6.063   1.785
 8958SOL     OW27772   3.244   0.437   4.442
 8958SOL    HW127773   3.238   0.338   4.429
 8958SOL    HW227774   3.155   0.473   4.469
 8959SOL     OW27775   3.765   5.319   0.002
 8959SOL    HW127776   3.862   5.326   0.024
 8959SOL    HW227777   3.735   5.401   6.979
 8960SOL     OW27778   4.389   5.883   0.630
 8960SOL    HW127779   4.451   5.806   0.646
 8960SOL    HW227780   4.407   5.921   0.539
 8961SOL     OW27781   0.881   2.887   4.114
 8961SOL    HW127782   0.906   2.923   4.204
 8961SOL    HW227783   0.790   2.847   4.118
 8962SOL     OW27784   4.803   0.504   3.830
 8962SOL    HW127785   4.876   0.566   3.804
 8962SOL    HW227786   4.737   0.496   3.756
 8963SOL     OW27787   0.746   1.288   4.273
 8963SOL    HW127788   0.796   1.239   4.202
 8963SOL    HW227789   0.744   1.385   4.253
 8964SOL     OW27790   0.075   3.017   3.027
 8964SOL    HW127791   0.097   3.110   3.057
 8964SOL    HW227792   0.116   3.000   2.937
 8965SOL     OW27793   1.925   4.898   1.150
 8965SOL    HW127794   1.961   4.984   1.113
 8965SOL    HW227795   1.859   4.918   1.223
 8966SOL     OW27796   3.918   1.857   4.930
 8966SOL    HW127797   3.913   1.873   5.029
 8966SOL    HW227798   3.905   1.943   4.882
 8967SOL     OW27799   5.255   6.511   0.595
 8967SOL    HW127800   5.169   6.460   0.588
 8967SOL    HW227801   5.321   6.474   0.530
 8968SOL     OW27802   5.715   4.173   3.546
 8968SOL    HW127803   5.631   4.128   3.517
 8968SOL    HW227804   5.736   4.248   3.483
 8969SOL     OW27805   6.891   6.925   4.085
 8969SOL    HW127806   6.862   6.931   3.989
 8969SOL    HW227807   6.978   6.877   4.091
 8970SOL     OW27808   3.132   2.847   1.470
 8970SOL    HW127809   3.064   2.821   1.401
 8970SOL    HW227810   3.184   2.926   1.438
 8971SOL     OW27811   3.765   6.090   3.039
 8971SOL    HW127812   3.669   6.066   3.025
 8971SOL    HW227813   3.775   6.137   3.127
 8972SOL     OW27814   4.623   0.259   4.804
 8972SOL    HW127815   4.718   0.270   4.773
 8972SOL    HW227816   4.611   0.301   4.893
 8973SOL     OW27817   2.045   4.921   6.372
 8973SOL    HW127818   1.997   4.986   6.430
 8973SOL    HW227819   1.988   4.896   6.294
 8974SOL     OW27820   0.379   2.921   3.958
 8974SOL    HW127821   0.421   2.971   3.882
 8974SOL    HW227822   0.375   2.824   3.936
 8975SOL     OW27823   3.635   0.896   5.873
 8975SOL    HW127824   3.734   0.883   5.874
 8975SOL    HW227825   3.613   0.981   5.824
 8976SOL     OW27826   1.511   5.765   4.037
 8976SOL    HW127827   1.542   5.837   3.974
 8976SOL    HW227828   1.556   5.679   4.014
 8977SOL     OW27829   5.381   1.788   0.239
 8977SOL    HW127830   5.429   1.873   0.261
 8977SOL    HW227831   5.407   1.758   0.148
 8978SOL     OW27832   5.668   5.365   1.224
 8978SOL    HW127833   5.571   5.345   1.209
 8978SOL    HW227834   5.719   5.279   1.228
 8979SOL     OW27835   1.091   4.660   4.810
 8979SOL    HW127836   1.006   4.608   4.812
 8979SOL    HW227837   1.169   4.598   4.799
 8980SOL     OW27838   3.352   3.137   3.973
 8980SOL    HW127839   3.406   3.215   3.941
 8980SOL    HW227840   3.356   3.132   4.073
 8981SOL     OW27841   2.792   1.804   5.332
 8981SOL    HW127842   2.819   1.728   5.273
 8981SOL    HW227843   2.711   1.849   5.294
 8982SOL     OW27844   3.320   4.970   0.222
 8982SOL    HW127845   3.384   4.981   0.298
 8982SOL    HW227846   3.371   4.967   0.135
 8983SOL     OW27847   4.801   4.717   0.764
 8983SOL    HW127848   4.728   4.785   0.755
 8983SOL    HW227849   4.773   4.647   0.830
 8984SOL     OW27850   1.547   6.704   3.701
 8984SOL    HW127851   1.607   6.641   3.750
 8984SOL    HW227852   1.602   6.778   3.661
 8985SOL     OW27853   3.183   3.219   6.244
 8985SOL    HW127854   3.173   3.243   6.148
 8985SOL    HW227855   3.136   3.286   6.301
 8986SOL     OW27856   2.626   6.325   2.181
 8986SOL    HW127857   2.666   6.416   2.170
 8986SOL    HW227858   2.700   6.258   2.193
 8987SOL     OW27859   5.107   6.586   2.264
 8987SOL    HW127860   5.022   6.603   2.213
 8987SOL    HW227861   5.185   6.617   2.209
 8988SOL     OW27862   0.639   4.512   4.729
 8988SOL    HW127863   0.552   4.507   4.778
 8988SOL    HW227864   0.623   4.541   4.635
 8989SOL     OW27865   2.382   2.306   6.600
 8989SOL    HW127866   2.411   2.325   6.506
 8989SOL    HW227867   2.285   2.280   6.600
 8990SOL     OW27868   6.913   4.759   3.801
 8990SOL    HW127869   6.985   4.746   3.733
 8990SOL    HW227870   6.905   4.857   3.822
 8991SOL     OW27871   1.335   2.434   5.504
 8991SOL    HW127872   1.430   2.406   5.488
 8991SOL    HW227873   1.294   2.465   5.418
 8992SOL     OW27874   6.147   2.321   1.577
 8992SOL    HW127875   6.146   2.251   1.649
 8992SOL    HW227876   6.235   2.320   1.530
 8993SOL     OW27877   4.427   2.300   0.744
 8993SOL    HW127878   4.468   2.388   0.719
 8993SOL    HW227879   4.328   2.304   0.730
 8994SOL     OW27880   1.538   5.750   2.475
 8994SOL    HW127881   1.472   5.689   2.518
 8994SOL    HW227882   1.631   5.721   2.499
 8995SOL     OW27883   0.539   0.288   1.806
 8995SOL    HW127884   0.443   0.284   1.778
 8995SOL    HW227885   0.546   0.339   1.892
 8996SOL     OW27886   4.313   6.038   5.814
 8996SOL    HW127887   4.283   6.104   5.745
 8996SOL    HW227888   4.256   5.957   5.809
 8997SOL     OW27889   6.429   0.160   4.937
 8997SOL    HW127890   6.389   0.101   4.866
 8997SOL    HW227891   6.360   0.178   5.008
 8998SOL     OW27892   6.967   4.220   4.813
 8998SOL    HW127893   6.902   4.235   4.738
 8998SOL    HW227894   6.917   4.191   4.895
 8999SOL     OW27895   4.330   6.053   6.258
 8999SOL    HW127896   4.315   6.003   6.344
 8999SOL    HW227897   4.243   6.063   6.210
 9000SOL     OW27898   0.838   4.103   1.315
 9000SOL    HW127899   0.870   4.182   1.367
 9000SOL    HW227900   0.904   4.028   1.324
 9001SOL     OW27901   1.557   5.662   0.862
 9001SOL    HW127902   1.570   5.594   0.935
 9001SOL    HW227903   1.619   5.739   0.877
 9002SOL     OW27904   6.805   5.323   6.003
 9002SOL    HW127905   6.854   5.411   6.005
 9002SOL    HW227906   6.858   5.257   5.950
 9003SOL     OW27907   5.217   7.024   0.769
 9003SOL    HW127908   5.168   7.019   0.683
 9003SOL    HW227909   5.162   0.047   0.837
 9004SOL     OW27910   6.106   5.157   1.569
 9004SOL    HW127911   6.085   5.201   1.656
 9004SOL    HW227912   6.061   5.067   1.566
 9005SOL     OW27913   4.783   0.902   4.906
 9005SOL    HW127914   4.873   0.938   4.929
 9005SOL    HW227915   4.739   0.868   4.989
 9006SOL     OW27916   4.075   6.044   0.783
 9006SOL    HW127917   4.099   6.115   0.718
 9006SOL    HW227918   4.078   6.081   0.876
 9007SOL     OW27919   0.824   1.232   3.131
 9007SOL    HW127920   0.737   1.275   3.109
 9007SOL    HW227921   0.877   1.218   3.047
 9008SOL     OW27922   0.362   5.089   2.604
 9008SOL    HW127923   0.359   5.051   2.511
 9008SOL    HW227924   0.270   5.114   2.633
 9009SOL     OW27925   3.073   6.481   2.064
 9009SOL    HW127926   3.111   6.450   2.152
 9009SOL    HW227927   2.984   6.523   2.080
 9010SOL     OW27928   1.416   5.703   4.412
 9010SOL    HW127929   1.459   5.635   4.473
 9010SOL    HW227930   1.326   5.726   4.446
 9011SOL     OW27931   2.035   2.173   2.248
 9011SOL    HW127932   1.977   2.248   2.280
 9011SOL    HW227933   2.122   2.209   2.214
 9012SOL     OW27934   2.400   5.764   6.910
 9012SOL    HW127935   2.413   5.824   6.990
 9012SOL    HW227936   2.405   5.669   6.939
 9013SOL     OW27937   2.258   0.636   4.895
 9013SOL    HW127938   2.212   0.547   4.897
 9013SOL    HW227939   2.349   0.624   4.854
 9014SOL     OW27940   5.118   3.230   3.383
 9014SOL    HW127941   5.188   3.205   3.316
 9014SOL    HW227942   5.028   3.226   3.341
 9015SOL     OW27943   4.571   0.040   6.041
 9015SOL    HW127944   4.525   6.977   6.034
 9015SOL    HW227945   4.545   0.098   5.964
 9016SOL     OW27946   5.236   4.719   5.975
 9016SOL    HW127947   5.188   4.802   5.946
 9016SOL    HW227948   5.192   4.682   6.058
 9017SOL     OW27949   3.121   0.446   5.232
 9017SOL    HW127950   3.175   0.363   5.220
 9017SOL    HW227951   3.047   0.448   5.165
 9018SOL     OW27952   3.502   5.055   0.441
 9018SOL    HW127953   3.481   5.112   0.521
 9018SOL    HW227954   3.541   4.968   0.472
 9019SOL     OW27955   0.668   3.239   4.103
 9019SOL    HW127956   0.752   3.188   4.088
 9019SOL    HW227957   0.615   3.195   4.175
 9020SOL     OW27958   5.710   4.731   3.381
 9020SOL    HW127959   5.694   4.711   3.284
 9020SOL    HW227960   5.791   4.790   3.390
 9021SOL     OW27961   6.956   1.453   4.329
 9021SOL    HW127962   6.973   1.489   4.420
 9021SOL    HW227963   6.967   1.526   4.262
 9022SOL     OW27964   4.795   3.578   6.972
 9022SOL    HW127965   4.766   3.502   6.913
 9022SOL    HW227966   4.889   3.562   7.002
 9023SOL     OW27967   0.221   4.806   0.640
 9023SOL    HW127968   0.315   4.841   0.633
 9023SOL    HW227969   0.209   4.760   0.728
 9024SOL     OW27970   2.304   5.015   6.415
 9024SOL    HW127971   2.228   4.980   6.361
 9024SOL    HW227972   2.390   4.985   6.374
 9025SOL     OW27973   0.720   6.212   0.982
 9025SOL    HW127974   0.700   6.237   0.887
 9025SOL    HW227975   0.745   6.115   0.986
 9026SOL     OW27976   5.623   0.803   0.575
 9026SOL    HW127977   5.666   0.714   0.592
 9026SOL    HW227978   5.585   0.804   0.482
 9027SOL     OW27979   0.158   3.823   2.895
 9027SOL    HW127980   0.148   3.883   2.816
 9027SOL    HW227981   0.221   3.748   2.873
 9028SOL     OW27982   3.239   4.810   6.447
 9028SOL    HW127983   3.150   4.801   6.491
 9028SOL    HW227984   3.227   4.814   6.348
 9029SOL     OW27985   4.417   6.408   4.579
 9029SOL    HW127986   4.389   6.467   4.656
 9029SOL    HW227987   4.506   6.437   4.546
 9030SOL     OW27988   2.785   2.195   2.268
 9030SOL    HW127989   2.795   2.256   2.190
 9030SOL    HW227990   2.869   2.142   2.280
 9031SOL     OW27991   4.790   6.897   4.949
 9031SOL    HW127992   4.711   6.904   5.009
 9031SOL    HW227993   4.760   6.883   4.855
 9032SOL     OW27994   5.424   2.706   1.144
 9032SOL    HW127995   5.390   2.776   1.206
 9032SOL    HW227996   5.351   2.640   1.124
 9033SOL     OW27997   1.497   6.604   2.996
 9033SOL    HW127998   1.551   6.527   3.028
 9033SOL    HW227999   1.546   6.689   3.015
 9034SOL     OW28000   4.655   6.545   4.465
 9034SOL    HW128001   4.686   6.610   4.395
 9034SOL    HW228002   4.669   6.585   4.556
 9035SOL     OW28003   3.221   4.933   5.904
 9035SOL    HW128004   3.244   4.973   5.816
 9035SOL    HW228005   3.287   4.964   5.973
 9036SOL     OW28006   0.571   4.936   5.435
 9036SOL    HW128007   0.597   4.972   5.346
 9036SOL    HW228008   0.478   4.965   5.458
 9037SOL     OW28009   0.134   0.604   2.057
 9037SOL    HW128010   0.163   0.582   2.150
 9037SOL    HW228011   0.198   0.564   1.992
 9038SOL     OW28012   3.932   3.319   5.823
 9038SOL    HW128013   3.864   3.384   5.788
 9038SOL    HW228014   4.004   3.306   5.755
 9039SOL     OW28015   4.302   6.438   6.924
 9039SOL    HW128016   4.295   6.474   6.831
 9039SOL    HW228017   4.330   6.342   6.921
 9040SOL     OW28018   1.941   2.455   1.545
 9040SOL    HW128019   1.912   2.387   1.613
 9040SOL    HW228020   2.034   2.486   1.566
 9041SOL     OW28021   6.270   2.179   2.715
 9041SOL    HW128022   6.307   2.271   2.727
 9041SOL    HW228023   6.281   2.127   2.800
 9042SOL     OW28024   5.162   5.667   6.723
 9042SOL    HW128025   5.095   5.686   6.794
 9042SOL    HW228026   5.225   5.744   6.715
 9043SOL     OW28027   2.949   3.169   1.740
 9043SOL    HW128028   2.851   3.171   1.722
 9043SOL    HW228029   2.982   3.074   1.735
 9044SOL     OW28030   1.452   0.550   0.076
 9044SOL    HW128031   1.441   0.649   0.067
 9044SOL    HW228032   1.525   0.519   0.015
 9045SOL     OW28033   3.787   0.794   3.724
 9045SOL    HW128034   3.869   0.739   3.740
 9045SOL    HW228035   3.713   0.736   3.691
 9046SOL     OW28036   4.087   3.432   2.277
 9046SOL    HW128037   4.166   3.388   2.234
 9046SOL    HW228038   4.009   3.369   2.273
 9047SOL     OW28039   0.509   4.587   5.709
 9047SOL    HW128040   0.545   4.539   5.790
 9047SOL    HW228041   0.581   4.594   5.640
 9048SOL     OW28042   6.849   1.607   5.305
 9048SOL    HW128043   6.868   1.702   5.331
 9048SOL    HW228044   6.894   1.586   5.219
 9049SOL     OW28045   2.153   6.613   5.398
 9049SOL    HW128046   2.239   6.656   5.371
 9049SOL    HW228047   2.115   6.562   5.320
 9050SOL     OW28048   1.209   4.291   0.628
 9050SOL    HW128049   1.163   4.207   0.599
 9050SOL    HW228050   1.150   4.340   0.692
 9051SOL     OW28051   2.282   0.796   1.770
 9051SOL    HW128052   2.206   0.745   1.811
 9051SOL    HW228053   2.259   0.893   1.768
 9052SOL     OW28054   2.252   3.742   6.352
 9052SOL    HW128055   2.292   3.706   6.268
 9052SOL    HW228056   2.251   3.671   6.422
 9053SOL     OW28057   0.371   1.148   6.887
 9053SOL    HW128058   0.408   1.104   6.805
 9053SOL    HW228059   0.439   1.211   6.924
 9054SOL     OW28060   1.514   5.678   2.807
 9054SOL    HW128061   1.439   5.736   2.775
 9054SOL    HW228062   1.492   5.582   2.788
 9055SOL     OW28063   0.497   2.360   6.064
 9055SOL    HW128064   0.595   2.355   6.043
 9055SOL    HW228065   0.454   2.273   6.041
 9056SOL     OW28066   5.742   1.586   4.091
 9056SOL    HW128067   5.659   1.572   4.037
 9056SOL    HW228068   5.739   1.676   4.134
 9057SOL     OW28069   4.815   1.829   3.609
 9057SOL    HW128070   4.865   1.758   3.657
 9057SOL    HW228071   4.859   1.846   3.520
 9058SOL     OW28072   2.341   0.192   6.040
 9058SOL    HW128073   2.352   0.290   6.054
 9058SOL    HW228074   2.322   0.173   5.943
 9059SOL     OW28075   1.183   2.444   3.829
 9059SOL    HW128076   1.231   2.441   3.916
 9059SOL    HW228077   1.105   2.381   3.832
 9060SOL     OW28078   5.181   2.939   5.157
 9060SOL    HW128079   5.150   2.902   5.244
 9060SOL    HW228080   5.216   2.865   5.100
 9061SOL     OW28081   1.861   4.582   3.544
 9061SOL    HW128082   1.848   4.627   3.455
 9061SOL    HW228083   1.928   4.509   3.535
 9062SOL     OW28084   1.710   5.997   1.525
 9062SOL    HW128085   1.622   5.954   1.547
 9062SOL    HW228086   1.783   5.951   1.576
 9063SOL     OW28087   2.795   1.736   2.523
 9063SOL    HW128088   2.893   1.730   2.541
 9063SOL    HW228089   2.780   1.746   2.425
 9064SOL     OW28090   4.979   4.195   6.840
 9064SOL    HW128091   4.919   4.155   6.771
 9064SOL    HW228092   4.928   4.208   6.925
 9065SOL     OW28093   2.881   0.890   1.613
 9065SOL    HW128094   2.805   0.833   1.581
 9065SOL    HW228095   2.862   0.920   1.707
 9066SOL     OW28096   5.220   6.961   0.228
 9066SOL    HW128097   5.266   6.913   0.303
 9066SOL    HW228098   5.228   6.906   0.145
 9067SOL     OW28099   1.196   0.132   1.405
 9067SOL    HW128100   1.120   0.102   1.462
 9067SOL    HW228101   1.228   0.221   1.436
 9068SOL     OW28102   1.268   6.328   6.041
 9068SOL    HW128103   1.186   6.307   6.095
 9068SOL    HW228104   1.272   6.267   5.962
 9069SOL     OW28105   1.378   2.309   6.134
 9069SOL    HW128106   1.384   2.267   6.043
 9069SOL    HW228107   1.283   2.327   6.156
 9070SOL     OW28108   1.643   4.590   4.095
 9070SOL    HW128109   1.580   4.635   4.032
 9070SOL    HW228110   1.703   4.528   4.044
 9071SOL     OW28111   5.026   5.752   6.956
 9071SOL    HW128112   5.032   5.698   0.015
 9071SOL    HW228113   4.970   5.833   6.972
 9072SOL     OW28114   4.868   4.712   0.505
 9072SOL    HW128115   4.795   4.739   0.443
 9072SOL    HW228116   4.846   4.743   0.597
 9073SOL     OW28117   2.314   0.199   1.412
 9073SOL    HW128118   2.230   0.146   1.419
 9073SOL    HW228119   2.382   0.148   1.359
 9074SOL     OW28120   0.527   0.407   2.056
 9074SOL    HW128121   0.501   0.497   2.091
 9074SOL    HW228122   0.445   0.350   2.049
 9075SOL     OW28123   7.008   0.247   1.528
 9075SOL    HW128124   0.018   0.338   1.550
 9075SOL    HW228125   0.005   0.227   1.432
 9076SOL     OW28126   1.102   2.250   5.692
 9076SOL    HW128127   1.083   2.165   5.741
 9076SOL    HW228128   1.149   2.230   5.607
 9077SOL     OW28129   5.880   6.393   2.382
 9077SOL    HW128130   5.889   6.295   2.361
 9077SOL    HW228131   5.786   6.413   2.409
 9078SOL     OW28132   4.469   3.292   5.416
 9078SOL    HW128133   4.553   3.238   5.407
 9078SOL    HW228134   4.430   3.279   5.507
 9079SOL     OW28135   2.817   0.212   5.282
 9079SOL    HW128136   2.822   0.247   5.375
 9079SOL    HW228137   2.749   0.139   5.277
 9080SOL     OW28138   4.520   1.041   6.923
 9080SOL    HW128139   4.526   1.140   6.926
 9080SOL    HW228140   4.428   1.012   6.948
 9081SOL     OW28141   5.526   0.155   3.441
 9081SOL    HW128142   5.494   0.068   3.402
 9081SOL    HW228143   5.448   0.205   3.479
 9082SOL     OW28144   2.191   0.670   2.241
 9082SOL    HW128145   2.149   0.665   2.150
 9082SOL    HW228146   2.207   0.577   2.275
 9083SOL     OW28147   4.496   5.005   3.766
 9083SOL    HW128148   4.490   4.951   3.850
 9083SOL    HW228149   4.436   5.085   3.774
 9084SOL     OW28150   3.642   3.625   2.513
 9084SOL    HW128151   3.607   3.531   2.517
 9084SOL    HW228152   3.739   3.623   2.487
 9085SOL     OW28153   0.986   2.218   0.935
 9085SOL    HW128154   1.017   2.313   0.929
 9085SOL    HW228155   1.057   2.157   0.898
 9086SOL     OW28156   6.639   3.783   6.981
 9086SOL    HW128157   6.562   3.814   6.925
 9086SOL    HW228158   6.712   3.851   6.977
 9087SOL     OW28159   5.501   3.651   1.980
 9087SOL    HW128160   5.403   3.651   1.999
 9087SOL    HW228161   5.532   3.557   1.965
 9088SOL     OW28162   5.292   4.980   2.140
 9088SOL    HW128163   5.303   5.065   2.192
 9088SOL    HW228164   5.317   4.902   2.198
 9089SOL     OW28165   3.951   0.960   5.828
 9089SOL    HW128166   4.041   0.918   5.843
 9089SOL    HW228167   3.961   1.058   5.817
 9090SOL     OW28168   6.179   1.507   3.737
 9090SOL    HW128169   6.273   1.516   3.704
 9090SOL    HW228170   6.164   1.571   3.813
 9091SOL     OW28171   4.117   2.865   5.721
 9091SOL    HW128172   4.031   2.910   5.746
 9091SOL    HW228173   4.168   2.844   5.804
 9092SOL     OW28174   6.769   3.335   6.287
 9092SOL    HW128175   6.784   3.236   6.286
 9092SOL    HW228176   6.835   3.378   6.348
 9093SOL     OW28177   2.423   6.256   4.907
 9093SOL    HW128178   2.464   6.277   4.996
 9093SOL    HW228179   2.367   6.173   4.916
 9094SOL     OW28180   1.785   3.613   0.613
 9094SOL    HW128181   1.852   3.637   0.683
 9094SOL    HW228182   1.826   3.626   0.522
 9095SOL     OW28183   0.482   6.957   6.201
 9095SOL    HW128184   0.547   6.890   6.237
 9095SOL    HW228185   0.388   6.922   6.212
 9096SOL     OW28186   6.456   5.388   3.847
 9096SOL    HW128187   6.448   5.336   3.762
 9096SOL    HW228188   6.476   5.325   3.922
 9097SOL     OW28189   1.290   3.617   6.886
 9097SOL    HW128190   1.339   3.548   6.834
 9097SOL    HW228191   1.346   3.648   6.963
 9098SOL     OW28192   1.803   4.990   3.783
 9098SOL    HW128193   1.811   4.982   3.883
 9098SOL    HW228194   1.738   5.062   3.761
 9099SOL     OW28195   2.588   1.711   6.317
 9099SOL    HW128196   2.600   1.761   6.402
 9099SOL    HW228197   2.593   1.613   6.335
 9100SOL     OW28198   1.638   4.779   4.295
 9100SOL    HW128199   1.655   4.729   4.380
 9100SOL    HW228200   1.647   4.716   4.218
 9101SOL     OW28201   0.123   2.224   1.013
 9101SOL    HW128202   0.068   2.263   0.939
 9101SOL    HW228203   0.150   2.296   1.076
 9102SOL     OW28204   3.822   0.897   3.024
 9102SOL    HW128205   3.855   0.806   3.047
 9102SOL    HW228206   3.845   0.917   2.928
 9103SOL     OW28207   6.705   0.254   1.382
 9103SOL    HW128208   6.704   0.267   1.482
 9103SOL    HW228209   6.620   0.209   1.354
 9104SOL     OW28210   5.825   2.287   5.982
 9104SOL    HW128211   5.768   2.334   6.050
 9104SOL    HW228212   5.767   2.239   5.917
 9105SOL     OW28213   2.712   0.573   0.014
 9105SOL    HW128214   2.770   0.650   7.016
 9105SOL    HW228215   2.752   0.522   0.090
 9106SOL     OW28216   2.542   3.002   6.221
 9106SOL    HW128217   2.478   3.075   6.199
 9106SOL    HW228218   2.624   3.010   6.164
 9107SOL     OW28219   3.490   0.926   1.026
 9107SOL    HW128220   3.418   0.869   1.065
 9107SOL    HW228221   3.533   0.980   1.098
 9108SOL     OW28222   6.266   6.086   5.805
 9108SOL    HW128223   6.277   6.182   5.828
 9108SOL    HW228224   6.169   6.062   5.807
 9109SOL     OW28225   5.627   4.304   3.282
 9109SOL    HW128226   5.540   4.310   3.330
 9109SOL    HW228227   5.632   4.376   3.212
 9110SOL     OW28228   1.409   6.963   2.431
 9110SOL    HW128229   1.417   0.032   2.395
 9110SOL    HW228230   1.473   6.904   2.383
 9111SOL     OW28231   4.362   2.978   5.494
 9111SOL    HW128232   4.453   2.996   5.532
 9111SOL    HW228233   4.299   3.049   5.525
 9112SOL     OW28234   0.614   4.399   1.648
 9112SOL    HW128235   0.660   4.315   1.677
 9112SOL    HW228236   0.578   4.447   1.729
 9113SOL     OW28237   5.602   0.139   4.345
 9113SOL    HW128238   5.596   0.163   4.248
 9113SOL    HW228239   5.524   0.081   4.370
 9114SOL     OW28240   0.674   1.522   6.281
 9114SOL    HW128241   0.607   1.548   6.350
 9114SOL    HW228242   0.761   1.569   6.300
 9115SOL     OW28243   5.020   3.619   4.470
 9115SOL    HW128244   5.026   3.582   4.563
 9115SOL    HW228245   5.098   3.588   4.417
 9116SOL     OW28246   0.630   5.063   3.851
 9116SOL    HW128247   0.632   5.163   3.854
 9116SOL    HW228248   0.536   5.032   3.843
 9117SOL     OW28249   2.066   6.692   0.294
 9117SOL    HW128250   2.024   6.668   0.382
 9117SOL    HW228251   2.166   6.685   0.303
 9118SOL     OW28252   6.751   5.215   1.436
 9118SOL    HW128253   6.663   5.207   1.389
 9118SOL    HW228254   6.735   5.246   1.530
 9119SOL     OW28255   3.308   1.136   0.812
 9119SOL    HW128256   3.307   1.229   0.850
 9119SOL    HW228257   3.397   1.118   0.771
 9120SOL     OW28258   6.302   4.252   4.887
 9120SOL    HW128259   6.257   4.229   4.801
 9120SOL    HW228260   6.254   4.209   4.963
 9121SOL     OW28261   4.130   1.148   4.534
 9121SOL    HW128262   4.170   1.191   4.615
 9121SOL    HW228263   4.046   1.195   4.508
 9122SOL     OW28264   0.114   1.585   1.837
 9122SOL    HW128265   0.102   1.684   1.827
 9122SOL    HW228266   0.151   1.565   1.928
 9123SOL     OW28267   0.724   6.453   4.908
 9123SOL    HW128268   0.746   6.405   4.993
 9123SOL    HW228269   0.795   6.520   4.888
 9124SOL     OW28270   3.573   6.053   0.386
 9124SOL    HW128271   3.655   6.098   0.353
 9124SOL    HW228272   3.548   5.979   0.324
 9125SOL     OW28273   5.201   6.457   1.598
 9125SOL    HW128274   5.299   6.442   1.582
 9125SOL    HW228275   5.185   6.469   1.696
 9126SOL     OW28276   3.671   5.308   0.394
 9126SOL    HW128277   3.622   5.259   0.322
 9126SOL    HW228278   3.738   5.369   0.353
 9127SOL     OW28279   6.591   4.468   5.347
 9127SOL    HW128280   6.528   4.425   5.412
 9127SOL    HW228281   6.683   4.472   5.387
 9128SOL     OW28282   5.351   3.660   6.813
 9128SOL    HW128283   5.380   3.675   6.719
 9128SOL    HW228284   5.253   3.675   6.821
 9129SOL     OW28285   0.310   2.763   1.041
 9129SOL    HW128286   0.237   2.827   1.016
 9129SOL    HW228287   0.396   2.814   1.050
 9130SOL     OW28288   2.888   3.383   6.186
 9130SOL    HW128289   2.962   3.442   6.154
 9130SOL    HW228290   2.880   3.304   6.124
 9131SOL     OW28291   6.369   3.228   0.574
 9131SOL    HW128292   6.411   3.141   0.601
 9131SOL    HW228293   6.399   3.252   0.482
 9132SOL     OW28294   0.912   3.997   3.803
 9132SOL    HW128295   0.842   4.044   3.857
 9132SOL    HW228296   1.002   4.019   3.839
 9133SOL     OW28297   5.399   0.284   0.895
 9133SOL    HW128298   5.421   0.201   0.844
 9133SOL    HW228299   5.355   0.259   0.981
 9134SOL     OW28300   4.941   4.486   6.645
 9134SOL    HW128301   4.968   4.581   6.629
 9134SOL    HW228302   5.022   4.428   6.648
 9135SOL     OW28303   7.012   5.451   2.460
 9135SOL    HW128304   0.049   5.453   2.381
 9135SOL    HW228305   0.013   5.522   2.525
 9136SOL     OW28306   0.754   5.248   6.726
 9136SOL    HW128307   0.852   5.247   6.705
 9136SOL    HW228308   0.739   5.214   6.819
 9137SOL     OW28309   5.944   5.429   6.052
 9137SOL    HW128310   5.898   5.483   6.122
 9137SOL    HW228311   5.878   5.401   5.983
 9138SOL     OW28312   1.445   4.251   6.202
 9138SOL    HW128313   1.446   4.151   6.209
 9138SOL    HW228314   1.453   4.278   6.106
 9139SOL     OW28315   0.263   6.865   1.291
 9139SOL    HW128316   0.316   6.856   1.375
 9139SOL    HW228317   0.235   6.774   1.259
 9140SOL     OW28318   0.858   4.230   2.934
 9140SOL    HW128319   0.849   4.150   2.875
 9140SOL    HW228320   0.807   4.215   3.019
 9141SOL     OW28321   0.413   6.046   4.524
 9141SOL    HW128322   0.324   6.003   4.508
 9141SOL    HW228323   0.438   6.101   4.444
 9142SOL     OW28324   0.971   5.162   3.614
 9142SOL    HW128325   0.912   5.229   3.571
 9142SOL    HW228326   1.058   5.204   3.640
 9143SOL     OW28327   5.626   3.721   2.417
 9143SOL    HW128328   5.646   3.625   2.399
 9143SOL    HW228329   5.684   3.779   2.360
 9144SOL     OW28330   2.660   4.359   5.282
 9144SOL    HW128331   2.688   4.368   5.378
 9144SOL    HW228332   2.722   4.414   5.225
 9145SOL     OW28333   2.909   6.302   6.476
 9145SOL    HW128334   2.988   6.360   6.458
 9145SOL    HW228335   2.909   6.276   6.573
 9146SOL     OW28336   5.519   1.804   4.538
 9146SOL    HW128337   5.573   1.882   4.571
 9146SOL    HW228338   5.424   1.832   4.528
 9147SOL     OW28339   4.338   0.537   6.235
 9147SOL    HW128340   4.363   0.445   6.264
 9147SOL    HW228341   4.380   0.604   6.296
 9148SOL     OW28342   3.863   5.577   2.526
 9148SOL    HW128343   3.856   5.651   2.460
 9148SOL    HW228344   3.831   5.492   2.484
 9149SOL     OW28345   1.023   4.288   1.411
 9149SOL    HW128346   1.075   4.230   1.475
 9149SOL    HW228347   1.087   4.342   1.356
 9150SOL     OW28348   3.762   3.487   6.775
 9150SOL    HW128349   3.675   3.507   6.731
 9150SOL    HW228350   3.752   3.496   6.874
 9151SOL     OW28351   2.139   3.548   4.129
 9151SOL    HW128352   2.228   3.565   4.087
 9151SOL    HW228353   2.074   3.517   4.059
 9152SOL     OW28354   2.099   5.252   1.727
 9152SOL    HW128355   2.015   5.235   1.676
 9152SOL    HW228356   2.134   5.166   1.763
 9153SOL     OW28357   0.725   3.894   0.251
 9153SOL    HW128358   0.654   3.883   0.181
 9153SOL    HW228359   0.774   3.808   0.263
 9154SOL     OW28360   4.722   5.486   2.825
 9154SOL    HW128361   4.768   5.559   2.876
 9154SOL    HW228362   4.644   5.524   2.776
 9155SOL     OW28363   1.080   6.280   2.505
 9155SOL    HW128364   1.112   6.357   2.561
 9155SOL    HW228365   0.984   6.262   2.524
 9156SOL     OW28366   6.846   4.410   5.489
 9156SOL    HW128367   6.918   4.410   5.558
 9156SOL    HW228368   6.885   4.386   5.400
 9157SOL     OW28369   1.837   4.711   4.967
 9157SOL    HW128370   1.838   4.666   5.056
 9157SOL    HW228371   1.927   4.701   4.923
 9158SOL     OW28372   6.572   2.212   3.769
 9158SOL    HW128373   6.493   2.178   3.820
 9158SOL    HW228374   6.544   2.291   3.714
 9159SOL     OW28375   2.070   0.717   3.671
 9159SOL    HW128376   2.020   0.656   3.609
 9159SOL    HW228377   2.028   0.716   3.761
 9160SOL     OW28378   0.758   3.618   6.549
 9160SOL    HW128379   0.832   3.684   6.537
 9160SOL    HW228380   0.715   3.632   6.638
 9161SOL     OW28381   5.917   3.268   2.577
 9161SOL    HW128382   5.853   3.208   2.625
 9161SOL    HW228383   5.877   3.300   2.491
 9162SOL     OW28384   4.883   1.951   2.123
 9162SOL    HW128385   4.796   1.987   2.158
 9162SOL    HW228386   4.930   2.022   2.071
 9163SOL     OW28387   2.120   3.658   3.315
 9163SOL    HW128388   2.147   3.710   3.234
 9163SOL    HW228389   2.091   3.721   3.387
 9164SOL     OW28390   3.541   0.553   0.579
 9164SOL    HW128391   3.484   0.635   0.571
 9164SOL    HW228392   3.631   0.578   0.616
 9165SOL     OW28393   6.204   0.810   6.309
 9165SOL    HW128394   6.148   0.745   6.359
 9165SOL    HW228395   6.281   0.840   6.367
 9166SOL     OW28396   4.328   5.872   1.608
 9166SOL    HW128397   4.411   5.899   1.558
 9166SOL    HW228398   4.257   5.941   1.593
 9167SOL     OW28399   1.118   2.995   5.000
 9167SOL    HW128400   1.126   3.087   5.040
 9167SOL    HW228401   1.140   3.000   4.902
 9168SOL     OW28402   6.128   5.980   4.655
 9168SOL    HW128403   6.177   5.984   4.568
 9168SOL    HW228404   6.030   5.990   4.638
 9169SOL     OW28405   6.063   5.868   0.429
 9169SOL    HW128406   6.162   5.862   0.425
 9169SOL    HW228407   6.023   5.784   0.393
 9170SOL     OW28408   1.561   0.449   5.268
 9170SOL    HW128409   1.615   0.367   5.289
 9170SOL    HW228410   1.563   0.511   5.346
 9171SOL     OW28411   4.569   5.876   0.118
 9171SOL    HW128412   4.569   5.777   0.101
 9171SOL    HW228413   4.482   5.914   0.087
 9172SOL     OW28414   5.221   0.740   6.085
 9172SOL    HW128415   5.123   0.740   6.105
 9172SOL    HW228416   5.260   0.652   6.112
 9173SOL     OW28417   5.886   4.768   5.999
 9173SOL    HW128418   5.967   4.777   5.941
 9173SOL    HW228419   5.856   4.673   6.001
 9174SOL     OW28420   5.972   5.063   6.936
 9174SOL    HW128421   6.014   5.105   6.856
 9174SOL    HW228422   6.018   5.096   7.019
 9175SOL     OW28423   2.030   1.091   1.385
 9175SOL    HW128424   2.062   1.008   1.339
 9175SOL    HW228425   2.109   1.141   1.422
 9176SOL     OW28426   1.481   0.181   2.316
 9176SOL    HW128427   1.568   0.202   2.271
 9176SOL    HW228428   1.406   0.194   2.250
 9177SOL     OW28429   0.454   5.758   3.662
 9177SOL    HW128430   0.401   5.823   3.716
 9177SOL    HW228431   0.435   5.665   3.695
 9178SOL     OW28432   0.891   3.430   0.994
 9178SOL    HW128433   0.812   3.491   0.982
 9178SOL    HW228434   0.975   3.484   0.994
 9179SOL     OW28435   3.832   5.339   2.760
 9179SOL    HW128436   3.847   5.431   2.724
 9179SOL    HW228437   3.769   5.290   2.699
 9180SOL     OW28438   7.015   1.000   5.225
 9180SOL    HW128439   0.020   1.050   5.144
 9180SOL    HW228440   7.004   0.903   5.202
 9181SOL     OW28441   2.916   2.288   3.218
 9181SOL    HW128442   2.878   2.229   3.290
 9181SOL    HW228443   2.992   2.241   3.174
 9182SOL     OW28444   6.682   1.421   3.099
 9182SOL    HW128445   6.636   1.463   3.020
 9182SOL    HW228446   6.781   1.427   3.087
 9183SOL     OW28447   3.082   1.916   5.351
 9183SOL    HW128448   3.095   1.825   5.391
 9183SOL    HW228449   2.999   1.916   5.296
 9184SOL     OW28450   3.014   5.172   1.164
 9184SOL    HW128451   3.049   5.094   1.217
 9184SOL    HW228452   2.960   5.231   1.224
 9185SOL     OW28453   0.487   0.878   5.372
 9185SOL    HW128454   0.539   0.891   5.288
 9185SOL    HW228455   0.401   0.930   5.366
 9186SOL     OW28456   5.399   6.665   5.820
 9186SOL    HW128457   5.387   6.577   5.865
 9186SOL    HW228458   5.446   6.652   5.733
 9187SOL     OW28459   5.181   3.522   1.083
 9187SOL    HW128460   5.085   3.530   1.057
 9187SOL    HW228461   5.231   3.477   1.009
 9188SOL     OW28462   0.897   0.914   2.855
 9188SOL    HW128463   0.810   0.887   2.815
 9188SOL    HW228464   0.958   0.835   2.859
 9189SOL     OW28465   2.694   0.418   6.823
 9189SOL    HW128466   2.678   0.471   6.906
 9189SOL    HW228467   2.658   0.467   6.744
 9190SOL     OW28468   3.873   0.651   5.764
 9190SOL    HW128469   3.871   0.722   5.694
 9190SOL    HW228470   3.934   0.679   5.839
 9191SOL     OW28471   5.100   0.237   1.446
 9191SOL    HW128472   5.123   0.259   1.541
 9191SOL    HW228473   5.070   0.320   1.399
 9192SOL     OW28474   4.443   4.864   4.232
 9192SOL    HW128475   4.429   4.785   4.292
 9192SOL    HW228476   4.442   4.948   4.286
 9193SOL     OW28477   4.107   3.250   2.519
 9193SOL    HW128478   4.042   3.199   2.464
 9193SOL    HW228479   4.194   3.257   2.470
 9194SOL     OW28480   2.998   5.095   3.394
 9194SOL    HW128481   3.065   5.022   3.384
 9194SOL    HW228482   2.925   5.083   3.327
 9195SOL     OW28483   0.136   3.031   3.833
 9195SOL    HW128484   0.195   2.976   3.891
 9195SOL    HW228485   0.041   3.001   3.843
 9196SOL     OW28486   5.547   5.702   3.540
 9196SOL    HW128487   5.454   5.666   3.543
 9196SOL    HW228488   5.609   5.638   3.587
 9197SOL     OW28489   4.298   2.124   6.831
 9197SOL    HW128490   4.198   2.126   6.837
 9197SOL    HW228491   4.336   2.199   6.885
 9198SOL     OW28492   6.249   2.607   4.816
 9198SOL    HW128493   6.289   2.596   4.725
 9198SOL    HW228494   6.153   2.580   4.813
 9199SOL     OW28495   1.020   3.661   6.696
 9199SOL    HW128496   1.013   3.724   6.774
 9199SOL    HW228497   1.020   3.566   6.729
 9200SOL     OW28498   4.495   5.921   2.042
 9200SOL    HW128499   4.551   5.915   1.959
 9200SOL    HW228500   4.556   5.926   2.122
 9201SOL     OW28501   6.981   2.740   2.409
 9201SOL    HW128502   6.970   2.783   2.498
 9201SOL    HW228503   6.922   2.659   2.403
 9202SOL     OW28504   1.827   5.648   3.604
 9202SOL    HW128505   1.876   5.604   3.529
 9202SOL    HW228506   1.851   5.745   3.606
 9203SOL     OW28507   5.170   2.258   0.703
 9203SOL    HW128508   5.186   2.182   0.639
 9203SOL    HW228509   5.196   2.229   0.795
 9204SOL     OW28510   4.676   4.722   1.752
 9204SOL    HW128511   4.605   4.792   1.766
 9204SOL    HW228512   4.636   4.632   1.765
 9205SOL     OW28513   4.365   2.286   1.021
 9205SOL    HW128514   4.387   2.291   0.924
 9205SOL    HW228515   4.269   2.262   1.033
 9206SOL     OW28516   6.980   0.026   5.345
 9206SOL    HW128517   7.007   6.987   5.273
 9206SOL    HW228518   6.906   7.010   5.399
 9207SOL     OW28519   5.742   6.607   0.368
 9207SOL    HW128520   5.716   6.666   0.444
 9207SOL    HW228521   5.660   6.574   0.322
 9208SOL     OW28522   5.713   4.717   1.369
 9208SOL    HW128523   5.727   4.653   1.444
 9208SOL    HW228524   5.800   4.762   1.347
 9209SOL     OW28525   5.098   0.552   4.523
 9209SOL    HW128526   5.102   0.456   4.498
 9209SOL    HW228527   5.004   0.578   4.543
 9210SOL     OW28528   1.403   6.489   0.347
 9210SOL    HW128529   1.311   6.457   0.323
 9210SOL    HW228530   1.399   6.539   0.434
 9211SOL     OW28531   5.290   1.331   6.128
 9211SOL    HW128532   5.353   1.289   6.063
 9211SOL    HW228533   5.203   1.349   6.083
 9212SOL     OW28534   6.163   3.713   6.223
 9212SOL    HW128535   6.097   3.653   6.177
 9212SOL    HW228536   6.117   3.797   6.252
 9213SOL     OW28537   0.146   5.501   3.057
 9213SOL    HW128538   0.071   5.439   3.077
 9213SOL    HW228539   0.121   5.558   2.979
 9214SOL     OW28540   1.924   1.047   5.960
 9214SOL    HW128541   2.021   1.025   5.956
 9214SOL    HW228542   1.912   1.138   5.999
 9215SOL     OW28543   6.647   3.541   3.655
 9215SOL    HW128544   6.625   3.620   3.712
 9215SOL    HW228545   6.639   3.565   3.559
 9216SOL     OW28546   1.958   6.791   3.890
 9216SOL    HW128547   1.958   6.801   3.990
 9216SOL    HW228548   2.021   6.718   3.864
 9217SOL     OW28549   3.042   2.700   0.298
 9217SOL    HW128550   3.040   2.799   0.285
 9217SOL    HW228551   3.089   2.657   0.221
 9218SOL     OW28552   4.795   5.817   5.658
 9218SOL    HW128553   4.850   5.745   5.700
 9218SOL    HW228554   4.828   5.906   5.688
 9219SOL     OW28555   4.014   3.036   6.522
 9219SOL    HW128556   3.991   3.042   6.425
 9219SOL    HW228557   3.960   3.103   6.573
 9220SOL     OW28558   0.913   6.683   3.668
 9220SOL    HW128559   0.947   6.776   3.652
 9220SOL    HW228560   0.921   6.631   3.584
 9221SOL     OW28561   2.482   1.689   2.186
 9221SOL    HW128562   2.464   1.714   2.282
 9221SOL    HW228563   2.479   1.590   2.176
 9222SOL     OW28564   1.951   5.888   3.628
 9222SOL    HW128565   1.976   5.929   3.716
 9222SOL    HW228566   2.019   5.913   3.559
 9223SOL     OW28567   6.359   2.159   4.731
 9223SOL    HW128568   6.413   2.218   4.672
 9223SOL    HW228569   6.367   2.191   4.826
 9224SOL     OW28570   1.781   5.661   2.916
 9224SOL    HW128571   1.830   5.574   2.925
 9224SOL    HW228572   1.685   5.643   2.895
 9225SOL     OW28573   0.281   6.044   5.766
 9225SOL    HW128574   0.332   5.960   5.784
 9225SOL    HW228575   0.280   6.062   5.668
 9226SOL     OW28576   0.906   6.658   4.818
 9226SOL    HW128577   0.989   6.685   4.868
 9226SOL    HW228578   0.865   6.739   4.775
 9227SOL     OW28579   4.318   3.192   0.779
 9227SOL    HW128580   4.279   3.156   0.694
 9227SOL    HW228581   4.252   3.180   0.854
 9228SOL     OW28582   3.779   3.332   4.470
 9228SOL    HW128583   3.863   3.284   4.498
 9228SOL    HW228584   3.801   3.402   4.402
 9229SOL     OW28585   0.267   5.732   0.984
 9229SOL    HW128586   0.228   5.640   0.994
 9229SOL    HW228587   0.234   5.790   1.058
 9230SOL     OW28588   3.451   6.608   6.378
 9230SOL    HW128589   3.523   6.672   6.352
 9230SOL    HW228590   3.393   6.589   6.299
 9231SOL     OW28591   6.013   6.579   1.800
 9231SOL    HW128592   6.032   6.659   1.857
 9231SOL    HW228593   5.914   6.564   1.795
 9232SOL     OW28594   0.954   5.288   1.788
 9232SOL    HW128595   0.944   5.383   1.819
 9232SOL    HW228596   1.037   5.279   1.733
 9233SOL     OW28597   1.592   0.034   6.135
 9233SOL    HW128598   1.538   7.021   6.060
 9233SOL    HW228599   1.532   0.083   6.198
 9234SOL     OW28600   3.214   3.854   6.511
 9234SOL    HW128601   3.130   3.807   6.481
 9234SOL    HW228602   3.235   3.826   6.605
 9235SOL     OW28603   1.866   2.271   3.159
 9235SOL    HW128604   1.934   2.337   3.191
 9235SOL    HW228605   1.821   2.230   3.238
 9236SOL     OW28606   1.778   4.263   6.343
 9236SOL    HW128607   1.795   4.348   6.294
 9236SOL    HW228608   1.720   4.281   6.422
 9237SOL     OW28609   0.007   5.337   3.842
 9237SOL    HW128610   6.973   5.290   3.908
 9237SOL    HW228611   0.044   5.420   3.884
 9238SOL     OW28612   1.640   2.513   5.472
 9238SOL    HW128613   1.673   2.509   5.567
 9238SOL    HW228614   1.699   2.573   5.419
 9239SOL     OW28615   1.999   6.103   6.383
 9239SOL    HW128616   2.095   6.094   6.356
 9239SOL    HW228617   1.992   6.108   6.482
 9240SOL     OW28618   3.863   1.324   4.774
 9240SOL    HW128619   3.833   1.229   4.772
 9240SOL    HW228620   3.877   1.356   4.680
 9241SOL     OW28621   5.793   6.349   0.456
 9241SOL    HW128622   5.758   6.322   0.546
 9241SOL    HW228623   5.779   6.447   0.443
 9242SOL     OW28624   2.646   2.316   6.758
 9242SOL    HW128625   2.561   2.313   6.706
 9242SOL    HW228626   2.679   2.410   6.763
 9243SOL     OW28627   1.901   0.154   0.248
 9243SOL    HW128628   1.866   0.065   0.218
 9243SOL    HW228629   1.827   0.206   0.291
 9244SOL     OW28630   2.857   6.170   6.880
 9244SOL    HW128631   2.808   6.248   6.842
 9244SOL    HW228632   2.940   6.202   6.926
 9245SOL     OW28633   0.707   4.057   2.763
 9245SOL    HW128634   0.756   4.072   2.676
 9245SOL    HW228635   0.698   3.959   2.779
 9246SOL     OW28636   4.996   0.713   6.768
 9246SOL    HW128637   4.992   0.614   6.759
 9246SOL    HW228638   4.912   0.747   6.809
 9247SOL     OW28639   2.873   6.444   2.816
 9247SOL    HW128640   2.850   6.393   2.733
 9247SOL    HW228641   2.799   6.435   2.882
 9248SOL     OW28642   3.029   6.836   6.711
 9248SOL    HW128643   3.064   6.908   6.770
 9248SOL    HW228644   3.106   6.784   6.672
 9249SOL     OW28645   3.865   1.007   0.774
 9249SOL    HW128646   3.794   1.048   0.831
 9249SOL    HW228647   3.882   0.913   0.804
 9250SOL     OW28648   0.645   3.358   2.016
 9250SOL    HW128649   0.613   3.263   2.022
 9250SOL    HW228650   0.630   3.393   1.924
 9251SOL     OW28651   4.393   1.473   0.817
 9251SOL    HW128652   4.310   1.528   0.813
 9251SOL    HW228653   4.398   1.414   0.736
 9252SOL     OW28654   5.638   1.596   4.623
 9252SOL    HW128655   5.588   1.670   4.579
 9252SOL    HW228656   5.581   1.515   4.627
 9253SOL     OW28657   2.831   4.965   3.717
 9253SOL    HW128658   2.916   5.018   3.721
 9253SOL    HW228659   2.781   4.975   3.803
 9254SOL     OW28660   6.660   6.128   2.583
 9254SOL    HW128661   6.692   6.155   2.492
 9254SOL    HW228662   6.636   6.209   2.636
 9255SOL     OW28663   0.142   2.989   1.096
 9255SOL    HW128664   0.204   2.985   1.174
 9255SOL    HW228665   0.048   2.998   1.128
 9256SOL     OW28666   2.069   6.384   1.360
 9256SOL    HW128667   2.061   6.434   1.446
 9256SOL    HW228668   2.145   6.319   1.366
 9257SOL     OW28669   6.294   6.095   5.261
 9257SOL    HW128670   6.338   6.008   5.281
 9257SOL    HW228671   6.230   6.118   5.334
 9258SOL     OW28672   5.161   3.649   2.810
 9258SOL    HW128673   5.159   3.735   2.759
 9258SOL    HW228674   5.155   3.669   2.908
 9259SOL     OW28675   0.962   2.853   6.693
 9259SOL    HW128676   1.021   2.807   6.628
 9259SOL    HW228677   0.912   2.927   6.647
 9260SOL     OW28678   5.188   4.377   4.927
 9260SOL    HW128679   5.146   4.288   4.911
 9260SOL    HW228680   5.199   4.390   5.026
 9261SOL     OW28681   1.803   3.206   1.205
 9261SOL    HW128682   1.739   3.145   1.156
 9261SOL    HW228683   1.770   3.300   1.198
 9262SOL     OW28684   6.885   6.845   5.997
 9262SOL    HW128685   6.807   6.904   6.019
 9262SOL    HW228686   6.909   6.856   5.901
 9263SOL     OW28687   2.706   4.714   2.921
 9263SOL    HW128688   2.733   4.794   2.867
 9263SOL    HW228689   2.700   4.634   2.861
 9264SOL     OW28690   5.836   3.481   5.228
 9264SOL    HW128691   5.871   3.565   5.187
 9264SOL    HW228692   5.751   3.454   5.182
 9265SOL     OW28693   4.541   0.524   2.100
 9265SOL    HW128694   4.599   0.475   2.036
 9265SOL    HW228695   4.447   0.490   2.092
 9266SOL     OW28696   0.457   4.456   1.142
 9266SOL    HW128697   0.532   4.480   1.080
 9266SOL    HW228698   0.457   4.358   1.159
 9267SOL     OW28699   6.986   1.202   3.220
 9267SOL    HW128700   6.962   1.292   3.256
 9267SOL    HW228701   6.912   1.138   3.241
 9268SOL     OW28702   0.273   0.235   1.106
 9268SOL    HW128703   0.186   0.251   1.060
 9268SOL    HW228704   0.307   0.320   1.144
 9269SOL     OW28705   3.291   6.221   0.986
 9269SOL    HW128706   3.205   6.270   0.995
 9269SOL    HW228707   3.344   6.261   0.911
 9270SOL     OW28708   2.155   1.352   5.250
 9270SOL    HW128709   2.245   1.374   5.214
 9270SOL    HW228710   2.107   1.436   5.273
 9271SOL     OW28711   1.603   5.014   5.391
 9271SOL    HW128712   1.563   4.930   5.354
 9271SOL    HW228713   1.702   5.011   5.379
 9272SOL     OW28714   6.185   6.892   5.883
 9272SOL    HW128715   6.159   6.872   5.788
 9272SOL    HW228716   6.168   6.811   5.940
 9273SOL     OW28717   6.395   3.585   3.383
 9273SOL    HW128718   6.495   3.593   3.390
 9273SOL    HW228719   6.370   3.545   3.295
 9274SOL     OW28720   6.947   3.192   0.675
 9274SOL    HW128721   6.890   3.222   0.599
 9274SOL    HW228722   7.021   3.258   0.689
 9275SOL     OW28723   4.819   1.732   0.727
 9275SOL    HW128724   4.737   1.685   0.693
 9275SOL    HW228725   4.860   1.678   0.801
 9276SOL     OW28726   1.880   4.325   0.110
 9276SOL    HW128727   1.874   4.255   0.181
 9276SOL    HW228728   1.909   4.411   0.150
 9277SOL     OW28729   3.216   6.001   2.770
 9277SOL    HW128730   3.310   5.988   2.740
 9277SOL    HW228731   3.180   6.086   2.731
 9278SOL     OW28732   1.925   6.830   4.953
 9278SOL    HW128733   1.999   6.763   4.963
 9278SOL    HW228734   1.837   6.782   4.953
 9279SOL     OW28735   3.427   6.349   1.704
 9279SOL    HW128736   3.371   6.268   1.722
 9279SOL    HW228737   3.458   6.387   1.791
 9280SOL     OW28738   1.433   4.683   1.587
 9280SOL    HW128739   1.406   4.600   1.636
 9280SOL    HW228740   1.495   4.736   1.644
 9281SOL     OW28741   1.273   5.432   0.536
 9281SOL    HW128742   1.350   5.456   0.594
 9281SOL    HW228743   1.206   5.507   0.536
 9282SOL     OW28744   2.053   0.493   3.945
 9282SOL    HW128745   2.003   0.449   4.019
 9282SOL    HW228746   2.024   0.589   3.937
 9283SOL     OW28747   5.520   5.098   6.544
 9283SOL    HW128748   5.556   5.145   6.624
 9283SOL    HW228749   5.537   5.000   6.552
 9284SOL     OW28750   3.984   6.323   1.537
 9284SOL    HW128751   3.999   6.368   1.449
 9284SOL    HW228752   3.888   6.296   1.544
 9285SOL     OW28753   6.956   5.624   3.552
 9285SOL    HW128754   6.954   5.525   3.567
 9285SOL    HW228755   7.005   5.645   3.468
 9286SOL     OW28756   5.498   5.994   1.563
 9286SOL    HW128757   5.485   6.007   1.661
 9286SOL    HW228758   5.481   5.898   1.539
 9287SOL     OW28759   4.406   4.653   0.351
 9287SOL    HW128760   4.397   4.715   0.273
 9287SOL    HW228761   4.404   4.558   0.318
 9288SOL     OW28762   4.162   1.122   3.281
 9288SOL    HW128763   4.110   1.135   3.365
 9288SOL    HW228764   4.107   1.151   3.203
 9289SOL     OW28765   4.457   6.206   2.419
 9289SOL    HW128766   4.359   6.195   2.434
 9289SOL    HW228767   4.505   6.203   2.506
 9290SOL     OW28768   5.573   0.440   3.691
 9290SOL    HW128769   5.511   0.515   3.713
 9290SOL    HW228770   5.615   0.456   3.602
 9291SOL     OW28771   0.260   4.626   5.544
 9291SOL    HW128772   0.194   4.698   5.563
 9291SOL    HW228773   0.334   4.630   5.611
 9292SOL     OW28774   1.829   2.268   0.000
 9292SOL    HW128775   1.857   2.269   0.096
 9292SOL    HW228776   1.861   2.184   6.982
 9293SOL     OW28777   4.149   0.751   5.880
 9293SOL    HW128778   4.161   0.817   5.954
 9293SOL    HW228779   4.187   0.663   5.908
 9294SOL     OW28780   5.400   6.044   5.985
 9294SOL    HW128781   5.466   6.115   5.959
 9294SOL    HW228782   5.333   6.083   6.048
 9295SOL     OW28783   6.419   0.542   3.067
 9295SOL    HW128784   6.335   0.527   3.015
 9295SOL    HW228785   6.494   0.565   3.005
 9296SOL     OW28786   2.182   3.495   5.791
 9296SOL    HW128787   2.119   3.524   5.863
 9296SOL    HW228788   2.229   3.576   5.754
 9297SOL     OW28789   6.647   5.647   2.134
 9297SOL    HW128790   6.602   5.565   2.099
 9297SOL    HW228791   6.666   5.711   2.059
 9298SOL     OW28792   6.872   5.019   6.927
 9298SOL    HW128793   6.840   4.985   7.015
 9298SOL    HW228794   6.936   4.953   6.887
 9299SOL     OW28795   3.432   2.078   3.981
 9299SOL    HW128796   3.459   2.082   4.077
 9299SOL    HW228797   3.339   2.114   3.971
 9300SOL     OW28798   2.934   5.887   6.276
 9300SOL    HW128799   2.973   5.878   6.185
 9300SOL    HW228800   2.975   5.818   6.337
 9301SOL     OW28801   0.320   3.480   4.720
 9301SOL    HW128802   0.409   3.443   4.748
 9301SOL    HW228803   0.255   3.406   4.706
 9302SOL     OW28804   2.724   5.767   3.738
 9302SOL    HW128805   2.816   5.806   3.729
 9302SOL    HW228806   2.711   5.696   3.669
 9303SOL     OW28807   2.704   4.376   6.711
 9303SOL    HW128808   2.783   4.345   6.658
 9303SOL    HW228809   2.635   4.413   6.650
 9304SOL     OW28810   5.919   5.877   6.418
 9304SOL    HW128811   5.959   5.803   6.363
 9304SOL    HW228812   5.981   5.956   6.418
 9305SOL     OW28813   2.063   1.774   0.862
 9305SOL    HW128814   1.965   1.759   0.868
 9305SOL    HW228815   2.096   1.748   0.771
 9306SOL     OW28816   6.734   5.991   4.085
 9306SOL    HW128817   6.721   6.000   3.986
 9306SOL    HW228818   6.660   6.038   4.133
 9307SOL     OW28819   1.965   4.425   1.112
 9307SOL    HW128820   2.016   4.492   1.166
 9307SOL    HW228821   1.889   4.471   1.065
 9308SOL     OW28822   2.407   3.226   1.057
 9308SOL    HW128823   2.416   3.320   1.025
 9308SOL    HW228824   2.311   3.199   1.053
 9309SOL     OW28825   3.840   5.096   5.776
 9309SOL    HW128826   3.830   5.068   5.681
 9309SOL    HW228827   3.805   5.024   5.836
 9310SOL     OW28828   6.314   6.349   5.829
 9310SOL    HW128829   6.381   6.366   5.901
 9310SOL    HW228830   6.269   6.434   5.804
 9311SOL     OW28831   5.766   4.581   6.880
 9311SOL    HW128832   5.843   4.583   6.817
 9311SOL    HW228833   5.691   4.529   6.839
 9312SOL     OW28834   5.817   3.380   4.017
 9312SOL    HW128835   5.835   3.479   4.011
 9312SOL    HW228836   5.803   3.354   4.112
 9313SOL     OW28837   0.329   0.504   1.830
 9313SOL    HW128838   0.298   0.418   1.791
 9313SOL    HW228839   0.407   0.538   1.777
 9314SOL     OW28840   5.181   4.961   1.502
 9314SOL    HW128841   5.254   4.931   1.441
 9314SOL    HW228842   5.103   4.899   1.494
 9315SOL     OW28843   5.622   5.503   5.685
 9315SOL    HW128844   5.561   5.581   5.687
 9315SOL    HW228845   5.629   5.468   5.592
 9316SOL     OW28846   5.364   5.744   0.287
 9316SOL    HW128847   5.401   5.652   0.275
 9316SOL    HW228848   5.422   5.810   0.240
 9317SOL     OW28849   2.859   6.697   3.470
 9317SOL    HW128850   2.798   6.733   3.540
 9317SOL    HW228851   2.924   6.769   3.442
 9318SOL     OW28852   3.199   0.193   3.382
 9318SOL    HW128853   3.137   0.226   3.310
 9318SOL    HW228854   3.152   0.124   3.437
 9319SOL     OW28855   3.824   2.388   0.981
 9319SOL    HW128856   3.756   2.451   1.018
 9319SOL    HW228857   3.797   2.360   0.888
 9320SOL     OW28858   6.491   0.125   6.910
 9320SOL    HW128859   6.588   0.150   6.907
 9320SOL    HW228860   6.441   0.189   6.969
 9321SOL     OW28861   0.990   2.294   4.371
 9321SOL    HW128862   0.964   2.386   4.343
 9321SOL    HW228863   1.086   2.278   4.348
 9322SOL     OW28864   5.258   3.369   0.241
 9322SOL    HW128865   5.170   3.414   0.258
 9322SOL    HW228866   5.309   3.363   0.327
 9323SOL     OW28867   0.884   2.748   4.974
 9323SOL    HW128868   0.921   2.736   5.066
 9323SOL    HW228869   0.841   2.837   4.966
 9324SOL     OW28870   0.962   4.303   1.120
 9324SOL    HW128871   1.036   4.366   1.143
 9324SOL    HW228872   0.947   4.240   1.195
 9325SOL     OW28873   0.428   4.226   3.171
 9325SOL    HW128874   0.365   4.267   3.105
 9325SOL    HW228875   0.495   4.294   3.200
 9326SOL     OW28876   4.420   4.845   1.063
 9326SOL    HW128877   4.403   4.755   1.105
 9326SOL    HW228878   4.407   4.916   1.131
 9327SOL     OW28879   1.853   1.559   3.489
 9327SOL    HW128880   1.886   1.654   3.483
 9327SOL    HW228881   1.785   1.543   3.417
 9328SOL     OW28882   1.393   0.210   3.799
 9328SOL    HW128883   1.480   0.160   3.804
 9328SOL    HW228884   1.318   0.144   3.788
 9329SOL     OW28885   1.669   5.149   6.007
 9329SOL    HW128886   1.644   5.241   5.978
 9329SOL    HW228887   1.591   5.105   6.052
 9330SOL     OW28888   0.835   6.429   1.116
 9330SOL    HW128889   0.773   6.360   1.079
 9330SOL    HW228890   0.928   6.391   1.121
 9331SOL     OW28891   1.964   4.965   4.781
 9331SOL    HW128892   1.925   4.961   4.689
 9331SOL    HW228893   1.998   4.875   4.808
 9332SOL     OW28894   6.379   5.562   0.542
 9332SOL    HW128895   6.330   5.524   0.620
 9332SOL    HW228896   6.478   5.561   0.560
 9333SOL     OW28897   1.627   5.071   0.566
 9333SOL    HW128898   1.620   5.119   0.654
 9333SOL    HW228899   1.651   4.975   0.583
 9334SOL     OW28900   6.923   5.573   0.371
 9334SOL    HW128901   7.000   5.530   0.417
 9334SOL    HW228902   6.935   5.673   0.371
 9335SOL     OW28903   0.080   3.694   0.780
 9335SOL    HW128904   0.026   3.612   0.799
 9335SOL    HW228905   0.022   3.762   0.735
 9336SOL     OW28906   4.355   5.121   5.393
 9336SOL    HW128907   4.426   5.189   5.411
 9336SOL    HW228908   4.278   5.136   5.455
 9337SOL     OW28909   3.184   1.805   4.526
 9337SOL    HW128910   3.138   1.785   4.613
 9337SOL    HW228911   3.115   1.817   4.454
 9338SOL     OW28912   4.311   6.877   1.743
 9338SOL    HW128913   4.338   6.849   1.835
 9338SOL    HW228914   4.284   6.973   1.744
 9339SOL     OW28915   7.012   3.478   5.043
 9339SOL    HW128916   6.949   3.498   5.118
 9339SOL    HW228917   6.983   3.529   4.961
 9340SOL     OW28918   2.542   4.765   2.421
 9340SOL    HW128919   2.499   4.795   2.336
 9340SOL    HW228920   2.471   4.744   2.489
 9341SOL     OW28921   6.154   5.616   1.182
 9341SOL    HW128922   6.172   5.661   1.095
 9341SOL    HW228923   6.241   5.598   1.229
 9342SOL     OW28924   2.947   0.288   4.542
 9342SOL    HW128925   2.902   0.226   4.606
 9342SOL    HW228926   3.028   0.244   4.503
 9343SOL     OW28927   5.351   3.715   1.465
 9343SOL    HW128928   5.261   3.720   1.509
 9343SOL    HW228929   5.393   3.806   1.466
 9344SOL     OW28930   5.972   6.740   4.787
 9344SOL    HW128931   5.924   6.826   4.768
 9344SOL    HW228932   5.918   6.686   4.852
 9345SOL     OW28933   7.009   4.580   6.257
 9345SOL    HW128934   6.978   4.675   6.265
 9345SOL    HW228935   0.080   4.574   6.285
 9346SOL     OW28936   5.168   0.875   1.938
 9346SOL    HW128937   5.177   0.776   1.929
 9346SOL    HW228938   5.242   0.920   1.887
 9347SOL     OW28939   4.784   6.974   2.169
 9347SOL    HW128940   4.792   6.970   2.269
 9347SOL    HW228941   4.690   6.999   2.144
 9348SOL     OW28942   2.564   5.154   1.593
 9348SOL    HW128943   2.492   5.224   1.597
 9348SOL    HW228944   2.561   5.100   1.677
 9349SOL     OW28945   0.018   5.199   1.459
 9349SOL    HW128946   0.010   5.180   1.557
 9349SOL    HW228947   6.951   5.198   1.418
 9350SOL     OW28948   6.333   0.647   0.021
 9350SOL    HW128949   6.285   0.580   0.078
 9350SOL    HW228950   6.359   0.726   0.077
 9351SOL     OW28951   4.858   4.170   6.358
 9351SOL    HW128952   4.852   4.263   6.321
 9351SOL    HW228953   4.769   4.145   6.397
 9352SOL     OW28954   2.771   1.696   6.743
 9352SOL    HW128955   2.774   1.778   6.800
 9352SOL    HW228956   2.815   1.621   6.791
 9353SOL     OW28957   1.103   2.903   2.275
 9353SOL    HW128958   1.132   2.999   2.277
 9353SOL    HW228959   1.151   2.855   2.201
 9354SOL     OW28960   5.969   2.227   2.473
 9354SOL    HW128961   6.045   2.171   2.441
 9354SOL    HW228962   5.922   2.267   2.394
 9355SOL     OW28963   0.271   1.539   2.095
 9355SOL    HW128964   0.339   1.576   2.158
 9355SOL    HW228965   0.309   1.459   2.048
 9356SOL     OW28966   4.616   2.391   2.228
 9356SOL    HW128967   4.696   2.349   2.271
 9356SOL    HW228968   4.573   2.454   2.292
 9357SOL     OW28969   2.501   4.816   6.644
 9357SOL    HW128970   2.525   4.850   6.734
 9357SOL    HW228971   2.417   4.861   6.613
 9358SOL     OW28972   5.421   4.157   2.748
 9358SOL    HW128973   5.433   4.256   2.753
 9358SOL    HW228974   5.449   4.124   2.657
 9359SOL     OW28975   4.747   4.978   5.961
 9359SOL    HW128976   4.721   5.041   6.034
 9359SOL    HW228977   4.843   4.952   5.972
 9360SOL     OW28978   1.278   0.620   5.351
 9360SOL    HW128979   1.255   0.527   5.378
 9360SOL    HW228980   1.265   0.630   5.252
 9361SOL     OW28981   1.818   1.279   2.379
 9361SOL    HW128982   1.786   1.273   2.284
 9361SOL    HW228983   1.886   1.208   2.396
 9362SOL     OW28984   1.430   1.677   3.290
 9362SOL    HW128985   1.358   1.648   3.228
 9362SOL    HW228986   1.508   1.711   3.237
 9363SOL     OW28987   1.180   6.350   1.874
 9363SOL    HW128988   1.160   6.281   1.943
 9363SOL    HW228989   1.279   6.360   1.865
 9364SOL     OW28990   5.226   4.061   1.343
 9364SOL    HW128991   5.183   3.971   1.355
 9364SOL    HW228992   5.324   4.053   1.361
 9365SOL     OW28993   2.054   1.694   4.000
 9365SOL    HW128994   1.968   1.643   4.008
 9365SOL    HW228995   2.077   1.704   3.903
 9366SOL     OW28996   2.604   1.254   1.610
 9366SOL    HW128997   2.613   1.241   1.511
 9366SOL    HW228998   2.643   1.343   1.635
 9367SOL     OW28999   5.506   6.715   3.708
 9367SOL    HW129000   5.555   6.685   3.790
 9367SOL    HW229001   5.551   6.797   3.671
 9368SOL     OW29002   5.532   3.067   0.646
 9368SOL    HW129003   5.494   3.024   0.565
 9368SOL    HW229004   5.459   3.090   0.710
 9369SOL     OW29005   0.235   1.731   5.127
 9369SOL    HW129006   0.331   1.733   5.101
 9369SOL    HW229007   0.227   1.733   5.227
 9370SOL     OW29008   5.887   5.201   2.275
 9370SOL    HW129009   5.964   5.265   2.283
 9370SOL    HW229010   5.805   5.244   2.312
 9371SOL     OW29011   1.956   6.698   0.569
 9371SOL    HW129012   1.957   6.798   0.559
 9371SOL    HW229013   1.864   6.669   0.595
 9372SOL     OW29014   5.721   5.919   0.501
 9372SOL    HW129015   5.677   5.863   0.571
 9372SOL    HW229016   5.818   5.926   0.520
 9373SOL     OW29017   5.148   3.041   4.124
 9373SOL    HW129018   5.113   2.974   4.190
 9373SOL    HW229019   5.112   3.020   4.033
 9374SOL     OW29020   5.230   3.898   6.612
 9374SOL    HW129021   5.152   3.951   6.579
 9374SOL    HW229022   5.274   3.947   6.687
 9375SOL     OW29023   6.268   0.193   4.129
 9375SOL    HW129024   6.273   0.290   4.154
 9375SOL    HW229025   6.277   0.184   4.029
 9376SOL     OW29026   2.528   3.592   1.690
 9376SOL    HW129027   2.581   3.610   1.773
 9376SOL    HW229028   2.441   3.549   1.713
 9377SOL     OW29029   6.588   4.398   3.687
 9377SOL    HW129030   6.603   4.333   3.762
 9377SOL    HW229031   6.653   4.473   3.695
 9378SOL     OW29032   4.038   6.169   1.017
 9378SOL    HW129033   3.964   6.235   1.025
 9378SOL    HW229034   4.058   6.130   1.107
 9379SOL     OW29035   4.641   4.811   5.500
 9379SOL    HW129036   4.584   4.731   5.519
 9379SOL    HW229037   4.724   4.781   5.453
 9380SOL     OW29038   6.304   5.871   5.470
 9380SOL    HW129039   6.366   5.832   5.402
 9380SOL    HW229040   6.355   5.926   5.536
 9381SOL     OW29041   0.748   1.071   6.992
 9381SOL    HW129042   0.833   1.112   7.024
 9381SOL    HW229043   0.690   1.048   0.045
 9382SOL     OW29044   5.492   1.900   2.909
 9382SOL    HW129045   5.433   1.970   2.949
 9382SOL    HW229046   5.588   1.923   2.927
 9383SOL     OW29047   6.724   5.303   6.293
 9383SOL    HW129048   6.757   5.332   6.203
 9383SOL    HW229049   6.624   5.311   6.295
 9384SOL     OW29050   3.665   0.050   2.661
 9384SOL    HW129051   3.662   6.976   2.677
 9384SOL    HW229052   3.672   0.098   2.749
 9385SOL     OW29053   4.009   7.009   3.399
 9385SOL    HW129054   4.063   6.974   3.476
 9385SOL    HW229055   3.925   0.027   3.434
 9386SOL     OW29056   3.745   0.192   5.305
 9386SOL    HW129057   3.793   0.144   5.379
 9386SOL    HW229058   3.808   0.253   5.258
 9387SOL     OW29059   4.827   5.314   0.466
 9387SOL    HW129060   4.792   5.224   0.491
 9387SOL    HW229061   4.764   5.359   0.403
 9388SOL     OW29062   6.792   0.253   1.703
 9388SOL    HW129063   6.743   0.167   1.685
 9388SOL    HW229064   6.862   0.266   1.633
 9389SOL     OW29065   2.761   0.758   0.753
 9389SOL    HW129066   2.690   0.827   0.770
 9389SOL    HW229067   2.753   0.684   0.820
 9390SOL     OW29068   3.998   5.538   1.058
 9390SOL    HW129069   3.939   5.567   1.133
 9390SOL    HW229070   3.943   5.497   0.986
 9391SOL     OW29071   5.916   1.061   3.652
 9391SOL    HW129072   5.935   1.153   3.686
 9391SOL    HW229073   5.981   1.039   3.579
 9392SOL     OW29074   0.866   6.877   5.167
 9392SOL    HW129075   0.842   6.789   5.208
 9392SOL    HW229076   0.895   6.940   5.239
 9393SOL     OW29077   4.687   1.609   5.635
 9393SOL    HW129078   4.636   1.527   5.608
 9393SOL    HW229079   4.743   1.640   5.558
 9394SOL     OW29080   6.091   2.087   2.234
 9394SOL    HW129081   6.184   2.123   2.238
 9394SOL    HW229082   6.047   2.118   2.150
 9395SOL     OW29083   2.080   2.762   6.339
 9395SOL    HW129084   2.003   2.764   6.402
 9395SOL    HW229085   2.104   2.668   6.318
 9396SOL     OW29086   7.007   0.991   6.196
 9396SOL    HW129087   7.023   1.087   6.174
 9396SOL    HW229088   0.057   0.935   6.158
 9397SOL     OW29089   1.913   1.785   0.261
 9397SOL    HW129090   1.858   1.746   0.335
 9397SOL    HW229091   1.979   1.850   0.299
 9398SOL     OW29092   2.746   1.496   1.632
 9398SOL    HW129093   2.797   1.489   1.546
 9398SOL    HW229094   2.713   1.590   1.644
 9399SOL     OW29095   0.319   0.669   5.994
 9399SOL    HW129096   0.263   0.725   5.932
 9399SOL    HW229097   0.365   0.728   6.060
 9400SOL     OW29098   3.728   1.752   3.914
 9400SOL    HW129099   3.718   1.767   4.012
 9400SOL    HW229100   3.744   1.655   3.896
 9401SOL     OW29101   4.472   6.269   4.119
 9401SOL    HW129102   4.383   6.262   4.074
 9401SOL    HW229103   4.469   6.342   4.187
 9402SOL     OW29104   2.913   4.850   6.327
 9402SOL    HW129105   2.952   4.793   6.400
 9402SOL    HW229106   2.889   4.940   6.364
 9403SOL     OW29107   6.143   7.009   4.259
 9403SOL    HW129108   6.218   0.030   4.212
 9403SOL    HW229109   6.097   6.946   4.195
 9404SOL     OW29110   1.441   4.158   5.333
 9404SOL    HW129111   1.469   4.084   5.394
 9404SOL    HW229112   1.521   4.193   5.284
 9405SOL     OW29113   0.913   0.456   1.067
 9405SOL    HW129114   0.820   0.448   1.102
 9405SOL    HW229115   0.949   0.547   1.088
 9406SOL     OW29116   6.617   1.115   5.325
 9406SOL    HW129117   6.648   1.170   5.248
 9406SOL    HW229118   6.629   1.018   5.303
 9407SOL     OW29119   3.791   5.397   3.090
 9407SOL    HW129120   3.748   5.486   3.104
 9407SOL    HW229121   3.791   5.375   2.992
 9408SOL     OW29122   3.885   2.042   6.491
 9408SOL    HW129123   3.787   2.063   6.494
 9408SOL    HW229124   3.899   1.961   6.433
 9409SOL     OW29125   5.994   3.699   3.381
 9409SOL    HW129126   5.942   3.715   3.297
 9409SOL    HW229127   6.050   3.617   3.370
 9410SOL     OW29128   4.474   6.516   1.585
 9410SOL    HW129129   4.516   6.490   1.672
 9410SOL    HW229130   4.502   6.609   1.561
 9411SOL     OW29131   5.015   5.229   2.143
 9411SOL    HW129132   5.076   5.220   2.222
 9411SOL    HW229133   5.064   5.202   2.060
 9412SOL     OW29134   6.102   2.354   2.966
 9412SOL    HW129135   6.149   2.442   2.964
 9412SOL    HW229136   6.049   2.342   2.882
 9413SOL     OW29137   4.149   5.456   3.458
 9413SOL    HW129138   4.087   5.514   3.405
 9413SOL    HW229139   4.130   5.465   3.555
 9414SOL     OW29140   2.383   0.386   2.388
 9414SOL    HW129141   2.420   0.294   2.371
 9414SOL    HW229142   2.342   0.421   2.305
 9415SOL     OW29143   1.823   0.573   1.921
 9415SOL    HW129144   1.790   0.574   2.015
 9415SOL    HW229145   1.760   0.521   1.864
 9416SOL     OW29146   1.523   2.207   1.330
 9416SOL    HW129147   1.611   2.162   1.350
 9416SOL    HW229148   1.450   2.139   1.330
 9417SOL     OW29149   1.439   0.416   4.812
 9417SOL    HW129150   1.410   0.440   4.905
 9417SOL    HW229151   1.361   0.380   4.761
 9418SOL     OW29152   4.396   4.277   1.122
 9418SOL    HW129153   4.367   4.284   1.027
 9418SOL    HW229154   4.336   4.214   1.171
 9419SOL     OW29155   2.875   5.379   3.648
 9419SOL    HW129156   2.902   5.353   3.740
 9419SOL    HW229157   2.780   5.351   3.632
 9420SOL     OW29158   1.873   0.556   3.581
 9420SOL    HW129159   1.812   0.622   3.625
 9420SOL    HW229160   1.868   0.567   3.481
 9421SOL     OW29161   1.737   5.251   4.996
 9421SOL    HW129162   1.700   5.280   5.085
 9421SOL    HW229163   1.733   5.152   4.989
 9422SOL     OW29164   4.053   1.198   3.037
 9422SOL    HW129165   4.088   1.290   3.021
 9422SOL    HW229166   4.092   1.135   2.970
 9423SOL     OW29167   4.019   0.086   4.556
 9423SOL    HW129168   4.112   0.114   4.529
 9423SOL    HW229169   3.955   0.110   4.483
 9424SOL     OW29170   3.571   5.601   3.293
 9424SOL    HW129171   3.489   5.548   3.273
 9424SOL    HW229172   3.639   5.541   3.335
 9425SOL     OW29173   1.022   5.282   2.802
 9425SOL    HW129174   1.070   5.264   2.716
 9425SOL    HW229175   1.077   5.345   2.858
 9426SOL     OW29176   3.912   5.831   0.878
 9426SOL    HW129177   3.950   5.804   0.967
 9426SOL    HW229178   3.978   5.890   0.831
 9427SOL     OW29179   2.676   4.920   3.922
 9427SOL    HW129180   2.577   4.923   3.938
 9427SOL    HW229181   2.718   4.857   3.987
 9428SOL     OW29182   4.791   6.565   2.553
 9428SOL    HW129183   4.706   6.558   2.606
 9428SOL    HW229184   4.770   6.579   2.457
 9429SOL     OW29185   0.644   3.379   2.682
 9429SOL    HW129186   0.547   3.393   2.667
 9429SOL    HW229187   0.662   3.372   2.780
 9430SOL     OW29188   6.414   6.450   1.533
 9430SOL    HW129189   6.330   6.484   1.575
 9430SOL    HW229190   6.391   6.381   1.464
 9431SOL     OW29191   6.868   4.528   0.265
 9431SOL    HW129192   6.807   4.576   0.328
 9431SOL    HW229193   6.814   4.472   0.203
 9432SOL     OW29194   6.780   6.845   4.335
 9432SOL    HW129195   6.788   6.751   4.301
 9432SOL    HW229196   6.824   6.907   4.271
 9433SOL     OW29197   2.165   5.778   3.948
 9433SOL    HW129198   2.169   5.793   4.046
 9433SOL    HW229199   2.196   5.685   3.926
 9434SOL     OW29200   6.191   4.389   3.428
 9434SOL    HW129201   6.260   4.395   3.501
 9434SOL    HW229202   6.103   4.365   3.467
 9435SOL     OW29203   2.459   2.080   5.300
 9435SOL    HW129204   2.492   2.139   5.226
 9435SOL    HW229205   2.494   2.114   5.387
 9436SOL     OW29206   3.077   1.689   5.512
 9436SOL    HW129207   2.984   1.658   5.534
 9436SOL    HW229208   3.137   1.672   5.590
 9437SOL     OW29209   0.179   5.916   4.557
 9437SOL    HW129210   0.110   5.890   4.625
 9437SOL    HW229211   0.249   5.845   4.552
 9438SOL     OW29212   0.475   6.150   1.805
 9438SOL    HW129213   0.573   6.166   1.792
 9438SOL    HW229214   0.426   6.178   1.723
 9439SOL     OW29215   2.072   3.419   1.091
 9439SOL    HW129216   1.984   3.450   1.054
 9439SOL    HW229217   2.098   3.334   1.047
 9440SOL     OW29218   3.168   5.497   4.235
 9440SOL    HW129219   3.191   5.577   4.179
 9440SOL    HW229220   3.193   5.515   4.330
 9441SOL     OW29221   1.678   5.497   5.440
 9441SOL    HW129222   1.626   5.583   5.450
 9441SOL    HW229223   1.696   5.459   5.531
 9442SOL     OW29224   0.576   3.570   0.965
 9442SOL    HW129225   0.636   3.629   1.018
 9442SOL    HW229226   0.545   3.493   1.021
 9443SOL     OW29227   1.440   2.340   1.590
 9443SOL    HW129228   1.413   2.403   1.517
 9443SOL    HW229229   1.538   2.322   1.585
 9444SOL     OW29230   1.203   4.286   5.828
 9444SOL    HW129231   1.128   4.278   5.762
 9444SOL    HW229232   1.173   4.252   5.917
 9445SOL     OW29233   6.303   2.633   1.836
 9445SOL    HW129234   6.347   2.549   1.866
 9445SOL    HW229235   6.346   2.712   1.880
 9446SOL     OW29236   5.845   4.134   0.024
 9446SOL    HW129237   5.747   4.121   0.033
 9446SOL    HW229238   5.866   4.232   0.016
 9447SOL     OW29239   5.779   1.275   1.807
 9447SOL    HW129240   5.702   1.231   1.761
 9447SOL    HW229241   5.794   1.231   1.896
 9448SOL     OW29242   6.078   6.338   0.641
 9448SOL    HW129243   6.119   6.386   0.564
 9448SOL    HW229244   6.083   6.239   0.626
 9449SOL     OW29245   5.775   5.582   5.199
 9449SOL    HW129246   5.844   5.654   5.187
 9449SOL    HW229247   5.793   5.507   5.136
 9450SOL     OW29248   2.258   6.189   3.990
 9450SOL    HW129249   2.349   6.149   4.000
 9450SOL    HW229250   2.229   6.184   3.895
 9451SOL     OW29251   3.857   3.573   5.445
 9451SOL    HW129252   3.955   3.559   5.457
 9451SOL    HW229253   3.821   3.505   5.381
 9452SOL     OW29254   3.376   3.963   0.947
 9452SOL    HW129255   3.465   3.920   0.932
 9452SOL    HW229256   3.375   4.006   1.038
 9453SOL     OW29257   3.350   5.729   1.256
 9453SOL    HW129258   3.447   5.753   1.254
 9453SOL    HW229259   3.340   5.630   1.245
 9454SOL     OW29260   2.309   2.352   5.971
 9454SOL    HW129261   2.396   2.401   5.966
 9454SOL    HW229262   2.325   2.256   5.993
 9455SOL     OW29263   1.683   2.197   2.488
 9455SOL    HW129264   1.599   2.233   2.530
 9455SOL    HW229265   1.729   2.136   2.552
 9456SOL     OW29266   1.293   3.121   0.510
 9456SOL    HW129267   1.265   3.137   0.415
 9456SOL    HW229268   1.211   3.113   0.568
 9457SOL     OW29269   6.228   4.032   0.020
 9457SOL    HW129270   6.194   4.062   6.955
 9457SOL    HW229271   6.300   4.094   0.051
 9458SOL     OW29272   1.229   6.152   4.493
 9458SOL    HW129273   1.183   6.068   4.524
 9458SOL    HW229274   1.179   6.232   4.525
 9459SOL     OW29275   4.452   6.052   0.840
 9459SOL    HW129276   4.546   6.080   0.822
 9459SOL    HW229277   4.415   6.003   0.762
 9460SOL     OW29278   1.281   3.918   5.548
 9460SOL    HW129279   1.338   3.890   5.470
 9460SOL    HW229280   1.219   3.990   5.519
 9461SOL     OW29281   1.416   0.373   2.508
 9461SOL    HW129282   1.447   0.303   2.445
 9461SOL    HW229283   1.365   0.443   2.458
 9462SOL     OW29284   0.456   2.796   3.619
 9462SOL    HW129285   0.493   2.754   3.536
 9462SOL    HW229286   0.373   2.847   3.596
 9463SOL     OW29287   5.826   2.389   6.457
 9463SOL    HW129288   5.879   2.318   6.410
 9463SOL    HW229289   5.881   2.428   6.531
 9464SOL     OW29290   4.491   6.291   6.019
 9464SOL    HW129291   4.537   6.227   5.957
 9464SOL    HW229292   4.407   6.324   5.976
 9465SOL     OW29293   4.985   6.522   4.305
 9465SOL    HW129294   4.967   6.441   4.250
 9465SOL    HW229295   5.013   6.495   4.397
 9466SOL     OW29296   3.460   1.722   0.043
 9466SOL    HW129297   3.524   1.668   7.012
 9466SOL    HW229298   3.397   1.660   0.090
 9467SOL     OW29299   1.760   3.047   2.247
 9467SOL    HW129300   1.818   3.011   2.173
 9467SOL    HW229301   1.666   3.016   2.232
 9468SOL     OW29302   0.789   2.149   5.812
 9468SOL    HW129303   0.825   2.098   5.734
 9468SOL    HW229304   0.706   2.105   5.846
 9469SOL     OW29305   6.932   4.064   2.730
 9469SOL    HW129306   6.994   4.058   2.809
 9469SOL    HW229307   6.977   4.115   2.657
 9470SOL     OW29308   6.776   3.414   0.947
 9470SOL    HW129309   6.794   3.494   0.890
 9470SOL    HW229310   6.738   3.341   0.891
 9471SOL     OW29311   0.234   2.438   5.998
 9471SOL    HW129312   0.320   2.386   6.004
 9471SOL    HW229313   0.253   2.535   6.011
 9472SOL     OW29314   6.587   2.208   5.256
 9472SOL    HW129315   6.588   2.306   5.239
 9472SOL    HW229316   6.535   2.189   5.340
 9473SOL     OW29317   2.743   5.130   5.227
 9473SOL    HW129318   2.668   5.068   5.203
 9473SOL    HW229319   2.809   5.132   5.152
 9474SOL     OW29320   3.664   5.570   3.736
 9474SOL    HW129321   3.692   5.485   3.781
 9474SOL    HW229322   3.724   5.587   3.658
 9475SOL     OW29323   2.016   3.446   1.372
 9475SOL    HW129324   2.019   3.431   1.273
 9475SOL    HW229325   2.081   3.385   1.417
 9476SOL     OW29326   2.456   4.104   5.520
 9476SOL    HW129327   2.490   4.021   5.476
 9476SOL    HW229328   2.417   4.165   5.452
 9477SOL     OW29329   0.603   2.013   0.508
 9477SOL    HW129330   0.611   2.080   0.434
 9477SOL    HW229331   0.541   2.048   0.578
 9478SOL     OW29332   5.615   4.039   6.013
 9478SOL    HW129333   5.670   4.052   6.096
 9478SOL    HW229334   5.617   4.123   5.958
 9479SOL     OW29335   5.233   4.967   5.057
 9479SOL    HW129336   5.138   4.996   5.046
 9479SOL    HW229337   5.266   4.993   5.148
 9480SOL     OW29338   6.418   3.952   6.426
 9480SOL    HW129339   6.449   3.990   6.513
 9480SOL    HW229340   6.415   3.853   6.432
 9481SOL     OW29341   0.220   2.475   2.906
 9481SOL    HW129342   0.177   2.458   2.995
 9481SOL    HW229343   0.319   2.472   2.915
 9482SOL     OW29344   4.737   0.441   2.267
 9482SOL    HW129345   4.658   0.475   2.217
 9482SOL    HW229346   4.805   0.515   2.276
 9483SOL     OW29347   1.114   1.152   0.578
 9483SOL    HW129348   1.088   1.200   0.494
 9483SOL    HW229349   1.049   1.174   0.651
 9484SOL     OW29350   6.086   0.442   3.553
 9484SOL    HW129351   6.136   0.395   3.479
 9484SOL    HW229352   6.143   0.515   3.590
 9485SOL     OW29353   0.732   0.002   2.452
 9485SOL    HW129354   0.830   0.017   2.463
 9485SOL    HW229355   0.714   6.983   2.364
 9486SOL     OW29356   2.387   6.762   2.051
 9486SOL    HW129357   2.434   6.815   1.981
 9486SOL    HW229358   2.440   6.765   2.136
 9487SOL     OW29359   3.622   3.693   3.892
 9487SOL    HW129360   3.692   3.759   3.865
 9487SOL    HW229361   3.541   3.741   3.925
 9488SOL     OW29362   1.514   0.895   1.666
 9488SOL    HW129363   1.546   0.845   1.586
 9488SOL    HW229364   1.583   0.891   1.738
 9489SOL     OW29365   2.762   4.597   0.437
 9489SOL    HW129366   2.788   4.678   0.489
 9489SOL    HW229367   2.726   4.527   0.499
 9490SOL     OW29368   4.949   1.436   6.908
 9490SOL    HW129369   5.042   1.467   6.890
 9490SOL    HW229370   4.900   1.427   6.821
 9491SOL     OW29371   5.998   5.886   6.092
 9491SOL    HW129372   6.015   5.984   6.101
 9491SOL    HW229373   5.950   5.868   6.006
 9492SOL     OW29374   2.606   4.746   1.358
 9492SOL    HW129375   2.594   4.683   1.434
 9492SOL    HW229376   2.519   4.788   1.335
 9493SOL     OW29377   5.197   6.317   2.679
 9493SOL    HW129378   5.194   6.292   2.776
 9493SOL    HW229379   5.162   6.409   2.667
 9494SOL     OW29380   3.740   3.213   6.499
 9494SOL    HW129381   3.806   3.245   6.567
 9494SOL    HW229382   3.650   3.204   6.542
 9495SOL     OW29383   5.298   2.253   4.469
 9495SOL    HW129384   5.203   2.239   4.443
 9495SOL    HW229385   5.341   2.318   4.406
 9496SOL     OW29386   6.366   4.417   0.434
 9496SOL    HW129387   6.307   4.400   0.355
 9496SOL    HW229388   6.334   4.364   0.512
 9497SOL     OW29389   0.885   5.997   6.230
 9497SOL    HW129390   0.951   5.925   6.251
 9497SOL    HW229391   0.795   5.973   6.266
 9498SOL     OW29392   4.035   6.960   6.556
 9498SOL    HW129393   3.944   6.997   6.574
 9498SOL    HW229394   4.039   6.922   6.463
 9499SOL     OW29395   4.637   3.789   5.526
 9499SOL    HW129396   4.543   3.800   5.494
 9499SOL    HW229397   4.654   3.851   5.602
 9500SOL     OW29398   4.782   5.583   1.111
 9500SOL    HW129399   4.851   5.653   1.127
 9500SOL    HW229400   4.727   5.572   1.194
 9501SOL     OW29401   3.456   1.992   4.891
 9501SOL    HW129402   3.436   2.048   4.811
 9501SOL    HW229403   3.449   2.049   4.973
 9502SOL     OW29404   3.472   3.304   5.705
 9502SOL    HW129405   3.445   3.294   5.609
 9502SOL    HW229406   3.405   3.361   5.752
 9503SOL     OW29407   1.320   6.764   1.558
 9503SOL    HW129408   1.232   6.791   1.519
 9503SOL    HW229409   1.392   6.774   1.490
 9504SOL     OW29410   0.611   3.110   0.436
 9504SOL    HW129411   0.533   3.173   0.436
 9504SOL    HW229412   0.684   3.148   0.493
 9505SOL     OW29413   5.263   3.154   2.763
 9505SOL    HW129414   5.171   3.118   2.779
 9505SOL    HW229415   5.262   3.253   2.775
 9506SOL     OW29416   6.695   2.008   1.388
 9506SOL    HW129417   6.722   1.920   1.427
 9506SOL    HW229418   6.684   2.075   1.462
 9507SOL     OW29419   1.285   2.760   5.373
 9507SOL    HW129420   1.309   2.685   5.312
 9507SOL    HW229421   1.346   2.760   5.452
 9508SOL     OW29422   4.750   1.111   5.953
 9508SOL    HW129423   4.740   1.119   6.053
 9508SOL    HW229424   4.795   1.193   5.918
 9509SOL     OW29425   3.676   7.003   6.106
 9509SOL    HW129426   3.726   0.062   6.082
 9509SOL    HW229427   3.703   6.929   6.045
 9510SOL     OW29428   6.121   4.271   2.797
 9510SOL    HW129429   6.031   4.313   2.790
 9510SOL    HW229430   6.112   4.182   2.842
 9511SOL     OW29431   2.153   1.462   1.165
 9511SOL    HW129432   2.068   1.510   1.184
 9511SOL    HW229433   2.132   1.372   1.127
 9512SOL     OW29434   1.370   3.606   5.098
 9512SOL    HW129435   1.275   3.626   5.071
 9512SOL    HW229436   1.422   3.691   5.102
 9513SOL     OW29437   2.392   4.333   4.644
 9513SOL    HW129438   2.335   4.325   4.562
 9513SOL    HW229439   2.388   4.248   4.696
 9514SOL     OW29440   3.128   2.831   6.042
 9514SOL    HW129441   3.177   2.874   5.966
 9514SOL    HW229442   3.056   2.772   6.007
 9515SOL     OW29443   1.965   5.758   6.009
 9515SOL    HW129444   2.036   5.765   5.939
 9515SOL    HW229445   2.005   5.779   6.099
 9516SOL     OW29446   5.681   4.547   4.994
 9516SOL    HW129447   5.583   4.542   4.977
 9516SOL    HW229448   5.722   4.456   4.985
 9517SOL     OW29449   0.664   5.358   3.030
 9517SOL    HW129450   0.566   5.368   3.042
 9517SOL    HW229451   0.712   5.421   3.091
 9518SOL     OW29452   0.883   2.807   5.751
 9518SOL    HW129453   0.873   2.896   5.707
 9518SOL    HW229454   0.979   2.781   5.752
 9519SOL     OW29455   3.365   3.320   3.324
 9519SOL    HW129456   3.400   3.284   3.238
 9519SOL    HW229457   3.357   3.419   3.318
 9520SOL     OW29458   5.376   0.926   6.767
 9520SOL    HW129459   5.423   0.880   6.692
 9520SOL    HW229460   5.348   0.859   6.836
 9521SOL     OW29461   3.555   1.121   1.185
 9521SOL    HW129462   3.532   1.107   1.281
 9521SOL    HW229463   3.524   1.211   1.156
 9522SOL     OW29464   3.691   6.230   1.347
 9522SOL    HW129465   3.717   6.276   1.432
 9522SOL    HW229466   3.665   6.299   1.279
 9523SOL     OW29467   2.338   4.894   4.806
 9523SOL    HW129468   2.287   4.960   4.862
 9523SOL    HW229469   2.435   4.899   4.828
 9524SOL     OW29470   1.979   4.558   0.240
 9524SOL    HW129471   2.027   4.503   0.309
 9524SOL    HW229472   2.046   4.600   0.178
 9525SOL     OW29473   2.422   3.339   6.256
 9525SOL    HW129474   2.407   3.432   6.224
 9525SOL    HW229475   2.487   3.340   6.333
 9526SOL     OW29476   5.363   5.212   6.163
 9526SOL    HW129477   5.288   5.265   6.203
 9526SOL    HW229478   5.444   5.220   6.221
 9527SOL     OW29479   3.721   6.681   4.618
 9527SOL    HW129480   3.736   6.619   4.694
 9527SOL    HW229481   3.626   6.714   4.620
 9528SOL     OW29482   5.026   2.286   0.374
 9528SOL    HW129483   4.987   2.244   0.456
 9528SOL    HW229484   5.038   2.384   0.389
 9529SOL     OW29485   5.615   0.815   1.820
 9529SOL    HW129486   5.550   0.843   1.749
 9529SOL    HW229487   5.707   0.844   1.794
 9530SOL     OW29488   0.761   5.839   4.053
 9530SOL    HW129489   0.801   5.875   4.137
 9530SOL    HW229490   0.779   5.903   3.978
 9531SOL     OW29491   3.429   5.303   1.899
 9531SOL    HW129492   3.424   5.246   1.817
 9531SOL    HW229493   3.425   5.245   1.980
 9532SOL     OW29494   6.832   4.753   4.215
 9532SOL    HW129495   6.891   4.698   4.274
 9532SOL    HW229496   6.803   4.699   4.137
 9533SOL     OW29497   1.323   3.883   3.713
 9533SOL    HW129498   1.352   3.803   3.765
 9533SOL    HW229499   1.277   3.947   3.775
 9534SOL     OW29500   4.524   5.785   4.321
 9534SOL    HW129501   4.434   5.743   4.334
 9534SOL    HW229502   4.513   5.884   4.309
 9535SOL     OW29503   0.424   1.299   4.637
 9535SOL    HW129504   0.470   1.267   4.554
 9535SOL    HW229505   0.378   1.221   4.681
 9536SOL     OW29506   3.569   3.637   5.603
 9536SOL    HW129507   3.487   3.638   5.546
 9536SOL    HW229508   3.643   3.684   5.555
 9537SOL     OW29509   7.004   1.034   4.081
 9537SOL    HW129510   6.947   0.956   4.058
 9537SOL    HW229511   6.956   1.094   4.145
 9538SOL     OW29512   5.555   0.524   4.695
 9538SOL    HW129513   5.619   0.485   4.762
 9538SOL    HW229514   5.586   0.501   4.603
 9539SOL     OW29515   3.715   3.989   2.767
 9539SOL    HW129516   3.785   4.009   2.836
 9539SOL    HW229517   3.744   4.026   2.679
 9540SOL     OW29518   4.317   4.838   3.601
 9540SOL    HW129519   4.235   4.877   3.560
 9540SOL    HW229520   4.374   4.911   3.639
 9541SOL     OW29521   1.452   6.012   5.592
 9541SOL    HW129522   1.391   5.940   5.624
 9541SOL    HW229523   1.411   6.058   5.513
 9542SOL     OW29524   6.241   4.290   3.034
 9542SOL    HW129525   6.198   4.363   3.088
 9542SOL    HW229526   6.183   4.268   2.956
 9543SOL     OW29527   2.548   0.498   5.884
 9543SOL    HW129528   2.602   0.423   5.922
 9543SOL    HW229529   2.509   0.553   5.959
 9544SOL     OW29530   6.128   3.447   4.400
 9544SOL    HW129531   6.202   3.380   4.408
 9544SOL    HW229532   6.059   3.427   4.469
 9545SOL     OW29533   6.694   4.331   2.039
 9545SOL    HW129534   6.717   4.427   2.022
 9545SOL    HW229535   6.606   4.326   2.085
 9546SOL     OW29536   2.951   2.781   1.281
 9546SOL    HW129537   2.866   2.830   1.266
 9546SOL    HW229538   2.950   2.696   1.227
 9547SOL     OW29539   4.222   0.454   3.640
 9547SOL    HW129540   4.265   0.533   3.597
 9547SOL    HW229541   4.292   0.393   3.677
 9548SOL     OW29542   0.719   5.252   6.104
 9548SOL    HW129543   0.751   5.235   6.011
 9548SOL    HW229544   0.761   5.187   6.167
 9549SOL     OW29545   3.942   1.708   1.647
 9549SOL    HW129546   4.022   1.714   1.707
 9549SOL    HW229547   3.890   1.793   1.651
 9550SOL     OW29548   6.502   2.541   1.411
 9550SOL    HW129549   6.523   2.521   1.507
 9550SOL    HW229550   6.578   2.511   1.353
 9551SOL     OW29551   5.832   2.754   6.621
 9551SOL    HW129552   5.800   2.745   6.715
 9551SOL    HW229553   5.930   2.733   6.617
 9552SOL     OW29554   2.869   1.587   0.118
 9552SOL    HW129555   2.815   1.511   0.081
 9552SOL    HW229556   2.966   1.567   0.108
 9553SOL     OW29557   5.610   1.572   0.146
 9553SOL    HW129558   5.586   1.552   0.241
 9553SOL    HW229559   5.658   1.659   0.142
 9554SOL     OW29560   2.899   1.130   4.358
 9554SOL    HW129561   2.895   1.081   4.446
 9554SOL    HW229562   2.881   1.227   4.374
 9555SOL     OW29563   0.141   6.172   3.579
 9555SOL    HW129564   0.088   6.183   3.663
 9555SOL    HW229565   0.114   6.242   3.513
 9556SOL     OW29566   2.357   4.576   6.105
 9556SOL    HW129567   2.427   4.565   6.176
 9556SOL    HW229568   2.400   4.613   6.022
 9557SOL     OW29569   5.800   0.822   1.269
 9557SOL    HW129570   5.805   0.879   1.187
 9557SOL    HW229571   5.813   0.880   1.350
 9558SOL     OW29572   4.768   6.258   6.311
 9558SOL    HW129573   4.847   6.215   6.354
 9558SOL    HW229574   4.798   6.336   6.256
 9559SOL     OW29575   2.378   5.004   6.994
 9559SOL    HW129576   2.383   5.002   0.070
 9559SOL    HW229577   2.340   5.092   6.965
 9560SOL     OW29578   2.654   0.168   2.638
 9560SOL    HW129579   2.690   0.154   2.731
 9560SOL    HW229580   2.658   0.265   2.616
 9561SOL     OW29581   0.036   0.463   6.767
 9561SOL    HW129582   0.105   0.399   6.801
 9561SOL    HW229583   6.998   0.416   6.705
 9562SOL     OW29584   1.861   5.927   2.816
 9562SOL    HW129585   1.814   6.004   2.859
 9562SOL    HW229586   1.835   5.842   2.863
 9563SOL     OW29587   1.204   5.977   6.260
 9563SOL    HW129588   1.297   5.972   6.223
 9563SOL    HW229589   1.150   6.043   6.206
 9564SOL     OW29590   1.547   1.376   0.685
 9564SOL    HW129591   1.518   1.339   0.598
 9564SOL    HW229592   1.635   1.336   0.712
 9565SOL     OW29593   2.482   1.914   4.480
 9565SOL    HW129594   2.394   1.915   4.433
 9565SOL    HW229595   2.514   1.820   4.489
 9566SOL     OW29596   3.012   0.237   0.268
 9566SOL    HW129597   2.969   0.175   0.202
 9566SOL    HW229598   3.021   0.191   0.356
 9567SOL     OW29599   0.307   4.128   1.186
 9567SOL    HW129600   0.227   4.181   1.160
 9567SOL    HW229601   0.317   4.050   1.125
 9568SOL     OW29602   4.555   1.908   6.146
 9568SOL    HW129603   4.469   1.951   6.173
 9568SOL    HW229604   4.599   1.867   6.226
 9569SOL     OW29605   5.678   0.212   2.189
 9569SOL    HW129606   5.635   0.203   2.099
 9569SOL    HW229607   5.632   0.285   2.240
 9570SOL     OW29608   0.817   3.332   1.737
 9570SOL    HW129609   0.904   3.347   1.689
 9570SOL    HW229610   0.834   3.285   1.823
 9571SOL     OW29611   1.481   1.388   6.661
 9571SOL    HW129612   1.459   1.456   6.591
 9571SOL    HW229613   1.429   1.305   6.645
 9572SOL     OW29614   1.994   4.764   4.103
 9572SOL    HW129615   2.053   4.746   4.024
 9572SOL    HW229616   1.922   4.827   4.076
 9573SOL     OW29617   5.922   0.232   4.278
 9573SOL    HW129618   6.014   0.194   4.273
 9573SOL    HW229619   5.905   0.265   4.370
 9574SOL     OW29620   4.350   2.846   0.247
 9574SOL    HW129621   4.389   2.902   0.320
 9574SOL    HW229622   4.375   2.885   0.158
 9575SOL     OW29623   5.308   6.985   2.133
 9575SOL    HW129624   5.251   7.007   2.212
 9575SOL    HW229625   5.308   0.037   2.069
 9576SOL     OW29626   1.362   1.140   6.449
 9576SOL    HW129627   1.300   1.144   6.527
 9576SOL    HW229628   1.332   1.069   6.385
 9577SOL     OW29629   6.473   4.914   3.462
 9577SOL    HW129630   6.547   4.894   3.398
 9577SOL    HW229631   6.510   4.922   3.554
 9578SOL     OW29632   1.759   3.308   2.349
 9578SOL    HW129633   1.759   3.214   2.315
 9578SOL    HW229634   1.800   3.368   2.281
 9579SOL     OW29635   6.151   5.887   2.456
 9579SOL    HW129636   6.190   5.803   2.495
 9579SOL    HW229637   6.116   5.945   2.529
 9580SOL     OW29638   4.798   4.046   3.351
 9580SOL    HW129639   4.737   4.125   3.346
 9580SOL    HW229640   4.798   4.010   3.444
 9581SOL     OW29641   5.400   2.029   6.418
 9581SOL    HW129642   5.431   2.031   6.513
 9581SOL    HW229643   5.470   2.070   6.360
 9582SOL     OW29644   5.000   6.723   4.660
 9582SOL    HW129645   5.030   6.643   4.608
 9582SOL    HW229646   5.072   6.750   4.723
 9583SOL     OW29647   3.601   4.959   1.732
 9583SOL    HW129648   3.640   4.897   1.800
 9583SOL    HW229649   3.597   4.912   1.643
 9584SOL     OW29650   2.508   5.061   4.313
 9584SOL    HW129651   2.578   4.991   4.299
 9584SOL    HW229652   2.546   5.137   4.365
 9585SOL     OW29653   4.494   6.674   0.788
 9585SOL    HW129654   4.491   6.769   0.756
 9585SOL    HW229655   4.544   6.669   0.874
 9586SOL     OW29656   3.182   5.440   2.790
 9586SOL    HW129657   3.182   5.342   2.770
 9586SOL    HW229658   3.233   5.457   2.874
 9587SOL     OW29659   3.472   6.350   0.755
 9587SOL    HW129660   3.449   6.443   0.784
 9587SOL    HW229661   3.568   6.331   0.775
 9588SOL     OW29662   6.617   6.096   0.002
 9588SOL    HW129663   6.682   6.021   0.005
 9588SOL    HW229664   6.661   6.177   6.987
 9589SOL     OW29665   1.709   2.188   6.238
 9589SOL    HW129666   1.699   2.203   6.139
 9589SOL    HW229667   1.622   2.154   6.275
 9590SOL     OW29668   6.528   0.408   1.085
 9590SOL    HW129669   6.512   0.320   1.130
 9590SOL    HW229670   6.595   0.460   1.138
 9591SOL     OW29671   5.188   0.987   0.459
 9591SOL    HW129672   5.188   1.086   0.444
 9591SOL    HW229673   5.276   0.949   0.432
 9592SOL     OW29674   2.527   6.278   5.588
 9592SOL    HW129675   2.580   6.261   5.671
 9592SOL    HW229676   2.505   6.191   5.544
 9593SOL     OW29677   2.138   2.565   4.158
 9593SOL    HW129678   2.059   2.504   4.169
 9593SOL    HW229679   2.106   2.660   4.159
 9594SOL     OW29680   0.118   6.376   3.382
 9594SOL    HW129681   0.079   6.465   3.360
 9594SOL    HW229682   0.212   6.371   3.347
 9595SOL     OW29683   0.434   3.619   3.610
 9595SOL    HW129684   0.464   3.539   3.557
 9595SOL    HW229685   0.347   3.652   3.575
 9596SOL     OW29686   1.396   6.783   0.541
 9596SOL    HW129687   1.333   6.707   0.556
 9596SOL    HW229688   1.432   6.814   0.628
 9597SOL     OW29689   1.224   3.329   1.826
 9597SOL    HW129690   1.172   3.347   1.742
 9597SOL    HW229691   1.310   3.380   1.824
 9598SOL     OW29692   2.269   4.177   4.336
 9598SOL    HW129693   2.178   4.215   4.354
 9598SOL    HW229694   2.312   4.227   4.260
 9599SOL     OW29695   4.626   6.929   4.378
 9599SOL    HW129696   4.594   7.022   4.396
 9599SOL    HW229697   4.724   6.931   4.358
 9600SOL     OW29698   3.973   1.365   1.307
 9600SOL    HW129699   3.916   1.284   1.293
 9600SOL    HW229700   3.984   1.383   1.405
 9601SOL     OW29701   1.008   3.515   0.628
 9601SOL    HW129702   0.972   3.607   0.638
 9601SOL    HW229703   1.087   3.503   0.688
 9602SOL     OW29704   4.201   4.423   5.583
 9602SOL    HW129705   4.114   4.389   5.618
 9602SOL    HW229706   4.220   4.379   5.495
 9603SOL     OW29707   5.106   6.970   5.393
 9603SOL    HW129708   5.171   6.919   5.448
 9603SOL    HW229709   5.077   0.028   5.442
 9604SOL     OW29710   4.645   6.896   1.307
 9604SOL    HW129711   4.740   6.923   1.287
 9604SOL    HW229712   4.583   6.959   1.261
 9605SOL     OW29713   5.277   5.414   1.567
 9605SOL    HW129714   5.325   5.332   1.599
 9605SOL    HW229715   5.223   5.391   1.486
 9606SOL     OW29716   0.968   1.204   6.698
 9606SOL    HW129717   0.918   1.169   6.619
 9606SOL    HW229718   0.946   1.301   6.712
 9607SOL     OW29719   1.863   2.223   6.485
 9607SOL    HW129720   1.773   2.255   6.515
 9607SOL    HW229721   1.861   2.208   6.386
 9608SOL     OW29722   6.005   2.504   4.723
 9608SOL    HW129723   6.048   2.503   4.633
 9608SOL    HW229724   5.923   2.445   4.721
 9609SOL     OW29725   4.660   2.785   0.326
 9609SOL    HW129726   4.724   2.854   0.359
 9609SOL    HW229727   4.576   2.788   0.381
 9610SOL     OW29728   0.968   4.759   2.877
 9610SOL    HW129729   1.001   4.849   2.906
 9610SOL    HW229730   1.041   4.710   2.829
 9611SOL     OW29731   2.039   0.748   0.268
 9611SOL    HW129732   2.047   0.651   0.244
 9611SOL    HW229733   2.052   0.758   0.367
 9612SOL     OW29734   0.380   2.049   3.721
 9612SOL    HW129735   0.370   1.951   3.739
 9612SOL    HW229736   0.374   2.099   3.807
 9613SOL     OW29737   6.250   4.658   3.590
 9613SOL    HW129738   6.329   4.714   3.565
 9613SOL    HW229739   6.280   4.577   3.640
 9614SOL     OW29740   4.406   2.211   3.223
 9614SOL    HW129741   4.490   2.169   3.259
 9614SOL    HW229742   4.430   2.275   3.150
 9615SOL     OW29743   1.912   4.369   1.829
 9615SOL    HW129744   1.945   4.397   1.738
 9615SOL    HW229745   1.979   4.307   1.870
 9616SOL     OW29746   4.166   3.521   6.398
 9616SOL    HW129747   4.095   3.562   6.340
 9616SOL    HW229748   4.162   3.421   6.390
 9617SOL     OW29749   1.711   3.046   2.533
 9617SOL    HW129750   1.691   3.137   2.571
 9617SOL    HW229751   1.729   3.054   2.435
 9618SOL     OW29752   2.532   2.055   0.544
 9618SOL    HW129753   2.587   2.047   0.627
 9618SOL    HW229754   2.438   2.079   0.568
 9619SOL     OW29755   2.395   0.537   6.845
 9619SOL    HW129756   2.433   0.451   6.811
 9619SOL    HW229757   2.350   0.586   6.770
 9620SOL     OW29758   5.260   0.685   5.309
 9620SOL    HW129759   5.296   0.656   5.397
 9620SOL    HW229760   5.327   0.743   5.263
 9621SOL     OW29761   1.843   3.844   3.170
 9621SOL    HW129762   1.822   3.845   3.268
 9621SOL    HW229763   1.859   3.750   3.140
 9622SOL     OW29764   4.865   0.290   0.241
 9622SOL    HW129765   4.958   0.255   0.246
 9622SOL    HW229766   4.851   0.358   0.314
 9623SOL     OW29767   2.202   4.052   7.022
 9623SOL    HW129768   2.177   4.087   6.932
 9623SOL    HW229769   2.131   3.988   0.028
 9624SOL     OW29770   6.503   2.827   3.984
 9624SOL    HW129771   6.454   2.907   3.949
 9624SOL    HW229772   6.561   2.855   4.061
 9625SOL     OW29773   5.636   6.205   1.421
 9625SOL    HW129774   5.736   6.200   1.426
 9625SOL    HW229775   5.597   6.117   1.447
 9626SOL     OW29776   3.561   0.249   0.663
 9626SOL    HW129777   3.656   0.225   0.679
 9626SOL    HW229778   3.556   0.322   0.595
 9627SOL     OW29779   0.848   0.131   6.843
 9627SOL    HW129780   0.839   0.230   6.838
 9627SOL    HW229781   0.933   0.102   6.798
 9628SOL     OW29782   3.117   0.002   1.919
 9628SOL    HW129783   3.139   6.930   1.926
 9628SOL    HW229784   3.018   0.013   1.906
 9629SOL     OW29785   2.468   0.161   1.097
 9629SOL    HW129786   2.524   0.184   1.018
 9629SOL    HW229787   2.424   0.072   1.082
 9630SOL     OW29788   6.701   2.185   6.447
 9630SOL    HW129789   6.782   2.127   6.452
 9630SOL    HW229790   6.684   2.227   6.536
 9631SOL     OW29791   6.744   6.434   0.068
 9631SOL    HW129792   6.812   6.387   0.124
 9631SOL    HW229793   6.674   6.473   0.127
 9632SOL     OW29794   1.137   5.553   2.534
 9632SOL    HW129795   1.060   5.612   2.511
 9632SOL    HW229796   1.183   5.523   2.450
 9633SOL     OW29797   6.889   5.326   6.503
 9633SOL    HW129798   6.833   5.316   6.420
 9633SOL    HW229799   6.937   5.240   6.521
 9634SOL     OW29800   0.816   6.161   6.026
 9634SOL    HW129801   0.720   6.189   6.031
 9634SOL    HW229802   0.832   6.086   6.091
 9635SOL     OW29803   0.061   6.204   5.371
 9635SOL    HW129804   0.142   6.257   5.345
 9635SOL    HW229805   0.085   6.137   5.441
 9636SOL     OW29806   4.091   1.552   0.163
 9636SOL    HW129807   4.142   1.637   0.158
 9636SOL    HW229808   4.154   1.476   0.180
 9637SOL     OW29809   2.523   0.824   6.480
 9637SOL    HW129810   2.537   0.854   6.385
 9637SOL    HW229811   2.449   0.878   6.521
 9638SOL     OW29812   6.961   2.547   6.939
 9638SOL    HW129813   6.887   2.596   6.893
 9638SOL    HW229814   6.968   2.454   6.901
 9639SOL     OW29815   3.384   0.137   2.588
 9639SOL    HW129816   3.386   0.235   2.608
 9639SOL    HW229817   3.462   0.092   2.633
 9640SOL     OW29818   0.938   1.130   2.706
 9640SOL    HW129819   0.931   1.055   2.773
 9640SOL    HW229820   0.963   1.093   2.617
 9641SOL     OW29821   5.388   5.926   6.476
 9641SOL    HW129822   5.328   5.880   6.410
 9641SOL    HW229823   5.347   5.920   6.567
 9642SOL     OW29824   3.561   6.699   3.704
 9642SOL    HW129825   3.655   6.704   3.737
 9642SOL    HW229826   3.524   6.791   3.695
 9643SOL     OW29827   4.147   4.847   3.162
 9643SOL    HW129828   4.224   4.911   3.165
 9643SOL    HW229829   4.139   4.802   3.251
 9644SOL     OW29830   2.826   1.314   0.284
 9644SOL    HW129831   2.861   1.340   0.374
 9644SOL    HW229832   2.745   1.368   0.263
 9645SOL     OW29833   2.580   5.421   4.847
 9645SOL    HW129834   2.615   5.329   4.828
 9645SOL    HW229835   2.512   5.417   4.920
 9646SOL     OW29836   3.819   5.400   4.019
 9646SOL    HW129837   3.740   5.396   4.081
 9646SOL    HW229838   3.900   5.363   4.066
 9647SOL     OW29839   6.538   3.143   5.993
 9647SOL    HW129840   6.622   3.108   5.951
 9647SOL    HW229841   6.468   3.072   5.991
 9648SOL     OW29842   4.296   3.842   1.024
 9648SOL    HW129843   4.252   3.922   0.984
 9648SOL    HW229844   4.395   3.847   1.010
 9649SOL     OW29845   2.273   5.336   2.040
 9649SOL    HW129846   2.314   5.343   2.131
 9649SOL    HW229847   2.173   5.331   2.049
 9650SOL     OW29848   1.317   0.411   1.195
 9650SOL    HW129849   1.226   0.440   1.222
 9650SOL    HW229850   1.380   0.489   1.198
 9651SOL     OW29851   0.507   1.830   7.002
 9651SOL    HW129852   0.554   1.801   0.061
 9651SOL    HW229853   0.441   1.760   6.975
 9652SOL     OW29854   1.400   5.102   1.857
 9652SOL    HW129855   1.424   5.159   1.935
 9652SOL    HW229856   1.307   5.067   1.868
 9653SOL     OW29857   5.950   6.181   4.406
 9653SOL    HW129858   5.913   6.161   4.496
 9653SOL    HW229859   6.032   6.238   4.415
 9654SOL     OW29860   2.100   3.251   2.624
 9654SOL    HW129861   2.071   3.334   2.577
 9654SOL    HW229862   2.139   3.187   2.559
 9655SOL     OW29863   6.047   2.063   6.880
 9655SOL    HW129864   6.064   1.989   6.945
 9655SOL    HW229865   6.048   2.151   6.928
 9656SOL     OW29866   2.467   1.807   3.370
 9656SOL    HW129867   2.540   1.739   3.372
 9656SOL    HW229868   2.471   1.857   3.284
 9657SOL     OW29869   6.953   0.612   4.882
 9657SOL    HW129870   6.867   0.616   4.831
 9657SOL    HW229871   6.983   0.517   4.889
 9658SOL     OW29872   5.911   1.811   2.775
 9658SOL    HW129873   5.845   1.739   2.752
 9658SOL    HW229874   5.915   1.877   2.700
 9659SOL     OW29875   1.182   5.142   6.809
 9659SOL    HW129876   1.248   5.173   6.878
 9659SOL    HW229877   1.227   5.077   6.748
 9660SOL     OW29878   1.011   5.248   0.373
 9660SOL    HW129879   1.001   5.150   0.391
 9660SOL    HW229880   1.104   5.266   0.343
 9661SOL     OW29881   3.992   0.559   0.538
 9661SOL    HW129882   4.052   0.574   0.460
 9661SOL    HW229883   3.953   0.467   0.534
 9662SOL     OW29884   5.635   1.761   4.278
 9662SOL    HW129885   5.564   1.825   4.309
 9662SOL    HW229886   5.666   1.705   4.355
 9663SOL     OW29887   2.148   5.750   3.224
 9663SOL    HW129888   2.190   5.701   3.300
 9663SOL    HW229889   2.054   5.775   3.248
 9664SOL     OW29890   2.241   5.839   1.676
 9664SOL    HW129891   2.332   5.873   1.653
 9664SOL    HW229892   2.211   5.774   1.605
 9665SOL     OW29893   5.260   4.339   3.708
 9665SOL    HW129894   5.238   4.436   3.701
 9665SOL    HW229895   5.176   4.285   3.700
 9666SOL     OW29896   5.668   4.862   4.474
 9666SOL    HW129897   5.630   4.775   4.444
 9666SOL    HW229898   5.753   4.881   4.424
 9667SOL     OW29899   3.059   3.284   3.804
 9667SOL    HW129900   3.034   3.187   3.807
 9667SOL    HW229901   3.137   3.297   3.744
 9668SOL     OW29902   6.909   1.402   5.509
 9668SOL    HW129903   6.833   1.343   5.537
 9668SOL    HW229904   6.875   1.473   5.447
 9669SOL     OW29905   1.768   6.322   0.221
 9669SOL    HW129906   1.703   6.303   0.146
 9669SOL    HW229907   1.782   6.420   0.228
 9670SOL     OW29908   5.821   4.459   6.530
 9670SOL    HW129909   5.774   4.418   6.609
 9670SOL    HW229910   5.781   4.548   6.510
 9671SOL     OW29911   6.946   0.733   0.074
 9671SOL    HW129912   6.894   0.670   0.133
 9671SOL    HW229913   6.936   0.705   7.003
 9672SOL     OW29914   1.316   6.378   5.456
 9672SOL    HW129915   1.413   6.367   5.476
 9672SOL    HW229916   1.300   6.466   5.411
 9673SOL     OW29917   2.519   2.592   6.514
 9673SOL    HW129918   2.572   2.673   6.490
 9673SOL    HW229919   2.500   2.539   6.431
 9674SOL     OW29920   2.520   6.508   2.447
 9674SOL    HW129921   2.489   6.539   2.537
 9674SOL    HW229922   2.478   6.420   2.426
 9675SOL     OW29923   0.150   2.212   2.845
 9675SOL    HW129924   0.206   2.295   2.845
 9675SOL    HW229925   0.122   2.190   2.751
 9676SOL     OW29926   6.993   2.501   4.723
 9676SOL    HW129927   0.003   2.466   4.811
 9676SOL    HW229928   6.902   2.539   4.736
 9677SOL     OW29929   1.657   3.374   5.713
 9677SOL    HW129930   1.719   3.330   5.778
 9677SOL    HW229931   1.583   3.311   5.689
 9678SOL     OW29932   3.521   3.764   3.513
 9678SOL    HW129933   3.609   3.808   3.530
 9678SOL    HW229934   3.453   3.833   3.489
 9679SOL     OW29935   0.876   3.733   0.735
 9679SOL    HW129936   0.844   3.725   0.830
 9679SOL    HW229937   0.799   3.749   0.674
 9680SOL     OW29938   4.822   5.028   2.816
 9680SOL    HW129939   4.772   5.096   2.869
 9680SOL    HW229940   4.777   5.015   2.728
 9681SOL     OW29941   0.791   0.705   4.363
 9681SOL    HW129942   0.848   0.682   4.285
 9681SOL    HW229943   0.820   0.792   4.402
 9682SOL     OW29944   0.425   4.502   2.776
 9682SOL    HW129945   0.486   4.457   2.711
 9682SOL    HW229946   0.428   4.601   2.762
 9683SOL     OW29947   4.730   6.954   5.398
 9683SOL    HW129948   4.788   0.010   5.385
 9683SOL    HW229949   4.745   6.916   5.489
 9684SOL     OW29950   0.688   4.090   3.658
 9684SOL    HW129951   0.652   4.064   3.568
 9684SOL    HW229952   0.779   4.051   3.670
 9685SOL     OW29953   2.320   1.619   6.701
 9685SOL    HW129954   2.339   1.668   6.616
 9685SOL    HW229955   2.327   1.521   6.685
 9686SOL     OW29956   5.610   2.850   1.907
 9686SOL    HW129957   5.559   2.867   1.823
 9686SOL    HW229958   5.587   2.759   1.942
 9687SOL     OW29959   3.474   0.896   4.379
 9687SOL    HW129960   3.390   0.849   4.402
 9687SOL    HW229961   3.478   0.911   4.280
 9688SOL     OW29962   6.126   1.763   4.370
 9688SOL    HW129963   6.044   1.731   4.416
 9688SOL    HW229964   6.108   1.851   4.326
 9689SOL     OW29965   2.399   5.256   5.320
 9689SOL    HW129966   2.396   5.161   5.287
 9689SOL    HW229967   2.306   5.292   5.325
 9690SOL     OW29968   6.322   3.822   0.383
 9690SOL    HW129969   6.231   3.852   0.353
 9690SOL    HW229970   6.312   3.756   0.457
 9691SOL     OW29971   1.549   4.510   0.556
 9691SOL    HW129972   1.624   4.530   0.493
 9691SOL    HW229973   1.495   4.433   0.520
 9692SOL     OW29974   2.937   5.196   0.682
 9692SOL    HW129975   2.984   5.140   0.751
 9692SOL    HW229976   2.941   5.292   0.709
 9693SOL     OW29977   6.012   5.831   1.682
 9693SOL    HW129978   6.097   5.818   1.733
 9693SOL    HW229979   6.030   5.887   1.601
 9694SOL     OW29980   0.890   1.614   0.756
 9694SOL    HW129981   0.848   1.618   0.665
 9694SOL    HW229982   0.932   1.703   0.776
 9695SOL     OW29983   6.752   4.714   0.406
 9695SOL    HW129984   6.840   4.749   0.439
 9695SOL    HW229985   6.688   4.790   0.396
 9696SOL     OW29986   3.711   4.410   0.301
 9696SOL    HW129987   3.666   4.339   0.247
 9696SOL    HW229988   3.806   4.418   0.272
 9697SOL     OW29989   0.193   6.285   6.280
 9697SOL    HW129990   0.257   6.212   6.304
 9697SOL    HW229991   0.099   6.254   6.296
 9698SOL     OW29992   4.785   1.238   5.134
 9698SOL    HW129993   4.737   1.316   5.174
 9698SOL    HW229994   4.730   1.198   5.061
 9699SOL     OW29995   1.669   2.516   6.467
 9699SOL    HW129996   1.640   2.441   6.527
 9699SOL    HW229997   1.663   2.602   6.517
 9700SOL     OW29998   4.157   3.412   3.280
 9700SOL    HW129999   4.154   3.488   3.215
 9700SOL    HW230000   4.110   3.438   3.364
 9701SOL     OW30001   4.396   4.623   4.410
 9701SOL    HW130002   4.472   4.620   4.476
 9701SOL    HW230003   4.369   4.530   4.386
 9702SOL     OW30004   5.671   0.397   1.070
 9702SOL    HW130005   5.636   0.408   0.977
 9702SOL    HW230006   5.766   0.364   1.066
 9703SOL     OW30007   2.293   5.779   4.239
 9703SOL    HW130008   2.317   5.857   4.297
 9703SOL    HW230009   2.372   5.753   4.184
 9704SOL     OW30010   2.104   1.352   3.842
 9704SOL    HW130011   2.199   1.344   3.874
 9704SOL    HW230012   2.079   1.268   3.794
 9705SOL     OW30013   3.638   4.132   0.718
 9705SOL    HW130014   3.669   4.147   0.812
 9705SOL    HW230015   3.685   4.052   0.680
 9706SOL     OW30016   6.803   2.373   3.811
 9706SOL    HW130017   6.731   2.321   3.765
 9706SOL    HW230018   6.798   2.357   3.910
 9707SOL     OW30019   2.558   5.660   2.121
 9707SOL    HW130020   2.649   5.690   2.150
 9707SOL    HW230021   2.562   5.563   2.098
 9708SOL     OW30022   1.980   2.052   1.890
 9708SOL    HW130023   1.911   2.069   1.960
 9708SOL    HW230024   2.038   1.975   1.917
 9709SOL     OW30025   1.564   6.381   3.578
 9709SOL    HW130026   1.522   6.366   3.668
 9709SOL    HW230027   1.662   6.401   3.591
 9710SOL     OW30028   0.955   6.809   4.137
 9710SOL    HW130029   0.972   6.837   4.043
 9710SOL    HW230030   1.033   6.834   4.194
 9711SOL     OW30031   1.474   3.090   6.512
 9711SOL    HW130032   1.516   3.177   6.486
 9711SOL    HW230033   1.419   3.056   6.436
 9712SOL     OW30034   4.963   3.762   4.797
 9712SOL    HW130035   4.886   3.706   4.829
 9712SOL    HW230036   5.024   3.705   4.742
 9713SOL     OW30037   6.897   4.782   2.776
 9713SOL    HW130038   6.967   4.853   2.782
 9713SOL    HW230039   6.910   4.729   2.692
 9714SOL     OW30040   2.081   1.983   2.703
 9714SOL    HW130041   2.163   1.984   2.646
 9714SOL    HW230042   2.066   1.891   2.738
 9715SOL     OW30043   6.095   5.623   5.946
 9715SOL    HW130044   6.054   5.712   5.966
 9715SOL    HW230045   6.030   5.550   5.968
 9716SOL     OW30046   3.243   1.147   6.072
 9716SOL    HW130047   3.265   1.050   6.067
 9716SOL    HW230048   3.168   1.168   6.009
 9717SOL     OW30049   5.589   5.082   3.332
 9717SOL    HW130050   5.671   5.044   3.376
 9717SOL    HW230051   5.615   5.161   3.277
 9718SOL     OW30052   5.086   2.780   1.666
 9718SOL    HW130053   5.026   2.847   1.623
 9718SOL    HW230054   5.067   2.775   1.764
 9719SOL     OW30055   7.007   1.224   0.143
 9719SOL    HW130056   0.020   1.179   0.062
 9719SOL    HW230057   0.046   1.295   0.174
 9720SOL     OW30058   0.724   0.288   0.650
 9720SOL    HW130059   0.805   0.284   0.709
 9720SOL    HW230060   0.694   0.383   0.642
 9721SOL     OW30061   0.335   2.651   3.142
 9721SOL    HW130062   0.275   2.578   3.172
 9721SOL    HW230063   0.309   2.737   3.186
 9722SOL     OW30064   0.353   0.054   4.465
 9722SOL    HW130065   0.289   0.030   4.539
 9722SOL    HW230066   0.444   0.018   4.486
 9723SOL     OW30067   6.996   0.152   4.043
 9723SOL    HW130068   0.003   0.207   4.121
 9723SOL    HW230069   6.965   0.063   4.076
 9724SOL     OW30070   4.062   2.559   1.496
 9724SOL    HW130071   3.997   2.605   1.556
 9724SOL    HW230072   4.064   2.605   1.408
 9725SOL     OW30073   3.693   3.148   5.739
 9725SOL    HW130074   3.606   3.173   5.697
 9725SOL    HW230075   3.755   3.226   5.739
 9726SOL     OW30076   5.536   5.892   4.712
 9726SOL    HW130077   5.601   5.844   4.771
 9726SOL    HW230078   5.453   5.836   4.702
 9727SOL     OW30079   1.148   0.284   6.840
 9727SOL    HW130080   1.182   0.357   6.781
 9727SOL    HW230081   1.183   0.196   6.806
 9728SOL     OW30082   3.633   6.095   6.389
 9728SOL    HW130083   3.579   6.047   6.320
 9728SOL    HW230084   3.645   6.190   6.361
 9729SOL     OW30085   2.984   5.308   2.562
 9729SOL    HW130086   3.050   5.246   2.605
 9729SOL    HW230087   2.933   5.258   2.493
 9730SOL     OW30088   5.767   3.354   3.130
 9730SOL    HW130089   5.674   3.347   3.095
 9730SOL    HW230090   5.778   3.441   3.178
 9731SOL     OW30091   5.059   5.393   1.077
 9731SOL    HW130092   5.017   5.314   1.033
 9731SOL    HW230093   5.055   5.471   1.015
 9732SOL     OW30094   4.721   6.659   4.698
 9732SOL    HW130095   4.814   6.693   4.688
 9732SOL    HW230096   4.708   6.623   4.790
 9733SOL     OW30097   5.337   4.710   5.273
 9733SOL    HW130098   5.301   4.712   5.366
 9733SOL    HW230099   5.427   4.665   5.274
 9734SOL     OW30100   6.021   1.616   5.804
 9734SOL    HW130101   6.116   1.585   5.794
 9734SOL    HW230102   5.981   1.628   5.713
 9735SOL     OW30103   3.057   4.750   0.826
 9735SOL    HW130104   3.124   4.780   0.893
 9735SOL    HW230105   3.080   4.658   0.794
 9736SOL     OW30106   2.815   1.732   2.248
 9736SOL    HW130107   2.755   1.776   2.181
 9736SOL    HW230108   2.831   1.637   2.222
 9737SOL     OW30109   4.104   1.990   4.440
 9737SOL    HW130110   4.156   1.913   4.475
 9737SOL    HW230111   4.123   2.001   4.342
 9738SOL     OW30112   2.343   1.119   2.088
 9738SOL    HW130113   2.441   1.139   2.077
 9738SOL    HW230114   2.332   1.042   2.150
 9739SOL     OW30115   5.591   4.336   2.023
 9739SOL    HW130116   5.686   4.345   2.055
 9739SOL    HW230117   5.531   4.317   2.101
 9740SOL     OW30118   6.690   2.648   2.620
 9740SOL    HW130119   6.697   2.721   2.552
 9740SOL    HW230120   6.721   2.682   2.709
 9741SOL     OW30121   3.970   2.020   2.513
 9741SOL    HW130122   3.925   2.036   2.425
 9741SOL    HW230123   3.935   2.086   2.580
 9742SOL     OW30124   4.016   1.594   3.705
 9742SOL    HW130125   4.113   1.570   3.711
 9742SOL    HW230126   3.961   1.520   3.743
 9743SOL     OW30127   1.612   1.281   4.940
 9743SOL    HW130128   1.694   1.291   4.883
 9743SOL    HW230129   1.639   1.243   5.029
 9744SOL     OW30130   2.659   0.138   1.372
 9744SOL    HW130131   2.734   0.092   1.325
 9744SOL    HW230132   2.657   0.234   1.345
 9745SOL     OW30133   0.390   0.706   4.665
 9745SOL    HW130134   0.404   0.768   4.587
 9745SOL    HW230135   0.373   0.760   4.747
 9746SOL     OW30136   6.221   0.462   4.238
 9746SOL    HW130137   6.230   0.562   4.231
 9746SOL    HW230138   6.288   0.428   4.304
 9747SOL     OW30139   0.343   0.184   6.196
 9747SOL    HW130140   0.368   0.258   6.133
 9747SOL    HW230141   0.416   0.116   6.197
 9748SOL     OW30142   1.170   3.901   4.375
 9748SOL    HW130143   1.267   3.901   4.352
 9748SOL    HW230144   1.139   3.808   4.391
 9749SOL     OW30145   0.356   4.942   4.593
 9749SOL    HW130146   0.259   4.948   4.568
 9749SOL    HW230147   0.403   5.025   4.564
 9750SOL     OW30148   2.448   5.639   2.583
 9750SOL    HW130149   2.393   5.695   2.521
 9750SOL    HW230150   2.483   5.697   2.657
 9751SOL     OW30151   1.369   2.432   0.592
 9751SOL    HW130152   1.348   2.479   0.507
 9751SOL    HW230153   1.468   2.422   0.601
 9752SOL     OW30154   3.891   0.182   6.058
 9752SOL    HW130155   3.978   0.138   6.079
 9752SOL    HW230156   3.857   0.230   6.139
 9753SOL     OW30157   6.931   6.986   0.010
 9753SOL    HW130158   6.906   6.926   6.958
 9753SOL    HW230159   6.918   6.936   0.096
 9754SOL     OW30160   0.125   3.289   6.710
 9754SOL    HW130161   0.048   3.352   6.725
 9754SOL    HW230162   0.124   3.218   6.780
 9755SOL     OW30163   3.658   5.765   5.077
 9755SOL    HW130164   3.705   5.765   5.165
 9755SOL    HW230165   3.684   5.683   5.025
 9756SOL     OW30166   5.035   2.873   6.419
 9756SOL    HW130167   5.050   2.824   6.333
 9756SOL    HW230168   5.123   2.894   6.462
 9757SOL     OW30169   6.599   0.965   4.035
 9757SOL    HW130170   6.508   0.925   4.021
 9757SOL    HW230171   6.596   1.027   4.113
 9758SOL     OW30172   3.493   0.870   0.469
 9758SOL    HW130173   3.398   0.839   0.474
 9758SOL    HW230174   3.538   0.828   0.390
 9759SOL     OW30175   2.744   5.831   1.701
 9759SOL    HW130176   2.678   5.761   1.675
 9759SOL    HW230177   2.795   5.861   1.621
 9760SOL     OW30178   5.587   4.275   5.847
 9760SOL    HW130179   5.567   4.251   5.752
 9760SOL    HW230180   5.545   4.363   5.868
 9761SOL     OW30181   5.462   5.414   2.759
 9761SOL    HW130182   5.400   5.425   2.681
 9761SOL    HW230183   5.530   5.487   2.758
 9762SOL     OW30184   3.404   0.257   2.309
 9762SOL    HW130185   3.385   0.204   2.392
 9762SOL    HW230186   3.342   0.229   2.236
 9763SOL     OW30187   2.357   2.161   1.593
 9763SOL    HW130188   2.396   2.095   1.529
 9763SOL    HW230189   2.380   2.134   1.687
 9764SOL     OW30190   0.878   2.690   3.644
 9764SOL    HW130191   0.972   2.682   3.677
 9764SOL    HW230192   0.841   2.598   3.627
 9765SOL     OW30193   0.696   0.484   5.750
 9765SOL    HW130194   0.755   0.409   5.779
 9765SOL    HW230195   0.752   0.563   5.725
 9766SOL     OW30196   2.493   0.812   2.762
 9766SOL    HW130197   2.580   0.778   2.799
 9766SOL    HW230198   2.456   0.882   2.823
 9767SOL     OW30199   4.847   0.395   5.300
 9767SOL    HW130200   4.750   0.408   5.282
 9767SOL    HW230201   4.890   0.348   5.223
 9768SOL     OW30202   4.579   1.965   3.696
 9768SOL    HW130203   4.671   1.940   3.666
 9768SOL    HW230204   4.535   2.020   3.626
 9769SOL     OW30205   0.322   2.060   0.959
 9769SOL    HW130206   0.384   2.072   1.037
 9769SOL    HW230207   0.245   2.122   0.968
 9770SOL     OW30208   0.819   2.610   5.530
 9770SOL    HW130209   0.742   2.546   5.531
 9770SOL    HW230210   0.813   2.672   5.608
 9771SOL     OW30211   2.540   6.114   3.924
 9771SOL    HW130212   2.559   6.073   3.835
 9771SOL    HW230213   2.600   6.193   3.938
 9772SOL     OW30214   5.864   6.807   1.167
 9772SOL    HW130215   5.783   6.754   1.145
 9772SOL    HW230216   5.932   6.795   1.095
 9773SOL     OW30217   4.868   5.558   3.783
 9773SOL    HW130218   4.810   5.597   3.855
 9773SOL    HW230219   4.814   5.497   3.726
 9774SOL     OW30220   0.016   4.969   4.501
 9774SOL    HW130221   0.069   4.885   4.503
 9774SOL    HW230222   7.023   4.995   4.406
 9775SOL     OW30223   2.818   1.588   5.172
 9775SOL    HW130224   2.738   1.529   5.166
 9775SOL    HW230225   2.861   1.596   5.082
 9776SOL     OW30226   0.118   4.719   4.486
 9776SOL    HW130227   0.208   4.719   4.441
 9776SOL    HW230228   0.067   4.638   4.459
 9777SOL     OW30229   4.968   6.100   6.436
 9777SOL    HW130230   5.050   6.109   6.380
 9777SOL    HW230231   4.944   6.004   6.447
 9778SOL     OW30232   4.113   0.579   4.498
 9778SOL    HW130233   4.110   0.677   4.521
 9778SOL    HW230234   4.084   0.525   4.577
 9779SOL     OW30235   3.290   2.440   6.797
 9779SOL    HW130236   3.263   2.393   6.881
 9779SOL    HW230237   3.356   2.384   6.748
 9780SOL     OW30238   2.198   3.666   1.071
 9780SOL    HW130239   2.188   3.679   0.972
 9780SOL    HW230240   2.174   3.571   1.095
 9781SOL     OW30241   1.257   6.897   4.594
 9781SOL    HW130242   1.169   6.866   4.558
 9781SOL    HW230243   1.299   6.824   4.647
 9782SOL     OW30244   6.004   0.042   1.071
 9782SOL    HW130245   6.076   0.111   1.078
 9782SOL    HW230246   5.953   0.037   1.157
 9783SOL     OW30247   6.165   6.910   3.684
 9783SOL    HW130248   6.073   6.909   3.643
 9783SOL    HW230249   6.203   6.818   3.681
 9784SOL     OW30250   5.299   0.330   4.346
 9784SOL    HW130251   5.313   0.428   4.332
 9784SOL    HW230252   5.333   0.303   4.436
 9785SOL     OW30253   0.961   2.139   1.181
 9785SOL    HW130254   1.056   2.119   1.207
 9785SOL    HW230255   0.958   2.163   1.084
 9786SOL     OW30256   2.053   0.053   4.225
 9786SOL    HW130257   2.073   0.121   4.295
 9786SOL    HW230258   1.970   0.002   4.250
 9787SOL     OW30259   5.527   4.349   1.413
 9787SOL    HW130260   5.471   4.379   1.335
 9787SOL    HW230261   5.470   4.299   1.478
 9788SOL     OW30262   6.782   0.478   6.304
 9788SOL    HW130263   6.802   0.559   6.248
 9788SOL    HW230264   6.833   0.400   6.269
 9789SOL     OW30265   1.583   4.401   4.689
 9789SOL    HW130266   1.629   4.469   4.745
 9789SOL    HW230267   1.635   4.316   4.690
 9790SOL     OW30268   0.093   1.288   3.765
 9790SOL    HW130269   0.093   1.337   3.678
 9790SOL    HW230270   7.023   1.269   3.793
 9791SOL     OW30271   1.466   2.691   1.223
 9791SOL    HW130272   1.505   2.603   1.196
 9791SOL    HW230273   1.409   2.726   1.149
 9792SOL     OW30274   3.785   5.626   2.120
 9792SOL    HW130275   3.800   5.707   2.176
 9792SOL    HW230276   3.867   5.569   2.122
 9793SOL     OW30277   5.436   6.141   2.499
 9793SOL    HW130278   5.374   6.193   2.441
 9793SOL    HW230279   5.488   6.204   2.556
 9794SOL     OW30280   3.662   3.129   6.883
 9794SOL    HW130281   3.594   3.202   6.875
 9794SOL    HW230282   3.741   3.163   6.934
 9795SOL     OW30283   1.502   4.880   3.013
 9795SOL    HW130284   1.574   4.942   2.982
 9795SOL    HW230285   1.542   4.792   3.037
 9796SOL     OW30286   3.665   5.163   6.829
 9796SOL    HW130287   3.701   5.072   6.808
 9796SOL    HW230288   3.717   5.202   6.905
 9797SOL     OW30289   5.779   3.085   5.289
 9797SOL    HW130290   5.810   2.990   5.282
 9797SOL    HW230291   5.757   3.106   5.384
 9798SOL     OW30292   2.850   1.477   2.168
 9798SOL    HW130293   2.824   1.397   2.223
 9798SOL    HW230294   2.833   1.458   2.071
 9799SOL     OW30295   3.683   3.735   3.139
 9799SOL    HW130296   3.718   3.668   3.205
 9799SOL    HW230297   3.711   3.708   3.046
 9800SOL     OW30298   3.547   6.583   0.385
 9800SOL    HW130299   3.509   6.518   0.320
 9800SOL    HW230300   3.515   6.675   0.364
 9801SOL     OW30301   5.485   5.043   1.364
 9801SOL    HW130302   5.507   5.097   1.445
 9801SOL    HW230303   5.477   4.947   1.389
 9802SOL     OW30304   0.886   5.723   2.105
 9802SOL    HW130305   0.971   5.751   2.151
 9802SOL    HW230306   0.831   5.804   2.084
 9803SOL     OW30307   5.336   0.010   6.406
 9803SOL    HW130308   5.318   6.971   6.481
 9803SOL    HW230309   5.347   0.102   6.443
 9804SOL     OW30310   4.700   5.108   4.507
 9804SOL    HW130311   4.764   5.077   4.577
 9804SOL    HW230312   4.680   5.205   4.522
 9805SOL     OW30313   3.635   3.859   0.924
 9805SOL    HW130314   3.681   3.862   1.013
 9805SOL    HW230315   3.695   3.816   0.857
 9806SOL     OW30316   6.869   1.734   2.186
 9806SOL    HW130317   6.926   1.653   2.176
 9806SOL    HW230318   6.883   1.773   2.278
 9807SOL     OW30319   2.138   3.173   0.961
 9807SOL    HW130320   2.183   3.176   0.872
 9807SOL    HW230321   2.094   3.085   0.973
 9808SOL     OW30322   1.963   2.258   3.635
 9808SOL    HW130323   1.982   2.261   3.733
 9808SOL    HW230324   1.955   2.351   3.599
 9809SOL     OW30325   0.795   0.363   4.393
 9809SOL    HW130326   0.882   0.411   4.404
 9809SOL    HW230327   0.728   0.425   4.352
 9810SOL     OW30328   4.390   1.926   2.448
 9810SOL    HW130329   4.438   1.873   2.378
 9810SOL    HW230330   4.305   1.880   2.473
 9811SOL     OW30331   1.530   0.711   3.223
 9811SOL    HW130332   1.591   0.774   3.175
 9811SOL    HW230333   1.531   0.733   3.321
 9812SOL     OW30334   5.758   3.289   6.514
 9812SOL    HW130335   5.673   3.295   6.462
 9812SOL    HW230336   5.819   3.223   6.471
 9813SOL     OW30337   6.211   4.852   0.379
 9813SOL    HW130338   6.212   4.799   0.294
 9813SOL    HW230339   6.249   4.796   0.453
 9814SOL     OW30340   6.294   0.877   6.006
 9814SOL    HW130341   6.226   0.944   6.036
 9814SOL    HW230342   6.385   0.908   6.034
 9815SOL     OW30343   0.103   4.856   2.009
 9815SOL    HW130344   0.028   4.869   2.075
 9815SOL    HW230345   0.066   4.857   1.916
 9816SOL     OW30346   6.223   1.825   5.094
 9816SOL    HW130347   6.199   1.796   5.002
 9816SOL    HW230348   6.202   1.752   5.159
 9817SOL     OW30349   2.607   1.191   0.730
 9817SOL    HW130350   2.517   1.232   0.742
 9817SOL    HW230351   2.676   1.246   0.778
 9818SOL     OW30352   0.635   0.293   2.348
 9818SOL    HW130353   0.613   0.196   2.335
 9818SOL    HW230354   0.597   0.346   2.272
 9819SOL     OW30355   5.710   1.430   4.307
 9819SOL    HW130356   5.727   1.487   4.227
 9819SOL    HW230357   5.612   1.432   4.329
 9820SOL     OW30358   3.571   0.491   6.646
 9820SOL    HW130359   3.493   0.497   6.709
 9820SOL    HW230360   3.541   0.514   6.554
 9821SOL     OW30361   4.778   3.902   6.923
 9821SOL    HW130362   4.773   3.968   6.848
 9821SOL    HW230363   4.850   3.836   6.905
 9822SOL     OW30364   3.136   5.316   3.836
 9822SOL    HW130365   3.109   5.326   3.932
 9822SOL    HW230366   3.205   5.384   3.813
 9823SOL     OW30367   4.770   6.159   3.127
 9823SOL    HW130368   4.816   6.103   3.196
 9823SOL    HW230369   4.671   6.149   3.136
 9824SOL     OW30370   1.340   5.756   5.743
 9824SOL    HW130371   1.390   5.692   5.802
 9824SOL    HW230372   1.257   5.712   5.709
 9825SOL     OW30373   1.229   6.335   4.864
 9825SOL    HW130374   1.211   6.238   4.877
 9825SOL    HW230375   1.169   6.388   4.924
 9826SOL     OW30376   1.769   6.159   6.205
 9826SOL    HW130377   1.677   6.157   6.244
 9826SOL    HW230378   1.836   6.147   6.278
 9827SOL     OW30379   2.032   4.807   1.874
 9827SOL    HW130380   1.947   4.851   1.903
 9827SOL    HW230381   2.035   4.803   1.774
 9828SOL     OW30382   5.045   2.232   4.313
 9828SOL    HW130383   4.972   2.276   4.365
 9828SOL    HW230384   5.009   2.198   4.226
 9829SOL     OW30385   5.535   4.448   5.488
 9829SOL    HW130386   5.565   4.354   5.502
 9829SOL    HW230387   5.541   4.471   5.391
 9830SOL     OW30388   6.429   1.221   2.675
 9830SOL    HW130389   6.368   1.247   2.601
 9830SOL    HW230390   6.422   1.123   2.692
 9831SOL     OW30391   0.855   5.077   1.587
 9831SOL    HW130392   0.922   5.021   1.537
 9831SOL    HW230393   0.904   5.141   1.646
 9832SOL     OW30394   5.186   5.673   5.018
 9832SOL    HW130395   5.140   5.701   5.102
 9832SOL    HW230396   5.238   5.589   5.035
 9833SOL     OW30397   3.883   3.009   4.322
 9833SOL    HW130398   3.884   2.949   4.242
 9833SOL    HW230399   3.824   2.970   4.392
 9834SOL     OW30400   3.845   5.832   6.282
 9834SOL    HW130401   3.747   5.853   6.288
 9834SOL    HW230402   3.861   5.765   6.210
 9835SOL     OW30403   3.692   3.508   3.703
 9835SOL    HW130404   3.649   3.580   3.757
 9835SOL    HW230405   3.747   3.450   3.763
 9836SOL     OW30406   6.338   2.932   6.019
 9836SOL    HW130407   6.259   2.889   5.976
 9836SOL    HW230408   6.308   2.997   6.088
 9837SOL     OW30409   6.781   0.772   4.104
 9837SOL    HW130410   6.815   0.771   4.198
 9837SOL    HW230411   6.702   0.833   4.097
 9838SOL     OW30412   0.607   5.935   1.059
 9838SOL    HW130413   0.525   5.924   1.003
 9838SOL    HW230414   0.591   5.897   1.150
 9839SOL     OW30415   3.862   6.363   3.534
 9839SOL    HW130416   3.902   6.440   3.484
 9839SOL    HW230417   3.935   6.303   3.565
 9840SOL     OW30418   6.406   2.324   6.570
 9840SOL    HW130419   6.316   2.307   6.611
 9840SOL    HW230420   6.404   2.410   6.520
 9841SOL     OW30421   0.145   5.790   2.065
 9841SOL    HW130422   0.216   5.750   2.007
 9841SOL    HW230423   0.082   5.718   2.094
 9842SOL     OW30424   3.920   0.286   0.409
 9842SOL    HW130425   3.829   0.288   0.368
 9842SOL    HW230426   3.985   0.242   0.347
 9843SOL     OW30427   0.610   0.070   0.492
 9843SOL    HW130428   0.643   0.147   0.547
 9843SOL    HW230429   0.658   0.068   0.405
 9844SOL     OW30430   4.940   0.928   4.636
 9844SOL    HW130431   5.010   0.999   4.650
 9844SOL    HW230432   4.895   0.908   4.724
 9845SOL     OW30433   0.902   3.519   2.029
 9845SOL    HW130434   0.973   3.449   2.034
 9845SOL    HW230435   0.815   3.477   2.001
 9846SOL     OW30436   5.709   2.068   2.220
 9846SOL    HW130437   5.795   2.113   2.196
 9846SOL    HW230438   5.635   2.135   2.220
 9847SOL     OW30439   3.979   4.339   6.907
 9847SOL    HW130440   4.067   4.296   6.892
 9847SOL    HW230441   3.907   4.270   6.906
 9848SOL     OW30442   3.021   3.978   5.592
 9848SOL    HW130443   2.957   3.975   5.669
 9848SOL    HW230444   3.082   4.057   5.602
 9849SOL     OW30445   1.429   2.177   2.223
 9849SOL    HW130446   1.337   2.211   2.204
 9849SOL    HW230447   1.484   2.182   2.139
 9850SOL     OW30448   1.758   0.555   4.333
 9850SOL    HW130449   1.738   0.631   4.271
 9850SOL    HW230450   1.759   0.589   4.427
 9851SOL     OW30451   3.710   5.407   3.453
 9851SOL    HW130452   3.627   5.364   3.488
 9851SOL    HW230453   3.785   5.340   3.451
 9852SOL     OW30454   2.511   0.135   0.395
 9852SOL    HW130455   2.523   0.097   0.303
 9852SOL    HW230456   2.590   0.111   0.452
 9853SOL     OW30457   0.133   3.613   4.026
 9853SOL    HW130458   0.046   3.583   3.989
 9853SOL    HW230459   0.206   3.590   3.962
 9854SOL     OW30460   6.124   4.349   6.891
 9854SOL    HW130461   6.072   4.320   6.811
 9854SOL    HW230462   6.211   4.390   6.862
 9855SOL     OW30463   1.163   5.855   0.720
 9855SOL    HW130464   1.217   5.812   0.792
 9855SOL    HW230465   1.109   5.930   0.760
 9856SOL     OW30466   4.796   4.546   3.124
 9856SOL    HW130467   4.834   4.556   3.216
 9856SOL    HW230468   4.698   4.566   3.127
 9857SOL     OW30469   5.180   0.356   5.532
 9857SOL    HW130470   5.112   0.286   5.507
 9857SOL    HW230471   5.205   0.345   5.628
 9858SOL     OW30472   0.123   5.129   2.713
 9858SOL    HW130473   0.113   5.037   2.751
 9858SOL    HW230474   0.048   5.186   2.743
 9859SOL     OW30475   0.569   5.302   2.540
 9859SOL    HW130476   0.592   5.326   2.634
 9859SOL    HW230477   0.480   5.256   2.538
 9860SOL     OW30478   1.685   3.260   3.516
 9860SOL    HW130479   1.605   3.281   3.460
 9860SOL    HW230480   1.762   3.237   3.457
 9861SOL     OW30481   3.735   2.130   4.337
 9861SOL    HW130482   3.770   2.078   4.415
 9861SOL    HW230483   3.807   2.141   4.269
 9862SOL     OW30484   1.928   2.681   6.557
 9862SOL    HW130485   1.909   2.698   6.654
 9862SOL    HW230486   2.015   2.634   6.547
 9863SOL     OW30487   3.838   6.036   1.737
 9863SOL    HW130488   3.745   6.050   1.772
 9863SOL    HW230489   3.901   6.097   1.785
 9864SOL     OW30490   2.933   5.595   5.094
 9864SOL    HW130491   2.904   5.606   4.999
 9864SOL    HW230492   2.970   5.682   5.127
 9865SOL     OW30493   2.443   6.086   6.048
 9865SOL    HW130494   2.423   6.000   6.094
 9865SOL    HW230495   2.529   6.123   6.083
 9866SOL     OW30496   6.863   5.635   5.893
 9866SOL    HW130497   6.849   5.679   5.982
 9866SOL    HW230498   6.863   5.705   5.821
 9867SOL     OW30499   4.853   0.848   2.684
 9867SOL    HW130500   4.850   0.749   2.695
 9867SOL    HW230501   4.913   0.871   2.607
 9868SOL     OW30502   2.420   4.395   3.226
 9868SOL    HW130503   2.334   4.353   3.257
 9868SOL    HW230504   2.425   4.392   3.127
 9869SOL     OW30505   5.475   2.099   2.684
 9869SOL    HW130506   5.530   2.152   2.620
 9869SOL    HW230507   5.518   2.009   2.698
 9870SOL     OW30508   1.597   2.905   2.784
 9870SOL    HW130509   1.526   2.858   2.731
 9870SOL    HW230510   1.653   2.960   2.722
 9871SOL     OW30511   5.819   5.408   3.389
 9871SOL    HW130512   5.819   5.361   3.300
 9871SOL    HW230513   5.884   5.364   3.450
 9872SOL     OW30514   0.807   6.396   5.668
 9872SOL    HW130515   0.830   6.453   5.588
 9872SOL    HW230516   0.713   6.414   5.696
 9873SOL     OW30517   0.259   0.656   5.066
 9873SOL    HW130518   0.310   0.723   5.012
 9873SOL    HW230519   0.239   0.695   5.156
 9874SOL     OW30520   6.503   1.536   3.797
 9874SOL    HW130521   6.594   1.575   3.788
 9874SOL    HW230522   6.509   1.436   3.794
 9875SOL     OW30523   6.170   6.043   1.001
 9875SOL    HW130524   6.267   6.043   0.975
 9875SOL    HW230525   6.130   5.954   0.980
 9876SOL     OW30526   0.395   0.328   3.414
 9876SOL    HW130527   0.374   0.308   3.318
 9876SOL    HW230528   0.494   0.332   3.426
 9877SOL     OW30529   1.435   5.795   4.947
 9877SOL    HW130530   1.430   5.868   5.015
 9877SOL    HW230531   1.471   5.712   4.990
 9878SOL     OW30532   4.603   3.578   0.171
 9878SOL    HW130533   4.679   3.576   0.106
 9878SOL    HW230534   4.599   3.491   0.220
 9879SOL     OW30535   5.487   5.555   4.301
 9879SOL    HW130536   5.471   5.522   4.208
 9879SOL    HW230537   5.523   5.481   4.357
 9880SOL     OW30538   2.742   1.096   1.035
 9880SOL    HW130539   2.737   1.008   0.988
 9880SOL    HW230540   2.799   1.087   1.116
 9881SOL     OW30541   6.665   6.638   2.772
 9881SOL    HW130542   6.575   6.675   2.751
 9881SOL    HW230543   6.694   6.577   2.699
 9882SOL     OW30544   3.242   3.971   4.463
 9882SOL    HW130545   3.265   3.875   4.476
 9882SOL    HW230546   3.243   3.993   4.365
 9883SOL     OW30547   1.807   6.243   2.680
 9883SOL    HW130548   1.836   6.170   2.619
 9883SOL    HW230549   1.846   6.330   2.650
 9884SOL     OW30550   3.250   2.553   5.347
 9884SOL    HW130551   3.159   2.590   5.362
 9884SOL    HW230552   3.246   2.481   5.277
 9885SOL     OW30553   5.158   2.210   5.051
 9885SOL    HW130554   5.249   2.239   5.081
 9885SOL    HW230555   5.116   2.282   4.996
 9886SOL     OW30556   2.809   6.312   1.319
 9886SOL    HW130557   2.880   6.258   1.273
 9886SOL    HW230558   2.852   6.384   1.373
 9887SOL     OW30559   3.673   1.030   0.054
 9887SOL    HW130560   3.743   1.096   0.078
 9887SOL    HW230561   3.702   0.978   6.998
 9888SOL     OW30562   6.307   6.734   4.223
 9888SOL    HW130563   6.220   6.770   4.255
 9888SOL    HW230564   6.379   6.801   4.241
 9889SOL     OW30565   6.799   6.028   2.124
 9889SOL    HW130566   6.728   6.069   2.181
 9889SOL    HW230567   6.759   5.954   2.070
 9890SOL     OW30568   1.546   2.858   3.039
 9890SOL    HW130569   1.580   2.892   2.952
 9890SOL    HW230570   1.453   2.890   3.053
 9891SOL     OW30571   3.728   6.837   1.789
 9891SOL    HW130572   3.795   6.904   1.821
 9891SOL    HW230573   3.666   6.812   1.864
 9892SOL     OW30574   1.882   5.855   3.302
 9892SOL    HW130575   1.788   5.872   3.272
 9892SOL    HW230576   1.887   5.765   3.347
 9893SOL     OW30577   5.848   4.817   5.109
 9893SOL    HW130578   5.904   4.778   5.037
 9893SOL    HW230579   5.758   4.841   5.072
 9894SOL     OW30580   4.356   3.888   5.642
 9894SOL    HW130581   4.409   3.968   5.668
 9894SOL    HW230582   4.291   3.912   5.570
 9895SOL     OW30583   5.003   2.317   5.577
 9895SOL    HW130584   4.938   2.298   5.651
 9895SOL    HW230585   5.045   2.231   5.547
 9896SOL     OW30586   4.310   4.045   6.974
 9896SOL    HW130587   4.226   4.014   6.931
 9896SOL    HW230588   4.389   4.007   6.925
 9897SOL     OW30589   1.161   1.342   2.388
 9897SOL    HW130590   1.145   1.385   2.476
 9897SOL    HW230591   1.073   1.321   2.345
 9898SOL     OW30592   0.179   5.442   0.401
 9898SOL    HW130593   0.121   5.444   0.320
 9898SOL    HW230594   0.244   5.518   0.397
 9899SOL     OW30595   4.401   5.789   1.303
 9899SOL    HW130596   4.311   5.763   1.335
 9899SOL    HW230597   4.392   5.853   1.226
 9900SOL     OW30598   1.894   5.583   3.333
 9900SOL    HW130599   1.828   5.548   3.266
 9900SOL    HW230600   1.966   5.515   3.348
 9901SOL     OW30601   3.141   1.450   6.114
 9901SOL    HW130602   3.119   1.543   6.085
 9901SOL    HW230603   3.239   1.444   6.135
 9902SOL     OW30604   4.137   4.342   0.224
 9902SOL    HW130605   4.053   4.396   0.214
 9902SOL    HW230606   4.114   4.245   0.226
 9903SOL     OW30607   2.461   1.088   1.200
 9903SOL    HW130608   2.410   1.036   1.131
 9903SOL    HW230609   2.489   1.176   1.160
 9904SOL     OW30610   6.637   6.389   2.164
 9904SOL    HW130611   6.576   6.467   2.176
 9904SOL    HW230612   6.598   6.327   2.095
 9905SOL     OW30613   2.539   6.959   0.184
 9905SOL    HW130614   2.560   6.912   0.099
 9905SOL    HW230615   2.603   6.931   0.255
 9906SOL     OW30616   3.649   3.665   6.048
 9906SOL    HW130617   3.582   3.591   6.037
 9906SOL    HW230618   3.702   3.650   6.132
 9907SOL     OW30619   0.928   6.497   3.161
 9907SOL    HW130620   0.909   6.594   3.171
 9907SOL    HW230621   1.007   6.472   3.217
 9908SOL     OW30622   6.760   3.015   5.431
 9908SOL    HW130623   6.735   3.106   5.464
 9908SOL    HW230624   6.859   3.005   5.431
 9909SOL     OW30625   2.288   6.217   3.229
 9909SOL    HW130626   2.245   6.302   3.260
 9909SOL    HW230627   2.216   6.151   3.205
 9910SOL     OW30628   1.055   5.232   1.018
 9910SOL    HW130629   1.037   5.323   0.982
 9910SOL    HW230630   1.091   5.173   0.946
 9911SOL     OW30631   3.659   4.936   2.329
 9911SOL    HW130632   3.707   4.867   2.384
 9911SOL    HW230633   3.679   4.921   2.232
 9912SOL     OW30634   5.807   6.540   6.815
 9912SOL    HW130635   5.874   6.577   6.880
 9912SOL    HW230636   5.794   6.605   6.740
 9913SOL     OW30637   6.205   1.855   2.794
 9913SOL    HW130638   6.109   1.869   2.773
 9913SOL    HW230639   6.230   1.760   2.772
 9914SOL     OW30640   1.644   5.187   3.717
 9914SOL    HW130641   1.564   5.198   3.776
 9914SOL    HW230642   1.619   5.211   3.623
 9915SOL     OW30643   6.182   4.902   4.496
 9915SOL    HW130644   6.233   4.985   4.520
 9915SOL    HW230645   6.245   4.829   4.470
 9916SOL     OW30646   2.016   3.375   0.676
 9916SOL    HW130647   1.967   3.332   0.752
 9916SOL    HW230648   1.951   3.413   0.611
 9917SOL     OW30649   1.707   3.631   4.532
 9917SOL    HW130650   1.760   3.713   4.554
 9917SOL    HW230651   1.743   3.553   4.581
 9918SOL     OW30652   2.002   1.850   4.740
 9918SOL    HW130653   1.938   1.910   4.789
 9918SOL    HW230654   2.096   1.872   4.768
 9919SOL     OW30655   0.645   6.148   1.346
 9919SOL    HW130656   0.738   6.110   1.354
 9919SOL    HW230657   0.619   6.154   1.250
 9920SOL     OW30658   2.926   0.581   3.281
 9920SOL    HW130659   2.938   0.665   3.334
 9920SOL    HW230660   2.834   0.579   3.243
 9921SOL     OW30661   4.935   0.613   2.329
 9921SOL    HW130662   4.908   0.708   2.318
 9921SOL    HW230663   4.989   0.584   2.250
 9922SOL     OW30664   6.176   3.027   2.079
 9922SOL    HW130665   6.189   2.984   2.168
 9922SOL    HW230666   6.247   2.995   2.016
 9923SOL     OW30667   5.722   0.246   6.736
 9923SOL    HW130668   5.662   0.311   6.782
 9923SOL    HW230669   5.684   0.154   6.744
 9924SOL     OW30670   5.648   0.463   3.407
 9924SOL    HW130671   5.745   0.456   3.385
 9924SOL    HW230672   5.599   0.386   3.366
 9925SOL     OW30673   3.949   2.199   5.124
 9925SOL    HW130674   4.018   2.243   5.066
 9925SOL    HW230675   3.991   2.170   5.210
 9926SOL     OW30676   2.189   1.000   5.968
 9926SOL    HW130677   2.194   0.973   6.064
 9926SOL    HW230678   2.242   1.083   5.953
 9927SOL     OW30679   1.378   3.607   3.665
 9927SOL    HW130680   1.295   3.562   3.698
 9927SOL    HW230681   1.458   3.563   3.705
 9928SOL     OW30682   6.541   2.885   2.789
 9928SOL    HW130683   6.581   2.971   2.822
 9928SOL    HW230684   6.558   2.876   2.691
 9929SOL     OW30685   1.442   5.082   4.848
 9929SOL    HW130686   1.477   5.104   4.939
 9929SOL    HW230687   1.348   5.117   4.839
 9930SOL     OW30688   0.007   5.533   6.610
 9930SOL    HW130689   6.970   5.455   6.603
 9930SOL    HW230690   0.052   5.548   6.522
 9931SOL     OW30691   2.158   4.675   0.070
 9931SOL    HW130692   2.177   4.740   7.021
 9931SOL    HW230693   2.224   4.599   0.064
 9932SOL     OW30694   2.065   2.337   1.179
 9932SOL    HW130695   1.971   2.350   1.211
 9932SOL    HW230696   2.125   2.324   1.258
 9933SOL     OW30697   1.158   1.768   3.626
 9933SOL    HW130698   1.237   1.735   3.574
 9933SOL    HW230699   1.079   1.776   3.565
 9934SOL     OW30700   4.997   0.323   5.812
 9934SOL    HW130701   5.024   0.418   5.826
 9934SOL    HW230702   4.935   0.295   5.885
 9935SOL     OW30703   3.068   2.966   0.465
 9935SOL    HW130704   3.118   3.003   0.386
 9935SOL    HW230705   2.971   2.959   0.443
 9936SOL     OW30706   4.675   6.175   7.011
 9936SOL    HW130707   4.642   6.216   0.071
 9936SOL    HW230708   4.598   6.160   6.949
 9937SOL     OW30709   1.915   0.020   4.745
 9937SOL    HW130710   1.913   6.986   4.826
 9937SOL    HW230711   1.934   6.989   4.664
 9938SOL     OW30712   0.414   1.613   3.141
 9938SOL    HW130713   0.345   1.636   3.210
 9938SOL    HW230714   0.369   1.587   3.056
 9939SOL     OW30715   2.860   3.794   1.012
 9939SOL    HW130716   2.917   3.746   1.079
 9939SOL    HW230717   2.912   3.870   0.973
 9940SOL     OW30718   6.841   0.931   2.942
 9940SOL    HW130719   6.785   0.976   2.872
 9940SOL    HW230720   6.807   0.956   3.033
 9941SOL     OW30721   5.919   3.731   0.382
 9941SOL    HW130722   5.824   3.719   0.354
 9941SOL    HW230723   5.938   3.672   0.461
 9942SOL     OW30724   6.072   5.387   2.362
 9942SOL    HW130725   6.089   5.485   2.346
 9942SOL    HW230726   6.119   5.358   2.445
 9943SOL     OW30727   1.088   4.841   5.039
 9943SOL    HW130728   1.126   4.780   4.969
 9943SOL    HW230729   0.988   4.834   5.038
 9944SOL     OW30730   2.473   5.857   6.463
 9944SOL    HW130731   2.484   5.763   6.495
 9944SOL    HW230732   2.562   5.894   6.438
 9945SOL     OW30733   6.233   3.058   5.732
 9945SOL    HW130734   6.269   2.965   5.735
 9945SOL    HW230735   6.302   3.121   5.768
 9946SOL     OW30736   5.671   1.824   1.032
 9946SOL    HW130737   5.701   1.796   1.123
 9946SOL    HW230738   5.746   1.870   0.985
 9947SOL     OW30739   0.736   0.292   3.398
 9947SOL    HW130740   0.792   0.216   3.364
 9947SOL    HW230741   0.742   0.369   3.335
 9948SOL     OW30742   4.963   0.630   5.247
 9948SOL    HW130743   4.917   0.541   5.256
 9948SOL    HW230744   5.049   0.627   5.297
 9949SOL     OW30745   6.611   2.895   2.503
 9949SOL    HW130746   6.660   2.975   2.467
 9949SOL    HW230747   6.513   2.909   2.494
 9950SOL     OW30748   5.180   4.946   6.677
 9950SOL    HW130749   5.240   4.917   6.750
 9950SOL    HW230750   5.196   5.043   6.657
 9951SOL     OW30751   6.979   1.957   2.673
 9951SOL    HW130752   0.006   2.039   2.650
 9951SOL    HW230753   6.964   1.953   2.772
 9952SOL     OW30754   1.543   4.725   1.848
 9952SOL    HW130755   1.585   4.759   1.932
 9952SOL    HW230756   1.540   4.625   1.850
 9953SOL     OW30757   5.901   4.604   4.780
 9953SOL    HW130758   5.807   4.608   4.812
 9953SOL    HW230759   5.963   4.633   4.853
 9954SOL     OW30760   4.355   1.748   1.296
 9954SOL    HW130761   4.310   1.670   1.339
 9954SOL    HW230762   4.308   1.772   1.212
 9955SOL     OW30763   6.362   5.221   1.469
 9955SOL    HW130764   6.280   5.163   1.475
 9955SOL    HW230765   6.391   5.247   1.562
 9956SOL     OW30766   1.634   4.045   3.467
 9956SOL    HW130767   1.537   4.021   3.472
 9956SOL    HW230768   1.687   3.964   3.443
 9957SOL     OW30769   5.908   6.731   0.177
 9957SOL    HW130770   5.877   6.826   0.173
 9957SOL    HW230771   5.862   6.683   0.252
 9958SOL     OW30772   6.445   6.095   5.560
 9958SOL    HW130773   6.371   6.107   5.627
 9958SOL    HW230774   6.443   6.170   5.494
 9959SOL     OW30775   6.365   6.005   6.648
 9959SOL    HW130776   6.426   6.036   6.575
 9959SOL    HW230777   6.334   5.912   6.628
 9960SOL     OW30778   6.435   0.258   6.566
 9960SOL    HW130779   6.464   0.300   6.652
 9960SOL    HW230780   6.489   0.175   6.549
 9961SOL     OW30781   3.195   6.473   0.647
 9961SOL    HW130782   3.249   6.494   0.729
 9961SOL    HW230783   3.229   6.389   0.605
 9962SOL     OW30784   3.554   0.617   1.417
 9962SOL    HW130785   3.501   0.532   1.408
 9962SOL    HW230786   3.622   0.606   1.490
 9963SOL     OW30787   1.069   0.192   6.484
 9963SOL    HW130788   1.017   0.261   6.535
 9963SOL    HW230789   1.161   0.184   6.524
 9964SOL     OW30790   4.576   5.346   5.531
 9964SOL    HW130791   4.586   5.365   5.433
 9964SOL    HW230792   4.660   5.304   5.566
 9965SOL     OW30793   1.921   5.473   4.626
 9965SOL    HW130794   1.897   5.392   4.681
 9965SOL    HW230795   2.019   5.491   4.634
 9966SOL     OW30796   2.226   5.026   1.790
 9966SOL    HW130797   2.178   4.954   1.840
 9966SOL    HW230798   2.269   4.987   1.709
 9967SOL     OW30799   6.951   0.396   2.504
 9967SOL    HW130800   7.014   0.393   2.582
 9967SOL    HW230801   6.857   0.383   2.537
 9968SOL     OW30802   4.848   6.480   0.408
 9968SOL    HW130803   4.764   6.516   0.449
 9968SOL    HW230804   4.831   6.387   0.373
 9969SOL     OW30805   0.387   6.371   3.296
 9969SOL    HW130806   0.391   6.401   3.200
 9969SOL    HW230807   0.383   6.271   3.299
 9970SOL     OW30808   0.350   3.035   1.296
 9970SOL    HW130809   0.414   2.990   1.358
 9970SOL    HW230810   0.293   3.100   1.347
 9971SOL     OW30811   6.664   5.216   5.728
 9971SOL    HW130812   6.759   5.185   5.734
 9971SOL    HW230813   6.633   5.248   5.818
 9972SOL     OW30814   2.988   4.556   5.864
 9972SOL    HW130815   3.074   4.608   5.861
 9972SOL    HW230816   2.921   4.607   5.918
 9973SOL     OW30817   2.656   2.321   2.921
 9973SOL    HW130818   2.738   2.301   2.867
 9973SOL    HW230819   2.610   2.401   2.884
 9974SOL     OW30820   0.832   3.281   3.582
 9974SOL    HW130821   0.838   3.314   3.488
 9974SOL    HW230822   0.796   3.187   3.583
 9975SOL     OW30823   1.113   4.622   0.113
 9975SOL    HW130824   1.097   4.712   0.153
 9975SOL    HW230825   1.210   4.612   0.091
 9976SOL     OW30826   4.530   6.066   5.231
 9976SOL    HW130827   4.617   6.034   5.268
 9976SOL    HW230828   4.537   6.073   5.132
 9977SOL     OW30829   4.493   6.983   5.533
 9977SOL    HW130830   4.425   6.917   5.500
 9977SOL    HW230831   4.573   6.980   5.474
 9978SOL     OW30832   6.774   2.837   0.378
 9978SOL    HW130833   6.805   2.773   0.448
 9978SOL    HW230834   6.763   2.790   0.291
 9979SOL     OW30835   3.634   4.125   3.633
 9979SOL    HW130836   3.625   4.147   3.730
 9979SOL    HW230837   3.665   4.030   3.622
 9980SOL     OW30838   0.544   0.212   6.708
 9980SOL    HW130839   0.571   0.284   6.772
 9980SOL    HW230840   0.447   0.192   6.720
 9981SOL     OW30841   5.727   1.342   1.147
 9981SOL    HW130842   5.789   1.363   1.222
 9981SOL    HW230843   5.691   1.249   1.158
 9982SOL     OW30844   2.781   2.101   5.174
 9982SOL    HW130845   2.704   2.062   5.123
 9982SOL    HW230846   2.866   2.085   5.124
 9983SOL     OW30847   0.176   2.989   1.979
 9983SOL    HW130848   0.163   3.034   1.890
 9983SOL    HW230849   0.178   3.057   2.051
 9984SOL     OW30850   1.195   4.419   1.237
 9984SOL    HW130851   1.180   4.491   1.305
 9984SOL    HW230852   1.292   4.393   1.237
 9985SOL     OW30853   4.892   4.200   5.928
 9985SOL    HW130854   4.854   4.291   5.909
 9985SOL    HW230855   4.818   4.135   5.943
 9986SOL     OW30856   5.748   4.286   6.766
 9986SOL    HW130857   5.749   4.267   6.864
 9986SOL    HW230858   5.656   4.268   6.730
 9987SOL     OW30859   5.047   2.478   0.617
 9987SOL    HW130860   5.089   2.505   0.530
 9987SOL    HW230861   5.098   2.402   0.657
 9988SOL     OW30862   5.619   6.482   3.603
 9988SOL    HW130863   5.716   6.477   3.628
 9988SOL    HW230864   5.575   6.554   3.656
 9989SOL     OW30865   6.160   5.601   2.034
 9989SOL    HW130866   6.145   5.590   2.132
 9989SOL    HW230867   6.081   5.565   1.984
 9990SOL     OW30868   0.186   6.003   3.039
 9990SOL    HW130869   0.136   5.918   3.054
 9990SOL    HW230870   0.121   6.080   3.040
 9991SOL     OW30871   1.957   3.436   1.959
 9991SOL    HW130872   1.971   3.381   1.876
 9991SOL    HW230873   2.036   3.496   1.972
 9992SOL     OW30874   2.219   4.794   0.331
 9992SOL    HW130875   2.251   4.888   0.331
 9992SOL    HW230876   2.207   4.762   0.237
 9993SOL     OW30877   3.418   0.115   4.354
 9993SOL    HW130878   3.348   0.148   4.417
 9993SOL    HW230879   3.384   0.034   4.306
 9994SOL     OW30880   5.686   5.047   5.269
 9994SOL    HW130881   5.672   4.962   5.218
 9994SOL    HW230882   5.784   5.062   5.282
 9995SOL     OW30883   4.427   1.233   5.844
 9995SOL    HW130884   4.337   1.247   5.804
 9995SOL    HW230885   4.474   1.160   5.793
 9996SOL     OW30886   2.510   4.736   0.836
 9996SOL    HW130887   2.454   4.741   0.754
 9996SOL    HW230888   2.593   4.684   0.816
 9997SOL     OW30889   6.355   0.717   2.765
 9997SOL    HW130890   6.270   0.696   2.812
 9997SOL    HW230891   6.432   0.699   2.827
 9998SOL     OW30892   5.205   3.588   2.046
 9998SOL    HW130893   5.128   3.526   2.038
 9998SOL    HW230894   5.226   3.605   2.143
 9999SOL     OW30895   0.597   6.826   5.048
 9999SOL    HW130896   0.691   6.820   5.082
 9999SOL    HW230897   0.580   6.752   4.983
10000SOL     OW30898   4.612   3.413   1.366
10000SOL    HW130899   4.607   3.394   1.464
10000SOL    HW230900   4.676   3.349   1.323
10001SOL     OW30901   3.889   6.808   1.558
10001SOL    HW130902   3.831   6.844   1.630
10001SOL    HW230903   3.967   6.761   1.598
10002SOL     OW30904   2.109   6.669   2.581
10002SOL    HW130905   2.141   6.743   2.522
10002SOL    HW230906   2.145   6.682   2.673
10003SOL     OW30907   0.590   0.933   2.518
10003SOL    HW130908   0.495   0.954   2.542
10003SOL    HW230909   0.595   0.841   2.479
10004SOL     OW30910   0.102   3.319   3.182
10004SOL    HW130911   0.168   3.394   3.177
10004SOL    HW230912   0.114   3.270   3.269
10005SOL     OW30913   1.946   5.885   2.568
10005SOL    HW130914   1.904   5.935   2.644
10005SOL    HW230915   2.027   5.837   2.601
10006SOL     OW30916   5.534   1.827   5.930
10006SOL    HW130917   5.506   1.923   5.932
10006SOL    HW230918   5.569   1.801   6.020
10007SOL     OW30919   1.142   4.734   3.683
10007SOL    HW130920   1.071   4.805   3.685
10007SOL    HW230921   1.147   4.695   3.591
10008SOL     OW30922   4.098   0.338   5.720
10008SOL    HW130923   4.191   0.361   5.689
10008SOL    HW230924   4.078   0.389   5.804
10009SOL     OW30925   1.637   5.263   1.727
10009SOL    HW130926   1.552   5.212   1.741
10009SOL    HW230927   1.666   5.303   1.814
10010SOL     OW30928   2.012   4.746   0.794
10010SOL    HW130929   1.938   4.682   0.817
10010SOL    HW230930   2.018   4.755   0.694
10011SOL     OW30931   3.325   3.699   0.141
10011SOL    HW130932   3.343   3.636   0.217
10011SOL    HW230933   3.404   3.701   0.080
10012SOL     OW30934   5.730   1.998   2.970
10012SOL    HW130935   5.740   2.012   3.069
10012SOL    HW230936   5.811   1.950   2.935
10013SOL     OW30937   0.537   6.190   5.519
10013SOL    HW130938   0.542   6.094   5.548
10013SOL    HW230939   0.454   6.204   5.465
10014SOL     OW30940   1.508   0.916   2.867
10014SOL    HW130941   1.514   1.008   2.826
10014SOL    HW230942   1.561   0.915   2.952
10015SOL     OW30943   4.502   0.428   6.734
10015SOL    HW130944   4.589   0.381   6.719
10015SOL    HW230945   4.432   0.385   6.676
10016SOL     OW30946   3.207   1.029   4.571
10016SOL    HW130947   3.184   1.094   4.643
10016SOL    HW230948   3.244   0.946   4.612
10017SOL     OW30949   3.240   1.228   2.955
10017SOL    HW130950   3.244   1.201   3.051
10017SOL    HW230951   3.169   1.297   2.943
10018SOL     OW30952   0.104   5.076   5.865
10018SOL    HW130953   0.166   5.009   5.906
10018SOL    HW230954   0.090   5.054   5.768
10019SOL     OW30955   0.009   1.742   2.954
10019SOL    HW130956   6.963   1.811   2.941
10019SOL    HW230957   0.012   1.682   2.874
10020SOL     OW30958   6.634   0.633   2.501
10020SOL    HW130959   6.640   0.670   2.409
10020SOL    HW230960   6.689   0.688   2.563
10021SOL     OW30961   1.128   3.073   1.731
10021SOL    HW130962   1.054   3.134   1.760
10021SOL    HW230963   1.173   3.110   1.650
10022SOL     OW30964   1.110   6.607   5.812
10022SOL    HW130965   1.064   6.525   5.848
10022SOL    HW230966   1.175   6.581   5.742
10023SOL     OW30967   1.338   1.684   5.372
10023SOL    HW130968   1.251   1.711   5.414
10023SOL    HW230969   1.333   1.589   5.342
10024SOL     OW30970   2.283   4.430   3.569
10024SOL    HW130971   2.287   4.359   3.500
10024SOL    HW230972   2.375   4.456   3.597
10025SOL     OW30973   0.435   2.547   0.870
10025SOL    HW130974   0.375   2.609   0.920
10025SOL    HW230975   0.508   2.600   0.827
10026SOL     OW30976   6.616   1.048   4.979
10026SOL    HW130977   6.638   1.130   5.031
10026SOL    HW230978   6.617   0.968   5.040
10027SOL     OW30979   3.381   1.259   5.803
10027SOL    HW130980   3.342   1.209   5.880
10027SOL    HW230981   3.310   1.314   5.760
10028SOL     OW30982   3.622   6.735   2.538
10028SOL    HW130983   3.696   6.694   2.591
10028SOL    HW230984   3.535   6.721   2.586
10029SOL     OW30985   6.792   4.984   4.352
10029SOL    HW130986   6.790   4.889   4.320
10029SOL    HW230987   6.812   4.986   4.450
10030SOL     OW30988   2.942   6.914   4.150
10030SOL    HW130989   3.017   6.852   4.171
10030SOL    HW230990   2.932   6.922   4.051
10031SOL     OW30991   1.794   6.367   4.227
10031SOL    HW130992   1.772   6.438   4.294
10031SOL    HW230993   1.812   6.281   4.275
10032SOL     OW30994   2.696   5.695   4.004
10032SOL    HW130995   2.720   5.713   3.908
10032SOL    HW230996   2.642   5.611   4.009
10033SOL     OW30997   2.769   1.126   4.752
10033SOL    HW130998   2.785   1.029   4.770
10033SOL    HW230999   2.855   1.172   4.734
10034SOL     OW31000   2.283   1.068   1.834
10034SOL    HW131001   2.307   1.112   1.921
10034SOL    HW231002   2.314   1.124   1.758
10035SOL     OW31003   0.283   3.194   2.147
10035SOL    HW131004   0.361   3.149   2.103
10035SOL    HW231005   0.316   3.265   2.209
10036SOL     OW31006   0.123   1.389   6.867
10036SOL    HW131007   0.158   1.379   6.774
10036SOL    HW231008   0.194   1.365   6.933
10037SOL     OW31009   6.345   0.597   6.230
10037SOL    HW131010   6.301   0.685   6.249
10037SOL    HW231011   6.395   0.567   6.311
10038SOL     OW31012   5.300   6.825   7.017
10038SOL    HW131013   5.254   6.872   6.942
10038SOL    HW231014   5.388   6.790   6.985
10039SOL     OW31015   0.017   5.167   1.730
10039SOL    HW131016   0.068   5.164   1.816
10039SOL    HW231017   7.004   5.258   1.717
10040SOL     OW31018   2.838   6.807   0.114
10040SOL    HW131019   2.745   6.788   0.081
10040SOL    HW231020   2.844   6.785   0.211
10041SOL     OW31021   5.429   5.009   5.581
10041SOL    HW131022   5.463   5.080   5.643
10041SOL    HW231023   5.483   4.925   5.594
10042SOL     OW31024   6.263   0.857   5.601
10042SOL    HW131025   6.242   0.886   5.508
10042SOL    HW231026   6.305   0.933   5.651
10043SOL     OW31027   0.731   0.379   2.897
10043SOL    HW131028   0.792   0.314   2.942
10043SOL    HW231029   0.687   0.335   2.818
10044SOL     OW31030   2.859   2.205   6.558
10044SOL    HW131031   2.768   2.213   6.598
10044SOL    HW231032   2.891   2.296   6.530
10045SOL     OW31033   4.221   7.002   4.189
10045SOL    HW131034   4.185   0.068   4.208
10045SOL    HW231035   4.263   6.965   4.272
10046SOL     OW31036   6.923   1.994   1.679
10046SOL    HW131037   6.954   1.996   1.584
10046SOL    HW231038   6.940   2.083   1.721
10047SOL     OW31039   1.427   2.601   2.853
10047SOL    HW131040   1.368   2.668   2.898
10047SOL    HW231041   1.506   2.582   2.911
10048SOL     OW31042   3.603   2.630   1.767
10048SOL    HW131043   3.594   2.685   1.850
10048SOL    HW231044   3.608   2.533   1.790
10049SOL     OW31045   1.616   5.487   4.460
10049SOL    HW131046   1.704   5.527   4.487
10049SOL    HW231047   1.597   5.408   4.518
10050SOL     OW31048   5.892   1.706   4.547
10050SOL    HW131049   5.800   1.671   4.565
10050SOL    HW231050   5.958   1.632   4.556
10051SOL     OW31051   6.266   2.067   1.027
10051SOL    HW131052   6.185   2.040   1.078
10051SOL    HW231053   6.348   2.035   1.074
10052SOL     OW31054   1.994   5.160   1.013
10052SOL    HW131055   1.974   5.127   0.921
10052SOL    HW231056   1.927   5.229   1.039
10053SOL     OW31057   2.947   6.057   3.356
10053SOL    HW131058   2.965   6.106   3.270
10053SOL    HW231059   3.033   6.017   3.389
10054SOL     OW31060   4.706   5.363   3.657
10054SOL    HW131061   4.733   5.292   3.722
10054SOL    HW231062   4.751   5.347   3.569
10055SOL     OW31063   5.045   2.824   6.822
10055SOL    HW131064   5.036   2.829   6.921
10055SOL    HW231065   4.980   2.758   6.786
10056SOL     OW31066   5.066   4.010   2.939
10056SOL    HW131067   5.069   4.110   2.936
10056SOL    HW231068   4.979   3.980   2.980
10057SOL     OW31069   2.214   2.435   2.998
10057SOL    HW131070   2.142   2.499   2.969
10057SOL    HW231071   2.218   2.359   2.933
10058SOL     OW31072   0.672   4.916   4.201
10058SOL    HW131073   0.692   4.959   4.114
10058SOL    HW231074   0.690   4.980   4.276
10059SOL     OW31075   4.913   6.861   1.572
10059SOL    HW131076   5.002   6.816   1.578
10059SOL    HW231077   4.910   6.921   1.492
10060SOL     OW31078   2.301   2.700   2.291
10060SOL    HW131079   2.377   2.636   2.303
10060SOL    HW231080   2.245   2.702   2.374
10061SOL     OW31081   6.440   1.765   5.405
10061SOL    HW131082   6.529   1.792   5.442
10061SOL    HW231083   6.392   1.846   5.372
10062SOL     OW31084   5.220   6.015   3.114
10062SOL    HW131085   5.192   6.016   3.210
10062SOL    HW231086   5.293   6.082   3.100
10063SOL     OW31087   0.536   2.335   2.124
10063SOL    HW131088   0.478   2.311   2.046
10063SOL    HW231089   0.498   2.416   2.170
10064SOL     OW31090   4.827   5.354   5.622
10064SOL    HW131091   4.874   5.442   5.623
10064SOL    HW231092   4.834   5.311   5.712
10065SOL     OW31093   0.421   0.054   2.615
10065SOL    HW131094   0.387   0.084   2.704
10065SOL    HW231095   0.514   0.089   2.601
10066SOL     OW31096   0.408   0.914   3.883
10066SOL    HW131097   0.463   0.939   3.803
10066SOL    HW231098   0.322   0.965   3.882
10067SOL     OW31099   4.571   6.831   3.651
10067SOL    HW131100   4.615   6.816   3.563
10067SOL    HW231101   4.571   6.746   3.703
10068SOL     OW31102   5.269   3.318   5.335
10068SOL    HW131103   5.179   3.299   5.298
10068SOL    HW231104   5.290   3.415   5.326
10069SOL     OW31105   5.247   1.224   3.882
10069SOL    HW131106   5.166   1.264   3.923
10069SOL    HW231107   5.227   1.130   3.853
10070SOL     OW31108   1.257   0.137   4.458
10070SOL    HW131109   1.325   0.149   4.386
10070SOL    HW231110   1.199   0.059   4.437
10071SOL     OW31111   5.221   4.390   5.185
10071SOL    HW131112   5.194   4.297   5.210
10071SOL    HW231113   5.228   4.446   5.268
10072SOL     OW31114   1.024   6.634   4.370
10072SOL    HW131115   0.950   6.639   4.438
10072SOL    HW231116   0.993   6.674   4.284
10073SOL     OW31117   6.851   5.754   6.568
10073SOL    HW131118   6.894   5.678   6.616
10073SOL    HW231119   6.847   5.734   6.470
10074SOL     OW31120   2.612   6.939   4.716
10074SOL    HW131121   2.587   7.024   4.762
10074SOL    HW231122   2.559   6.930   4.632
10075SOL     OW31123   1.761   2.759   4.509
10075SOL    HW131124   1.680   2.730   4.560
10075SOL    HW231125   1.820   2.813   4.568
10076SOL     OW31126   5.967   0.182   3.933
10076SOL    HW131127   5.939   0.213   3.842
10076SOL    HW231128   6.058   0.141   3.929
10077SOL     OW31129   3.486   1.667   6.572
10077SOL    HW131130   3.496   1.706   6.480
10077SOL    HW231131   3.445   1.736   6.633
10078SOL     OW31132   5.319   6.020   5.338
10078SOL    HW131133   5.392   6.023   5.407
10078SOL    HW231134   5.345   5.958   5.264
10079SOL     OW31135   0.182   2.703   6.096
10079SOL    HW131136   0.085   2.676   6.089
10079SOL    HW231137   0.199   2.745   6.185
10080SOL     OW31138   1.168   2.756   5.714
10080SOL    HW131139   1.127   2.665   5.714
10080SOL    HW231140   1.263   2.750   5.682
10081SOL     OW31141   0.528   1.257   0.042
10081SOL    HW131142   0.627   1.270   0.050
10081SOL    HW231143   0.495   1.206   0.122
10082SOL     OW31144   6.909   0.564   0.523
10082SOL    HW131145   6.900   0.636   0.592
10082SOL    HW231146   7.005   0.555   0.496
10083SOL     OW31147   5.388   1.608   4.126
10083SOL    HW131148   5.306   1.574   4.172
10083SOL    HW231149   5.461   1.618   4.193
10084SOL     OW31150   2.618   0.582   6.576
10084SOL    HW131151   2.572   0.667   6.549
10084SOL    HW231152   2.716   0.598   6.583
10085SOL     OW31153   1.118   5.039   2.601
10085SOL    HW131154   1.172   4.975   2.655
10085SOL    HW231155   1.022   5.033   2.627
10086SOL     OW31156   6.958   3.357   1.844
10086SOL    HW131157   6.879   3.417   1.838
10086SOL    HW231158   6.939   3.283   1.908
10087SOL     OW31159   1.928   0.597   3.309
10087SOL    HW131160   1.918   0.595   3.210
10087SOL    HW231161   1.929   0.692   3.341
10088SOL     OW31162   5.935   0.359   4.505
10088SOL    HW131163   5.940   0.458   4.492
10088SOL    HW231164   6.021   0.326   4.544
10089SOL     OW31165   2.289   2.387   1.869
10089SOL    HW131166   2.356   2.314   1.856
10089SOL    HW231167   2.228   2.363   1.945
10090SOL     OW31168   0.373   5.332   1.871
10090SOL    HW131169   0.390   5.408   1.808
10090SOL    HW231170   0.424   5.349   1.956
10091SOL     OW31171   0.352   1.701   3.959
10091SOL    HW131172   0.284   1.642   3.917
10091SOL    HW231173   0.408   1.744   3.888
10092SOL     OW31174   1.731   2.987   5.282
10092SOL    HW131175   1.763   3.059   5.344
10092SOL    HW231176   1.638   3.008   5.251
10093SOL     OW31177   6.840   6.403   6.223
10093SOL    HW131178   6.853   6.502   6.223
10093SOL    HW231179   6.756   6.380   6.272
10094SOL     OW31180   1.655   0.462   1.749
10094SOL    HW131181   1.695   0.457   1.658
10094SOL    HW231182   1.631   0.370   1.780
10095SOL     OW31183   6.962   2.150   5.357
10095SOL    HW131184   6.998   2.217   5.293
10095SOL    HW231185   6.941   2.195   5.444
10096SOL     OW31186   0.058   5.696   2.580
10096SOL    HW131187   0.003   5.763   2.529
10096SOL    HW231188   0.154   5.723   2.576
10097SOL     OW31189   1.053   2.529   5.655
10097SOL    HW131190   0.973   2.518   5.596
10097SOL    HW231191   1.075   2.442   5.698
10098SOL     OW31192   3.684   5.042   6.358
10098SOL    HW131193   3.728   5.067   6.272
10098SOL    HW231194   3.627   4.962   6.344
10099SOL     OW31195   0.080   4.646   4.749
10099SOL    HW131196   7.009   4.647   4.777
10099SOL    HW231197   0.089   4.688   4.658
10100SOL     OW31198   4.988   0.191   5.455
10100SOL    HW131199   4.972   0.221   5.361
10100SOL    HW231200   4.904   0.202   5.508
10101SOL     OW31201   6.975   4.600   2.597
10101SOL    HW131202   6.934   4.593   2.507
10101SOL    HW231203   0.048   4.616   2.588
10102SOL     OW31204   3.728   0.427   4.155
10102SOL    HW131205   3.788   0.410   4.234
10102SOL    HW231206   3.741   0.520   4.122
10103SOL     OW31207   0.898   2.412   0.438
10103SOL    HW131208   0.803   2.411   0.469
10103SOL    HW231209   0.958   2.430   0.515
10104SOL     OW31210   2.089   6.087   5.891
10104SOL    HW131211   2.155   6.162   5.889
10104SOL    HW231212   1.997   6.125   5.888
10105SOL     OW31213   3.384   0.572   0.198
10105SOL    HW131214   3.339   0.638   0.258
10105SOL    HW231215   3.416   0.494   0.252
10106SOL     OW31216   4.819   5.200   1.387
10106SOL    HW131217   4.751   5.256   1.340
10106SOL    HW231218   4.883   5.161   1.321
10107SOL     OW31219   5.597   1.016   6.019
10107SOL    HW131220   5.509   1.016   5.972
10107SOL    HW231221   5.599   0.941   6.086
10108SOL     OW31222   5.692   6.278   6.505
10108SOL    HW131223   5.739   6.286   6.593
10108SOL    HW231224   5.595   6.259   6.521
10109SOL     OW31225   4.944   5.634   3.439
10109SOL    HW131226   4.876   5.604   3.507
10109SOL    HW231227   5.033   5.594   3.461
10110SOL     OW31228   3.100   1.347   5.367
10110SOL    HW131229   3.136   1.440   5.355
10110SOL    HW231230   3.068   1.313   5.278
10111SOL     OW31231   6.904   2.299   2.346
10111SOL    HW131232   6.929   2.356   2.425
10111SOL    HW231233   6.986   2.270   2.299
10112SOL     OW31234   4.600   3.360   6.237
10112SOL    HW131235   4.648   3.389   6.155
10112SOL    HW231236   4.661   3.304   6.293
10113SOL     OW31237   4.121   6.816   0.974
10113SOL    HW131238   4.093   6.755   0.900
10113SOL    HW231239   4.217   6.799   0.997
10114SOL     OW31240   4.741   1.432   2.145
10114SOL    HW131241   4.695   1.519   2.125
10114SOL    HW231242   4.707   1.396   2.232
10115SOL     OW31243   0.850   2.048   4.803
10115SOL    HW131244   0.838   1.972   4.739
10115SOL    HW231245   0.946   2.055   4.830
10116SOL     OW31246   0.659   0.547   0.675
10116SOL    HW131247   0.595   0.602   0.621
10116SOL    HW231248   0.718   0.608   0.729
10117SOL     OW31249   4.738   0.180   5.559
10117SOL    HW131250   4.720   0.259   5.617
10117SOL    HW231251   4.653   0.127   5.547
10118SOL     OW31252   6.086   5.645   2.322
10118SOL    HW131253   5.995   5.621   2.291
10118SOL    HW231254   6.085   5.736   2.364
10119SOL     OW31255   2.103   7.020   6.102
10119SOL    HW131256   2.007   0.012   6.124
10119SOL    HW231257   2.142   0.077   6.059
10120SOL     OW31258   5.607   2.971   3.252
10120SOL    HW131259   5.604   2.919   3.166
10120SOL    HW231260   5.682   3.036   3.249
10121SOL     OW31261   5.891   4.717   3.800
10121SOL    HW131262   5.804   4.680   3.767
10121SOL    HW231263   5.878   4.759   3.890
10122SOL     OW31264   5.286   2.676   0.139
10122SOL    HW131265   5.276   2.585   0.098
10122SOL    HW231266   5.371   2.679   0.192
10123SOL     OW31267   0.208   0.043   0.024
10123SOL    HW131268   0.261   0.118   0.064
10123SOL    HW231269   0.134   0.018   0.086
10124SOL     OW31270   3.200   4.468   0.944
10124SOL    HW131271   3.187   4.508   1.035
10124SOL    HW231272   3.197   4.368   0.951
10125SOL     OW31273   2.065   0.256   0.570
10125SOL    HW131274   2.015   0.333   0.611
10125SOL    HW231275   2.084   0.275   0.474
10126SOL     OW31276   5.286   5.132   6.880
10126SOL    HW131277   5.247   5.205   6.937
10126SOL    HW231278   5.365   5.092   6.926
10127SOL     OW31279   3.641   4.924   5.175
10127SOL    HW131280   3.616   4.829   5.195
10127SOL    HW231281   3.728   4.945   5.220
10128SOL     OW31282   0.770   1.591   1.021
10128SOL    HW131283   0.812   1.567   0.934
10128SOL    HW231284   0.797   1.684   1.046
10129SOL     OW31285   5.400   2.577   3.171
10129SOL    HW131286   5.396   2.532   3.082
10129SOL    HW231287   5.376   2.512   3.243
10130SOL     OW31288   6.406   5.962   1.507
10130SOL    HW131289   6.435   6.023   1.434
10130SOL    HW231290   6.308   5.941   1.496
10131SOL     OW31291   0.450   0.341   0.421
10131SOL    HW131292   0.440   0.357   0.519
10131SOL    HW231293   0.456   0.242   0.404
10132SOL     OW31294   2.621   6.960   2.466
10132SOL    HW131295   2.641   6.895   2.539
10132SOL    HW231296   2.645   0.028   2.497
10133SOL     OW31297   6.130   5.083   2.415
10133SOL    HW131298   6.168   5.127   2.334
10133SOL    HW231299   6.198   5.083   2.489
10134SOL     OW31300   0.575   1.479   1.897
10134SOL    HW131301   0.647   1.435   1.951
10134SOL    HW231302   0.491   1.426   1.904
10135SOL     OW31303   2.768   6.096   2.828
10135SOL    HW131304   2.738   6.184   2.791
10135SOL    HW231305   2.697   6.027   2.810
10136SOL     OW31306   6.440   6.786   2.614
10136SOL    HW131307   6.502   6.842   2.559
10136SOL    HW231308   6.407   6.709   2.559
10137SOL     OW31309   5.613   5.305   4.430
10137SOL    HW131310   5.579   5.227   4.378
10137SOL    HW231311   5.579   5.300   4.524
10138SOL     OW31312   5.956   2.944   6.186
10138SOL    HW131313   5.864   2.963   6.223
10138SOL    HW231314   5.997   2.869   6.237
10139SOL     OW31315   3.794   3.157   3.332
10139SOL    HW131316   3.748   3.196   3.252
10139SOL    HW231317   3.893   3.164   3.320
10140SOL     OW31318   1.149   5.095   3.909
10140SOL    HW131319   1.173   5.148   3.990
10140SOL    HW231320   1.071   5.136   3.863
10141SOL     OW31321   2.412   0.510   4.146
10141SOL    HW131322   2.478   0.580   4.171
10141SOL    HW231323   2.399   0.510   4.046
10142SOL     OW31324   5.419   5.824   4.297
10142SOL    HW131325   5.458   5.733   4.279
10142SOL    HW231326   5.347   5.843   4.230
10143SOL     OW31327   4.687   5.935   1.258
10143SOL    HW131328   4.654   6.026   1.286
10143SOL    HW231329   4.614   5.887   1.208
10144SOL     OW31330   2.806   4.790   3.218
10144SOL    HW131331   2.840   4.780   3.312
10144SOL    HW231332   2.732   4.724   3.203
10145SOL     OW31333   2.575   6.972   6.465
10145SOL    HW131334   2.662   6.947   6.507
10145SOL    HW231335   2.534   6.892   6.422
10146SOL     OW31336   4.776   4.567   4.018
10146SOL    HW131337   4.719   4.648   4.003
10146SOL    HW231338   4.832   4.551   3.937
10147SOL     OW31339   4.948   5.815   4.171
10147SOL    HW131340   4.961   5.723   4.136
10147SOL    HW231341   4.922   5.811   4.268
10148SOL     OW31342   6.242   5.456   0.757
10148SOL    HW131343   6.322   5.399   0.776
10148SOL    HW231344   6.160   5.411   0.793
10149SOL     OW31345   4.393   3.405   1.186
10149SOL    HW131346   4.463   3.399   1.258
10149SOL    HW231347   4.426   3.465   1.113
10150SOL     OW31348   5.458   4.044   0.873
10150SOL    HW131349   5.397   4.117   0.841
10150SOL    HW231350   5.515   4.012   0.798
10151SOL     OW31351   0.455   5.842   5.837
10151SOL    HW131352   0.453   5.748   5.804
10151SOL    HW231353   0.445   5.842   5.937
10152SOL     OW31354   0.511   5.712   4.305
10152SOL    HW131355   0.419   5.672   4.306
10152SOL    HW231356   0.546   5.714   4.211
10153SOL     OW31357   5.240   5.595   3.913
10153SOL    HW131358   5.200   5.563   3.827
10153SOL    HW231359   5.205   5.686   3.934
10154SOL     OW31360   6.719   5.945   5.932
10154SOL    HW131361   6.711   5.974   5.836
10154SOL    HW231362   6.795   5.994   5.975
10155SOL     OW31363   3.781   1.091   6.010
10155SOL    HW131364   3.858   1.027   6.003
10155SOL    HW231365   3.702   1.054   5.960
10156SOL     OW31366   6.025   0.225   2.525
10156SOL    HW131367   6.069   0.247   2.438
10156SOL    HW231368   5.991   0.309   2.568
10157SOL     OW31369   5.088   0.756   3.994
10157SOL    HW131370   5.045   0.668   4.013
10157SOL    HW231371   5.188   0.745   3.996
10158SOL     OW31372   4.937   3.405   6.258
10158SOL    HW131373   4.943   3.312   6.223
10158SOL    HW231374   4.884   3.462   6.194
10159SOL     OW31375   1.828   1.185   6.404
10159SOL    HW131376   1.894   1.173   6.478
10159SOL    HW231377   1.758   1.114   6.411
10160SOL     OW31378   0.461   5.917   3.435
10160SOL    HW131379   0.449   6.009   3.473
10160SOL    HW231380   0.489   5.854   3.507
10161SOL     OW31381   2.345   5.798   5.310
10161SOL    HW131382   2.442   5.823   5.315
10161SOL    HW231383   2.319   5.751   5.394
10162SOL     OW31384   3.442   2.736   6.701
10162SOL    HW131385   3.521   2.796   6.707
10162SOL    HW231386   3.404   2.740   6.608
10163SOL     OW31387   0.173   3.154   6.328
10163SOL    HW131388   0.201   3.137   6.422
10163SOL    HW231389   0.173   3.252   6.310
10164SOL     OW31390   1.380   2.405   5.778
10164SOL    HW131391   1.444   2.329   5.771
10164SOL    HW231392   1.340   2.423   5.688
10165SOL     OW31393   0.264   1.731   3.344
10165SOL    HW131394   0.239   1.795   3.271
10165SOL    HW231395   0.222   1.760   3.430
10166SOL     OW31396   0.553   1.075   1.880
10166SOL    HW131397   0.461   1.081   1.843
10166SOL    HW231398   0.549   1.052   1.978
10167SOL     OW31399   5.110   0.973   0.751
10167SOL    HW131400   5.193   0.967   0.696
10167SOL    HW231401   5.109   0.899   0.818
10168SOL     OW31402   6.560   4.390   4.505
10168SOL    HW131403   6.604   4.352   4.586
10168SOL    HW231404   6.569   4.490   4.505
10169SOL     OW31405   6.608   4.003   4.669
10169SOL    HW131406   6.611   4.047   4.759
10169SOL    HW231407   6.513   3.977   4.648
10170SOL     OW31408   0.976   4.048   4.718
10170SOL    HW131409   0.931   3.975   4.770
10170SOL    HW231410   0.985   4.129   4.775
10171SOL     OW31411   5.841   2.992   6.504
10171SOL    HW131412   5.838   2.906   6.556
10171SOL    HW231413   5.765   2.994   6.439
10172SOL     OW31414   4.702   0.824   4.220
10172SOL    HW131415   4.724   0.881   4.300
10172SOL    HW231416   4.774   0.834   4.152
10173SOL     OW31417   2.252   2.248   2.808
10173SOL    HW131418   2.279   2.228   2.714
10173SOL    HW231419   2.240   2.162   2.858
10174SOL     OW31420   5.976   4.324   0.980
10174SOL    HW131421   5.929   4.236   0.977
10174SOL    HW231422   6.037   4.332   0.902
10175SOL     OW31423   5.604   2.750   6.014
10175SOL    HW131424   5.555   2.663   6.006
10175SOL    HW231425   5.567   2.814   5.946
10176SOL     OW31426   2.252   3.406   0.516
10176SOL    HW131427   2.185   3.365   0.578
10176SOL    HW231428   2.251   3.506   0.527
10177SOL     OW31429   1.910   0.367   5.447
10177SOL    HW131430   1.861   0.281   5.464
10177SOL    HW231431   1.919   0.382   5.349
10178SOL     OW31432   5.080   2.887   5.600
10178SOL    HW131433   5.147   2.869   5.672
10178SOL    HW231434   5.127   2.917   5.518
10179SOL     OW31435   6.968   3.477   6.720
10179SOL    HW131436   6.954   3.471   6.621
10179SOL    HW231437   6.885   3.512   6.762
10180SOL     OW31438   1.949   6.815   5.706
10180SOL    HW131439   1.913   6.870   5.782
10180SOL    HW231440   1.880   6.810   5.634
10181SOL     OW31441   5.816   3.484   1.772
10181SOL    HW131442   5.749   3.440   1.712
10181SOL    HW231443   5.822   3.581   1.748
10182SOL     OW31444   4.503   1.253   0.156
10182SOL    HW131445   4.579   1.220   0.100
10182SOL    HW231446   4.539   1.304   0.235
10183SOL     OW31447   2.162   1.487   6.366
10183SOL    HW131448   2.103   1.561   6.399
10183SOL    HW231449   2.192   1.431   6.443
10184SOL     OW31450   4.851   0.277   6.893
10184SOL    HW131451   4.795   0.237   6.820
10184SOL    HW231452   4.793   0.306   6.968
10185SOL     OW31453   4.744   1.228   7.001
10185SOL    HW131454   4.806   1.291   6.954
10185SOL    HW231455   4.738   1.142   6.950
10186SOL     OW31456   5.081   2.194   2.973
10186SOL    HW131457   5.070   2.291   2.991
10186SOL    HW231458   5.012   2.142   3.024
10187SOL     OW31459   0.790   2.088   2.484
10187SOL    HW131460   0.705   2.038   2.468
10187SOL    HW231461   0.851   2.078   2.406
10188SOL     OW31462   3.859   4.942   0.612
10188SOL    HW131463   3.803   4.928   0.531
10188SOL    HW231464   3.857   5.039   0.637
10189SOL     OW31465   1.447   7.003   5.350
10189SOL    HW131466   1.479   0.046   5.417
10189SOL    HW231467   1.500   7.013   5.266
10190SOL     OW31468   4.741   2.426   6.921
10190SOL    HW131469   4.657   2.414   6.975
10190SOL    HW231470   4.813   2.367   6.957
10191SOL     OW31471   6.770   4.741   6.535
10191SOL    HW131472   6.706   4.795   6.481
10191SOL    HW231473   6.745   4.743   6.631
10192SOL     OW31474   3.601   1.620   0.362
10192SOL    HW131475   3.538   1.543   0.349
10192SOL    HW231476   3.673   1.616   0.293
10193SOL     OW31477   4.303   4.150   0.557
10193SOL    HW131478   4.376   4.097   0.513
10193SOL    HW231479   4.284   4.232   0.503
10194SOL     OW31480   4.664   2.838   5.224
10194SOL    HW131481   4.623   2.811   5.138
10194SOL    HW231482   4.759   2.807   5.227
10195SOL     OW31483   5.673   4.424   1.770
10195SOL    HW131484   5.608   4.392   1.701
10195SOL    HW231485   5.644   4.393   1.861
10196SOL     OW31486   0.238   1.974   4.429
10196SOL    HW131487   0.145   2.003   4.407
10196SOL    HW231488   0.292   1.969   4.344
10197SOL     OW31489   5.650   0.478   0.030
10197SOL    HW131490   5.581   0.513   0.094
10197SOL    HW231491   5.665   0.545   6.982
10198SOL     OW31492   4.240   6.693   3.662
10198SOL    HW131493   4.278   6.695   3.755
10198SOL    HW231494   4.199   6.782   3.640
10199SOL     OW31495   0.492   2.192   5.458
10199SOL    HW131496   0.421   2.217   5.392
10199SOL    HW231497   0.463   2.111   5.509
10200SOL     OW31498   5.001   1.690   1.803
10200SOL    HW131499   5.028   1.623   1.734
10200SOL    HW231500   5.082   1.737   1.837
10201SOL     OW31501   1.442   3.704   0.762
10201SOL    HW131502   1.509   3.736   0.696
10201SOL    HW231503   1.447   3.760   0.845
10202SOL     OW31504   5.305   0.623   3.713
10202SOL    HW131505   5.206   0.612   3.715
10202SOL    HW231506   5.332   0.699   3.772
10203SOL     OW31507   0.096   2.841   4.740
10203SOL    HW131508   0.064   2.916   4.682
10203SOL    HW231509   0.169   2.791   4.694
10204SOL     OW31510   5.835   4.875   6.768
10204SOL    HW131511   5.854   4.778   6.781
10204SOL    HW231512   5.886   4.928   6.836
10205SOL     OW31513   0.227   1.555   6.577
10205SOL    HW131514   0.281   1.488   6.629
10205SOL    HW231515   0.138   1.516   6.555
10206SOL     OW31516   2.018   1.570   4.862
10206SOL    HW131517   2.018   1.649   4.802
10206SOL    HW231518   1.953   1.584   4.936
10207SOL     OW31519   2.653   2.528   5.916
10207SOL    HW131520   2.694   2.564   5.832
10207SOL    HW231521   2.679   2.432   5.928
10208SOL     OW31522   6.800   6.704   5.628
10208SOL    HW131523   6.703   6.705   5.652
10208SOL    HW231524   6.845   6.628   5.674
10209SOL     OW31525   6.272   6.574   5.654
10209SOL    HW131526   6.233   6.665   5.642
10209SOL    HW231527   6.372   6.580   5.654
10210SOL     OW31528   3.749   0.574   1.602
10210SOL    HW131529   3.735   0.603   1.697
10210SOL    HW231530   3.845   0.585   1.578
10211SOL     OW31531   5.146   5.388   6.195
10211SOL    HW131532   5.069   5.349   6.245
10211SOL    HW231533   5.117   5.472   6.149
10212SOL     OW31534   0.528   0.519   6.510
10212SOL    HW131535   0.510   0.614   6.536
10212SOL    HW231536   0.454   0.460   6.542
10213SOL     OW31537   6.680   2.469   1.180
10213SOL    HW131538   6.739   2.540   1.217
10213SOL    HW231539   6.727   2.381   1.182
10214SOL     OW31540   1.663   2.651   0.057
10214SOL    HW131541   1.689   2.565   0.013
10214SOL    HW231542   1.599   2.701   7.023
10215SOL     OW31543   3.110   4.027   2.819
10215SOL    HW131544   3.090   3.956   2.752
10215SOL    HW231545   3.055   4.108   2.799
10216SOL     OW31546   0.755   5.970   2.127
10216SOL    HW131547   0.667   5.952   2.083
10216SOL    HW231548   0.753   5.936   2.221
10217SOL     OW31549   4.209   1.926   5.294
10217SOL    HW131550   4.294   1.889   5.331
10217SOL    HW231551   4.160   1.855   5.244
10218SOL     OW31552   1.101   3.282   2.507
10218SOL    HW131553   1.059   3.253   2.593
10218SOL    HW231554   1.147   3.370   2.521
10219SOL     OW31555   0.019   6.280   2.988
10219SOL    HW131556   0.116   6.261   2.971
10219SOL    HW231557   0.005   6.378   2.995
10220SOL     OW31558   3.343   3.127   7.024
10220SOL    HW131559   3.402   3.105   0.077
10220SOL    HW231560   3.382   3.204   6.973
10221SOL     OW31561   1.267   5.036   3.333
10221SOL    HW131562   1.200   4.964   3.353
10221SOL    HW231563   1.234   5.123   3.368
10222SOL     OW31564   2.923   3.768   3.735
10222SOL    HW131565   2.921   3.688   3.794
10222SOL    HW231566   2.978   3.748   3.653
10223SOL     OW31567   2.608   6.678   0.894
10223SOL    HW131568   2.567   6.715   0.977
10223SOL    HW231569   2.571   6.587   0.876
10224SOL     OW31570   6.902   3.442   3.049
10224SOL    HW131571   6.916   3.537   3.078
10224SOL    HW231572   6.982   3.387   3.077
10225SOL     OW31573   1.580   3.787   5.786
10225SOL    HW131574   1.593   3.820   5.692
10225SOL    HW231575   1.650   3.827   5.845
10226SOL     OW31576   4.735   4.266   7.023
10226SOL    HW131577   4.657   4.245   0.058
10226SOL    HW231578   4.807   4.309   0.052
10227SOL     OW31579   5.486   3.979   1.423
10227SOL    HW131580   5.558   3.950   1.359
10227SOL    HW231581   5.527   4.032   1.497
10228SOL     OW31582   5.417   0.494   0.716
10228SOL    HW131583   5.403   0.412   0.771
10228SOL    HW231584   5.515   0.512   0.707
10229SOL     OW31585   0.152   2.377   4.906
10229SOL    HW131586   0.200   2.464   4.917
10229SOL    HW231587   0.202   2.320   4.841
10230SOL     OW31588   6.681   6.327   1.422
10230SOL    HW131589   6.627   6.391   1.478
10230SOL    HW231590   6.770   6.367   1.403
10231SOL     OW31591   0.277   4.221   2.554
10231SOL    HW131592   0.327   4.174   2.481
10231SOL    HW231593   0.339   4.281   2.604
10232SOL     OW31594   4.615   4.770   2.615
10232SOL    HW131595   4.668   4.786   2.698
10232SOL    HW231596   4.545   4.841   2.606
10233SOL     OW31597   2.686   4.344   5.565
10233SOL    HW131598   2.779   4.314   5.541
10233SOL    HW231599   2.631   4.264   5.589
10234SOL     OW31600   0.506   0.637   2.189
10234SOL    HW131601   0.439   0.709   2.177
10234SOL    HW231602   0.585   0.672   2.239
10235SOL     OW31603   1.429   1.496   3.481
10235SOL    HW131604   1.350   1.437   3.492
10235SOL    HW231605   1.410   1.565   3.411
10236SOL     OW31606   0.618   0.246   2.656
10236SOL    HW131607   0.563   0.327   2.674
10236SOL    HW231608   0.652   0.249   2.561
10237SOL     OW31609   6.764   3.325   5.421
10237SOL    HW131610   6.809   3.402   5.376
10237SOL    HW231611   6.678   3.304   5.373
10238SOL     OW31612   2.839   6.478   1.011
10238SOL    HW131613   2.847   6.551   0.942
10238SOL    HW231614   2.811   6.517   1.098
10239SOL     OW31615   1.044   2.498   5.334
10239SOL    HW131616   0.980   2.428   5.365
10239SOL    HW231617   1.052   2.570   5.403
10240SOL     OW31618   2.079   5.874   1.282
10240SOL    HW131619   2.051   5.914   1.370
10240SOL    HW231620   2.137   5.939   1.233
10241SOL     OW31621   4.285   3.759   1.797
10241SOL    HW131622   4.291   3.663   1.769
10241SOL    HW231623   4.216   3.769   1.868
10242SOL     OW31624   6.870   3.529   0.718
10242SOL    HW131625   6.928   3.453   0.692
10242SOL    HW231626   6.824   3.566   0.638
10243SOL     OW31627   3.199   5.753   2.090
10243SOL    HW131628   3.128   5.716   2.030
10243SOL    HW231629   3.269   5.683   2.105
10244SOL     OW31630   3.003   5.026   1.624
10244SOL    HW131631   2.934   5.049   1.555
10244SOL    HW231632   2.995   4.929   1.647
10245SOL     OW31633   5.607   4.165   1.081
10245SOL    HW131634   5.582   4.227   1.155
10245SOL    HW231635   5.525   4.140   1.030
10246SOL     OW31636   3.483   3.332   3.822
10246SOL    HW131637   3.408   3.323   3.756
10246SOL    HW231638   3.542   3.408   3.796
10247SOL     OW31639   0.617   2.607   4.637
10247SOL    HW131640   0.701   2.638   4.592
10247SOL    HW231641   0.556   2.567   4.568
10248SOL     OW31642   0.238   1.421   5.464
10248SOL    HW131643   0.187   1.506   5.475
10248SOL    HW231644   0.214   1.379   5.376
10249SOL     OW31645   2.542   4.668   5.905
10249SOL    HW131646   2.579   4.756   5.935
10249SOL    HW231647   2.610   4.620   5.850
10250SOL     OW31648   2.856   2.806   0.858
10250SOL    HW131649   2.803   2.731   0.898
10250SOL    HW231650   2.794   2.878   0.828
10251SOL     OW31651   1.405   0.980   4.435
10251SOL    HW131652   1.363   0.889   4.440
10251SOL    HW231653   1.499   0.975   4.467
10252SOL     OW31654   4.648   4.537   6.200
10252SOL    HW131655   4.590   4.616   6.220
10252SOL    HW231656   4.692   4.505   6.284
10253SOL     OW31657   3.826   6.203   6.826
10253SOL    HW131658   3.910   6.233   6.872
10253SOL    HW231659   3.762   6.280   6.819
10254SOL     OW31660   6.584   1.445   6.138
10254SOL    HW131661   6.527   1.493   6.204
10254SOL    HW231662   6.527   1.401   6.070
10255SOL     OW31663   3.945   4.531   1.732
10255SOL    HW131664   4.042   4.506   1.726
10255SOL    HW231665   3.890   4.449   1.742
10256SOL     OW31666   3.012   1.515   4.358
10256SOL    HW131667   2.975   1.606   4.381
10256SOL    HW231668   2.938   1.448   4.360
10257SOL     OW31669   4.062   5.472   3.100
10257SOL    HW131670   3.972   5.433   3.082
10257SOL    HW231671   4.133   5.404   3.081
10258SOL     OW31672   2.410   1.469   2.493
10258SOL    HW131673   2.435   1.557   2.535
10258SOL    HW231674   2.447   1.464   2.401
10259SOL     OW31675   1.138   3.706   4.027
10259SOL    HW131676   1.112   3.618   4.066
10259SOL    HW231677   1.057   3.765   4.023
10260SOL     OW31678   0.752   0.290   3.678
10260SOL    HW131679   0.760   0.267   3.581
10260SOL    HW231680   0.656   0.310   3.699
10261SOL     OW31681   0.061   4.232   1.126
10261SOL    HW131682   0.007   4.312   1.097
10261SOL    HW231683   0.025   4.198   1.213
10262SOL     OW31684   3.788   0.789   6.701
10262SOL    HW131685   3.742   0.801   6.613
10262SOL    HW231686   3.737   0.724   6.757
10263SOL     OW31687   5.761   0.239   2.835
10263SOL    HW131688   5.838   0.183   2.804
10263SOL    HW231689   5.765   0.250   2.934
10264SOL     OW31690   6.494   0.479   6.430
10264SOL    HW131691   6.565   0.464   6.361
10264SOL    HW231692   6.465   0.392   6.468
10265SOL     OW31693   2.048   1.548   1.894
10265SOL    HW131694   1.966   1.575   1.944
10265SOL    HW231695   2.024   1.482   1.823
10266SOL     OW31696   2.848   3.689   1.425
10266SOL    HW131697   2.869   3.773   1.477
10266SOL    HW231698   2.824   3.616   1.489
10267SOL     OW31699   6.818   0.206   0.974
10267SOL    HW131700   6.770   0.123   1.004
10267SOL    HW231701   6.757   0.261   0.918
10268SOL     OW31702   2.873   5.586   2.465
10268SOL    HW131703   2.868   5.646   2.384
10268SOL    HW231704   2.787   5.537   2.475
10269SOL     OW31705   2.109   1.193   0.429
10269SOL    HW131706   2.132   1.122   0.362
10269SOL    HW231707   2.179   1.195   0.500
10270SOL     OW31708   2.709   0.171   3.913
10270SOL    HW131709   2.613   0.168   3.938
10270SOL    HW231710   2.747   0.261   3.935
10271SOL     OW31711   1.939   1.014   6.785
10271SOL    HW131712   2.020   0.956   6.784
10271SOL    HW231713   1.919   1.044   6.878
10272SOL     OW31714   6.289   6.664   4.647
10272SOL    HW131715   6.282   6.708   4.737
10272SOL    HW231716   6.263   6.730   4.577
10273SOL     OW31717   1.599   5.259   3.467
10273SOL    HW131718   1.546   5.185   3.424
10273SOL    HW231719   1.555   5.346   3.448
10274SOL     OW31720   0.990   3.853   5.378
10274SOL    HW131721   0.918   3.855   5.447
10274SOL    HW231722   1.021   3.946   5.360
10275SOL     OW31723   6.885   1.387   2.022
10275SOL    HW131724   6.850   1.475   1.989
10275SOL    HW231725   6.917   1.332   1.945
10276SOL     OW31726   2.950   5.383   5.268
10276SOL    HW131727   2.926   5.445   5.193
10276SOL    HW231728   2.910   5.417   5.353
10277SOL     OW31729   1.151   5.276   4.131
10277SOL    HW131730   1.082   5.342   4.102
10277SOL    HW231731   1.219   5.322   4.188
10278SOL     OW31732   6.381   0.153   4.462
10278SOL    HW131733   6.438   0.090   4.516
10278SOL    HW231734   6.419   0.161   4.370
10279SOL     OW31735   0.898   4.508   4.138
10279SOL    HW131736   0.946   4.564   4.072
10279SOL    HW231737   0.964   4.459   4.195
10280SOL     OW31738   6.145   5.453   0.463
10280SOL    HW131739   6.119   5.417   0.552
10280SOL    HW231740   6.212   5.527   0.475
10281SOL     OW31741   6.373   0.788   3.886
10281SOL    HW131742   6.443   0.725   3.852
10281SOL    HW231743   6.335   0.840   3.809
10282SOL     OW31744   4.703   2.754   3.084
10282SOL    HW131745   4.713   2.683   3.015
10282SOL    HW231746   4.707   2.713   3.175
10283SOL     OW31747   0.384   2.235   1.338
10283SOL    HW131748   0.448   2.189   1.276
10283SOL    HW231749   0.353   2.170   1.408
10284SOL     OW31750   0.574   4.666   4.478
10284SOL    HW131751   0.608   4.743   4.533
10284SOL    HW231752   0.621   4.664   4.390
10285SOL     OW31753   0.051   6.809   6.393
10285SOL    HW131754   0.059   6.802   6.293
10285SOL    HW231755   6.986   6.847   6.416
10286SOL     OW31756   2.753   0.965   2.561
10286SOL    HW131757   2.778   0.878   2.520
10286SOL    HW231758   2.791   1.040   2.506
10287SOL     OW31759   0.942   5.878   2.732
10287SOL    HW131760   1.028   5.928   2.736
10287SOL    HW231761   0.930   5.825   2.817
10288SOL     OW31762   3.509   6.070   4.267
10288SOL    HW131763   3.489   6.102   4.360
10288SOL    HW231764   3.607   6.072   4.252
10289SOL     OW31765   4.079   6.204   0.273
10289SOL    HW131766   4.112   6.293   0.304
10289SOL    HW231767   4.130   6.132   0.320
10290SOL     OW31768   2.968   3.603   2.235
10290SOL    HW131769   2.979   3.663   2.156
10290SOL    HW231770   2.937   3.513   2.205
10291SOL     OW31771   2.533   2.083   2.128
10291SOL    HW131772   2.587   2.144   2.185
10291SOL    HW231773   2.589   2.004   2.101
10292SOL     OW31774   6.829   0.036   5.705
10292SOL    HW131775   6.910   7.024   5.750
10292SOL    HW231776   6.826   0.135   5.716
10293SOL     OW31777   0.857   3.740   5.121
10293SOL    HW131778   0.891   3.654   5.084
10293SOL    HW231779   0.895   3.753   5.213
10294SOL     OW31780   2.217   0.065   2.127
10294SOL    HW131781   2.213   0.165   2.122
10294SOL    HW231782   2.279   0.031   2.055
10295SOL     OW31783   1.284   1.736   0.586
10295SOL    HW131784   1.255   1.822   0.544
10295SOL    HW231785   1.229   1.661   0.550
10296SOL     OW31786   6.392   2.205   5.950
10296SOL    HW131787   6.469   2.176   6.007
10296SOL    HW231788   6.426   2.245   5.865
10297SOL     OW31789   4.423   1.056   1.027
10297SOL    HW131790   4.443   1.138   1.081
10297SOL    HW231791   4.344   1.074   0.968
10298SOL     OW31792   1.070   1.813   2.110
10298SOL    HW131793   1.069   1.824   2.010
10298SOL    HW231794   1.161   1.786   2.140
10299SOL     OW31795   4.703   0.184   2.462
10299SOL    HW131796   4.698   0.164   2.560
10299SOL    HW231797   4.624   0.238   2.435
10300SOL     OW31798   1.412   3.080   1.039
10300SOL    HW131799   1.495   3.077   1.095
10300SOL    HW231800   1.423   3.023   0.958
10301SOL     OW31801   4.074   0.921   0.147
10301SOL    HW131802   4.165   0.937   0.186
10301SOL    HW231803   4.005   0.934   0.218
10302SOL     OW31804   3.581   6.491   5.629
10302SOL    HW131805   3.560   6.577   5.583
10302SOL    HW231806   3.532   6.416   5.584
10303SOL     OW31807   0.342   4.456   4.720
10303SOL    HW131808   0.336   4.426   4.815
10303SOL    HW231809   0.265   4.516   4.699
10304SOL     OW31810   5.347   6.278   1.051
10304SOL    HW131811   5.439   6.281   1.092
10304SOL    HW231812   5.343   6.339   0.972
10305SOL     OW31813   2.856   4.070   5.242
10305SOL    HW131814   2.777   4.131   5.243
10305SOL    HW231815   2.826   3.976   5.225
10306SOL     OW31816   4.122   1.088   0.896
10306SOL    HW131817   4.032   1.072   0.856
10306SOL    HW231818   4.128   1.182   0.929
10307SOL     OW31819   1.924   0.430   5.190
10307SOL    HW131820   1.852   0.433   5.120
10307SOL    HW231821   1.964   0.521   5.201
10308SOL     OW31822   3.056   4.451   1.684
10308SOL    HW131823   3.095   4.531   1.638
10308SOL    HW231824   2.991   4.481   1.754
10309SOL     OW31825   0.193   0.978   6.021
10309SOL    HW131826   0.173   0.901   5.961
10309SOL    HW231827   0.289   1.004   6.011
10310SOL     OW31828   2.936   3.981   5.869
10310SOL    HW131829   2.918   4.072   5.906
10310SOL    HW231830   2.992   3.929   5.934
10311SOL     OW31831   5.725   5.823   6.988
10311SOL    HW131832   5.705   5.890   6.916
10311SOL    HW231833   5.820   5.833   7.018
10312SOL     OW31834   2.805   6.833   2.300
10312SOL    HW131835   2.861   6.829   2.383
10312SOL    HW231836   2.741   6.909   2.307
10313SOL     OW31837   4.960   6.888   2.641
10313SOL    HW131838   5.052   6.850   2.636
10313SOL    HW231839   4.905   6.836   2.707
10314SOL     OW31840   0.686   0.128   0.967
10314SOL    HW131841   0.749   0.115   0.890
10314SOL    HW231842   0.629   0.046   0.977
10315SOL     OW31843   5.173   5.106   3.639
10315SOL    HW131844   5.250   5.139   3.584
10315SOL    HW231845   5.114   5.182   3.663
10316SOL     OW31846   0.561   1.744   0.288
10316SOL    HW131847   0.585   1.815   0.355
10316SOL    HW231848   0.637   1.732   0.224
10317SOL     OW31849   3.875   5.985   5.062
10317SOL    HW131850   3.789   5.980   5.012
10317SOL    HW231851   3.915   5.893   5.069
10318SOL     OW31852   6.217   0.373   0.641
10318SOL    HW131853   6.211   0.279   0.675
10318SOL    HW231854   6.311   0.406   0.650
10319SOL     OW31855   0.557   4.507   3.921
10319SOL    HW131856   0.511   4.420   3.900
10319SOL    HW231857   0.498   4.583   3.892
10320SOL     OW31858   6.842   0.161   2.933
10320SOL    HW131859   6.777   0.096   2.894
10320SOL    HW231860   6.848   0.241   2.873
10321SOL     OW31861   5.728   2.720   2.721
10321SOL    HW131862   5.775   2.746   2.805
10321SOL    HW231863   5.681   2.633   2.733
10322SOL     OW31864   4.610   4.489   4.947
10322SOL    HW131865   4.662   4.475   4.862
10322SOL    HW231866   4.517   4.518   4.925
10323SOL     OW31867   1.173   4.495   6.104
10323SOL    HW131868   1.149   4.533   6.194
10323SOL    HW231869   1.161   4.396   6.106
10324SOL     OW31870   3.119   3.126   2.800
10324SOL    HW131871   3.150   3.046   2.851
10324SOL    HW231872   3.161   3.126   2.710
10325SOL     OW31873   5.843   6.079   4.642
10325SOL    HW131874   5.797   6.146   4.701
10325SOL    HW231875   5.776   6.035   4.583
10326SOL     OW31876   5.457   3.208   6.729
10326SOL    HW131877   5.381   3.203   6.665
10326SOL    HW231878   5.522   3.135   6.709
10327SOL     OW31879   2.090   5.597   6.623
10327SOL    HW131880   2.162   5.584   6.555
10327SOL    HW231881   2.123   5.569   6.713
10328SOL     OW31882   5.565   2.459   1.951
10328SOL    HW131883   5.484   2.513   1.971
10328SOL    HW231884   5.544   2.361   1.961
10329SOL     OW31885   3.334   2.017   2.089
10329SOL    HW131886   3.277   2.044   2.012
10329SOL    HW231887   3.430   2.016   2.061
10330SOL     OW31888   5.554   0.217   1.910
10330SOL    HW131889   5.461   0.197   1.940
10330SOL    HW231890   5.574   0.166   1.826
10331SOL     OW31891   5.474   5.681   5.850
10331SOL    HW131892   5.472   5.590   5.890
10331SOL    HW231893   5.506   5.747   5.919
10332SOL     OW31894   1.732   1.931   6.475
10332SOL    HW131895   1.681   1.939   6.389
10332SOL    HW231896   1.763   2.022   6.503
10333SOL     OW31897   1.398   3.370   4.383
10333SOL    HW131898   1.463   3.294   4.374
10333SOL    HW231899   1.370   3.401   4.293
10334SOL     OW31900   3.219   1.778   3.941
10334SOL    HW131901   3.173   1.693   3.917
10334SOL    HW231902   3.177   1.854   3.890
10335SOL     OW31903   1.832   2.665   5.355
10335SOL    HW131904   1.924   2.663   5.394
10335SOL    HW231905   1.797   2.759   5.357
10336SOL     OW31906   5.579   6.757   3.224
10336SOL    HW131907   5.525   6.719   3.149
10336SOL    HW231908   5.609   6.683   3.285
10337SOL     OW31909   6.366   6.158   6.858
10337SOL    HW131910   6.357   6.099   6.778
10337SOL    HW231911   6.438   6.121   6.918
10338SOL     OW31912   1.239   6.655   1.809
10338SOL    HW131913   1.244   6.692   1.717
10338SOL    HW231914   1.155   6.603   1.820
10339SOL     OW31915   5.876   2.815   5.960
10339SOL    HW131916   5.790   2.790   6.004
10339SOL    HW231917   5.930   2.872   6.022
10340SOL     OW31918   2.175   4.208   6.232
10340SOL    HW131919   2.154   4.303   6.254
10340SOL    HW231920   2.099   4.150   6.264
10341SOL     OW31921   2.519   4.554   3.639
10341SOL    HW131922   2.491   4.650   3.629
10341SOL    HW231923   2.595   4.548   3.703
10342SOL     OW31924   0.786   1.052   4.103
10342SOL    HW131925   0.773   1.061   4.004
10342SOL    HW231926   0.697   1.039   4.147
10343SOL     OW31927   3.927   5.350   1.686
10343SOL    HW131928   3.924   5.251   1.695
10343SOL    HW231929   3.981   5.389   1.760
10344SOL     OW31930   4.870   6.865   6.824
10344SOL    HW131931   4.787   6.857   6.768
10344SOL    HW231932   4.947   6.822   6.775
10345SOL     OW31933   1.834   4.263   4.348
10345SOL    HW131934   1.926   4.302   4.343
10345SOL    HW231935   1.766   4.333   4.326
10346SOL     OW31936   0.326   6.273   0.388
10346SOL    HW131937   0.321   6.373   0.385
10346SOL    HW231938   0.420   6.246   0.410
10347SOL     OW31939   5.698   2.093   5.112
10347SOL    HW131940   5.742   2.181   5.134
10347SOL    HW231941   5.744   2.020   5.162
10348SOL     OW31942   0.255   5.117   1.359
10348SOL    HW131943   0.169   5.156   1.393
10348SOL    HW231944   0.297   5.061   1.430
10349SOL     OW31945   0.100   6.816   6.104
10349SOL    HW131946   0.004   6.816   6.077
10349SOL    HW231947   0.146   6.895   6.065
10350SOL     OW31948   3.427   0.069   6.196
10350SOL    HW131949   3.381   0.122   6.124
10350SOL    HW231950   3.508   0.025   6.157
10351SOL     OW31951   4.261   5.410   6.099
10351SOL    HW131952   4.226   5.374   6.185
10351SOL    HW231953   4.319   5.490   6.117
10352SOL     OW31954   4.111   4.297   6.386
10352SOL    HW131955   4.139   4.202   6.406
10352SOL    HW231956   4.063   4.300   6.298
10353SOL     OW31957   0.620   3.207   5.199
10353SOL    HW131958   0.560   3.286   5.180
10353SOL    HW231959   0.656   3.172   5.113
10354SOL     OW31960   5.439   1.923   0.913
10354SOL    HW131961   5.474   2.016   0.920
10354SOL    HW231962   5.498   1.861   0.965
10355SOL     OW31963   1.140   4.360   3.017
10355SOL    HW131964   1.088   4.276   3.031
10355SOL    HW231965   1.224   4.339   2.967
10356SOL     OW31966   0.394   2.554   5.165
10356SOL    HW131967   0.451   2.566   5.084
10356SOL    HW231968   0.316   2.617   5.162
10357SOL     OW31969   3.410   2.999   6.552
10357SOL    HW131970   3.362   2.919   6.517
10357SOL    HW231971   3.472   2.971   6.626
10358SOL     OW31972   0.320   0.830   2.174
10358SOL    HW131973   0.250   0.861   2.110
10358SOL    HW231974   0.282   0.822   2.266
10359SOL     OW31975   0.493   1.398   0.865
10359SOL    HW131976   0.478   1.474   0.929
10359SOL    HW231977   0.591   1.383   0.854
10360SOL     OW31978   6.945   4.343   3.635
10360SOL    HW131979   6.903   4.428   3.604
10360SOL    HW231980   0.018   4.344   3.613
10361SOL     OW31981   2.446   5.092   0.777
10361SOL    HW131982   2.515   5.039   0.827
10361SOL    HW231983   2.361   5.093   0.830
10362SOL     OW31984   1.302   4.628   5.228
10362SOL    HW131985   1.203   4.625   5.225
10362SOL    HW231986   1.340   4.548   5.182
10363SOL     OW31987   5.656   6.949   3.684
10363SOL    HW131988   5.590   7.001   3.738
10363SOL    HW231989   5.660   6.987   3.591
10364SOL     OW31990   1.377   4.258   0.844
10364SOL    HW131991   1.394   4.349   0.881
10364SOL    HW231992   1.313   4.265   0.767
10365SOL     OW31993   4.975   5.141   0.018
10365SOL    HW131994   5.046   5.208   7.020
10365SOL    HW231995   5.012   5.049   0.005
10366SOL     OW31996   3.816   6.687   3.894
10366SOL    HW131997   3.807   6.590   3.870
10366SOL    HW231998   3.869   6.734   3.823
10367SOL     OW31999   6.604   1.250   3.296
10367SOL    HW132000   6.554   1.305   3.363
10367SOL    HW232001   6.606   1.298   3.208
10368SOL     OW32002   2.301   0.399   1.043
10368SOL    HW132003   2.367   0.334   1.081
10368SOL    HW232004   2.288   0.381   0.946
10369SOL     OW32005   3.678   2.832   0.082
10369SOL    HW132006   3.607   2.888   0.039
10369SOL    HW232007   3.653   2.735   0.075
10370SOL     OW32008   3.402   0.908   5.445
10370SOL    HW132009   3.339   0.881   5.518
10370SOL    HW232010   3.471   0.837   5.433
10371SOL     OW32011   4.733   6.612   5.276
10371SOL    HW132012   4.666   6.677   5.309
10371SOL    HW232013   4.711   6.586   5.182
10372SOL     OW32014   0.923   0.825   3.844
10372SOL    HW132015   0.854   0.891   3.813
10372SOL    HW232016   0.903   0.735   3.803
10373SOL     OW32017   1.208   5.354   5.154
10373SOL    HW132018   1.277   5.381   5.087
10373SOL    HW232019   1.195   5.255   5.149
10374SOL     OW32020   3.100   1.724   3.460
10374SOL    HW132021   3.115   1.675   3.375
10374SOL    HW232022   3.067   1.661   3.530
10375SOL     OW32023   7.013   2.010   1.125
10375SOL    HW132024   6.985   1.996   1.029
10375SOL    HW232025   0.045   2.092   1.132
10376SOL     OW32026   6.448   0.103   3.785
10376SOL    HW132027   6.477   0.021   3.736
10376SOL    HW232028   6.348   0.106   3.789
10377SOL     OW32029   0.301   6.508   4.084
10377SOL    HW132030   0.210   6.497   4.045
10377SOL    HW232031   0.298   6.575   4.159
10378SOL     OW32032   6.021   6.445   5.652
10378SOL    HW132033   5.992   6.413   5.562
10378SOL    HW232034   6.107   6.494   5.644
10379SOL     OW32035   4.354   1.495   4.100
10379SOL    HW132036   4.339   1.563   4.028
10379SOL    HW232037   4.270   1.443   4.114
10380SOL     OW32038   3.661   0.981   3.914
10380SOL    HW132039   3.650   0.948   3.821
10380SOL    HW232040   3.746   1.033   3.922
10381SOL     OW32041   3.269   5.324   4.861
10381SOL    HW132042   3.287   5.293   4.955
10381SOL    HW232043   3.318   5.266   4.797
10382SOL     OW32044   0.370   5.934   0.596
10382SOL    HW132045   0.314   5.855   0.571
10382SOL    HW232046   0.392   5.930   0.694
10383SOL     OW32047   5.437   2.978   0.392
10383SOL    HW132048   5.516   2.952   0.336
10383SOL    HW232049   5.387   2.896   0.418
10384SOL     OW32050   5.807   1.079   6.810
10384SOL    HW132051   5.808   1.026   6.725
10384SOL    HW232052   5.718   1.071   6.854
10385SOL     OW32053   0.415   2.688   6.569
10385SOL    HW132054   0.363   2.620   6.518
10385SOL    HW232055   0.447   2.759   6.507
10386SOL     OW32056   6.900   2.157   6.141
10386SOL    HW132057   6.866   2.242   6.101
10386SOL    HW232058   6.976   2.177   6.203
10387SOL     OW32059   1.576   3.927   3.045
10387SOL    HW132060   1.669   3.946   3.078
10387SOL    HW232061   1.579   3.857   2.974
10388SOL     OW32062   1.241   4.459   1.984
10388SOL    HW132063   1.224   4.363   2.008
10388SOL    HW232064   1.233   4.516   2.066
10389SOL     OW32065   1.010   5.511   3.978
10389SOL    HW132066   0.927   5.541   3.932
10389SOL    HW232067   1.024   5.564   4.061
10390SOL     OW32068   2.058   3.789   3.588
10390SOL    HW132069   2.114   3.767   3.667
10390SOL    HW232070   2.078   3.882   3.557
10391SOL     OW32071   3.852   5.971   4.123
10391SOL    HW132072   3.945   5.934   4.119
10391SOL    HW232073   3.810   5.965   4.033
10392SOL     OW32074   6.070   5.675   6.257
10392SOL    HW132075   6.120   5.615   6.194
10392SOL    HW232076   6.043   5.759   6.208
10393SOL     OW32077   0.620   1.266   4.816
10393SOL    HW132078   0.557   1.309   4.752
10393SOL    HW232079   0.646   1.175   4.782
10394SOL     OW32080   3.061   0.191   0.753
10394SOL    HW132081   3.122   0.257   0.797
10394SOL    HW232082   3.034   0.121   0.819
10395SOL     OW32083   1.251   0.642   4.003
10395SOL    HW132084   1.219   0.733   4.029
10395SOL    HW232085   1.174   0.587   3.973
10396SOL     OW32086   0.377   0.027   4.929
10396SOL    HW132087   0.328   0.085   4.994
10396SOL    HW232088   0.426   6.980   4.979
10397SOL     OW32089   4.426   2.221   2.135
10397SOL    HW132090   4.488   2.300   2.139
10397SOL    HW232091   4.346   2.237   2.192
10398SOL     OW32092   6.745   2.852   2.210
10398SOL    HW132093   6.782   2.831   2.119
10398SOL    HW232094   6.820   2.880   2.270
10399SOL     OW32095   6.768   3.631   5.903
10399SOL    HW132096   6.864   3.658   5.905
10399SOL    HW232097   6.762   3.532   5.912
10400SOL     OW32098   1.798   4.955   1.924
10400SOL    HW132099   1.721   4.910   1.880
10400SOL    HW232100   1.775   5.050   1.943
10401SOL     OW32101   1.372   5.390   1.222
10401SOL    HW132102   1.296   5.454   1.221
10401SOL    HW232103   1.344   5.305   1.266
10402SOL     OW32104   0.965   2.395   4.718
10402SOL    HW132105   0.932   2.490   4.712
10402SOL    HW232106   0.915   2.338   4.652
10403SOL     OW32107   5.536   1.146   3.053
10403SOL    HW132108   5.526   1.154   2.954
10403SOL    HW232109   5.507   1.056   3.083
10404SOL     OW32110   7.005   0.402   4.180
10404SOL    HW132111   0.068   0.448   4.172
10404SOL    HW232112   6.954   0.438   4.258
10405SOL     OW32113   3.164   6.997   6.893
10405SOL    HW132114   3.196   0.064   6.867
10405SOL    HW232115   3.097   7.005   6.967
10406SOL     OW32116   1.594   5.948   5.303
10406SOL    HW132117   1.598   5.871   5.366
10406SOL    HW232118   1.623   6.031   5.350
10407SOL     OW32119   2.875   0.691   6.584
10407SOL    HW132120   2.943   0.617   6.583
10407SOL    HW232121   2.874   0.734   6.675
10408SOL     OW32122   3.662   0.055   3.322
10408SOL    HW132123   3.570   0.093   3.335
10408SOL    HW232124   3.712   0.112   3.257
10409SOL     OW32125   0.124   4.980   2.358
10409SOL    HW132126   0.144   5.075   2.335
10409SOL    HW232127   0.075   4.937   2.281
10410SOL     OW32128   4.975   5.874   0.738
10410SOL    HW132129   4.939   5.944   0.676
10410SOL    HW232130   4.982   5.787   0.690
10411SOL     OW32131   2.331   5.067   2.489
10411SOL    HW132132   2.378   5.059   2.401
10411SOL    HW232133   2.329   4.978   2.534
10412SOL     OW32134   1.021   3.322   6.686
10412SOL    HW132135   0.942   3.286   6.737
10412SOL    HW232136   0.995   3.340   6.591
10413SOL     OW32137   6.648   1.631   4.712
10413SOL    HW132138   6.582   1.609   4.784
10413SOL    HW232139   6.673   1.728   4.719
10414SOL     OW32140   5.495   6.081   4.939
10414SOL    HW132141   5.535   6.007   4.884
10414SOL    HW232142   5.431   6.133   4.883
10415SOL     OW32143   0.061   4.808   3.242
10415SOL    HW132144   0.158   4.815   3.261
10415SOL    HW232145   0.047   4.792   3.144
10416SOL     OW32146   5.025   0.844   0.113
10416SOL    HW132147   5.002   0.942   0.115
10416SOL    HW232148   5.058   0.816   0.203
10417SOL     OW32149   5.022   4.512   4.750
10417SOL    HW132150   5.093   4.480   4.813
10417SOL    HW232151   4.986   4.435   4.698
10418SOL     OW32152   5.991   3.500   0.212
10418SOL    HW132153   6.078   3.456   0.233
10418SOL    HW232154   5.981   3.582   0.269
10419SOL     OW32155   1.236   0.303   4.684
10419SOL    HW132156   1.238   0.254   4.597
10419SOL    HW232157   1.187   0.249   4.752
10420SOL     OW32158   6.350   3.757   3.920
10420SOL    HW132159   6.375   3.819   3.995
10420SOL    HW232160   6.253   3.769   3.899
10421SOL     OW32161   6.993   3.486   4.594
10421SOL    HW132162   0.022   3.536   4.525
10421SOL    HW232163   7.024   3.513   4.685
10422SOL     OW32164   5.811   2.817   5.295
10422SOL    HW132165   5.759   2.734   5.277
10422SOL    HW232166   5.866   2.805   5.378
10423SOL     OW32167   2.271   5.835   2.435
10423SOL    HW132168   2.329   5.916   2.434
10423SOL    HW232169   2.212   5.837   2.516
10424SOL     OW32170   4.345   0.910   2.166
10424SOL    HW132171   4.400   0.840   2.121
10424SOL    HW232172   4.399   0.958   2.234
10425SOL     OW32173   0.687   4.095   0.466
10425SOL    HW132174   0.651   4.185   0.443
10425SOL    HW232175   0.690   4.038   0.385
10426SOL     OW32176   6.277   1.819   0.412
10426SOL    HW132177   6.355   1.757   0.411
10426SOL    HW232178   6.198   1.774   0.370
10427SOL     OW32179   6.481   0.445   3.780
10427SOL    HW132180   6.560   0.424   3.838
10427SOL    HW232181   6.487   0.391   3.695
10428SOL     OW32182   1.930   6.867   4.524
10428SOL    HW132183   1.894   6.903   4.439
10428SOL    HW232184   1.993   6.791   4.504
10429SOL     OW32185   2.293   4.469   2.069
10429SOL    HW132186   2.240   4.469   1.984
10429SOL    HW232187   2.356   4.546   2.070
10430SOL     OW32188   3.108   0.872   3.665
10430SOL    HW132189   3.102   0.820   3.750
10430SOL    HW232190   3.053   0.955   3.672
10431SOL     OW32191   4.455   2.446   3.702
10431SOL    HW132192   4.464   2.470   3.605
10431SOL    HW232193   4.367   2.399   3.716
10432SOL     OW32194   0.825   4.269   0.863
10432SOL    HW132195   0.765   4.193   0.841
10432SOL    HW232196   0.838   4.274   0.962
10433SOL     OW32197   3.481   6.410   4.768
10433SOL    HW132198   3.518   6.487   4.820
10433SOL    HW232199   3.556   6.351   4.738
10434SOL     OW32200   4.198   1.790   0.116
10434SOL    HW132201   4.249   1.835   0.190
10434SOL    HW232202   4.254   1.787   0.033
10435SOL     OW32203   2.201   1.262   1.513
10435SOL    HW132204   2.253   1.342   1.483
10435SOL    HW232205   2.263   1.187   1.533
10436SOL     OW32206   0.923   3.434   5.480
10436SOL    HW132207   1.014   3.473   5.486
10436SOL    HW232208   0.866   3.490   5.419
10437SOL     OW32209   0.034   6.959   4.750
10437SOL    HW132210   0.113   7.019   4.736
10437SOL    HW232211   0.003   6.924   4.662
10438SOL     OW32212   6.877   5.887   6.835
10438SOL    HW132213   6.888   5.836   6.750
10438SOL    HW232214   6.943   5.854   6.903
10439SOL     OW32215   5.881   5.488   4.751
10439SOL    HW132216   5.872   5.396   4.713
10439SOL    HW232217   5.883   5.483   4.851
10440SOL     OW32218   6.160   2.717   1.032
10440SOL    HW132219   6.136   2.813   1.018
10440SOL    HW232220   6.093   2.675   1.094
10441SOL     OW32221   4.738   1.470   6.461
10441SOL    HW132222   4.797   1.516   6.395
10441SOL    HW232223   4.681   1.403   6.413
10442SOL     OW32224   2.410   0.625   5.715
10442SOL    HW132225   2.313   0.633   5.740
10442SOL    HW232226   2.456   0.568   5.783
10443SOL     OW32227   0.535   0.865   0.161
10443SOL    HW132228   0.474   0.795   0.198
10443SOL    HW232229   0.630   0.835   0.170
10444SOL     OW32230   4.387   5.631   3.925
10444SOL    HW132231   4.452   5.572   3.973
10444SOL    HW232232   4.395   5.724   3.960
10445SOL     OW32233   1.130   3.517   3.802
10445SOL    HW132234   1.043   3.470   3.813
10445SOL    HW232235   1.130   3.600   3.858
10446SOL     OW32236   2.747   4.725   4.813
10446SOL    HW132237   2.710   4.658   4.748
10446SOL    HW232238   2.822   4.684   4.864
10447SOL     OW32239   1.547   2.280   2.716
10447SOL    HW132240   1.462   2.331   2.729
10447SOL    HW232241   1.603   2.287   2.798
10448SOL     OW32242   0.760   5.266   2.790
10448SOL    HW132243   0.728   5.292   2.881
10448SOL    HW232244   0.859   5.281   2.785
10449SOL     OW32245   3.605   5.165   4.498
10449SOL    HW132246   3.676   5.234   4.514
10449SOL    HW232247   3.644   5.074   4.508
10450SOL     OW32248   0.171   2.338   4.368
10450SOL    HW132249   0.211   2.297   4.450
10450SOL    HW232250   0.075   2.360   4.385
10451SOL     OW32251   2.399   1.420   4.805
10451SOL    HW132252   2.413   1.408   4.707
10451SOL    HW232253   2.371   1.333   4.845
10452SOL     OW32254   6.522   3.013   4.500
10452SOL    HW132255   6.571   2.940   4.547
10452SOL    HW232256   6.570   3.035   4.414
10453SOL     OW32257   2.501   5.490   4.097
10453SOL    HW132258   2.527   5.400   4.063
10453SOL    HW232259   2.404   5.491   4.120
10454SOL     OW32260   6.748   1.569   0.121
10454SOL    HW132261   6.764   1.499   0.190
10454SOL    HW232262   6.818   1.563   0.050
10455SOL     OW32263   0.904   5.732   2.515
10455SOL    HW132264   0.964   5.770   2.444
10455SOL    HW232265   0.923   5.776   2.602
10456SOL     OW32266   1.552   5.552   6.555
10456SOL    HW132267   1.614   5.534   6.478
10456SOL    HW232268   1.514   5.466   6.588
10457SOL     OW32269   4.101   1.352   0.996
10457SOL    HW132270   4.181   1.408   1.019
10457SOL    HW232271   4.057   1.389   0.914
10458SOL     OW32272   1.674   6.570   0.300
10458SOL    HW132273   1.698   6.597   0.393
10458SOL    HW232274   1.580   6.538   0.297
10459SOL     OW32275   5.428   6.044   0.876
10459SOL    HW132276   5.410   6.124   0.933
10459SOL    HW232277   5.372   5.968   0.907
10460SOL     OW32278   6.385   0.864   6.533
10460SOL    HW132279   6.403   0.963   6.536
10460SOL    HW232280   6.338   0.836   6.617
10461SOL     OW32281   6.990   3.845   5.618
10461SOL    HW132282   7.010   3.800   5.705
10461SOL    HW232283   6.935   3.926   5.635
10462SOL     OW32284   3.980   3.707   6.959
10462SOL    HW132285   4.046   3.780   6.940
10462SOL    HW232286   3.936   3.679   6.874
10463SOL     OW32287   4.714   2.492   4.971
10463SOL    HW132288   4.754   2.559   4.908
10463SOL    HW232289   4.786   2.435   5.009
10464SOL     OW32290   6.395   4.778   1.993
10464SOL    HW132291   6.455   4.709   1.952
10464SOL    HW232292   6.369   4.844   1.923
10465SOL     OW32293   5.405   4.441   1.137
10465SOL    HW132294   5.321   4.443   1.192
10465SOL    HW232295   5.449   4.530   1.142
10466SOL     OW32296   5.995   3.685   5.445
10466SOL    HW132297   6.082   3.653   5.483
10466SOL    HW232298   6.001   3.685   5.345
10467SOL     OW32299   0.351   3.317   6.571
10467SOL    HW132300   0.433   3.318   6.630
10467SOL    HW232301   0.270   3.330   6.628
10468SOL     OW32302   1.176   3.992   3.903
10468SOL    HW132303   1.227   3.931   3.963
10468SOL    HW232304   1.191   4.087   3.932
10469SOL     OW32305   1.069   0.880   4.326
10469SOL    HW132306   1.033   0.972   4.340
10469SOL    HW232307   1.038   0.845   4.237
10470SOL     OW32308   2.254   3.969   1.794
10470SOL    HW132309   2.328   4.028   1.762
10470SOL    HW232310   2.281   3.873   1.783
10471SOL     OW32311   2.382   4.587   5.698
10471SOL    HW132312   2.324   4.510   5.725
10471SOL    HW232313   2.447   4.607   5.772
10472SOL     OW32314   4.275   5.359   5.817
10472SOL    HW132315   4.315   5.446   5.846
10472SOL    HW232316   4.275   5.296   5.894
10473SOL     OW32317   6.216   5.819   0.110
10473SOL    HW132318   6.298   5.871   0.134
10473SOL    HW232319   6.197   5.752   0.181
10474SOL     OW32320   6.201   6.062   4.907
10474SOL    HW132321   6.276   6.002   4.933
10474SOL    HW232322   6.180   6.050   4.810
10475SOL     OW32323   0.520   5.849   1.661
10475SOL    HW132324   0.459   5.798   1.601
10475SOL    HW232325   0.506   5.947   1.648
10476SOL     OW32326   5.034   6.544   1.290
10476SOL    HW132327   4.939   6.576   1.288
10476SOL    HW232328   5.089   6.599   1.228
10477SOL     OW32329   0.158   5.710   3.699
10477SOL    HW132330   0.064   5.687   3.673
10477SOL    HW232331   0.217   5.704   3.619
10478SOL     OW32332   6.914   0.681   6.837
10478SOL    HW132333   6.821   0.645   6.829
10478SOL    HW232334   6.978   0.617   6.795
10479SOL     OW32335   0.006   3.893   2.487
10479SOL    HW132336   0.104   3.882   2.503
10479SOL    HW232337   6.990   3.945   2.562
10480SOL     OW32338   2.259   0.788   3.093
10480SOL    HW132339   2.242   0.710   3.154
10480SOL    HW232340   2.178   0.805   3.037
10481SOL     OW32341   6.248   0.971   1.342
10481SOL    HW132342   6.202   0.883   1.334
10481SOL    HW232343   6.312   0.982   1.266
10482SOL     OW32344   4.974   4.054   3.987
10482SOL    HW132345   4.923   4.024   4.067
10482SOL    HW232346   5.040   4.125   4.013
10483SOL     OW32347   5.796   0.669   6.769
10483SOL    HW132348   5.787   0.752   6.713
10483SOL    HW232349   5.856   0.687   6.846
10484SOL     OW32350   6.160   0.774   1.838
10484SOL    HW132351   6.092   0.703   1.814
10484SOL    HW232352   6.113   0.851   1.880
10485SOL     OW32353   5.867   3.059   5.587
10485SOL    HW132354   5.855   3.084   5.683
10485SOL    HW232355   5.942   3.114   5.548
10486SOL     OW32356   5.957   3.174   2.116
10486SOL    HW132357   5.884   3.108   2.100
10486SOL    HW232358   6.046   3.128   2.110
10487SOL     OW32359   3.668   6.743   2.260
10487SOL    HW132360   3.633   6.651   2.242
10487SOL    HW232361   3.639   6.773   2.351
10488SOL     OW32362   4.195   4.040   6.352
10488SOL    HW132363   4.141   3.966   6.392
10488SOL    HW232364   4.253   4.005   6.279
10489SOL     OW32365   1.754   5.455   5.684
10489SOL    HW132366   1.798   5.366   5.691
10489SOL    HW232367   1.821   5.527   5.704
10490SOL     OW32368   6.214   6.890   4.505
10490SOL    HW132369   6.210   6.948   4.423
10490SOL    HW232370   6.123   6.884   4.546
10491SOL     OW32371   6.417   5.822   5.246
10491SOL    HW132372   6.511   5.828   5.212
10491SOL    HW232373   6.355   5.805   5.169
10492SOL     OW32374   5.279   4.334   5.511
10492SOL    HW132375   5.231   4.360   5.595
10492SOL    HW232376   5.356   4.396   5.497
10493SOL     OW32377   3.120   1.566   0.940
10493SOL    HW132378   3.065   1.560   1.024
10493SOL    HW232379   3.065   1.532   0.863
10494SOL     OW32380   5.684   1.305   5.317
10494SOL    HW132381   5.666   1.256   5.402
10494SOL    HW232382   5.625   1.385   5.311
10495SOL     OW32383   1.610   6.941   6.364
10495SOL    HW132384   1.696   6.891   6.378
10495SOL    HW232385   1.605   6.972   6.269
10496SOL     OW32386   6.445   6.972   5.534
10496SOL    HW132387   6.452   0.047   5.540
10496SOL    HW232388   6.362   6.947   5.483
10497SOL     OW32389   1.882   1.482   6.620
10497SOL    HW132390   1.917   1.410   6.561
10497SOL    HW232391   1.863   1.564   6.565
10498SOL     OW32392   2.961   5.293   5.814
10498SOL    HW132393   2.954   5.219   5.747
10498SOL    HW232394   2.881   5.353   5.806
10499SOL     OW32395   2.598   5.544   2.959
10499SOL    HW132396   2.658   5.553   3.039
10499SOL    HW232397   2.504   5.562   2.986
10500SOL     OW32398   2.364   2.108   6.782
10500SOL    HW132399   2.377   2.181   6.714
10500SOL    HW232400   2.453   2.074   6.812
10501SOL     OW32401   1.920   4.092   3.046
10501SOL    HW132402   1.880   4.002   3.058
10501SOL    HW232403   2.005   4.098   3.098
10502SOL     OW32404   3.154   5.779   4.444
10502SOL    HW132405   3.111   5.792   4.354
10502SOL    HW232406   3.171   5.682   4.458
10503SOL     OW32407   2.066   3.184   6.205
10503SOL    HW132408   2.095   3.221   6.117
10503SOL    HW232409   2.093   3.246   6.278
10504SOL     OW32410   2.207   3.572   0.776
10504SOL    HW132411   2.205   3.658   0.724
10504SOL    HW232412   2.124   3.520   0.756
10505SOL     OW32413   0.930   6.249   0.108
10505SOL    HW132414   0.859   6.185   0.136
10505SOL    HW232415   0.889   6.322   0.054
10506SOL     OW32416   6.542   4.780   5.474
10506SOL    HW132417   6.625   4.728   5.491
10506SOL    HW232418   6.492   4.740   5.397
10507SOL     OW32419   2.602   0.191   3.273
10507SOL    HW132420   2.685   0.158   3.229
10507SOL    HW232421   2.595   0.290   3.261
10508SOL     OW32422   5.710   4.225   2.372
10508SOL    HW132423   5.697   4.319   2.405
10508SOL    HW232424   5.791   4.222   2.314
10509SOL     OW32425   2.226   1.093   5.361
10509SOL    HW132426   2.266   1.116   5.450
10509SOL    HW232427   2.182   1.175   5.323
10510SOL     OW32428   5.756   0.870   6.603
10510SOL    HW132429   5.660   0.855   6.579
10510SOL    HW232430   5.799   0.928   6.533
10511SOL     OW32431   6.868   2.837   1.973
10511SOL    HW132432   6.918   2.855   1.889
10511SOL    HW232433   6.916   2.769   2.027
10512SOL     OW32434   2.252   0.354   6.379
10512SOL    HW132435   2.181   0.290   6.409
10512SOL    HW232436   2.225   0.447   6.403
10513SOL     OW32437   0.001   2.231   0.744
10513SOL    HW132438   0.074   2.296   0.723
10513SOL    HW232439   6.955   2.237   0.673
10514SOL     OW32440   1.022   2.810   1.797
10514SOL    HW132441   1.071   2.724   1.811
10514SOL    HW232442   1.083   2.887   1.813
10515SOL     OW32443   0.088   3.263   5.199
10515SOL    HW132444   0.166   3.284   5.259
10515SOL    HW232445   0.075   3.337   5.134
10516SOL     OW32446   2.426   6.871   1.112
10516SOL    HW132447   2.356   6.860   1.040
10516SOL    HW232448   2.429   6.788   1.167
10517SOL     OW32449   0.579   2.619   3.030
10517SOL    HW132450   0.648   2.626   3.103
10517SOL    HW232451   0.490   2.646   3.066
10518SOL     OW32452   0.358   6.101   3.239
10518SOL    HW132453   0.361   6.031   3.311
10518SOL    HW232454   0.303   6.068   3.163
10519SOL     OW32455   4.427   2.802   5.904
10519SOL    HW132456   4.482   2.759   5.832
10519SOL    HW232457   4.407   2.897   5.879
10520SOL     OW32458   3.147   4.849   6.188
10520SOL    HW132459   3.151   4.904   6.104
10520SOL    HW232460   3.063   4.870   6.237
10521SOL     OW32461   6.942   5.604   2.147
10521SOL    HW132462   6.956   5.512   2.108
10521SOL    HW232463   6.846   5.630   2.138
10522SOL     OW32464   6.858   6.927   2.505
10522SOL    HW132465   6.875   6.925   2.407
10522SOL    HW232466   6.944   6.937   2.554
10523SOL     OW32467   6.278   6.809   6.225
10523SOL    HW132468   6.371   6.782   6.201
10523SOL    HW232469   6.213   6.760   6.167
10524SOL     OW32470   4.753   0.933   4.457
10524SOL    HW132471   4.826   0.924   4.524
10524SOL    HW232472   4.678   0.986   4.495
10525SOL     OW32473   2.912   6.942   4.763
10525SOL    HW132474   2.950   6.878   4.696
10525SOL    HW232475   2.819   6.915   4.787
10526SOL     OW32476   4.058   6.392   2.689
10526SOL    HW132477   4.128   6.412   2.758
10526SOL    HW232478   4.068   6.297   2.659
10527SOL     OW32479   1.704   2.720   4.901
10527SOL    HW132480   1.696   2.621   4.913
10527SOL    HW232481   1.793   2.751   4.935
10528SOL     OW32482   6.295   5.107   5.920
10528SOL    HW132483   6.324   5.198   5.892
10528SOL    HW232484   6.296   5.100   6.020
10529SOL     OW32485   0.054   5.592   5.163
10529SOL    HW132486   0.056   5.642   5.076
10529SOL    HW232487   7.008   5.631   5.222
10530SOL     OW32488   1.420   2.153   5.267
10530SOL    HW132489   1.384   2.123   5.178
10530SOL    HW232490   1.469   2.239   5.255
10531SOL     OW32491   2.000   2.422   4.891
10531SOL    HW132492   2.012   2.331   4.930
10531SOL    HW232493   2.012   2.491   4.963
10532SOL     OW32494   3.141   3.537   4.967
10532SOL    HW132495   3.217   3.472   4.968
10532SOL    HW232496   3.167   3.618   4.915
10533SOL     OW32497   3.488   0.598   6.414
10533SOL    HW132498   3.540   0.674   6.375
10533SOL    HW232499   3.432   0.556   6.342
10534SOL     OW32500   5.970   4.901   1.611
10534SOL    HW132501   6.013   4.826   1.560
10534SOL    HW232502   5.941   4.868   1.700
10535SOL     OW32503   0.082   1.307   1.764
10535SOL    HW132504   0.124   1.386   1.809
10535SOL    HW232505   0.090   1.317   1.665
10536SOL     OW32506   5.878   5.684   3.367
10536SOL    HW132507   5.845   5.730   3.284
10536SOL    HW232508   5.844   5.590   3.369
10537SOL     OW32509   6.394   5.578   1.713
10537SOL    HW132510   6.491   5.588   1.735
10537SOL    HW232511   6.384   5.556   1.616
10538SOL     OW32512   4.025   3.443   7.012
10538SOL    HW132513   4.016   3.543   7.004
10538SOL    HW232514   4.118   3.416   6.987
10539SOL     OW32515   0.780   3.011   4.873
10539SOL    HW132516   0.689   2.971   4.884
10539SOL    HW232517   0.778   3.107   4.904
10540SOL     OW32518   3.644   0.767   0.278
10540SOL    HW132519   3.693   0.832   0.220
10540SOL    HW232520   3.664   0.673   0.248
10541SOL     OW32521   3.891   2.737   1.657
10541SOL    HW132522   3.820   2.802   1.630
10541SOL    HW232523   3.935   2.768   1.741
10542SOL     OW32524   1.653   1.887   0.474
10542SOL    HW132525   1.674   1.794   0.445
10542SOL    HW232526   1.713   1.952   0.426
10543SOL     OW32527   2.423   0.651   4.651
10543SOL    HW132528   2.474   0.581   4.600
10543SOL    HW232529   2.352   0.689   4.592
10544SOL     OW32530   0.173   2.086   1.954
10544SOL    HW132531   0.111   2.138   1.896
10544SOL    HW232532   0.265   2.123   1.946
10545SOL     OW32533   4.577   1.504   3.060
10545SOL    HW132534   4.536   1.475   2.973
10545SOL    HW232535   4.505   1.519   3.127
10546SOL     OW32536   4.472   0.964   5.451
10546SOL    HW132537   4.526   0.937   5.531
10546SOL    HW232538   4.534   0.988   5.376
10547SOL     OW32539   4.774   6.036   1.936
10547SOL    HW132540   4.853   6.026   1.996
10547SOL    HW232541   4.752   5.948   1.894
10548SOL     OW32542   4.539   3.951   5.307
10548SOL    HW132543   4.474   3.880   5.280
10548SOL    HW232544   4.632   3.915   5.302
10549SOL     OW32545   0.943   1.529   2.069
10549SOL    HW132546   0.909   1.617   2.103
10549SOL    HW232547   0.957   1.534   1.971
10550SOL     OW32548   4.738   6.939   4.678
10550SOL    HW132549   4.787   6.992   4.609
10550SOL    HW232550   4.721   6.847   4.643
10551SOL     OW32551   1.293   2.976   6.340
10551SOL    HW132552   1.275   2.882   6.313
10551SOL    HW232553   1.208   3.028   6.344
10552SOL     OW32554   3.603   1.375   5.022
10552SOL    HW132555   3.521   1.380   5.080
10552SOL    HW232556   3.579   1.335   4.933
10553SOL     OW32557   3.106   5.349   6.246
10553SOL    HW132558   3.094   5.275   6.313
10553SOL    HW232559   3.026   5.409   6.248
10554SOL     OW32560   6.401   3.790   5.838
10554SOL    HW132561   6.375   3.732   5.915
10554SOL    HW232562   6.453   3.869   5.870
10555SOL     OW32563   3.693   2.942   1.678
10555SOL    HW132564   3.714   2.973   1.771
10555SOL    HW232565   3.594   2.944   1.663
10556SOL     OW32566   0.906   3.830   4.074
10556SOL    HW132567   0.868   3.910   4.120
10556SOL    HW232568   0.838   3.790   4.013
10557SOL     OW32569   5.321   1.465   3.461
10557SOL    HW132570   5.335   1.401   3.386
10557SOL    HW232571   5.399   1.461   3.523
10558SOL     OW32572   5.541   5.783   5.452
10558SOL    HW132573   5.629   5.805   5.495
10558SOL    HW232574   5.527   5.843   5.373
10559SOL     OW32575   4.290   2.650   0.518
10559SOL    HW132576   4.344   2.588   0.460
10559SOL    HW232577   4.242   2.716   0.460
10560SOL     OW32578   6.381   2.131   4.179
10560SOL    HW132579   6.383   2.101   4.083
10560SOL    HW232580   6.473   2.125   4.218
10561SOL     OW32581   2.143   3.878   6.654
10561SOL    HW132582   2.057   3.853   6.608
10561SOL    HW232583   2.187   3.796   6.689
10562SOL     OW32584   3.839   1.631   0.203
10562SOL    HW132585   3.932   1.599   0.220
10562SOL    HW232586   3.826   1.721   0.247
10563SOL     OW32587   1.291   2.105   2.875
10563SOL    HW132588   1.283   2.200   2.845
10563SOL    HW232589   1.368   2.062   2.829
10564SOL     OW32590   6.890   1.909   2.392
10564SOL    HW132591   6.821   1.980   2.381
10564SOL    HW232592   6.944   1.926   2.475
10565SOL     OW32593   4.873   1.544   4.979
10565SOL    HW132594   4.879   1.494   4.892
10565SOL    HW232595   4.824   1.487   5.046
10566SOL     OW32596   4.817   5.230   6.608
10566SOL    HW132597   4.814   5.310   6.669
10566SOL    HW232598   4.799   5.259   6.514
10567SOL     OW32599   2.146   5.586   4.943
10567SOL    HW132600   2.073   5.631   4.892
10567SOL    HW232601   2.197   5.526   4.881
10568SOL     OW32602   3.240   1.586   2.981
10568SOL    HW132603   3.158   1.622   2.935
10568SOL    HW232604   3.214   1.543   3.067
10569SOL     OW32605   6.472   2.444   3.668
10569SOL    HW132606   6.508   2.532   3.700
10569SOL    HW232607   6.402   2.412   3.732
10570SOL     OW32608   1.140   3.873   0.711
10570SOL    HW132609   1.046   3.866   0.743
10570SOL    HW232610   1.202   3.832   0.779
10571SOL     OW32611   6.565   7.017   4.595
10571SOL    HW132612   6.638   0.019   4.531
10571SOL    HW232613   6.600   7.021   4.689
10572SOL     OW32614   6.639   3.951   1.688
10572SOL    HW132615   6.662   3.936   1.591
10572SOL    HW232616   6.569   3.885   1.715
10573SOL     OW32617   6.332   5.299   5.575
10573SOL    HW132618   6.412   5.259   5.530
10573SOL    HW232619   6.328   5.397   5.555
10574SOL     OW32620   0.777   2.349   3.230
10574SOL    HW132621   0.810   2.344   3.136
10574SOL    HW232622   0.692   2.296   3.239
10575SOL     OW32623   0.796   6.632   6.534
10575SOL    HW132624   0.849   6.552   6.561
10575SOL    HW232625   0.767   6.622   6.439
10576SOL     OW32626   1.269   5.922   3.289
10576SOL    HW132627   1.318   5.989   3.346
10576SOL    HW232628   1.321   5.907   3.205
10577SOL     OW32629   0.096   2.160   5.962
10577SOL    HW132630   0.044   2.244   5.945
10577SOL    HW232631   0.049   2.083   5.919
10578SOL     OW32632   5.048   0.714   5.584
10578SOL    HW132633   5.028   0.772   5.506
10578SOL    HW232634   4.986   0.636   5.585
10579SOL     OW32635   5.475   6.952   0.655
10579SOL    HW132636   5.390   6.973   0.704
10579SOL    HW232637   5.454   6.891   0.578
10580SOL     OW32638   0.412   5.603   0.044
10580SOL    HW132639   0.421   5.641   6.977
10580SOL    HW232640   0.471   5.522   0.052
10581SOL     OW32641   4.568   2.356   3.046
10581SOL    HW132642   4.659   2.395   3.063
10581SOL    HW232643   4.529   2.396   2.963
10582SOL     OW32644   3.361   4.422   0.027
10582SOL    HW132645   3.274   4.412   0.074
10582SOL    HW232646   3.395   4.332   7.023
10583SOL     OW32647   4.901   1.245   1.224
10583SOL    HW132648   4.947   1.231   1.311
10583SOL    HW232649   4.816   1.296   1.238
10584SOL     OW32650   5.806   6.466   1.409
10584SOL    HW132651   5.764   6.478   1.499
10584SOL    HW232652   5.799   6.370   1.382
10585SOL     OW32653   2.954   4.254   6.010
10585SOL    HW132654   3.017   4.251   5.933
10585SOL    HW232655   2.862   4.275   5.977
10586SOL     OW32656   4.707   1.917   1.517
10586SOL    HW132657   4.609   1.894   1.516
10586SOL    HW232658   4.761   1.834   1.521
10587SOL     OW32659   6.636   3.528   0.553
10587SOL    HW132660   6.622   3.627   0.539
10587SOL    HW232661   6.549   3.487   0.580
10588SOL     OW32662   1.451   4.846   3.364
10588SOL    HW132663   1.387   4.922   3.380
10588SOL    HW232664   1.433   4.773   3.430
10589SOL     OW32665   6.390   1.269   4.142
10589SOL    HW132666   6.296   1.279   4.176
10589SOL    HW232667   6.408   1.173   4.123
10590SOL     OW32668   1.746   0.016   5.143
10590SOL    HW132669   1.836   0.059   5.140
10590SOL    HW232670   1.687   0.057   5.073
10591SOL     OW32671   1.614   2.125   1.686
10591SOL    HW132672   1.677   2.112   1.609
10591SOL    HW232673   1.549   2.048   1.689
10592SOL     OW32674   5.359   1.171   6.321
10592SOL    HW132675   5.281   1.211   6.272
10592SOL    HW232676   5.360   1.072   6.307
10593SOL     OW32677   1.376   4.019   2.157
10593SOL    HW132678   1.431   3.952   2.106
10593SOL    HW232679   1.421   4.041   2.243
10594SOL     OW32680   1.124   1.327   4.707
10594SOL    HW132681   1.171   1.279   4.634
10594SOL    HW232682   1.025   1.325   4.690
10595SOL     OW32683   1.607   5.931   4.765
10595SOL    HW132684   1.557   5.931   4.678
10595SOL    HW232685   1.546   5.901   4.838
10596SOL     OW32686   2.889   1.356   1.394
10596SOL    HW132687   2.905   1.281   1.459
10596SOL    HW232688   2.792   1.357   1.368
10597SOL     OW32689   1.419   0.680   3.791
10597SOL    HW132690   1.379   0.671   3.882
10597SOL    HW232691   1.390   0.603   3.734
10598SOL     OW32692   2.546   0.551   0.807
10598SOL    HW132693   2.480   0.585   0.873
10598SOL    HW232694   2.557   0.617   0.733
10599SOL     OW32695   4.969   0.050   6.436
10599SOL    HW132696   4.917   0.127   6.472
10599SOL    HW232697   4.925   0.016   6.353
10600SOL     OW32698   1.731   3.202   5.080
10600SOL    HW132699   1.812   3.200   5.139
10600SOL    HW232700   1.691   3.110   5.076
10601SOL     OW32701   3.823   6.430   5.493
10601SOL    HW132702   3.738   6.447   5.544
10601SOL    HW232703   3.801   6.413   5.397
10602SOL     OW32704   4.512   1.972   2.198
10602SOL    HW132705   4.561   1.946   2.115
10602SOL    HW232706   4.511   2.071   2.207
10603SOL     OW32707   0.444   5.245   4.891
10603SOL    HW132708   0.387   5.170   4.924
10603SOL    HW232709   0.386   5.321   4.863
10604SOL     OW32710   0.316   3.976   5.993
10604SOL    HW132711   0.301   4.044   5.920
10604SOL    HW232712   0.286   3.886   5.961
10605SOL     OW32713   1.451   5.316   6.352
10605SOL    HW132714   1.532   5.372   6.338
10605SOL    HW232715   1.389   5.363   6.415
10606SOL     OW32716   0.736   1.377   2.103
10606SOL    HW132717   0.763   1.281   2.095
10606SOL    HW232718   0.814   1.436   2.083
10607SOL     OW32719   5.863   3.947   6.474
10607SOL    HW132720   5.927   3.887   6.521
10607SOL    HW232721   5.913   4.021   6.428
10608SOL     OW32722   5.573   6.448   2.415
10608SOL    HW132723   5.489   6.422   2.367
10608SOL    HW232724   5.550   6.475   2.509
10609SOL     OW32725   3.947   6.857   2.860
10609SOL    HW132726   3.854   6.875   2.892
10609SOL    HW232727   3.946   6.780   2.797
10610SOL     OW32728   1.833   4.309   5.222
10610SOL    HW132729   1.854   4.402   5.250
10610SOL    HW232730   1.909   4.249   5.248
10611SOL     OW32731   5.265   2.014   5.787
10611SOL    HW132732   5.338   1.960   5.829
10611SOL    HW232733   5.208   2.054   5.859
10612SOL     OW32734   1.963   0.383   1.418
10612SOL    HW132735   1.924   0.474   1.433
10612SOL    HW232736   1.996   0.377   1.323
10613SOL     OW32737   0.889   6.215   6.758
10613SOL    HW132738   0.907   6.117   6.759
10613SOL    HW232739   0.813   6.236   6.819
10614SOL     OW32740   0.257   0.609   2.688
10614SOL    HW132741   0.180   0.628   2.627
10614SOL    HW232742   0.225   0.607   2.783
10615SOL     OW32743   0.017   6.854   5.158
10615SOL    HW132744   0.105   6.819   5.125
10615SOL    HW232745   7.009   6.797   5.233
10616SOL     OW32746   3.213   5.975   1.263
10616SOL    HW132747   3.292   6.036   1.269
10616SOL    HW232748   3.244   5.880   1.255
10617SOL     OW32749   6.966   1.536   6.591
10617SOL    HW132750   6.876   1.512   6.554
10617SOL    HW232751   6.955   1.603   6.664
10618SOL     OW32752   6.522   4.270   0.913
10618SOL    HW132753   6.556   4.364   0.917
10618SOL    HW232754   6.507   4.236   1.006
10619SOL     OW32755   0.400   3.088   3.742
10619SOL    HW132756   0.430   3.141   3.663
10619SOL    HW232757   0.305   3.110   3.762
10620SOL     OW32758   1.666   5.266   4.055
10620SOL    HW132759   1.593   5.270   3.987
10620SOL    HW232760   1.627   5.258   4.146
10621SOL     OW32761   3.769   6.718   1.113
10621SOL    HW132762   3.776   6.699   1.211
10621SOL    HW232763   3.829   6.795   1.090
10622SOL     OW32764   3.965   2.112   0.549
10622SOL    HW132765   4.025   2.109   0.469
10622SOL    HW232766   4.018   2.140   0.630
10623SOL     OW32767   0.246   1.383   4.911
10623SOL    HW132768   0.296   1.461   4.947
10623SOL    HW232769   0.172   1.414   4.851
10624SOL     OW32770   2.604   1.539   4.235
10624SOL    HW132771   2.531   1.520   4.169
10624SOL    HW232772   2.690   1.555   4.187
10625SOL     OW32773   0.633   2.738   0.745
10625SOL    HW132774   0.714   2.790   0.774
10625SOL    HW232775   0.579   2.793   0.681
10626SOL     OW32776   6.861   1.911   3.349
10626SOL    HW132777   6.953   1.943   3.326
10626SOL    HW232778   6.794   1.982   3.328
10627SOL     OW32779   4.664   5.869   4.530
10627SOL    HW132780   4.624   5.814   4.457
10627SOL    HW232781   4.593   5.927   4.571
10628SOL     OW32782   6.650   6.402   5.123
10628SOL    HW132783   6.578   6.340   5.094
10628SOL    HW232784   6.610   6.480   5.171
10629SOL     OW32785   2.462   3.908   6.373
10629SOL    HW132786   2.482   3.942   6.282
10629SOL    HW232787   2.374   3.861   6.373
10630SOL     OW32788   5.388   1.193   1.921
10630SOL    HW132789   5.357   1.110   1.873
10630SOL    HW232790   5.417   1.169   2.013
10631SOL     OW32791   1.523   6.876   4.513
10631SOL    HW132792   1.542   6.800   4.451
10631SOL    HW232793   1.425   6.888   4.523
10632SOL     OW32794   0.129   3.127   6.915
10632SOL    HW132795   0.066   3.149   6.990
10632SOL    HW232796   0.166   3.035   6.929
10633SOL     OW32797   1.396   5.230   6.980
10633SOL    HW132798   1.453   5.304   7.015
10633SOL    HW232799   1.454   5.150   6.960
10634SOL     OW32800   3.264   6.811   2.284
10634SOL    HW132801   3.331   6.866   2.235
10634SOL    HW232802   3.309   6.733   2.327
10635SOL     OW32803   1.521   1.150   1.731
10635SOL    HW132804   1.431   1.190   1.747
10635SOL    HW232805   1.512   1.052   1.716
10636SOL     OW32806   5.222   1.983   0.021
10636SOL    HW132807   5.154   2.005   6.975
10636SOL    HW232808   5.191   1.902   0.072
10637SOL     OW32809   3.146   3.486   6.379
10637SOL    HW132810   3.139   3.531   6.290
10637SOL    HW232811   3.239   3.497   6.414
10638SOL     OW32812   6.323   0.613   5.958
10638SOL    HW132813   6.356   0.595   6.050
10638SOL    HW232814   6.290   0.708   5.952
10639SOL     OW32815   3.728   2.064   5.036
10639SOL    HW132816   3.724   2.062   4.936
10639SOL    HW232817   3.805   2.122   5.065
10640SOL     OW32818   4.644   6.499   0.625
10640SOL    HW132819   4.593   6.547   0.696
10640SOL    HW232820   4.727   6.460   0.665
10641SOL     OW32821   3.620   6.979   0.151
10641SOL    HW132822   3.578   6.913   0.212
10641SOL    HW232823   3.551   7.014   0.087
10642SOL     OW32824   0.579   5.536   1.158
10642SOL    HW132825   0.647   5.542   1.085
10642SOL    HW232826   0.561   5.627   1.195
10643SOL     OW32827   3.578   3.320   5.362
10643SOL    HW132828   3.494   3.369   5.337
10643SOL    HW232829   3.645   3.328   5.287
10644SOL     OW32830   3.699   1.017   5.448
10644SOL    HW132831   3.609   1.021   5.492
10644SOL    HW232832   3.694   1.061   5.358
10645SOL     OW32833   2.135   0.368   4.441
10645SOL    HW132834   2.125   0.426   4.360
10645SOL    HW232835   2.045   0.351   4.481
10646SOL     OW32836   6.535   5.620   6.543
10646SOL    HW132837   6.591   5.676   6.605
10646SOL    HW232838   6.456   5.674   6.513
10647SOL     OW32839   0.064   6.106   0.790
10647SOL    HW132840   0.109   6.023   0.756
10647SOL    HW232841   0.009   6.082   0.871
10648SOL     OW32842   5.025   3.951   6.210
10648SOL    HW132843   5.039   3.945   6.111
10648SOL    HW232844   4.955   4.019   6.229
10649SOL     OW32845   6.999   5.044   6.672
10649SOL    HW132846   6.918   5.047   6.731
10649SOL    HW232847   0.009   4.950   6.668
10650SOL     OW32848   2.301   0.177   5.759
10650SOL    HW132849   2.219   0.234   5.752
10650SOL    HW232850   2.274   0.082   5.774
10651SOL     OW32851   2.048   0.812   4.967
10651SOL    HW132852   2.115   0.746   4.934
10651SOL    HW232853   2.025   0.875   4.893
10652SOL     OW32854   4.866   0.873   0.488
10652SOL    HW132855   4.871   0.855   0.587
10652SOL    HW232856   4.952   0.847   0.445
10653SOL     OW32857   6.023   3.802   4.191
10653SOL    HW132858   5.926   3.823   4.178
10653SOL    HW232859   6.062   3.865   4.257
10654SOL     OW32860   4.520   0.527   1.430
10654SOL    HW132861   4.615   0.546   1.456
10654SOL    HW232862   4.460   0.594   1.473
10655SOL     OW32863   2.492   5.847   1.151
10655SOL    HW132864   2.586   5.835   1.182
10655SOL    HW232865   2.460   5.763   1.108
10656SOL     OW32866   6.597   2.825   6.124
10656SOL    HW132867   6.507   2.865   6.107
10656SOL    HW232868   6.651   2.827   6.040
10657SOL     OW32869   6.150   0.115   0.701
10657SOL    HW132870   6.058   0.093   0.734
10657SOL    HW232871   6.192   0.032   0.662
10658SOL     OW32872   6.994   6.163   4.121
10658SOL    HW132873   7.017   6.134   4.214
10658SOL    HW232874   6.900   6.137   4.100
10659SOL     OW32875   5.067   0.993   1.600
10659SOL    HW132876   5.015   0.962   1.679
10659SOL    HW232877   5.032   0.949   1.517
10660SOL     OW32878   5.146   4.946   5.559
10660SOL    HW132879   5.242   4.969   5.571
10660SOL    HW232880   5.096   5.025   5.525
10661SOL     OW32881   0.053   1.302   1.478
10661SOL    HW132882   0.004   1.385   1.504
10661SOL    HW232883   0.000   1.222   1.507
10662SOL     OW32884   7.005   1.983   0.483
10662SOL    HW132885   0.074   2.002   0.515
10662SOL    HW232886   6.940   2.002   0.556
10663SOL     OW32887   0.599   2.084   1.696
10663SOL    HW132888   0.569   1.991   1.679
10663SOL    HW232889   0.623   2.128   1.610
10664SOL     OW32890   2.505   5.366   6.190
10664SOL    HW132891   2.484   5.318   6.104
10664SOL    HW232892   2.470   5.459   6.185
10665SOL     OW32893   5.678   1.960   6.960
10665SOL    HW132894   5.582   1.984   6.946
10665SOL    HW232895   5.736   2.026   6.912
10666SOL     OW32896   0.660   6.829   0.333
10666SOL    HW132897   0.615   6.813   0.421
10666SOL    HW232898   0.758   6.846   0.349
10667SOL     OW32899   3.375   2.194   5.594
10667SOL    HW132900   3.315   2.187   5.514
10667SOL    HW232901   3.440   2.118   5.595
10668SOL     OW32902   1.485   0.498   6.239
10668SOL    HW132903   1.558   0.446   6.282
10668SOL    HW232904   1.402   0.442   6.234
10669SOL     OW32905   1.986   6.019   6.644
10669SOL    HW132906   2.082   5.995   6.632
10669SOL    HW232907   1.929   5.938   6.632
10670SOL     OW32908   5.800   4.317   4.911
10670SOL    HW132909   5.742   4.266   4.847
10670SOL    HW232910   5.816   4.262   4.993
10671SOL     OW32911   2.185   2.867   3.384
10671SOL    HW132912   2.257   2.798   3.383
10671SOL    HW232913   2.131   2.861   3.300
10672SOL     OW32914   6.625   2.161   0.796
10672SOL    HW132915   6.723   2.183   0.792
10672SOL    HW232916   6.575   2.240   0.832
10673SOL     OW32917   3.658   4.120   3.900
10673SOL    HW132918   3.700   4.035   3.933
10673SOL    HW232919   3.571   4.134   3.946
10674SOL     OW32920   4.321   1.603   2.759
10674SOL    HW132921   4.360   1.682   2.806
10674SOL    HW232922   4.382   1.524   2.771
10675SOL     OW32923   1.230   1.500   6.086
10675SOL    HW132924   1.196   1.465   5.999
10675SOL    HW232925   1.244   1.599   6.078
10676SOL     OW32926   6.460   0.859   0.135
10676SOL    HW132927   6.436   0.956   0.135
10676SOL    HW232928   6.473   0.828   0.230
10677SOL     OW32929   5.188   1.625   0.118
10677SOL    HW132930   5.273   1.673   0.135
10677SOL    HW232931   5.207   1.530   0.093
10678SOL     OW32932   1.195   5.342   3.617
10678SOL    HW132933   1.168   5.424   3.566
10678SOL    HW232934   1.246   5.369   3.699
10679SOL     OW32935   5.858   5.043   3.776
10679SOL    HW132936   5.865   4.945   3.797
10679SOL    HW232937   5.768   5.062   3.737
10680SOL     OW32938   0.058   2.506   4.017
10680SOL    HW132939   0.078   2.533   3.923
10680SOL    HW232940   0.142   2.509   4.071
10681SOL     OW32941   1.122   3.320   6.945
10681SOL    HW132942   1.118   3.222   6.963
10681SOL    HW232943   1.125   3.335   6.846
10682SOL     OW32944   6.160   2.037   3.398
10682SOL    HW132945   6.224   2.074   3.465
10682SOL    HW232946   6.082   1.996   3.445
10683SOL     OW32947   0.729   0.398   4.033
10683SOL    HW132948   0.773   0.309   4.050
10683SOL    HW232949   0.661   0.416   4.104
10684SOL     OW32950   5.280   6.123   0.628
10684SOL    HW132951   5.313   6.131   0.722
10684SOL    HW232952   5.270   6.027   0.604
10685SOL     OW32953   6.382   2.844   3.014
10685SOL    HW132954   6.432   2.874   2.932
10685SOL    HW232955   6.354   2.924   3.067
10686SOL     OW32956   4.518   4.446   1.463
10686SOL    HW132957   4.551   4.407   1.549
10686SOL    HW232958   4.419   4.437   1.458
10687SOL     OW32959   0.369   5.319   1.178
10687SOL    HW132960   0.329   5.274   1.257
10687SOL    HW232961   0.448   5.373   1.206
10688SOL     OW32962   1.391   4.507   0.997
10688SOL    HW132963   1.431   4.548   1.079
10688SOL    HW232964   1.383   4.577   0.925
10689SOL     OW32965   0.447   0.247   0.883
10689SOL    HW132966   0.391   0.195   0.947
10689SOL    HW232967   0.541   0.250   0.915
10690SOL     OW32968   3.776   0.405   3.226
10690SOL    HW132969   3.798   0.319   3.180
10690SOL    HW232970   3.801   0.397   3.323
10691SOL     OW32971   5.463   1.596   1.831
10691SOL    HW132972   5.487   1.693   1.823
10691SOL    HW232973   5.363   1.587   1.830
10692SOL     OW32974   5.732   6.311   4.227
10692SOL    HW132975   5.759   6.352   4.140
10692SOL    HW232976   5.810   6.264   4.268
10693SOL     OW32977   5.089   2.548   4.195
10693SOL    HW132978   5.139   2.489   4.259
10693SOL    HW232979   4.992   2.524   4.197
10694SOL     OW32980   2.263   5.893   0.136
10694SOL    HW132981   2.203   5.923   0.061
10694SOL    HW232982   2.342   5.953   0.141
10695SOL     OW32983   5.954   3.103   5.858
10695SOL    HW132984   5.934   3.015   5.900
10695SOL    HW232985   6.038   3.096   5.803
10696SOL     OW32986   6.565   0.055   0.738
10696SOL    HW132987   6.616   0.027   0.819
10696SOL    HW232988   6.518   7.000   0.699
10697SOL     OW32989   2.300   5.744   2.982
10697SOL    HW132990   2.315   5.651   2.948
10697SOL    HW232991   2.213   5.748   3.032
10698SOL     OW32992   3.401   0.361   3.820
10698SOL    HW132993   3.383   0.458   3.805
10698SOL    HW232994   3.321   0.308   3.795
10699SOL     OW32995   0.722   3.048   3.819
10699SOL    HW132996   0.677   2.959   3.834
10699SOL    HW232997   0.678   3.117   3.876
10700SOL     OW32998   1.241   3.132   2.284
10700SOL    HW132999   1.190   3.140   2.370
10700SOL    HW233000   1.320   3.192   2.286
10701SOL     OW33001   2.823   6.697   1.196
10701SOL    HW133002   2.776   6.753   1.129
10701SOL    HW233003   2.761   6.676   1.272
10702SOL     OW33004   4.664   2.127   0.460
10702SOL    HW133005   4.694   2.040   0.498
10702SOL    HW233006   4.717   2.201   0.501
10703SOL     OW33007   3.822   4.068   4.253
10703SOL    HW133008   3.746   4.017   4.214
10703SOL    HW233009   3.876   4.007   4.312
10704SOL     OW33010   5.436   5.704   1.535
10704SOL    HW133011   5.444   5.654   1.621
10704SOL    HW233012   5.340   5.715   1.511
10705SOL     OW33013   1.550   2.792   6.839
10705SOL    HW133014   1.460   2.748   6.839
10705SOL    HW233015   1.577   2.811   6.744
10706SOL     OW33016   3.599   3.719   0.571
10706SOL    HW133017   3.639   3.655   0.637
10706SOL    HW233018   3.518   3.762   0.612
10707SOL     OW33019   5.990   0.463   6.680
10707SOL    HW133020   5.905   0.513   6.696
10707SOL    HW233021   6.026   0.488   6.590
10708SOL     OW33022   4.608   2.378   1.487
10708SOL    HW133023   4.546   2.351   1.414
10708SOL    HW233024   4.556   2.396   1.570
10709SOL     OW33025   0.771   1.125   6.514
10709SOL    HW133026   0.800   1.030   6.528
10709SOL    HW233027   0.789   1.151   6.419
10710SOL     OW33028   0.222   6.865   3.374
10710SOL    HW133029   0.206   6.963   3.383
10710SOL    HW233030   0.279   6.847   3.294
10711SOL     OW33031   1.737   3.979   5.287
10711SOL    HW133032   1.754   4.036   5.367
10711SOL    HW233033   1.822   3.969   5.234
10712SOL     OW33034   3.919   1.797   6.396
10712SOL    HW133035   3.877   1.715   6.435
10712SOL    HW233036   3.891   1.807   6.300
10713SOL     OW33037   2.881   6.778   0.386
10713SOL    HW133038   2.807   6.837   0.418
10713SOL    HW233039   2.969   6.819   0.409
10714SOL     OW33040   5.036   5.550   4.094
10714SOL    HW133041   5.033   5.451   4.099
10714SOL    HW233042   5.102   5.578   4.023
10715SOL     OW33043   5.891   0.011   2.591
10715SOL    HW133044   5.819   0.001   2.522
10715SOL    HW233045   5.947   0.091   2.570
10716SOL     OW33046   6.866   1.997   2.088
10716SOL    HW133047   6.940   2.063   2.102
10716SOL    HW233048   6.893   1.908   2.125
10717SOL     OW33049   0.736   6.177   1.717
10717SOL    HW133050   0.770   6.252   1.774
10717SOL    HW233051   0.804   6.154   1.648
10718SOL     OW33052   6.933   5.018   5.105
10718SOL    HW133053   7.008   5.024   5.170
10718SOL    HW233054   6.950   5.081   5.028
10719SOL     OW33055   3.439   6.410   3.740
10719SOL    HW133056   3.501   6.337   3.711
10719SOL    HW233057   3.472   6.498   3.707
10720SOL     OW33058   0.380   2.722   5.866
10720SOL    HW133059   0.474   2.736   5.896
10720SOL    HW233060   0.320   2.714   5.946
10721SOL     OW33061   5.464   1.380   3.915
10721SOL    HW133062   5.436   1.375   4.011
10721SOL    HW233063   5.392   1.341   3.857
10722SOL     OW33064   0.822   5.428   0.392
10722SOL    HW133065   0.895   5.360   0.390
10722SOL    HW233066   0.736   5.383   0.419
10723SOL     OW33067   6.900   4.029   6.614
10723SOL    HW133068   6.888   3.950   6.554
10723SOL    HW233069   6.966   4.092   6.573
10724SOL     OW33070   3.772   6.301   5.952
10724SOL    HW133071   3.832   6.350   6.015
10724SOL    HW233072   3.688   6.354   5.938
10725SOL     OW33073   0.027   0.290   5.356
10725SOL    HW133074   0.127   0.289   5.350
10725SOL    HW233075   7.016   0.201   5.331
10726SOL     OW33076   6.972   0.160   3.465
10726SOL    HW133077   6.905   0.200   3.527
10726SOL    HW233078   6.937   0.162   3.371
10727SOL     OW33079   5.076   6.235   6.653
10727SOL    HW133080   5.022   6.183   6.587
10727SOL    HW233081   5.146   6.289   6.604
10728SOL     OW33082   5.443   6.099   4.143
10728SOL    HW133083   5.462   6.026   4.078
10728SOL    HW233084   5.504   6.091   4.222
10729SOL     OW33085   6.721   3.036   4.300
10729SOL    HW133086   6.734   3.124   4.254
10729SOL    HW233087   6.802   2.979   4.287
10730SOL     OW33088   1.484   6.074   4.561
10730SOL    HW133089   1.394   6.101   4.526
10730SOL    HW233090   1.552   6.078   4.488
10731SOL     OW33091   5.114   4.046   5.029
10731SOL    HW133092   5.065   3.960   5.032
10731SOL    HW233093   5.184   4.043   4.957
10732SOL     OW33094   5.316   5.954   2.072
10732SOL    HW133095   5.281   5.921   2.160
10732SOL    HW233096   5.279   5.897   1.999
10733SOL     OW33097   0.677   1.499   5.793
10733SOL    HW133098   0.610   1.506   5.866
10733SOL    HW233099   0.652   1.423   5.732
10734SOL     OW33100   0.583   0.550   4.286
10734SOL    HW133101   0.515   0.601   4.234
10734SOL    HW233102   0.640   0.615   4.338
10735SOL     OW33103   6.957   1.084   1.875
10735SOL    HW133104   7.017   1.160   1.852
10735SOL    HW233105   6.939   1.084   1.974
10736SOL     OW33106   5.900   5.764   3.619
10736SOL    HW133107   5.902   5.751   3.519
10736SOL    HW233108   5.857   5.685   3.662
10737SOL     OW33109   6.578   0.751   0.532
10737SOL    HW133110   6.558   0.757   0.630
10737SOL    HW233111   6.634   0.830   0.505
10738SOL     OW33112   1.331   6.505   1.523
10738SOL    HW133113   1.320   6.467   1.615
10738SOL    HW233114   1.317   6.604   1.527
10739SOL     OW33115   5.017   2.713   3.792
10739SOL    HW133116   5.029   2.614   3.795
10739SOL    HW233117   4.940   2.739   3.850
10740SOL     OW33118   2.881   0.419   6.348
10740SOL    HW133119   2.856   0.329   6.315
10740SOL    HW233120   2.975   0.417   6.384
10741SOL     OW33121   2.107   2.602   4.449
10741SOL    HW133122   2.171   2.534   4.486
10741SOL    HW233123   2.113   2.602   4.350
10742SOL     OW33124   0.300   0.262   2.076
10742SOL    HW133125   0.291   0.223   1.984
10742SOL    HW233126   0.232   0.221   2.137
10743SOL     OW33127   3.826   2.546   6.315
10743SOL    HW133128   3.785   2.595   6.238
10743SOL    HW233129   3.919   2.518   6.291
10744SOL     OW33130   1.728   1.895   0.747
10744SOL    HW133131   1.701   1.889   0.651
10744SOL    HW233132   1.776   1.811   0.773
10745SOL     OW33133   3.573   5.694   1.467
10745SOL    HW133134   3.632   5.767   1.500
10745SOL    HW233135   3.620   5.606   1.476
10746SOL     OW33136   2.678   6.197   5.793
10746SOL    HW133137   2.651   6.101   5.790
10746SOL    HW233138   2.675   6.230   5.887
10747SOL     OW33139   6.978   0.149   4.437
10747SOL    HW133140   6.989   0.227   4.499
10747SOL    HW233141   6.881   0.123   4.433
10748SOL     OW33142   2.770   6.326   2.582
10748SOL    HW133143   2.730   6.403   2.532
10748SOL    HW233144   2.721   6.242   2.558
10749SOL     OW33145   4.836   3.013   2.471
10749SOL    HW133146   4.935   2.997   2.468
10749SOL    HW233147   4.788   2.938   2.426
10750SOL     OW33148   3.268   1.587   4.195
10750SOL    HW133149   3.283   1.683   4.220
10750SOL    HW233150   3.222   1.540   4.271
10751SOL     OW33151   6.251   5.991   3.429
10751SOL    HW133152   6.222   5.913   3.374
10751SOL    HW233153   6.196   6.071   3.406
10752SOL     OW33154   0.090   6.275   6.597
10752SOL    HW133155   0.034   6.244   6.675
10752SOL    HW233156   0.045   6.248   6.512
10753SOL     OW33157   5.287   6.565   4.892
10753SOL    HW133158   5.272   6.659   4.860
10753SOL    HW233159   5.277   6.562   4.991
10754SOL     OW33160   0.068   6.059   2.151
10754SOL    HW133161   7.000   6.028   2.169
10754SOL    HW233162   0.122   5.983   2.114
10755SOL     OW33163   0.873   1.777   2.514
10755SOL    HW133164   0.857   1.812   2.422
10755SOL    HW233165   0.846   1.846   2.581
10756SOL     OW33166   0.886   0.382   6.558
10756SOL    HW133167   0.819   0.314   6.527
10756SOL    HW233168   0.839   0.458   6.601
10757SOL     OW33169   6.970   2.583   1.813
10757SOL    HW133170   0.025   2.642   1.795
10757SOL    HW233171   6.948   2.532   1.730
10758SOL     OW33172   0.308   1.842   0.379
10758SOL    HW133173   0.397   1.809   0.347
10758SOL    HW233174   0.236   1.805   0.320
10759SOL     OW33175   3.562   5.191   5.444
10759SOL    HW133176   3.502   5.251   5.498
10759SOL    HW233177   3.507   5.124   5.396
10760SOL     OW33178   0.615   4.862   0.079
10760SOL    HW133179   0.626   4.949   0.032
10760SOL    HW233180   0.627   4.875   0.177
10761SOL     OW33181   1.377   1.554   6.485
10761SOL    HW133182   1.365   1.498   6.403
10761SOL    HW233183   1.296   1.612   6.498
10762SOL     OW33184   1.833   6.296   1.133
10762SOL    HW133185   1.810   6.220   1.193
10762SOL    HW233186   1.859   6.376   1.189
10763SOL     OW33187   4.993   0.889   2.439
10763SOL    HW133188   5.058   0.914   2.367
10763SOL    HW233189   4.901   0.883   2.401
10764SOL     OW33190   5.308   6.285   4.536
10764SOL    HW133191   5.234   6.263   4.472
10764SOL    HW233192   5.395   6.284   4.487
10765SOL     OW33193   6.596   2.775   1.659
10765SOL    HW133194   6.578   2.676   1.661
10765SOL    HW233195   6.618   2.807   1.751
10766SOL     OW33196   3.356   4.776   6.686
10766SOL    HW133197   3.306   4.798   6.603
10766SOL    HW233198   3.351   4.853   6.750
10767SOL     OW33199   1.528   5.016   6.369
10767SOL    HW133200   1.477   5.100   6.347
10767SOL    HW233201   1.506   4.946   6.301
10768SOL     OW33202   5.925   6.248   0.008
10768SOL    HW133203   5.933   6.249   0.108
10768SOL    HW233204   6.011   6.279   6.992
10769SOL     OW33205   3.223   3.771   4.869
10769SOL    HW133206   3.173   3.854   4.844
10769SOL    HW233207   3.309   3.796   4.913
10770SOL     OW33208   4.232   6.946   3.891
10770SOL    HW133209   4.206   6.985   3.979
10770SOL    HW233210   4.248   6.848   3.901
10771SOL     OW33211   4.938   6.077   5.754
10771SOL    HW133212   5.032   6.069   5.720
10771SOL    HW233213   4.939   6.100   5.851
10772SOL     OW33214   5.160   3.513   3.657
10772SOL    HW133215   5.195   3.448   3.725
10772SOL    HW233216   5.073   3.480   3.622
10773SOL     OW33217   1.046   4.434   0.811
10773SOL    HW133218   1.102   4.444   0.893
10773SOL    HW233219   0.967   4.376   0.832
10774SOL     OW33220   6.961   3.059   0.379
10774SOL    HW133221   0.002   3.103   0.440
10774SOL    HW233222   6.936   2.969   0.416
10775SOL     OW33223   2.609   4.575   6.297
10775SOL    HW133224   2.639   4.484   6.267
10775SOL    HW233225   2.665   4.645   6.251
10776SOL     OW33226   0.561   3.976   3.117
10776SOL    HW133227   0.479   4.030   3.135
10776SOL    HW233228   0.636   4.037   3.090
10777SOL     OW33229   0.880   6.374   1.888
10777SOL    HW133230   0.973   6.345   1.864
10777SOL    HW233231   0.883   6.467   1.924
10778SOL     OW33232   5.011   0.208   3.789
10778SOL    HW133233   4.919   0.225   3.751
10778SOL    HW233234   5.065   0.157   3.722
10779SOL     OW33235   5.369   3.008   6.068
10779SOL    HW133236   5.378   3.044   5.975
10779SOL    HW233237   5.295   3.056   6.116
10780SOL     OW33238   1.171   5.182   4.854
10780SOL    HW133239   1.102   5.138   4.797
10780SOL    HW233240   1.132   5.205   4.943
10781SOL     OW33241   6.080   2.469   6.136
10781SOL    HW133242   6.022   2.453   6.056
10781SOL    HW233243   6.126   2.384   6.162
10782SOL     OW33244   1.188   3.326   5.412
10782SOL    HW133245   1.162   3.423   5.418
10782SOL    HW233246   1.247   3.302   5.489
10783SOL     OW33247   1.356   3.870   4.074
10783SOL    HW133248   1.278   3.814   4.100
10783SOL    HW233249   1.410   3.892   4.155
10784SOL     OW33250   4.834   5.362   4.036
10784SOL    HW133251   4.786   5.449   4.043
10784SOL    HW233252   4.825   5.311   4.122
10785SOL     OW33253   1.863   5.223   1.597
10785SOL    HW133254   1.859   5.193   1.502
10785SOL    HW233255   1.770   5.231   1.634
10786SOL     OW33256   5.042   1.639   2.598
10786SOL    HW133257   5.059   1.737   2.584
10786SOL    HW233258   5.045   1.592   2.509
10787SOL     OW33259   2.895   1.636   3.724
10787SOL    HW133260   2.943   1.598   3.803
10787SOL    HW233261   2.863   1.728   3.745
10788SOL     OW33262   1.575   3.111   0.088
10788SOL    HW133263   1.596   3.190   0.145
10788SOL    HW233264   1.637   3.036   0.111
10789SOL     OW33265   6.648   2.000   2.721
10789SOL    HW133266   6.684   1.907   2.719
10789SOL    HW233267   6.666   2.045   2.634
10790SOL     OW33268   6.902   2.548   5.331
10790SOL    HW133269   6.993   2.583   5.312
10790SOL    HW233270   6.859   2.520   5.246
10791SOL     OW33271   1.912   3.185   3.334
10791SOL    HW133272   1.966   3.266   3.356
10791SOL    HW233273   1.974   3.113   3.299
10792SOL     OW33274   3.700   1.487   2.215
10792SOL    HW133275   3.654   1.574   2.232
10792SOL    HW233276   3.735   1.484   2.122
10793SOL     OW33277   3.922   2.070   4.120
10793SOL    HW133278   3.841   2.086   4.063
10793SOL    HW233279   3.928   1.973   4.143
10794SOL     OW33280   4.272   2.688   6.832
10794SOL    HW133281   4.237   2.640   6.752
10794SOL    HW233282   4.227   2.777   6.840
10795SOL     OW33283   6.257   3.105   3.044
10795SOL    HW133284   6.281   3.196   3.009
10795SOL    HW233285   6.195   3.060   2.979
10796SOL     OW33286   6.873   1.978   6.379
10796SOL    HW133287   6.909   1.885   6.388
10796SOL    HW233288   6.907   2.020   6.295
10797SOL     OW33289   5.526   4.512   6.681
10797SOL    HW133290   5.534   4.413   6.678
10797SOL    HW233291   5.442   4.541   6.635
10798SOL     OW33292   2.438   5.826   0.545
10798SOL    HW133293   2.402   5.919   0.539
10798SOL    HW233294   2.498   5.809   0.467
10799SOL     OW33295   1.678   0.880   3.078
10799SOL    HW133296   1.718   0.945   3.142
10799SOL    HW233297   1.742   0.862   3.004
10800SOL     OW33298   1.450   0.779   5.104
10800SOL    HW133299   1.500   0.719   5.041
10800SOL    HW233300   1.466   0.749   5.198
10801SOL     OW33301   3.004   6.045   6.691
10801SOL    HW133302   3.059   5.977   6.739
10801SOL    HW233303   2.931   6.079   6.751
10802SOL     OW33304   0.357   4.647   3.805
10802SOL    HW133305   0.304   4.563   3.797
10802SOL    HW233306   0.397   4.671   3.716
10803SOL     OW33307   0.188   4.306   4.915
10803SOL    HW133308   0.237   4.221   4.934
10803SOL    HW233309   0.101   4.286   4.870
10804SOL     OW33310   4.118   4.976   6.497
10804SOL    HW133311   4.211   4.944   6.478
10804SOL    HW233312   4.121   5.070   6.532
10805SOL     OW33313   4.896   6.058   0.553
10805SOL    HW133314   4.862   6.036   0.461
10805SOL    HW233315   4.914   6.157   0.559
10806SOL     OW33316   6.004   2.958   5.064
10806SOL    HW133317   6.028   2.907   4.982
10806SOL    HW233318   5.921   3.011   5.047
10807SOL     OW33319   4.472   2.747   5.431
10807SOL    HW133320   4.415   2.827   5.451
10807SOL    HW233321   4.546   2.773   5.370
10808SOL     OW33322   0.710   2.768   1.391
10808SOL    HW133323   0.753   2.834   1.453
10808SOL    HW233324   0.758   2.680   1.397
10809SOL     OW33325   0.959   0.816   3.171
10809SOL    HW133326   0.859   0.821   3.174
10809SOL    HW233327   0.993   0.873   3.096
10810SOL     OW33328   1.977   1.996   6.170
10810SOL    HW133329   2.066   1.952   6.157
10810SOL    HW233330   1.933   1.957   6.251
10811SOL     OW33331   3.858   5.843   6.767
10811SOL    HW133332   3.879   5.930   6.811
10811SOL    HW233333   3.890   5.767   6.823
10812SOL     OW33334   6.749   3.152   2.480
10812SOL    HW133335   6.657   3.147   2.441
10812SOL    HW233336   6.761   3.239   2.527
10813SOL     OW33337   3.461   5.999   2.167
10813SOL    HW133338   3.384   6.032   2.113
10813SOL    HW233339   3.437   6.001   2.264
10814SOL     OW33340   1.659   5.808   4.364
10814SOL    HW133341   1.653   5.908   4.363
10814SOL    HW233342   1.568   5.768   4.360
10815SOL     OW33343   5.478   2.497   5.932
10815SOL    HW133344   5.421   2.419   5.957
10815SOL    HW233345   5.524   2.478   5.845
10816SOL     OW33346   2.386   2.255   0.826
10816SOL    HW133347   2.355   2.169   0.786
10816SOL    HW233348   2.406   2.242   0.923
10817SOL     OW33349   3.756   1.897   1.674
10817SOL    HW133350   3.701   1.861   1.599
10817SOL    HW233351   3.767   1.996   1.663
10818SOL     OW33352   4.747   3.539   6.050
10818SOL    HW133353   4.745   3.455   5.995
10818SOL    HW233354   4.661   3.589   6.037
10819SOL     OW33355   2.149   3.114   5.111
10819SOL    HW133356   2.082   3.124   5.037
10819SOL    HW233357   2.228   3.063   5.078
10820SOL     OW33358   1.311   6.646   5.332
10820SOL    HW133359   1.375   6.657   5.257
10820SOL    HW233360   1.339   6.703   5.409
10821SOL     OW33361   0.212   0.285   6.852
10821SOL    HW133362   0.128   0.250   6.894
10821SOL    HW233363   0.290   0.268   6.913
10822SOL     OW33364   0.263   5.219   6.033
10822SOL    HW133365   0.206   5.166   5.971
10822SOL    HW233366   0.354   5.179   6.038
10823SOL     OW33367   2.286   2.028   0.689
10823SOL    HW133368   2.192   2.044   0.659
10823SOL    HW233369   2.301   1.930   0.701
10824SOL     OW33370   5.269   1.517   4.580
10824SOL    HW133371   5.323   1.584   4.530
10824SOL    HW233372   5.241   1.555   4.668
10825SOL     OW33373   3.628   1.328   1.882
10825SOL    HW133374   3.664   1.416   1.914
10825SOL    HW233375   3.528   1.331   1.884
10826SOL     OW33376   0.289   3.380   0.907
10826SOL    HW133377   0.296   3.284   0.880
10826SOL    HW233378   0.251   3.386   1.000
10827SOL     OW33379   0.181   2.611   4.567
10827SOL    HW133380   0.122   2.613   4.486
10827SOL    HW233381   0.125   2.597   4.649
10828SOL     OW33382   2.785   4.617   6.875
10828SOL    HW133383   2.726   4.694   6.852
10828SOL    HW233384   2.749   4.534   6.834
10829SOL     OW33385   2.167   3.717   1.460
10829SOL    HW133386   2.113   3.645   1.416
10829SOL    HW233387   2.160   3.707   1.559
10830SOL     OW33388   6.817   0.386   3.968
10830SOL    HW133389   6.894   0.347   4.018
10830SOL    HW233390   6.836   0.382   3.870
10831SOL     OW33391   5.407   3.175   1.971
10831SOL    HW133392   5.461   3.192   1.888
10831SOL    HW233393   5.314   3.149   1.945
10832SOL     OW33394   2.016   2.753   1.742
10832SOL    HW133395   2.021   2.711   1.833
10832SOL    HW233396   1.987   2.849   1.752
10833SOL     OW33397   3.460   6.810   4.649
10833SOL    HW133398   3.373   6.815   4.600
10833SOL    HW233399   3.484   6.900   4.684
10834SOL     OW33400   6.995   2.016   5.758
10834SOL    HW133401   6.897   2.031   5.766
10834SOL    HW233402   7.011   1.934   5.703
10835SOL     OW33403   0.149   1.455   0.248
10835SOL    HW133404   0.115   1.549   0.239
10835SOL    HW233405   0.233   1.445   0.194
10836SOL     OW33406   7.005   1.985   1.395
10836SOL    HW133407   7.014   2.006   1.298
10836SOL    HW233408   0.070   1.960   1.432
10837SOL     OW33409   1.287   5.181   0.572
10837SOL    HW133410   1.365   5.137   0.526
10837SOL    HW233411   1.282   5.277   0.544
10838SOL     OW33412   6.724   5.910   0.982
10838SOL    HW133413   6.813   5.941   0.948
10838SOL    HW233414   6.718   5.929   1.080
10839SOL     OW33415   2.584   1.870   6.583
10839SOL    HW133416   2.670   1.907   6.546
10839SOL    HW233417   2.603   1.786   6.633
10840SOL     OW33418   1.266   1.027   3.009
10840SOL    HW133419   1.268   1.119   2.972
10840SOL    HW233420   1.316   0.965   2.949
10841SOL     OW33421   4.614   4.142   0.236
10841SOL    HW133422   4.611   4.115   0.333
10841SOL    HW233423   4.691   4.096   0.191
10842SOL     OW33424   5.731   2.157   1.826
10842SOL    HW133425   5.672   2.080   1.851
10842SOL    HW233426   5.726   2.173   1.727
10843SOL     OW33427   1.238   2.114   1.337
10843SOL    HW133428   1.225   2.016   1.345
10843SOL    HW233429   1.192   2.161   1.412
10844SOL     OW33430   4.848   6.750   3.767
10844SOL    HW133431   4.817   6.662   3.805
10844SOL    HW233432   4.946   6.758   3.780
10845SOL     OW33433   2.559   3.876   1.635
10845SOL    HW133434   2.659   3.888   1.642
10845SOL    HW233435   2.536   3.781   1.651
10846SOL     OW33436   3.535   2.815   1.951
10846SOL    HW133437   3.436   2.829   1.954
10846SOL    HW233438   3.579   2.894   1.908
10847SOL     OW33439   5.125   1.742   5.360
10847SOL    HW133440   5.146   1.666   5.298
10847SOL    HW233441   5.147   1.828   5.315
10848SOL     OW33442   2.057   0.561   6.627
10848SOL    HW133443   2.067   0.461   6.625
10848SOL    HW233444   2.147   0.604   6.623
10849SOL     OW33445   0.688   4.147   4.645
10849SOL    HW133446   0.775   4.099   4.645
10849SOL    HW233447   0.698   4.234   4.596
10850SOL     OW33448   6.178   0.500   2.951
10850SOL    HW133449   6.152   0.438   3.026
10850SOL    HW233450   6.115   0.577   2.947
10851SOL     OW33451   4.773   2.703   0.107
10851SOL    HW133452   4.713   2.698   0.028
10851SOL    HW233453   4.721   2.731   0.188
10852SOL     OW33454   5.830   1.329   5.641
10852SOL    HW133455   5.733   1.355   5.644
10852SOL    HW233456   5.874   1.354   5.727
10853SOL     OW33457   2.570   0.050   5.361
10853SOL    HW133458   2.558   0.121   5.292
10853SOL    HW233459   2.483   0.036   5.409
10854SOL     OW33460   5.942   0.451   0.035
10854SOL    HW133461   5.964   0.392   6.982
10854SOL    HW233462   5.851   0.429   0.069
10855SOL     OW33463   0.848   5.888   6.964
10855SOL    HW133464   0.912   5.827   7.012
10855SOL    HW233465   0.820   5.962   0.001
10856SOL     OW33466   4.965   6.819   6.006
10856SOL    HW133467   4.908   6.770   5.940
10856SOL    HW233468   5.062   6.804   5.985
10857SOL     OW33469   6.549   6.800   4.965
10857SOL    HW133470   6.459   6.776   4.929
10857SOL    HW233471   6.591   6.869   4.907
10858SOL     OW33472   1.924   2.802   0.749
10858SOL    HW133473   1.875   2.756   0.675
10858SOL    HW233474   2.016   2.763   0.757
10859SOL     OW33475   2.596   5.488   1.763
10859SOL    HW133476   2.587   5.547   1.683
10859SOL    HW233477   2.563   5.397   1.741
10860SOL     OW33478   5.812   1.476   1.436
10860SOL    HW133479   5.880   1.431   1.494
10860SOL    HW233480   5.723   1.474   1.481
10861SOL     OW33481   2.223   4.620   0.920
10861SOL    HW133482   2.276   4.661   0.994
10861SOL    HW233483   2.165   4.691   0.878
10862SOL     OW33484   3.879   4.748   5.275
10862SOL    HW133485   3.955   4.696   5.313
10862SOL    HW233486   3.792   4.706   5.302
10863SOL     OW33487   0.724   6.984   3.615
10863SOL    HW133488   0.673   0.009   3.545
10863SOL    HW233489   0.683   6.894   3.628
10864SOL     OW33490   3.019   3.852   2.656
10864SOL    HW133491   2.969   3.775   2.698
10864SOL    HW233492   3.003   3.851   2.558
10865SOL     OW33493   3.103   2.187   2.370
10865SOL    HW133494   3.056   2.105   2.336
10865SOL    HW233495   3.148   2.233   2.294
10866SOL     OW33496   0.276   3.536   4.984
10866SOL    HW133497   0.182   3.519   5.014
10866SOL    HW233498   0.286   3.507   4.889
10867SOL     OW33499   4.866   2.944   0.407
10867SOL    HW133500   4.919   3.002   0.345
10867SOL    HW233501   4.924   2.913   0.482
10868SOL     OW33502   0.131   6.481   6.045
10868SOL    HW133503   0.202   6.415   6.070
10868SOL    HW233504   0.171   6.573   6.044
10869NA      NA33505   6.886   0.927   6.819
10870NA      NA33506   4.684   4.651   5.117
10871NA      NA33507   0.804   4.653   3.014
10872NA      NA33508   6.272   3.471   3.555
10873NA      NA33509   4.350   2.282   5.120
10874NA      NA33510   2.439   3.400   0.074
10875NA      NA33511   1.783   5.319   0.161
10876NA      NA33512   4.213   5.073   2.011
10877NA      NA33513   5.273   3.657   1.262
10878NA      NA33514   3.760   1.978   0.479
10879NA      NA33515   5.140   6.360   1.394
10880NA      NA33516   2.797   6.236   4.489
10881NA      NA33517   3.029   5.522   2.639
10882NA      NA33518   4.253   4.907   5.945
   7.02451   7.02451   7.02451
