Generated by trjconv : CNT in water t= 313.00000
33518
    1C        C    1   2.844   2.772   4.748
    1C        C    2   2.898   2.720   4.868
    1C        C    3   2.842   2.772   4.985
    1C        C    4   2.854   2.776   4.261
    1C        C    5   2.902   2.727   4.384
    1C        C    6   2.844   2.772   4.505
    1C        C    7   3.012   2.640   4.624
    1C        C    8   2.898   2.724   4.627
    1C        C    9   3.076   2.607   4.745
    1C        C   10   3.012   2.636   4.868
    1C        C   11   3.185   2.496   4.978
    1C        C   12   3.062   2.563   4.976
    1C        C   13   2.851   2.774   3.772
    1C        C   14   2.903   2.725   3.893
    1C        C   15   2.847   2.770   4.015
    1C        C   16   3.017   2.644   4.141
    1C        C   17   2.900   2.723   4.138
    1C        C   18   3.084   2.614   4.262
    1C        C   19   3.019   2.649   4.383
    1C        C   20   3.209   2.556   4.507
    1C        C   21   3.077   2.605   4.504
    1C        C   22   3.280   2.543   4.628
    1C        C   23   3.208   2.555   4.749
    1C        C   24   3.413   2.480   4.865
    1C        C   25   3.272   2.503   4.865
    1C        C   26   3.492   2.478   4.981
    1C        C   27   2.849   2.768   3.284
    1C        C   28   2.908   2.728   3.406
    1C        C   29   2.855   2.775   3.528
    1C        C   30   3.018   2.641   3.650
    1C        C   31   2.905   2.727   3.650
    1C        C   32   3.076   2.605   3.773
    1C        C   33   3.016   2.640   3.896
    1C        C   34   3.208   2.553   4.017
    1C        C   35   3.078   2.608   4.019
    1C        C   36   3.277   2.535   4.139
    1C        C   37   3.213   2.557   4.263
    1C        C   38   3.418   2.516   4.386
    1C        C   39   3.278   2.534   4.386
    1C        C   40   3.491   2.508   4.507
    1C        C   41   3.418   2.512   4.627
    1C        C   42   3.632   2.487   4.746
    1C        C   43   3.490   2.484   4.746
    1C        C   44   3.707   2.488   4.866
    1C        C   45   3.631   2.477   4.983
    1C        C   46   2.842   2.754   2.793
    1C        C   47   2.898   2.710   2.915
    1C        C   48   2.848   2.760   3.037
    1C        C   49   3.016   2.637   3.162
    1C        C   50   2.899   2.717   3.162
    1C        C   51   3.078   2.605   3.284
    1C        C   52   3.020   2.641   3.407
    1C        C   53   3.209   2.546   3.530
    1C        C   54   3.079   2.601   3.529
    1C        C   55   3.277   2.529   3.653
    1C        C   56   3.206   2.550   3.774
    1C        C   57   3.417   2.515   3.897
    1C        C   58   3.277   2.533   3.895
    1C        C   59   3.489   2.511   4.019
    1C        C   60   3.417   2.515   4.140
    1C        C   61   3.628   2.502   4.259
    1C        C   62   3.487   2.505   4.263
    1C        C   63   3.700   2.513   4.380
    1C        C   64   3.632   2.505   4.504
    1C        C   65   3.839   2.546   4.623
    1C        C   66   3.703   2.509   4.626
    1C        C   67   3.909   2.563   4.744
    1C        C   68   3.843   2.526   4.863
    1C        C   69   4.057   2.582   4.979
    1C        C   70   3.925   2.533   4.977
    1C        C   71   2.826   2.737   2.311
    1C        C   72   2.883   2.690   2.430
    1C        C   73   2.830   2.744   2.550
    1C        C   74   3.009   2.626   2.673
    1C        C   75   2.891   2.703   2.670
    1C        C   76   3.075   2.596   2.794
    1C        C   77   3.014   2.629   2.918
    1C        C   78   3.209   2.547   3.041
    1C        C   79   3.080   2.603   3.040
    1C        C   80   3.278   2.528   3.163
    1C        C   81   3.210   2.553   3.284
    1C        C   82   3.413   2.501   3.407
    1C        C   83   3.273   2.523   3.406
    1C        C   84   3.485   2.498   3.528
    1C        C   85   3.416   2.506   3.652
    1C        C   86   3.628   2.505   3.770
    1C        C   87   3.486   2.509   3.774
    1C        C   88   3.699   2.513   3.891
    1C        C   89   3.630   2.511   4.014
    1C        C   90   3.835   2.553   4.137
    1C        C   91   3.699   2.514   4.138
    1C        C   92   3.901   2.580   4.258
    1C        C   93   3.837   2.548   4.379
    1C        C   94   4.029   2.640   4.502
    1C        C   95   3.904   2.574   4.501
    1C        C   96   4.092   2.673   4.624
    1C        C   97   4.033   2.633   4.746
    1C        C   98   4.192   2.771   4.863
    1C        C   99   4.096   2.665   4.869
    1C        C  100   4.220   2.847   4.977
    1C        C  101   2.825   2.736   2.075
    1C        C  102   2.991   2.592   2.192
    1C        C  103   2.877   2.679   2.192
    1C        C  104   3.065   2.573   2.312
    1C        C  105   3.001   2.612   2.431
    1C        C  106   3.202   2.535   2.554
    1C        C  107   3.071   2.588   2.552
    1C        C  108   3.273   2.517   2.674
    1C        C  109   3.205   2.541   2.796
    1C        C  110   3.411   2.493   2.916
    1C        C  111   3.272   2.517   2.918
    1C        C  112   3.482   2.495   3.038
    1C        C  113   3.417   2.503   3.164
    1C        C  114   3.627   2.497   3.281
    1C        C  115   3.486   2.491   3.286
    1C        C  116   3.696   2.512   3.403
    1C        C  117   3.626   2.508   3.526
    1C        C  118   3.836   2.539   3.645
    1C        C  119   3.698   2.509   3.647
    1C        C  120   3.900   2.570   3.767
    1C        C  121   3.836   2.551   3.891
    1C        C  122   4.026   2.644   4.014
    1C        C  123   3.901   2.577   4.014
    1C        C  124   4.088   2.676   4.136
    1C        C  125   4.026   2.646   4.259
    1C        C  126   4.198   2.772   4.378
    1C        C  127   4.087   2.684   4.381
    1C        C  128   4.250   2.819   4.501
    1C        C  129   4.198   2.767   4.622
    1C        C  130   4.330   2.937   4.742
    1C        C  131   4.245   2.823   4.742
    1C        C  132   4.363   3.007   4.861
    1C        C  133   4.294   2.964   4.975
    1C        C  134   3.174   2.473   2.080
    1C        C  135   3.039   2.510   2.085
    1C        C  136   3.262   2.484   2.189
    1C        C  137   3.198   2.523   2.309
    1C        C  138   3.406   2.483   2.427
    1C        C  139   3.267   2.507   2.431
    1C        C  140   3.481   2.479   2.547
    1C        C  141   3.412   2.491   2.670
    1C        C  142   3.622   2.494   2.794
    1C        C  143   3.481   2.489   2.794
    1C        C  144   3.694   2.505   2.915
    1C        C  145   3.623   2.497   3.037
    1C        C  146   3.834   2.538   3.155
    1C        C  147   3.697   2.504   3.158
    1C        C  148   3.901   2.561   3.278
    1C        C  149   3.834   2.543   3.401
    1C        C  150   4.027   2.632   3.522
    1C        C  151   3.901   2.567   3.523
    1C        C  152   4.087   2.668   3.645
    1C        C  153   4.023   2.639   3.768
    1C        C  154   4.195   2.765   3.888
    1C        C  155   4.082   2.681   3.889
    1C        C  156   4.250   2.807   4.011
    1C        C  157   4.202   2.759   4.135
    1C        C  158   4.343   2.923   4.255
    1C        C  159   4.253   2.813   4.255
    1C        C  160   4.380   2.984   4.376
    1C        C  161   4.340   2.927   4.499
    1C        C  162   4.441   3.116   4.614
    1C        C  163   4.374   2.992   4.620
    1C        C  164   4.470   3.183   4.735
    1C        C  165   4.436   3.127   4.860
    1C        C  166   4.514   3.325   4.973
    1C        C  167   4.481   3.190   4.977
    1C        C  168   3.479   2.435   2.072
    1C        C  169   3.401   2.460   2.186
    1C        C  170   3.617   2.468   2.308
    1C        C  171   3.475   2.461   2.306
    1C        C  172   3.692   2.490   2.426
    1C        C  173   3.622   2.486   2.549
    1C        C  174   3.827   2.543   2.669
    1C        C  175   3.690   2.507   2.671
    1C        C  176   3.897   2.562   2.790
    1C        C  177   3.832   2.537   2.913
    1C        C  178   4.024   2.630   3.035
    1C        C  179   3.902   2.559   3.033
    1C        C  180   4.087   2.665   3.157
    1C        C  181   4.026   2.626   3.278
    1C        C  182   4.197   2.755   3.399
    1C        C  183   4.087   2.666   3.399
    1C        C  184   4.244   2.806   3.522
    1C        C  185   4.199   2.753   3.645
    1C        C  186   4.333   2.923   3.764
    1C        C  187   4.250   2.808   3.765
    1C        C  188   4.375   2.977   3.888
    1C        C  189   4.336   2.919   4.011
    1C        C  190   4.443   3.107   4.127
    1C        C  191   4.374   2.984   4.131
    1C        C  192   4.468   3.175   4.249
    1C        C  193   4.441   3.112   4.372
    1C        C  194   4.505   3.318   4.492
    1C        C  195   4.468   3.182   4.492
    1C        C  196   4.524   3.389   4.613
    1C        C  197   4.518   3.317   4.734
    1C        C  198   4.553   3.536   4.850
    1C        C  199   4.529   3.395   4.853
    1C        C  200   4.584   3.621   4.961
    1C        C  201   3.618   2.425   2.074
    1C        C  202   3.829   2.512   2.187
    1C        C  203   3.693   2.468   2.188
    1C        C  204   3.900   2.543   2.306
    1C        C  205   3.830   2.521   2.427
    1C        C  206   4.020   2.621   2.546
    1C        C  207   3.896   2.554   2.547
    1C        C  208   4.083   2.658   2.667
    1C        C  209   4.025   2.622   2.790
    1C        C  210   4.196   2.750   2.910
    1C        C  211   4.083   2.664   2.912
    1C        C  212   4.250   2.800   3.030
    1C        C  213   4.200   2.750   3.152
    1C        C  214   4.336   2.911   3.275
    1C        C  215   4.250   2.799   3.275
    1C        C  216   4.372   2.971   3.398
    1C        C  217   4.331   2.917   3.522
    1C        C  218   4.439   3.105   3.640
    1C        C  219   4.374   2.979   3.641
    1C        C  220   4.467   3.171   3.762
    1C        C  221   4.441   3.101   3.882
    1C        C  222   4.500   3.307   4.004
    1C        C  223   4.467   3.170   4.003
    1C        C  224   4.510   3.380   4.125
    1C        C  225   4.503   3.312   4.248
    1C        C  226   4.524   3.526   4.365
    1C        C  227   4.514   3.385   4.368
    1C        C  228   4.526   3.600   4.485
    1C        C  229   4.529   3.530   4.608
    1C        C  230   4.504   3.744   4.726
    1C        C  231   4.537   3.606   4.728
    1C        C  232   4.498   3.820   4.845
    1C        C  233   4.548   3.756   4.960
    1C        C  234   4.016   2.613   2.068
    1C        C  235   3.893   2.549   2.068
    1C        C  236   4.090   2.644   2.183
    1C        C  237   4.026   2.609   2.305
    1C        C  238   4.201   2.736   2.421
    1C        C  239   4.087   2.652   2.425
    1C        C  240   4.252   2.787   2.543
    1C        C  241   4.192   2.748   2.665
    1C        C  242   4.336   2.905   2.785
    1C        C  243   4.247   2.795   2.786
    1C        C  244   4.380   2.963   2.906
    1C        C  245   4.345   2.905   3.030
    1C        C  246   4.437   3.095   3.149
    1C        C  247   4.379   2.966   3.153
    1C        C  248   4.452   3.163   3.272
    1C        C  249   4.432   3.099   3.397
    1C        C  250   4.499   3.304   3.515
    1C        C  251   4.464   3.168   3.516
    1C        C  252   4.512   3.375   3.637
    1C        C  253   4.504   3.307   3.760
    1C        C  254   4.523   3.518   3.877
    1C        C  255   4.520   3.376   3.883
    1C        C  256   4.516   3.590   3.998
    1C        C  257   4.520   3.521   4.121
    1C        C  258   4.493   3.734   4.242
    1C        C  259   4.519   3.595   4.242
    1C        C  260   4.475   3.805   4.362
    1C        C  261   4.492   3.737   4.485
    1C        C  262   4.431   3.944   4.605
    1C        C  263   4.477   3.811   4.605
    1C        C  264   4.401   4.010   4.726
    1C        C  265   4.434   3.946   4.847
    1C        C  266   4.310   4.125   4.960
    1C        C  267   4.387   4.009   4.963
    1C        C  268   4.272   2.770   2.065
    1C        C  269   4.204   2.727   2.179
    1C        C  270   4.345   2.892   2.300
    1C        C  271   4.256   2.781   2.299
    1C        C  272   4.385   2.953   2.420
    1C        C  273   4.344   2.893   2.542
    1C        C  274   4.442   3.085   2.662
    1C        C  275   4.381   2.958   2.662
    1C        C  276   4.473   3.152   2.782
    1C        C  277   4.446   3.088   2.905
    1C        C  278   4.504   3.294   3.025
    1C        C  279   4.470   3.157   3.026
    1C        C  280   4.510   3.366   3.146
    1C        C  281   4.490   3.299   3.269
    1C        C  282   4.503   3.511   3.391
    1C        C  283   4.501   3.370   3.390
    1C        C  284   4.510   3.584   3.512
    1C        C  285   4.519   3.516   3.635
    1C        C  286   4.496   3.730   3.756
    1C        C  287   4.518   3.590   3.756
    1C        C  288   4.477   3.800   3.877
    1C        C  289   4.494   3.730   3.999
    1C        C  290   4.431   3.936   4.118
    1C        C  291   4.474   3.801   4.119
    1C        C  292   4.402   4.002   4.239
    1C        C  293   4.424   3.936   4.363
    1C        C  294   4.329   4.130   4.481
    1C        C  295   4.398   4.007   4.482
    1C        C  296   4.287   4.193   4.600
    1C        C  297   4.325   4.130   4.721
    1C        C  298   4.200   4.310   4.838
    1C        C  299   4.276   4.189   4.841
    1C        C  300   4.177   4.400   4.948
    1C        C  301   4.356   2.882   2.061
    1C        C  302   4.473   3.068   2.178
    1C        C  303   4.396   2.947   2.179
    1C        C  304   4.480   3.143   2.298
    1C        C  305   4.454   3.076   2.420
    1C        C  306   4.506   3.286   2.535
    1C        C  307   4.474   3.148   2.540
    1C        C  308   4.511   3.358   2.656
    1C        C  309   4.501   3.291   2.780
    1C        C  310   4.523   3.502   2.897
    1C        C  311   4.518   3.361   2.901
    1C        C  312   4.513   3.573   3.019
    1C        C  313   4.512   3.507   3.144
    1C        C  314   4.488   3.718   3.265
    1C        C  315   4.507   3.578   3.267
    1C        C  316   4.478   3.791   3.386
    1C        C  317   4.491   3.724   3.510
    1C        C  318   4.432   3.928   3.631
    1C        C  319   4.477   3.794   3.632
    1C        C  320   4.398   3.994   3.751
    1C        C  321   4.425   3.932   3.874
    1C        C  322   4.323   4.118   3.992
    1C        C  323   4.399   3.999   3.996
    1C        C  324   4.279   4.172   4.115
    1C        C  325   4.325   4.121   4.238
    1C        C  326   4.188   4.286   4.356
    1C        C  327   4.287   4.185   4.358
    1C        C  328   4.134   4.339   4.476
    1C        C  329   4.192   4.298   4.598
    1C        C  330   4.026   4.440   4.718
    1C        C  331   4.137   4.351   4.717
    1C        C  332   3.969   4.489   4.837
    1C        C  333   4.056   4.471   4.945
    1C        C  334   4.551   3.268   2.063
    1C        C  335   4.537   3.129   2.065
    1C        C  336   4.541   3.351   2.176
    1C        C  337   4.517   3.280   2.295
    1C        C  338   4.523   3.498   2.410
    1C        C  339   4.519   3.357   2.414
    1C        C  340   4.518   3.570   2.531
    1C        C  341   4.520   3.499   2.654
    1C        C  342   4.496   3.711   2.776
    1C        C  343   4.521   3.572   2.775
    1C        C  344   4.473   3.781   2.897
    1C        C  345   4.489   3.712   3.019
    1C        C  346   4.424   3.914   3.140
    1C        C  347   4.474   3.782   3.140
    1C        C  348   4.392   3.982   3.260
    1C        C  349   4.428   3.923   3.384
    1C        C  350   4.321   4.105   3.503
    1C        C  351   4.397   3.986   3.507
    1C        C  352   4.276   4.167   3.622
    1C        C  353   4.324   4.115   3.744
    1C        C  354   4.182   4.270   3.868
    1C        C  355   4.281   4.169   3.867
    1C        C  356   4.129   4.320   3.989
    1C        C  357   4.178   4.271   4.112
    1C        C  358   4.011   4.401   4.233
    1C        C  359   4.128   4.322   4.234
    1C        C  360   3.952   4.445   4.354
    1C        C  361   4.020   4.421   4.475
    1C        C  362   3.828   4.516   4.595
    1C        C  363   3.960   4.464   4.596
    1C        C  364   3.762   4.552   4.714
    1C        C  365   3.838   4.540   4.833
    1C        C  366   3.630   4.595   4.951
    1C        C  367   3.767   4.570   4.950
    1C        C  368   4.512   3.566   2.052
    1C        C  369   4.526   3.491   2.170
    1C        C  370   4.511   3.710   2.287
    1C        C  371   4.525   3.570   2.288
    1C        C  372   4.488   3.778   2.409
    1C        C  373   4.499   3.710   2.532
    1C        C  374   4.433   3.913   2.648
    1C        C  375   4.480   3.779   2.654
    1C        C  376   4.397   3.975   2.769
    1C        C  377   4.425   3.914   2.894
    1C        C  378   4.325   4.098   3.015
    1C        C  379   4.401   3.979   3.017
    1C        C  380   4.276   4.157   3.134
    1C        C  381   4.317   4.102   3.257
    1C        C  382   4.175   4.256   3.379
    1C        C  383   4.275   4.157   3.380
    1C        C  384   4.125   4.309   3.500
    1C        C  385   4.180   4.270   3.624
    1C        C  386   4.007   4.392   3.743
    1C        C  387   4.125   4.314   3.747
    1C        C  388   3.948   4.430   3.865
    1C        C  389   4.014   4.402   3.987
    1C        C  390   3.821   4.489   4.108
    1C        C  391   3.950   4.433   4.109
    1C        C  392   3.755   4.517   4.230
    1C        C  393   3.823   4.502   4.353
    1C        C  394   3.617   4.552   4.476
    1C        C  395   3.756   4.530   4.474
    1C        C  396   3.547   4.566   4.598
    1C        C  397   3.622   4.571   4.717
    1C        C  398   3.411   4.549   4.842
    1C        C  399   3.550   4.573   4.838
    1C        C  400   3.341   4.520   4.961
    1C        C  401   4.495   3.704   2.052
    1C        C  402   4.461   3.920   2.169
    1C        C  403   4.495   3.783   2.167
    1C        C  404   4.416   3.982   2.288
    1C        C  405   4.437   3.910   2.407
    1C        C  406   4.327   4.098   2.527
    1C        C  407   4.398   3.976   2.526
    1C        C  408   4.283   4.155   2.649
    1C        C  409   4.326   4.097   2.771
    1C        C  410   4.178   4.250   2.889
    1C        C  411   4.277   4.149   2.892
    1C        C  412   4.124   4.300   3.010
    1C        C  413   4.174   4.256   3.134
    1C        C  414   4.004   4.382   3.253
    1C        C  415   4.121   4.303   3.256
    1C        C  416   3.944   4.414   3.377
    1C        C  417   4.008   4.388   3.500
    1C        C  418   3.810   4.471   3.619
    1C        C  419   3.943   4.423   3.621
    1C        C  420   3.747   4.498   3.743
    1C        C  421   3.817   4.483   3.865
    1C        C  422   3.612   4.532   3.986
    1C        C  423   3.751   4.508   3.987
    1C        C  424   3.544   4.536   4.110
    1C        C  425   3.615   4.539   4.232
    1C        C  426   3.404   4.546   4.357
    1C        C  427   3.545   4.549   4.354
    1C        C  428   3.334   4.547   4.480
    1C        C  429   3.406   4.562   4.601
    1C        C  430   3.196   4.521   4.721
    1C        C  431   3.336   4.546   4.723
    1C        C  432   3.126   4.494   4.842
    1C        C  433   3.204   4.497   4.958
    1C        C  434   4.385   4.126   2.052
    1C        C  435   4.451   4.002   2.057
    1C        C  436   4.302   4.164   2.163
    1C        C  437   4.339   4.101   2.285
    1C        C  438   4.182   4.249   2.403
    1C        C  439   4.288   4.157   2.405
    1C        C  440   4.121   4.292   2.523
    1C        C  441   4.179   4.250   2.644
    1C        C  442   4.010   4.377   2.764
    1C        C  443   4.126   4.297   2.767
    1C        C  444   3.945   4.411   2.885
    1C        C  445   4.005   4.377   3.008
    1C        C  446   3.811   4.464   3.129
    1C        C  447   3.941   4.409   3.130
    1C        C  448   3.745   4.485   3.252
    1C        C  449   3.813   4.468   3.374
    1C        C  450   3.608   4.527   3.496
    1C        C  451   3.745   4.494   3.495
    1C        C  452   3.541   4.539   3.620
    1C        C  453   3.610   4.532   3.744
    1C        C  454   3.398   4.544   3.866
    1C        C  455   3.539   4.541   3.865
    1C        C  456   3.330   4.537   3.990
    1C        C  457   3.403   4.538   4.111
    1C        C  458   3.198   4.500   4.238
    1C        C  459   3.334   4.537   4.234
    1C        C  460   3.130   4.484   4.361
    1C        C  461   3.196   4.517   4.481
    1C        C  462   2.996   4.439   4.601
    1C        C  463   3.125   4.496   4.602
    1C        C  464   2.932   4.404   4.722
    1C        C  465   2.991   4.446   4.844
    1C        C  466   2.804   4.339   4.959
    1C        C  467   2.908   4.434   4.960
    1C        C  468   4.124   4.282   2.040
    1C        C  469   4.190   4.252   2.160
    1C        C  470   4.006   4.369   2.277
    1C        C  471   4.127   4.294   2.281
    1C        C  472   3.945   4.406   2.399
    1C        C  473   4.005   4.373   2.522
    1C        C  474   3.813   4.465   2.642
    1C        C  475   3.943   4.409   2.644
    1C        C  476   3.745   4.485   2.765
    1C        C  477   3.814   4.463   2.886
    1C        C  478   3.607   4.522   3.010
    1C        C  479   3.744   4.489   3.007
    1C        C  480   3.535   4.526   3.131
    1C        C  481   3.607   4.513   3.252
    1C        C  482   3.396   4.526   3.379
    1C        C  483   3.537   4.529   3.374
    1C        C  484   3.326   4.526   3.501
    1C        C  485   3.400   4.537   3.621
    1C        C  486   3.193   4.497   3.747
    1C        C  487   3.329   4.536   3.743
    1C        C  488   3.128   4.478   3.871
    1C        C  489   3.193   4.501   3.994
    1C        C  490   3.005   4.411   4.115
    1C        C  491   3.128   4.479   4.117
    1C        C  492   2.944   4.382   4.240
    1C        C  493   2.999   4.432   4.360
    1C        C  494   2.824   4.308   4.480
    1C        C  495   2.934   4.397   4.481
    1C        C  496   2.770   4.264   4.603
    1C        C  497   2.820   4.316   4.724
    1C        C  498   2.667   4.167   4.843
    1C        C  499   2.756   4.276   4.843
    1C        C  500   2.603   4.120   4.958
    1C        C  501   4.006   4.355   2.038
    1C        C  502   3.813   4.457   2.156
    1C        C  503   3.941   4.398   2.155
    1C        C  504   3.744   4.476   2.278
    1C        C  505   3.812   4.454   2.400
    1C        C  506   3.606   4.512   2.520
    1C        C  507   3.745   4.486   2.520
    1C        C  508   3.536   4.516   2.642
    1C        C  509   3.606   4.511   2.765
    1C        C  510   3.395   4.527   2.888
    1C        C  511   3.537   4.525   2.887
    1C        C  512   3.324   4.526   3.009
    1C        C  513   3.393   4.526   3.132
    1C        C  514   3.187   4.495   3.258
    1C        C  515   3.326   4.523   3.256
    1C        C  516   3.120   4.476   3.380
    1C        C  517   3.187   4.497   3.503
    1C        C  518   2.993   4.418   3.628
    1C        C  519   3.124   4.471   3.626
    1C        C  520   2.936   4.379   3.751
    1C        C  521   3.003   4.412   3.871
    1C        C  522   2.833   4.285   3.994
    1C        C  523   2.946   4.369   3.993
    1C        C  524   2.783   4.239   4.118
    1C        C  525   2.835   4.293   4.238
    1C        C  526   2.698   4.134   4.365
    1C        C  527   2.778   4.251   4.360
    1C        C  528   2.651   4.084   4.488
    1C        C  529   2.682   4.153   4.607
    1C        C  530   2.581   3.962   4.732
    1C        C  531   2.635   4.093   4.726
    1C        C  532   2.541   3.904   4.855
    1C        C  533   2.542   3.994   4.967
    1C        C  534   3.619   4.553   2.039
    1C        C  535   3.756   4.524   2.047
    1C        C  536   3.539   4.530   2.155
    1C        C  537   3.607   4.513   2.278
    1C        C  538   3.394   4.526   2.402
    1C        C  539   3.535   4.528   2.399
    1C        C  540   3.322   4.514   2.522
    1C        C  541   3.395   4.519   2.643
    1C        C  542   3.186   4.491   2.767
    1C        C  543   3.324   4.521   2.766
    1C        C  544   3.119   4.467   2.889
    1C        C  545   3.186   4.493   3.011
    1C        C  546   2.995   4.410   3.136
    1C        C  547   3.121   4.472   3.135
    1C        C  548   2.940   4.368   3.259
    1C        C  549   2.996   4.407   3.382
    1C        C  550   2.828   4.284   3.505
    1C        C  551   2.936   4.376   3.506
    1C        C  552   2.781   4.234   3.628
    1C        C  553   2.829   4.286   3.750
    1C        C  554   2.693   4.125   3.876
    1C        C  555   2.778   4.238   3.872
    1C        C  556   2.655   4.067   3.999
    1C        C  557   2.692   4.132   4.120
    1C        C  558   2.598   3.946   4.247
    1C        C  559   2.659   4.073   4.244
    1C        C  560   2.572   3.881   4.370
    1C        C  561   2.593   3.955   4.489
    1C        C  562   2.546   3.751   4.617
    1C        C  563   2.564   3.891   4.611
    1C        C  564   2.527   3.684   4.741
    1C        C  565   2.526   3.762   4.860
    1C        C  566   2.527   3.549   4.978
    1C        C  567   2.530   3.688   4.979
    1C        C  568   3.325   4.484   2.044
    1C        C  569   3.398   4.513   2.160
    1C        C  570   3.185   4.479   2.284
    1C        C  571   3.322   4.518   2.281
    1C        C  572   3.114   4.466   2.405
    1C        C  573   3.182   4.494   2.525
    1C        C  574   2.991   4.403   2.650
    1C        C  575   3.114   4.474   2.647
    1C        C  576   2.932   4.363   2.772
    1C        C  577   2.994   4.400   2.893
    1C        C  578   2.823   4.278   3.016
    1C        C  579   2.932   4.368   3.016
    1C        C  580   2.780   4.225   3.140
    1C        C  581   2.832   4.277   3.261
    1C        C  582   2.699   4.115   3.385
    1C        C  583   2.781   4.230   3.384
    1C        C  584   2.664   4.056   3.509
    1C        C  585   2.702   4.117   3.631
    1C        C  586   2.594   3.938   3.759
    1C        C  587   2.657   4.064   3.754
    1C        C  588   2.569   3.871   3.881
    1C        C  589   2.595   3.939   4.002
    1C        C  590   2.540   3.739   4.129
    1C        C  591   2.574   3.876   4.127
    1C        C  592   2.525   3.672   4.252
    1C        C  593   2.531   3.746   4.373
    1C        C  594   2.519   3.538   4.498
    1C        C  595   2.527   3.679   4.497
    1C        C  596   2.527   3.470   4.622
    1C        C  597   2.522   3.542   4.743
    1C        C  598   2.544   3.328   4.861
    1C        C  599   2.531   3.469   4.863
    1C        C  600   2.538   3.248   4.976
    1C        C  601   3.191   4.451   2.044
    1C        C  602   2.985   4.394   2.163
    1C        C  603   3.117   4.449   2.163
    1C        C  604   2.924   4.366   2.288
    1C        C  605   2.986   4.404   2.409
    1C        C  606   2.817   4.275   2.529
    1C        C  607   2.930   4.361   2.530
    1C        C  608   2.771   4.225   2.653
    1C        C  609   2.823   4.273   2.775
    1C        C  610   2.685   4.113   2.898
    1C        C  611   2.769   4.226   2.896
    1C        C  612   2.650   4.054   3.021
    1C        C  613   2.694   4.113   3.142
    1C        C  614   2.594   3.928   3.268
    1C        C  615   2.653   4.056   3.265
    1C        C  616   2.570   3.866   3.393
    1C        C  617   2.600   3.930   3.515
    1C        C  618   2.535   3.732   3.640
    1C        C  619   2.570   3.869   3.638
    1C        C  620   2.525   3.663   3.763
    1C        C  621   2.534   3.734   3.884
    1C        C  622   2.512   3.527   4.011
    1C        C  623   2.521   3.668   4.008
    1C        C  624   2.513   3.458   4.135
    1C        C  625   2.518   3.531   4.256
    1C        C  626   2.542   3.322   4.381
    1C        C  627   2.523   3.461   4.379
    1C        C  628   2.562   3.255   4.504
    1C        C  629   2.542   3.330   4.622
    1C        C  630   2.600   3.120   4.744
    1C        C  631   2.552   3.254   4.741
    1C        C  632   2.621   3.052   4.867
    1C        C  633   2.561   3.110   4.983
    1C        C  634   2.792   4.302   2.057
    1C        C  635   2.898   4.393   2.049
    1C        C  636   2.750   4.233   2.172
    1C        C  637   2.810   4.281   2.291
    1C        C  638   2.674   4.112   2.414
    1C        C  639   2.761   4.223   2.410
    1C        C  640   2.640   4.049   2.536
    1C        C  641   2.688   4.110   2.653
    1C        C  642   2.588   3.924   2.779
    1C        C  643   2.652   4.050   2.775
    1C        C  644   2.562   3.858   2.901
    1C        C  645   2.588   3.927   3.021
    1C        C  646   2.529   3.726   3.153
    1C        C  647   2.566   3.863   3.145
    1C        C  648   2.512   3.659   3.276
    1C        C  649   2.533   3.730   3.396
    1C        C  650   2.514   3.520   3.520
    1C        C  651   2.519   3.661   3.519
    1C        C  652   2.520   3.451   3.644
    1C        C  653   2.518   3.522   3.766
    1C        C  654   2.536   3.314   3.890
    1C        C  655   2.513   3.454   3.890
    1C        C  656   2.556   3.251   4.015
    1C        C  657   2.538   3.319   4.138
    1C        C  658   2.608   3.118   4.257
    1C        C  659   2.560   3.251   4.260
    1C        C  660   2.637   3.055   4.380
    1C        C  661   2.608   3.122   4.501
    1C        C  662   2.704   2.933   4.625
    1C        C  663   2.631   3.055   4.623
    1C        C  664   2.752   2.880   4.747
    1C        C  665   2.705   2.936   4.869
    1C        C  666   2.739   2.865   4.985
    1C        C  667   2.685   4.026   2.056
    1C        C  668   2.688   4.107   2.171
    1C        C  669   2.596   3.914   2.296
    1C        C  670   2.648   4.047   2.292
    1C        C  671   2.560   3.849   2.416
    1C        C  672   2.584   3.919   2.537
    1C        C  673   2.521   3.717   2.660
    1C        C  674   2.561   3.853   2.660
    1C        C  675   2.512   3.649   2.783
    1C        C  676   2.527   3.721   2.904
    1C        C  677   2.514   3.516   3.035
    1C        C  678   2.522   3.657   3.030
    1C        C  679   2.508   3.445   3.157
    1C        C  680   2.503   3.518   3.277
    1C        C  681   2.524   3.307   3.403
    1C        C  682   2.502   3.447   3.400
    1C        C  683   2.540   3.237   3.524
    1C        C  684   2.532   3.310   3.645
    1C        C  685   2.586   3.108   3.770
    1C        C  686   2.546   3.243   3.769
    1C        C  687   2.635   3.053   3.891
    1C        C  688   2.613   3.122   4.012
    1C        C  689   2.720   2.939   4.137
    1C        C  690   2.641   3.056   4.134
    1C        C  691   2.759   2.881   4.259
    1C        C  692   2.716   2.938   4.381
    1C        C  693   2.749   2.876   4.504
    1C        C  694   2.633   3.896   2.061
    1C        C  695   2.540   3.703   2.176
    1C        C  696   2.591   3.834   2.180
    1C        C  697   2.516   3.638   2.299
    1C        C  698   2.518   3.715   2.418
    1C        C  699   2.491   3.504   2.544
    1C        C  700   2.500   3.645   2.540
    1C        C  701   2.501   3.436   2.668
    1C        C  702   2.503   3.508   2.789
    1C        C  703   2.535   3.303   2.911
    1C        C  704   2.512   3.443   2.914
    1C        C  705   2.552   3.238   3.035
    1C        C  706   2.534   3.306   3.157
    1C        C  707   2.599   3.107   3.277
    1C        C  708   2.551   3.240   3.282
    1C        C  709   2.630   3.047   3.401
    1C        C  710   2.593   3.106   3.525
    1C        C  711   2.708   2.932   3.648
    1C        C  712   2.621   3.043   3.648
    1C        C  713   2.761   2.883   3.770
    1C        C  714   2.714   2.936   3.893
    1C        C  715   2.758   2.879   4.014
    1C        C  716   2.442   3.502   2.065
    1C        C  717   2.493   3.632   2.065
    1C        C  718   2.467   3.422   2.182
    1C        C  719   2.485   3.499   2.300
    1C        C  720   2.514   3.292   2.425
    1C        C  721   2.490   3.431   2.424
    1C        C  722   2.542   3.225   2.546
    1C        C  723   2.524   3.297   2.666
    1C        C  724   2.595   3.099   2.792
    1C        C  725   2.546   3.232   2.789
    1C        C  726   2.627   3.036   2.915
    1C        C  727   2.603   3.106   3.036
    1C        C  728   2.712   2.923   3.159
    1C        C  729   2.636   3.042   3.157
    1C        C  730   2.751   2.870   3.284
    1C        C  731   2.710   2.930   3.405
    1C        C  732   2.756   2.877   3.527
    1C        C  733   2.494   3.200   2.071
    1C        C  734   2.492   3.282   2.185
    1C        C  735   2.587   3.087   2.306
    1C        C  736   2.525   3.215   2.306
    1C        C  737   2.618   3.025   2.428
    1C        C  738   2.594   3.093   2.550
    1C        C  739   2.694   2.908   2.674
    1C        C  740   2.621   3.029   2.673
    1C        C  741   2.745   2.856   2.795
    1C        C  742   2.707   2.920   2.915
    1C        C  743   2.758   2.869   3.037
    1C        C  744   2.540   3.069   2.072
    1C        C  745   2.684   2.899   2.189
    1C        C  746   2.603   3.015   2.185
    1C        C  747   2.728   2.841   2.310
    1C        C  748   2.690   2.903   2.431
    1C        C  749   2.733   2.847   2.553
    1C        C  750   2.737   2.843   2.072
    1C        C  751   3.669   2.316   1.988
    1C        O  752   3.639   2.193   1.992
    1C        O  753   3.712   2.343   1.858
    1C        C  754   4.624   3.047   1.977
    1C        O  755   4.608   3.039   1.853
    1C        O  756   4.756   3.018   2.013
    1C        C  757   4.463   4.220   1.968
    1C        O  758   4.538   4.312   2.010
    1C        O  759   4.479   4.205   1.830
    1C        C  760   3.568   4.639   1.930
    1C        O  761   3.591   4.763   1.927
    1C        O  762   3.555   4.576   1.805
    1C        C  763   2.870   4.519   1.977
    1C        O  764   2.896   4.528   1.854
    1C        O  765   2.815   4.629   2.045
    1C        C  766   2.351   3.469   1.953
    1C        O  767   2.384   3.472   1.832
    1C        O  768   2.214   3.440   1.955
    1C        C  769   4.698   3.581   5.046
    1C        O  770   4.675   3.570   5.170
    1C        O  771   4.830   3.616   5.015
    1C        C  772   4.289   4.459   5.024
    1C        O  773   4.313   4.416   5.140
    1C        O  774   4.313   4.596   5.009
    1C        C  775   4.161   2.489   5.028
    1C        O  776   4.171   2.369   4.988
    1C        O  777   4.160   2.479   5.168
    1C        C  778   2.869   4.563   5.021
    1C        O  779   2.799   4.652   4.966
    1C        O  780   2.944   4.627   5.121
    1C        C  781   2.479   3.022   5.069
    1C        O  782   2.355   3.036   5.052
    1C        O  783   2.504   3.015   5.206
    1C        C  784   2.438   3.995   5.072
    1C        O  785   2.334   4.067   5.060
    1C        O  786   2.457   3.946   5.201
    1C        C  787   2.952   2.420   2.007
    1C        O  788   2.928   2.446   1.886
    1C        O  789   2.948   2.285   2.038
    1C        C  790   3.191   2.374   5.062
    1C        O  791   3.153   2.258   5.028
    1C        O  792   3.220   2.389   5.198
    1C        H  793   4.287   3.030   5.059
    1C        H  794   4.205   2.801   5.073
    1C        H  795   4.540   3.131   5.044
    1C        H  796   4.486   3.382   5.059
    1C        H  797   4.609   3.816   5.024
    1C        H  798   4.458   4.001   5.043
    1C        H  799   4.249   4.146   5.046
    1C        H  800   4.012   4.483   5.042
    1C        H  801   3.822   4.592   5.040
    1C        H  802   3.589   4.656   5.029
    1C        H  803   3.395   4.485   5.046
    1C        H  804   3.161   4.476   5.053
    1C        H  805   3.904   2.456   5.049
    1C        H  806   3.676   2.489   5.079
    1C        H  807   2.988   2.537   5.050
    1C        H  808   3.439   2.488   5.074
    1C        H  809   2.864   2.723   5.078
    1C        H  810   2.714   2.903   5.081
    1C        H  811   2.512   3.295   5.068
    1C        H  812   2.565   3.507   5.069
    1C        H  813   2.539   3.736   5.074
    1C        H  814   2.557   4.194   5.019
    1C        H  815   2.743   4.335   5.046
    1C        H  816   2.719   2.887   1.976
    1C        H  817   2.869   2.710   1.981
    1C        H  818   3.209   2.438   1.985
    1C        H  819   3.429   2.420   1.978
    1C        H  820   3.839   2.554   1.975
    1C        H  821   4.077   2.577   1.988
    1C        H  822   4.269   2.710   1.977
    1C        H  823   4.421   2.889   1.977
    1C        H  824   4.600   3.313   1.979
    1C        H  825   4.490   3.513   1.962
    1C        H  826   4.450   3.745   1.963
    1C        H  827   3.817   4.547   1.962
    1C        H  828   3.983   4.405   1.947
    1C        H  829   4.175   4.286   1.946
    1C        H  830   4.481   3.961   1.963
    1C        H  831   2.564   3.886   1.980
    1C        H  832   2.669   4.077   1.963
    1C        H  833   2.738   4.281   1.967
    1C        H  834   3.360   4.519   1.949
    1C        H  835   3.177   4.364   1.984
    1C        H  836   2.521   3.014   1.983
    1C        H  837   2.493   3.244   1.973
    1C        H  838   2.524   3.666   1.968
    2V3OU   H29  839   2.801   3.548   3.219
    2V3OU   C27  840   2.792   3.505   3.322
    2V3OU   H27  841   2.738   3.572   3.393
    2V3OU   H28  842   2.737   3.409   3.305
    2V3OU   O11  843   2.920   3.472   3.377
    2V3OU   C15  844   2.930   3.399   3.494
    2V3OU   C13  845   3.057   3.373   3.549
    2V3OU   C14  846   3.084   3.270   3.640
    2V3OU   C16  847   2.982   3.193   3.694
    2V3OU    H6  848   3.000   3.104   3.757
    2V3OU   C12  849   3.218   3.234   3.691
    2V3OU    O2  850   3.239   3.141   3.773
    2V3OU   C10  851   3.331   3.309   3.634
    2V3OU    C8  852   3.458   3.274   3.678
    2V3OU   O10  853   3.487   3.162   3.749
    2V3OU   H26  854   3.399   3.122   3.760
    2V3OU    C6  855   3.566   3.355   3.632
    2V3OU    C5  856   3.543   3.467   3.552
    2V3OU    C4  857   3.704   3.298   3.627
    2V3OU    H4  858   3.728   3.229   3.713
    2V3OU    H5  859   3.710   3.235   3.533
    2V3OU    C2  860   3.816   3.402   3.622
    2V3OU    O6  861   3.810   3.470   3.748
    2V3OU   H21  862   3.767   3.554   3.724
    2V3OU    C3  863   3.787   3.493   3.503
    2V3OU    H2  864   3.866   3.573   3.501
    2V3OU    H3  865   3.781   3.434   3.408
    2V3OU   C25  866   3.948   3.327   3.604
    2V3OU    O7  867   4.003   3.298   3.498
    2V3OU   C26  868   4.035   3.292   3.724
    2V3OU   H22  869   4.067   3.388   3.771
    2V3OU   H23  870   4.122   3.229   3.691
    2V3OU    O8  871   3.959   3.211   3.810
    2V3OU   H24  872   3.919   3.263   3.882
    2V3OU    C1  873   3.654   3.564   3.521
    2V3OU    H1  874   3.631   3.624   3.428
    2V3OU    O3  875   3.657   3.655   3.631
    2V3OU   C19  876   3.620   3.793   3.622
    2V3OU    H9  877   3.521   3.801   3.569
    2V3OU    O4  878   3.712   3.858   3.538
    2V3OU   C20  879   3.846   3.874   3.585
    2V3OU   H10  880   3.896   3.775   3.606
    2V3OU   C24  881   3.609   3.860   3.759
    2V3OU   H16  882   3.542   3.792   3.818
    2V3OU   H17  883   3.563   3.961   3.746
    2V3OU   C23  884   3.749   3.877   3.820
    2V3OU   H15  885   3.785   3.772   3.845
    2V3OU    N1  886   3.736   3.958   3.940
    2V3OU   H19  887   3.811   3.929   3.999
    2V3OU   H20  888   3.652   3.933   3.987
    2V3OU   C21  889   3.851   3.942   3.722
    2V3OU   H11  890   3.957   3.922   3.756
    2V3OU    O5  891   3.830   4.082   3.715
    2V3OU   H18  892   3.785   4.098   3.799
    2V3OU   C22  893   3.919   3.951   3.476
    2V3OU   H12  894   3.863   4.045   3.453
    2V3OU   H13  895   3.913   3.893   3.380
    2V3OU   H14  896   4.027   3.965   3.505
    2V3OU   C11  897   3.166   3.469   3.526
    2V3OU    O1  898   3.140   3.580   3.476
    2V3OU    C9  899   3.305   3.425   3.557
    2V3OU    C7  900   3.411   3.505   3.515
    2V3OU    O9  901   3.391   3.620   3.441
    2V3OU   H25  902   3.295   3.630   3.453
    2V3OU   C17  903   2.831   3.313   3.547
    2V3OU    H7  904   2.734   3.349   3.512
    2V3OU   C18  905   2.854   3.218   3.645
    2V3OU    H8  906   2.787   3.178   3.723
    3SOL     OW  907   2.513   5.164   5.876
    3SOL    HW1  908   2.583   5.233   5.861
    3SOL    HW2  909   2.471   5.178   5.966
    4SOL     OW  910   6.744   0.158   0.415
    4SOL    HW1  911   6.840   0.172   0.436
    4SOL    HW2  912   6.695   0.132   0.498
    5SOL     OW  913   5.091   2.497   1.966
    5SOL    HW1  914   5.016   2.451   1.919
    5SOL    HW2  915   5.055   2.571   2.022
    6SOL     OW  916   4.502   2.154   2.446
    6SOL    HW1  917   4.407   2.122   2.443
    6SOL    HW2  918   4.506   2.240   2.497
    7SOL     OW  919   0.577   4.358   3.503
    7SOL    HW1  920   0.581   4.298   3.422
    7SOL    HW2  921   0.645   4.329   3.570
    8SOL     OW  922   2.266   2.551   5.949
    8SOL    HW1  923   2.199   2.620   5.976
    8SOL    HW2  924   2.299   2.503   6.031
    9SOL     OW  925   5.832   2.385   5.847
    9SOL    HW1  926   5.739   2.364   5.816
    9SOL    HW2  927   5.876   2.301   5.880
   10SOL     OW  928   3.323   5.393   4.824
   10SOL    HW1  929   3.397   5.457   4.842
   10SOL    HW2  930   3.235   5.441   4.826
   11SOL     OW  931   2.183   1.249   5.983
   11SOL    HW1  932   2.272   1.286   5.958
   11SOL    HW2  933   2.114   1.321   5.975
   12SOL     OW  934   3.054   4.825   3.813
   12SOL    HW1  935   3.021   4.822   3.907
   12SOL    HW2  936   3.143   4.870   3.811
   13SOL     OW  937   3.746   6.255   3.890
   13SOL    HW1  938   3.657   6.263   3.845
   13SOL    HW2  939   3.808   6.323   3.852
   14SOL     OW  940   3.992   4.722   6.010
   14SOL    HW1  941   3.988   4.817   6.042
   14SOL    HW2  942   4.047   4.668   6.073
   15SOL     OW  943   0.961   6.409   0.331
   15SOL    HW1  944   1.016   6.468   0.272
   15SOL    HW2  945   1.017   6.379   0.408
   16SOL     OW  946   5.516   2.630   6.657
   16SOL    HW1  947   5.426   2.607   6.695
   16SOL    HW2  948   5.549   2.554   6.601
   17SOL     OW  949   5.321   6.905   6.503
   17SOL    HW1  950   5.297   7.002   6.498
   17SOL    HW2  951   5.242   6.850   6.477
   18SOL     OW  952   3.270   0.917   4.976
   18SOL    HW1  953   3.179   0.891   4.943
   18SOL    HW2  954   3.262   0.961   5.065
   19SOL     OW  955   0.150   2.302   2.431
   19SOL    HW1  956   0.221   2.233   2.428
   19SOL    HW2  957   0.179   2.382   2.379
   20SOL     OW  958   4.636   2.276   5.410
   20SOL    HW1  959   4.703   2.209   5.380
   20SOL    HW2  960   4.644   2.289   5.509
   21SOL     OW  961   2.949   1.024   3.213
   21SOL    HW1  962   2.878   1.087   3.243
   21SOL    HW2  963   2.907   0.936   3.187
   22SOL     OW  964   1.702   6.149   0.329
   22SOL    HW1  965   1.647   6.159   0.412
   22SOL    HW2  966   1.797   6.175   0.349
   23SOL     OW  967   4.136   5.095   2.244
   23SOL    HW1  968   4.231   5.077   2.269
   23SOL    HW2  969   4.099   5.166   2.304
   24SOL     OW  970   3.495   0.516   2.398
   24SOL    HW1  971   3.446   0.569   2.329
   24SOL    HW2  972   3.577   0.476   2.357
   25SOL     OW  973   2.310   6.823   3.849
   25SOL    HW1  974   2.251   6.773   3.785
   25SOL    HW2  975   2.400   6.836   3.807
   26SOL     OW  976   6.528   2.045   0.275
   26SOL    HW1  977   6.562   2.070   0.366
   26SOL    HW2  978   6.603   2.047   0.210
   27SOL     OW  979   1.736   1.282   1.740
   27SOL    HW1  980   1.755   1.379   1.734
   27SOL    HW2  981   1.810   1.236   1.789
   28SOL     OW  982   1.223   0.874   4.765
   28SOL    HW1  983   1.132   0.914   4.753
   28SOL    HW2  984   1.230   0.791   4.710
   29SOL     OW  985   6.301   1.417   0.915
   29SOL    HW1  986   6.369   1.350   0.885
   29SOL    HW2  987   6.343   1.482   0.979
   30SOL     OW  988   4.658   0.210   4.964
   30SOL    HW1  989   4.689   0.304   4.947
   30SOL    HW2  990   4.680   0.184   5.057
   31SOL     OW  991   0.544   2.200   6.092
   31SOL    HW1  992   0.607   2.135   6.051
   31SOL    HW2  993   0.452   2.161   6.095
   32SOL     OW  994   0.873   1.852   2.308
   32SOL    HW1  995   0.945   1.787   2.283
   32SOL    HW2  996   0.878   1.932   2.247
   33SOL     OW  997   1.227   4.686   4.942
   33SOL    HW1  998   1.208   4.740   4.860
   33SOL    HW2  999   1.178   4.726   5.020
   34SOL     OW 1000   2.599   6.105   4.940
   34SOL    HW1 1001   2.681   6.075   4.890
   34SOL    HW2 1002   2.621   6.112   5.038
   35SOL     OW 1003   4.246   2.397   5.649
   35SOL    HW1 1004   4.283   2.365   5.736
   35SOL    HW2 1005   4.147   2.389   5.650
   36SOL     OW 1006   4.147   2.031   3.928
   36SOL    HW1 1007   4.130   2.104   3.994
   36SOL    HW2 1008   4.109   2.058   3.839
   37SOL     OW 1009   1.267   2.022   5.075
   37SOL    HW1 1010   1.275   1.946   5.139
   37SOL    HW2 1011   1.304   1.996   4.986
   38SOL     OW 1012   1.309   4.725   1.680
   38SOL    HW1 1013   1.394   4.729   1.731
   38SOL    HW2 1014   1.323   4.673   1.595
   39SOL     OW 1015   6.200   4.802   6.035
   39SOL    HW1 1016   6.103   4.798   6.061
   39SOL    HW2 1017   6.212   4.869   5.962
   40SOL     OW 1018   3.530   2.281   0.246
   40SOL    HW1 1019   3.526   2.198   0.190
   40SOL    HW2 1020   3.610   2.335   0.220
   41SOL     OW 1021   5.694   3.526   3.343
   41SOL    HW1 1022   5.771   3.524   3.278
   41SOL    HW2 1023   5.610   3.549   3.294
   42SOL     OW 1024   3.268   6.041   4.486
   42SOL    HW1 1025   3.272   6.140   4.470
   42SOL    HW2 1026   3.175   6.016   4.513
   43SOL     OW 1027   4.757   1.085   5.466
   43SOL    HW1 1028   4.723   1.115   5.555
   43SOL    HW2 1029   4.688   1.028   5.421
   44SOL     OW 1030   5.327   2.904   5.135
   44SOL    HW1 1031   5.370   2.884   5.223
   44SOL    HW2 1032   5.337   3.001   5.114
   45SOL     OW 1033   4.432   5.187   1.953
   45SOL    HW1 1034   4.344   5.231   1.968
   45SOL    HW2 1035   4.477   5.229   1.874
   46SOL     OW 1036   1.538   2.381   3.932
   46SOL    HW1 1037   1.594   2.322   3.874
   46SOL    HW2 1038   1.541   2.475   3.896
   47SOL     OW 1039   3.860   3.994   1.351
   47SOL    HW1 1040   3.905   3.924   1.296
   47SOL    HW2 1041   3.880   4.084   1.313
   48SOL     OW 1042   6.984   2.343   0.002
   48SOL    HW1 1043   6.954   2.353   6.934
   48SOL    HW2 1044   0.058   2.333   0.005
   49SOL     OW 1045   5.859   2.681   1.930
   49SOL    HW1 1046   5.796   2.751   1.963
   49SOL    HW2 1047   5.948   2.692   1.974
   50SOL     OW 1048   6.472   1.162   5.580
   50SOL    HW1 1049   6.466   1.071   5.538
   50SOL    HW2 1050   6.567   1.193   5.578
   51SOL     OW 1051   1.913   6.492   2.778
   51SOL    HW1 1052   2.013   6.483   2.775
   51SOL    HW2 1053   1.888   6.588   2.767
   52SOL     OW 1054   5.118   3.601   1.711
   52SOL    HW1 1055   5.082   3.652   1.633
   52SOL    HW2 1056   5.216   3.617   1.719
   53SOL     OW 1057   4.534   1.039   3.485
   53SOL    HW1 1058   4.613   1.009   3.432
   53SOL    HW2 1059   4.495   0.962   3.535
   54SOL     OW 1060   5.656   6.646   1.209
   54SOL    HW1 1061   5.748   6.637   1.171
   54SOL    HW2 1062   5.655   6.609   1.302
   55SOL     OW 1063   1.981   3.015   5.023
   55SOL    HW1 1064   2.031   3.102   5.025
   55SOL    HW2 1065   2.021   2.956   4.953
   56SOL     OW 1066   0.795   0.966   1.190
   56SOL    HW1 1067   0.886   1.003   1.171
   56SOL    HW2 1068   0.803   0.868   1.209
   57SOL     OW 1069   3.687   0.906   1.015
   57SOL    HW1 1070   3.736   0.969   1.076
   57SOL    HW2 1071   3.740   0.822   1.004
   58SOL     OW 1072   0.697   6.397   5.841
   58SOL    HW1 1073   0.656   6.485   5.820
   58SOL    HW2 1074   0.771   6.410   5.907
   59SOL     OW 1075   0.033   3.671   6.105
   59SOL    HW1 1076   0.102   3.695   6.037
   59SOL    HW2 1077   0.077   3.650   6.192
   60SOL     OW 1078   4.668   2.769   4.157
   60SOL    HW1 1079   4.763   2.782   4.129
   60SOL    HW2 1080   4.643   2.839   4.224
   61SOL     OW 1081   0.019   1.335   4.535
   61SOL    HW1 1082   6.976   1.398   4.501
   61SOL    HW2 1083   0.104   1.384   4.552
   62SOL     OW 1084   1.928   1.417   2.137
   62SOL    HW1 1085   2.017   1.386   2.102
   62SOL    HW2 1086   1.891   1.485   2.075
   63SOL     OW 1087   3.406   0.193   4.479
   63SOL    HW1 1088   3.433   0.117   4.420
   63SOL    HW2 1089   3.315   0.226   4.452
   64SOL     OW 1090   0.121   2.805   6.239
   64SOL    HW1 1091   0.213   2.843   6.230
   64SOL    HW2 1092   0.080   2.797   6.148
   65SOL     OW 1093   0.761   5.436   6.035
   65SOL    HW1 1094   0.804   5.519   6.070
   65SOL    HW2 1095   0.670   5.425   6.076
   66SOL     OW 1096   3.291   0.654   3.444
   66SOL    HW1 1097   3.331   0.683   3.357
   66SOL    HW2 1098   3.264   0.558   3.439
   67SOL     OW 1099   0.321   3.217   6.150
   67SOL    HW1 1100   0.285   3.142   6.094
   67SOL    HW2 1101   0.403   3.185   6.198
   68SOL     OW 1102   0.137   1.682   6.956
   68SOL    HW1 1103   0.154   1.665   0.027
   68SOL    HW2 1104   0.192   1.759   6.925
   69SOL     OW 1105   1.012   2.962   5.328
   69SOL    HW1 1106   0.996   3.059   5.307
   69SOL    HW2 1107   1.109   2.948   5.346
   70SOL     OW 1108   5.148   4.836   4.597
   70SOL    HW1 1109   5.064   4.890   4.603
   70SOL    HW2 1110   5.142   4.758   4.659
   71SOL     OW 1111   4.929   2.291   3.579
   71SOL    HW1 1112   4.936   2.344   3.494
   71SOL    HW2 1113   4.980   2.206   3.570
   72SOL     OW 1114   0.551   1.167   2.924
   72SOL    HW1 1115   0.610   1.232   2.877
   72SOL    HW2 1116   0.528   1.201   3.015
   73SOL     OW 1117   3.402   0.447   1.191
   73SOL    HW1 1118   3.363   0.479   1.104
   73SOL    HW2 1119   3.435   0.353   1.180
   74SOL     OW 1120   3.442   1.188   6.852
   74SOL    HW1 1121   3.411   1.278   6.820
   74SOL    HW2 1122   3.364   1.139   6.891
   75SOL     OW 1123   4.256   1.086   1.490
   75SOL    HW1 1124   4.310   1.002   1.482
   75SOL    HW2 1125   4.245   1.109   1.587
   76SOL     OW 1126   3.120   3.504   6.462
   76SOL    HW1 1127   3.136   3.420   6.410
   76SOL    HW2 1128   3.035   3.546   6.431
   77SOL     OW 1129   1.630   6.309   3.123
   77SOL    HW1 1130   1.589   6.381   3.178
   77SOL    HW2 1131   1.573   6.293   3.041
   78SOL     OW 1132   4.722   1.488   1.146
   78SOL    HW1 1133   4.683   1.422   1.082
   78SOL    HW2 1134   4.765   1.562   1.095
   79SOL     OW 1135   2.934   6.399   1.380
   79SOL    HW1 1136   2.955   6.483   1.430
   79SOL    HW2 1137   3.008   6.379   1.315
   80SOL     OW 1138   4.063   1.608   4.241
   80SOL    HW1 1139   4.014   1.664   4.307
   80SOL    HW2 1140   4.045   1.641   4.149
   81SOL     OW 1141   1.409   6.799   1.689
   81SOL    HW1 1142   1.485   6.773   1.630
   81SOL    HW2 1143   1.368   6.717   1.728
   82SOL     OW 1144   6.242   5.640   1.544
   82SOL    HW1 1145   6.192   5.560   1.578
   82SOL    HW2 1146   6.339   5.629   1.564
   83SOL     OW 1147   0.632   1.001   6.751
   83SOL    HW1 1148   0.607   0.984   6.656
   83SOL    HW2 1149   0.670   0.918   6.792
   84SOL     OW 1150   5.607   3.844   3.240
   84SOL    HW1 1151   5.707   3.847   3.250
   84SOL    HW2 1152   5.582   3.869   3.147
   85SOL     OW 1153   1.510   0.884   3.183
   85SOL    HW1 1154   1.452   0.802   3.190
   85SOL    HW2 1155   1.582   0.868   3.116
   86SOL     OW 1156   0.002   1.166   6.877
   86SOL    HW1 1157   6.959   1.238   6.870
   86SOL    HW2 1158   7.006   1.093   6.813
   87SOL     OW 1159   3.535   3.839   0.889
   87SOL    HW1 1160   3.477   3.899   0.834
   87SOL    HW2 1161   3.626   3.832   0.847
   88SOL     OW 1162   2.854   2.324   6.150
   88SOL    HW1 1163   2.925   2.261   6.119
   88SOL    HW2 1164   2.766   2.296   6.112
   89SOL     OW 1165   3.194   3.475   7.015
   89SOL    HW1 1166   3.214   3.404   0.056
   89SOL    HW2 1167   3.180   3.562   0.035
   90SOL     OW 1168   3.710   5.314   2.999
   90SOL    HW1 1169   3.625   5.290   3.046
   90SOL    HW2 1170   3.775   5.238   3.006
   91SOL     OW 1171   6.213   3.969   5.662
   91SOL    HW1 1172   6.237   4.050   5.716
   91SOL    HW2 1173   6.219   3.991   5.565
   92SOL     OW 1174   4.605   4.362   0.438
   92SOL    HW1 1175   4.688   4.382   0.387
   92SOL    HW2 1176   4.612   4.400   0.530
   93SOL     OW 1177   3.134   3.422   6.757
   93SOL    HW1 1178   3.118   3.487   6.683
   93SOL    HW2 1179   3.168   3.471   6.837
   94SOL     OW 1180   2.430   5.811   6.991
   94SOL    HW1 1181   2.456   5.715   7.005
   94SOL    HW2 1182   2.334   5.816   6.966
   95SOL     OW 1183   1.940   0.689   3.364
   95SOL    HW1 1184   1.926   0.732   3.275
   95SOL    HW2 1185   1.851   0.669   3.406
   96SOL     OW 1186   4.747   5.651   5.775
   96SOL    HW1 1187   4.760   5.566   5.826
   96SOL    HW2 1188   4.835   5.689   5.749
   97SOL     OW 1189   1.994   3.974   5.238
   97SOL    HW1 1190   2.009   4.050   5.175
   97SOL    HW2 1191   2.081   3.929   5.256
   98SOL     OW 1192   0.810   1.730   0.257
   98SOL    HW1 1193   0.837   1.823   0.282
   98SOL    HW2 1194   0.806   1.674   0.340
   99SOL     OW 1195   3.637   3.753   2.291
   99SOL    HW1 1196   3.548   3.791   2.263
   99SOL    HW2 1197   3.710   3.799   2.240
  100SOL     OW 1198   0.030   6.799   4.381
  100SOL    HW1 1199   6.956   6.796   4.379
  100SOL    HW2 1200   0.060   6.893   4.394
  101SOL     OW 1201   6.665   5.313   2.369
  101SOL    HW1 1202   6.589   5.377   2.383
  101SOL    HW2 1203   6.736   5.331   2.437
  102SOL     OW 1204   3.885   5.673   2.071
  102SOL    HW1 1205   3.882   5.586   2.023
  102SOL    HW2 1206   3.908   5.746   2.005
  103SOL     OW 1207   2.189   2.324   2.706
  103SOL    HW1 1208   2.168   2.287   2.797
  103SOL    HW2 1209   2.108   2.371   2.671
  104SOL     OW 1210   1.421   5.029   1.953
  104SOL    HW1 1211   1.350   5.018   1.883
  104SOL    HW2 1212   1.407   4.961   2.025
  105SOL     OW 1213   5.651   0.965   6.312
  105SOL    HW1 1214   5.597   0.990   6.232
  105SOL    HW2 1215   5.604   0.892   6.362
  106SOL     OW 1216   4.186   6.212   3.340
  106SOL    HW1 1217   4.276   6.212   3.383
  106SOL    HW2 1218   4.163   6.120   3.310
  107SOL     OW 1219   7.014   1.058   0.155
  107SOL    HW1 1220   6.941   1.056   0.224
  107SOL    HW2 1221   6.976   1.039   0.065
  108SOL     OW 1222   4.096   6.611   6.248
  108SOL    HW1 1223   4.006   6.612   6.292
  108SOL    HW2 1224   4.167   6.611   6.318
  109SOL     OW 1225   2.799   0.800   2.628
  109SOL    HW1 1226   2.787   0.895   2.601
  109SOL    HW2 1227   2.867   0.794   2.701
  110SOL     OW 1228   2.774   4.652   4.079
  110SOL    HW1 1229   2.742   4.661   4.173
  110SOL    HW2 1230   2.748   4.562   4.043
  111SOL     OW 1231   2.183   1.258   3.646
  111SOL    HW1 1232   2.212   1.305   3.729
  111SOL    HW2 1233   2.205   1.161   3.653
  112SOL     OW 1234   5.139   6.086   0.703
  112SOL    HW1 1235   5.117   6.100   0.606
  112SOL    HW2 1236   5.090   6.153   0.758
  113SOL     OW 1237   1.097   5.789   2.676
  113SOL    HW1 1238   1.142   5.718   2.622
  113SOL    HW2 1239   1.028   5.748   2.735
  114SOL     OW 1240   1.499   6.421   1.848
  114SOL    HW1 1241   1.549   6.341   1.879
  114SOL    HW2 1242   1.561   6.499   1.841
  115SOL     OW 1243   5.478   6.898   2.944
  115SOL    HW1 1244   5.478   6.852   3.033
  115SOL    HW2 1245   5.573   6.912   2.914
  116SOL     OW 1246   0.255   5.784   1.379
  116SOL    HW1 1247   0.198   5.706   1.402
  116SOL    HW2 1248   0.230   5.820   1.289
  117SOL     OW 1249   0.916   0.446   0.696
  117SOL    HW1 1250   0.832   0.460   0.748
  117SOL    HW2 1251   0.995   0.478   0.749
  118SOL     OW 1252   1.598   1.881   2.855
  118SOL    HW1 1253   1.649   1.894   2.940
  118SOL    HW2 1254   1.510   1.929   2.862
  119SOL     OW 1255   0.037   0.907   6.726
  119SOL    HW1 1256   0.065   0.813   6.706
  119SOL    HW2 1257   0.118   0.964   6.737
  120SOL     OW 1258   4.915   0.615   4.513
  120SOL    HW1 1259   4.880   0.539   4.568
  120SOL    HW2 1260   4.933   0.584   4.420
  121SOL     OW 1261   1.002   4.002   0.636
  121SOL    HW1 1262   0.966   3.918   0.675
  121SOL    HW2 1263   0.969   4.012   0.542
  122SOL     OW 1264   1.606   3.716   0.346
  122SOL    HW1 1265   1.552   3.726   0.262
  122SOL    HW2 1266   1.549   3.737   0.425
  123SOL     OW 1267   0.950   1.046   2.292
  123SOL    HW1 1268   0.852   1.065   2.279
  123SOL    HW2 1269   0.985   0.997   2.213
  124SOL     OW 1270   3.413   2.294   0.706
  124SOL    HW1 1271   3.483   2.299   0.634
  124SOL    HW2 1272   3.324   2.320   0.668
  125SOL     OW 1273   3.369   2.985   0.622
  125SOL    HW1 1274   3.468   2.968   0.618
  125SOL    HW2 1275   3.331   2.946   0.705
  126SOL     OW 1276   3.620   3.023   2.897
  126SOL    HW1 1277   3.618   3.122   2.883
  126SOL    HW2 1278   3.696   2.999   2.957
  127SOL     OW 1279   6.771   6.049   6.263
  127SOL    HW1 1280   6.824   5.981   6.212
  127SOL    HW2 1281   6.702   6.090   6.203
  128SOL     OW 1282   4.888   3.235   1.323
  128SOL    HW1 1283   4.913   3.322   1.366
  128SOL    HW2 1284   4.844   3.176   1.390
  129SOL     OW 1285   2.784   4.120   0.392
  129SOL    HW1 1286   2.708   4.056   0.400
  129SOL    HW2 1287   2.779   4.168   0.305
  130SOL     OW 1288   6.527   0.603   4.342
  130SOL    HW1 1289   6.523   0.512   4.299
  130SOL    HW2 1290   6.623   0.631   4.351
  131SOL     OW 1291   5.362   0.466   3.919
  131SOL    HW1 1292   5.307   0.414   3.984
  131SOL    HW2 1293   5.419   0.532   3.969
  132SOL     OW 1294   2.930   2.727   1.064
  132SOL    HW1 1295   2.925   2.684   0.974
  132SOL    HW2 1296   3.024   2.756   1.083
  133SOL     OW 1297   5.487   0.571   4.133
  133SOL    HW1 1298   5.578   0.603   4.105
  133SOL    HW2 1299   5.460   0.617   4.217
  134SOL     OW 1300   0.004   0.544   2.690
  134SOL    HW1 1301   7.009   0.577   2.597
  134SOL    HW2 1302   0.076   0.475   2.685
  135SOL     OW 1303   5.256   3.516   4.145
  135SOL    HW1 1304   5.251   3.610   4.109
  135SOL    HW2 1305   5.335   3.508   4.206
  136SOL     OW 1306   1.491   5.751   4.657
  136SOL    HW1 1307   1.443   5.735   4.743
  136SOL    HW2 1308   1.439   5.815   4.601
  137SOL     OW 1309   4.289   1.351   4.409
  137SOL    HW1 1310   4.226   1.325   4.482
  137SOL    HW2 1311   4.366   1.402   4.447
  138SOL     OW 1312   0.768   4.157   2.926
  138SOL    HW1 1313   0.757   4.059   2.942
  138SOL    HW2 1314   0.802   4.200   3.009
  139SOL     OW 1315   2.056   5.911   5.891
  139SOL    HW1 1316   2.074   5.892   5.794
  139SOL    HW2 1317   2.017   6.002   5.901
  140SOL     OW 1318   1.074   6.410   3.823
  140SOL    HW1 1319   1.032   6.478   3.764
  140SOL    HW2 1320   1.071   6.320   3.778
  141SOL     OW 1321   6.389   2.626   6.183
  141SOL    HW1 1322   6.382   2.655   6.088
  141SOL    HW2 1323   6.478   2.654   6.220
  142SOL     OW 1324   2.129   3.597   2.216
  142SOL    HW1 1325   2.191   3.569   2.142
  142SOL    HW2 1326   2.127   3.527   2.287
  143SOL     OW 1327   5.664   5.942   0.755
  143SOL    HW1 1328   5.647   5.851   0.792
  143SOL    HW2 1329   5.585   5.972   0.702
  144SOL     OW 1330   1.929   4.781   5.524
  144SOL    HW1 1331   1.859   4.769   5.454
  144SOL    HW2 1332   2.010   4.823   5.483
  145SOL     OW 1333   1.949   5.525   1.221
  145SOL    HW1 1334   1.949   5.497   1.317
  145SOL    HW2 1335   1.982   5.619   1.214
  146SOL     OW 1336   4.962   0.917   6.921
  146SOL    HW1 1337   5.058   0.941   6.939
  146SOL    HW2 1338   4.959   0.834   6.865
  147SOL     OW 1339   5.062   1.249   5.914
  147SOL    HW1 1340   5.147   1.261   5.966
  147SOL    HW2 1341   5.037   1.336   5.871
  148SOL     OW 1342   0.538   5.615   1.332
  148SOL    HW1 1343   0.467   5.677   1.366
  148SOL    HW2 1344   0.628   5.655   1.350
  149SOL     OW 1345   3.124   1.820   4.951
  149SOL    HW1 1346   3.027   1.805   4.969
  149SOL    HW2 1347   3.177   1.803   5.034
  150SOL     OW 1348   5.054   0.341   6.218
  150SOL    HW1 1349   5.152   0.321   6.227
  150SOL    HW2 1350   5.007   0.312   6.302
  151SOL     OW 1351   3.458   1.033   1.642
  151SOL    HW1 1352   3.399   0.981   1.704
  151SOL    HW2 1353   3.554   1.012   1.662
  152SOL     OW 1354   0.133   1.752   0.408
  152SOL    HW1 1355   0.062   1.732   0.475
  152SOL    HW2 1356   0.148   1.851   0.404
  153SOL     OW 1357   2.727   6.803   3.022
  153SOL    HW1 1358   2.750   6.899   3.009
  153SOL    HW2 1359   2.799   6.759   3.077
  154SOL     OW 1360   0.234   3.330   0.563
  154SOL    HW1 1361   0.284   3.250   0.598
  154SOL    HW2 1362   0.218   3.319   0.465
  155SOL     OW 1363   0.886   0.287   2.946
  155SOL    HW1 1364   0.897   0.239   3.032
  155SOL    HW2 1365   0.945   0.368   2.945
  156SOL     OW 1366   6.456   0.282   6.902
  156SOL    HW1 1367   6.482   0.284   6.805
  156SOL    HW2 1368   6.512   0.215   6.951
  157SOL     OW 1369   5.494   3.435   0.444
  157SOL    HW1 1370   5.531   3.344   0.459
  157SOL    HW2 1371   5.402   3.441   0.482
  158SOL     OW 1372   1.993   2.732   1.036
  158SOL    HW1 1373   1.955   2.664   0.973
  158SOL    HW2 1374   1.934   2.740   1.116
  159SOL     OW 1375   4.041   5.070   1.389
  159SOL    HW1 1376   3.961   5.022   1.353
  159SOL    HW2 1377   4.040   5.165   1.357
  160SOL     OW 1378   6.277   0.157   0.667
  160SOL    HW1 1379   6.293   0.233   0.605
  160SOL    HW2 1380   6.319   0.176   0.756
  161SOL     OW 1381   2.038   0.129   2.232
  161SOL    HW1 1382   2.027   0.042   2.184
  161SOL    HW2 1383   2.018   0.116   2.329
  162SOL     OW 1384   3.312   6.982   6.899
  162SOL    HW1 1385   3.296   7.021   6.989
  162SOL    HW2 1386   3.238   7.008   6.837
  163SOL     OW 1387   0.699   5.753   2.728
  163SOL    HW1 1388   0.709   5.847   2.696
  163SOL    HW2 1389   0.609   5.718   2.700
  164SOL     OW 1390   1.186   3.066   2.401
  164SOL    HW1 1391   1.142   3.139   2.453
  164SOL    HW2 1392   1.122   3.032   2.332
  165SOL     OW 1393   5.615   4.997   0.370
  165SOL    HW1 1394   5.611   5.007   0.469
  165SOL    HW2 1395   5.527   5.021   0.330
  166SOL     OW 1396   0.281   3.724   2.246
  166SOL    HW1 1397   0.185   3.734   2.220
  166SOL    HW2 1398   0.303   3.626   2.251
  167SOL     OW 1399   6.567   1.503   6.329
  167SOL    HW1 1400   6.486   1.523   6.384
  167SOL    HW2 1401   6.640   1.470   6.388
  168SOL     OW 1402   4.467   2.072   1.355
  168SOL    HW1 1403   4.565   2.058   1.338
  168SOL    HW2 1404   4.437   2.012   1.429
  169SOL     OW 1405   5.586   2.197   0.194
  169SOL    HW1 1406   5.549   2.264   0.258
  169SOL    HW2 1407   5.665   2.152   0.235
  170SOL     OW 1408   6.818   5.718   2.909
  170SOL    HW1 1409   6.834   5.812   2.880
  170SOL    HW2 1410   6.723   5.708   2.938
  171SOL     OW 1411   2.521   4.283   0.519
  171SOL    HW1 1412   2.533   4.381   0.507
  171SOL    HW2 1413   2.460   4.248   0.447
  172SOL     OW 1414   5.839   2.210   2.792
  172SOL    HW1 1415   5.770   2.189   2.723
  172SOL    HW2 1416   5.794   2.245   2.874
  173SOL     OW 1417   6.066   1.263   4.670
  173SOL    HW1 1418   6.111   1.185   4.625
  173SOL    HW2 1419   6.129   1.341   4.672
  174SOL     OW 1420   4.411   5.511   3.653
  174SOL    HW1 1421   4.336   5.453   3.685
  174SOL    HW2 1422   4.377   5.603   3.635
  175SOL     OW 1423   3.327   0.918   1.092
  175SOL    HW1 1424   3.393   0.937   1.019
  175SOL    HW2 1425   3.374   0.921   1.180
  176SOL     OW 1426   5.223   4.508   2.536
  176SOL    HW1 1427   5.280   4.451   2.595
  176SOL    HW2 1428   5.255   4.501   2.442
  177SOL     OW 1429   4.820   3.139   4.581
  177SOL    HW1 1430   4.776   3.054   4.611
  177SOL    HW2 1431   4.843   3.132   4.484
  178SOL     OW 1432   2.658   5.034   5.185
  178SOL    HW1 1433   2.739   5.089   5.168
  178SOL    HW2 1434   2.660   4.953   5.127
  179SOL     OW 1435   4.185   0.044   6.938
  179SOL    HW1 1436   4.110   7.012   6.972
  179SOL    HW2 1437   4.242   0.072   7.015
  180SOL     OW 1438   2.194   6.820   0.457
  180SOL    HW1 1439   2.250   6.903   0.458
  180SOL    HW2 1440   2.107   6.838   0.410
  181SOL     OW 1441   3.697   3.303   6.210
  181SOL    HW1 1442   3.621   3.363   6.184
  181SOL    HW2 1443   3.679   3.210   6.177
  182SOL     OW 1444   3.972   2.563   6.382
  182SOL    HW1 1445   4.071   2.550   6.368
  182SOL    HW2 1446   3.930   2.588   6.295
  183SOL     OW 1447   3.516   2.131   3.488
  183SOL    HW1 1448   3.589   2.186   3.528
  183SOL    HW2 1449   3.477   2.071   3.557
  184SOL     OW 1450   0.449   6.494   3.547
  184SOL    HW1 1451   0.511   6.421   3.519
  184SOL    HW2 1452   0.487   6.583   3.522
  185SOL     OW 1453   1.329   1.343   4.556
  185SOL    HW1 1454   1.231   1.326   4.559
  185SOL    HW2 1455   1.346   1.441   4.554
  186SOL     OW 1456   5.224   0.798   4.596
  186SOL    HW1 1457   5.166   0.756   4.666
  186SOL    HW2 1458   5.289   0.860   4.640
  187SOL     OW 1459   5.792   6.433   2.484
  187SOL    HW1 1460   5.715   6.492   2.507
  187SOL    HW2 1461   5.802   6.362   2.554
  188SOL     OW 1462   0.391   3.259   3.781
  188SOL    HW1 1463   0.425   3.171   3.747
  188SOL    HW2 1464   0.433   3.278   3.870
  189SOL     OW 1465   1.669   4.897   6.508
  189SOL    HW1 1466   1.668   4.814   6.564
  189SOL    HW2 1467   1.723   4.968   6.553
  190SOL     OW 1468   6.114   4.343   6.088
  190SOL    HW1 1469   6.184   4.411   6.066
  190SOL    HW2 1470   6.147   4.285   6.162
  191SOL     OW 1471   6.839   1.183   6.655
  191SOL    HW1 1472   6.813   1.096   6.697
  191SOL    HW2 1473   6.763   1.220   6.602
  192SOL     OW 1474   0.335   4.329   1.482
  192SOL    HW1 1475   0.334   4.282   1.393
  192SOL    HW2 1476   0.429   4.329   1.518
  193SOL     OW 1477   4.843   4.273   5.149
  193SOL    HW1 1478   4.833   4.175   5.130
  193SOL    HW2 1479   4.768   4.323   5.105
  194SOL     OW 1480   3.713   6.410   3.388
  194SOL    HW1 1481   3.674   6.324   3.421
  194SOL    HW2 1482   3.806   6.420   3.423
  195SOL     OW 1483   1.749   1.057   3.292
  195SOL    HW1 1484   1.676   0.992   3.269
  195SOL    HW2 1485   1.835   1.025   3.254
  196SOL     OW 1486   3.099   0.163   0.175
  196SOL    HW1 1487   3.165   0.088   0.185
  196SOL    HW2 1488   3.121   0.235   0.240
  197SOL     OW 1489   2.582   6.899   0.365
  197SOL    HW1 1490   2.554   6.865   0.275
  197SOL    HW2 1491   2.681   6.890   0.374
  198SOL     OW 1492   4.773   6.602   2.161
  198SOL    HW1 1493   4.738   6.602   2.068
  198SOL    HW2 1494   4.769   6.509   2.198
  199SOL     OW 1495   6.195   0.970   2.994
  199SOL    HW1 1496   6.279   0.922   2.967
  199SOL    HW2 1497   6.219   1.055   3.040
  200SOL     OW 1498   1.068   4.240   2.502
  200SOL    HW1 1499   1.139   4.268   2.566
  200SOL    HW2 1500   0.978   4.251   2.545
  201SOL     OW 1501   4.474   6.870   6.572
  201SOL    HW1 1502   4.498   6.773   6.576
  201SOL    HW2 1503   4.399   6.888   6.635
  202SOL     OW 1504   5.797   0.500   5.632
  202SOL    HW1 1505   5.698   0.487   5.638
  202SOL    HW2 1506   5.818   0.552   5.549
  203SOL     OW 1507   5.232   2.466   4.728
  203SOL    HW1 1508   5.189   2.410   4.798
  203SOL    HW2 1509   5.327   2.485   4.754
  204SOL     OW 1510   0.421   0.722   6.712
  204SOL    HW1 1511   0.328   0.689   6.696
  204SOL    HW2 1512   0.439   0.801   6.654
  205SOL     OW 1513   0.718   1.200   2.234
  205SOL    HW1 1514   0.668   1.201   2.321
  205SOL    HW2 1515   0.654   1.211   2.159
  206SOL     OW 1516   0.375   5.075   2.487
  206SOL    HW1 1517   0.326   5.081   2.574
  206SOL    HW2 1518   0.448   5.008   2.495
  207SOL     OW 1519   4.268   0.021   4.778
  207SOL    HW1 1520   4.232   6.967   4.730
  207SOL    HW2 1521   4.355   0.048   4.736
  208SOL     OW 1522   5.073   3.897   5.667
  208SOL    HW1 1523   5.119   3.809   5.653
  208SOL    HW2 1524   5.069   3.946   5.581
  209SOL     OW 1525   0.735   5.356   5.391
  209SOL    HW1 1526   0.812   5.328   5.447
  209SOL    HW2 1527   0.751   5.330   5.296
  210SOL     OW 1528   4.268   2.186   1.785
  210SOL    HW1 1529   4.206   2.162   1.860
  210SOL    HW2 1530   4.319   2.268   1.809
  211SOL     OW 1531   0.979   6.654   4.527
  211SOL    HW1 1532   0.931   6.697   4.603
  211SOL    HW2 1533   0.939   6.683   4.441
  212SOL     OW 1534   2.236   4.672   1.816
  212SOL    HW1 1535   2.138   4.656   1.829
  212SOL    HW2 1536   2.249   4.750   1.755
  213SOL     OW 1537   3.876   0.880   6.385
  213SOL    HW1 1538   3.925   0.944   6.326
  213SOL    HW2 1539   3.941   0.829   6.441
  214SOL     OW 1540   3.320   5.973   2.569
  214SOL    HW1 1541   3.320   5.927   2.480
  214SOL    HW2 1542   3.411   6.007   2.589
  215SOL     OW 1543   3.293   4.077   1.880
  215SOL    HW1 1544   3.305   4.129   1.796
  215SOL    HW2 1545   3.380   4.039   1.909
  216SOL     OW 1546   1.830   6.868   5.072
  216SOL    HW1 1547   1.861   6.923   4.995
  216SOL    HW2 1548   1.876   6.899   5.155
  217SOL     OW 1549   2.770   2.257   3.929
  217SOL    HW1 1550   2.735   2.226   3.840
  217SOL    HW2 1551   2.694   2.290   3.985
  218SOL     OW 1552   0.766   3.434   4.558
  218SOL    HW1 1553   0.852   3.385   4.542
  218SOL    HW2 1554   0.701   3.372   4.602
  219SOL     OW 1555   3.473   6.595   6.694
  219SOL    HW1 1556   3.472   6.496   6.709
  219SOL    HW2 1557   3.500   6.614   6.600
  220SOL     OW 1558   3.497   6.235   6.410
  220SOL    HW1 1559   3.474   6.139   6.425
  220SOL    HW2 1560   3.579   6.241   6.354
  221SOL     OW 1561   6.812   3.847   2.681
  221SOL    HW1 1562   6.809   3.766   2.739
  221SOL    HW2 1563   6.719   3.877   2.660
  222SOL     OW 1564   1.915   4.943   5.811
  222SOL    HW1 1565   1.837   4.998   5.842
  222SOL    HW2 1566   1.891   4.897   5.726
  223SOL     OW 1567   6.685   3.609   0.622
  223SOL    HW1 1568   6.707   3.700   0.658
  223SOL    HW2 1569   6.722   3.539   0.683
  224SOL     OW 1570   2.812   1.950   3.820
  224SOL    HW1 1571   2.828   1.959   3.918
  224SOL    HW2 1572   2.870   1.877   3.783
  225SOL     OW 1573   5.149   1.242   6.254
  225SOL    HW1 1574   5.183   1.290   6.335
  225SOL    HW2 1575   5.139   1.145   6.274
  226SOL     OW 1576   0.522   0.015   6.439
  226SOL    HW1 1577   0.600   0.025   6.500
  226SOL    HW2 1578   0.546   6.979   6.364
  227SOL     OW 1579   1.434   4.318   2.245
  227SOL    HW1 1580   1.442   4.241   2.309
  227SOL    HW2 1581   1.355   4.303   2.185
  228SOL     OW 1582   3.358   6.248   3.516
  228SOL    HW1 1583   3.339   6.346   3.519
  228SOL    HW2 1584   3.450   6.233   3.479
  229SOL     OW 1585   5.771   6.321   0.331
  229SOL    HW1 1586   5.755   6.256   0.406
  229SOL    HW2 1587   5.684   6.346   0.289
  230SOL     OW 1588   2.987   4.863   2.853
  230SOL    HW1 1589   2.907   4.916   2.882
  230SOL    HW2 1590   2.961   4.801   2.779
  231SOL     OW 1591   6.174   1.949   6.076
  231SOL    HW1 1592   6.206   1.862   6.114
  231SOL    HW2 1593   6.085   1.936   6.032
  232SOL     OW 1594   0.919   3.885   6.007
  232SOL    HW1 1595   0.956   3.815   5.946
  232SOL    HW2 1596   0.823   3.901   5.985
  233SOL     OW 1597   2.162   0.921   4.184
  233SOL    HW1 1598   2.183   0.827   4.161
  233SOL    HW2 1599   2.074   0.946   4.143
  234SOL     OW 1600   2.978   6.156   5.341
  234SOL    HW1 1601   2.997   6.061   5.368
  234SOL    HW2 1602   3.060   6.195   5.298
  235SOL     OW 1603   2.920   3.388   2.344
  235SOL    HW1 1604   2.935   3.432   2.256
  235SOL    HW2 1605   2.943   3.452   2.417
  236SOL     OW 1606   6.256   2.842   6.578
  236SOL    HW1 1607   6.211   2.763   6.619
  236SOL    HW2 1608   6.226   2.852   6.483
  237SOL     OW 1609   6.555   6.593   0.744
  237SOL    HW1 1610   6.630   6.553   0.690
  237SOL    HW2 1611   6.534   6.533   0.821
  238SOL     OW 1612   6.047   2.288   6.914
  238SOL    HW1 1613   6.082   2.357   6.977
  238SOL    HW2 1614   6.046   2.324   6.821
  239SOL     OW 1615   6.402   5.672   0.113
  239SOL    HW1 1616   6.385   5.737   0.038
  239SOL    HW2 1617   6.405   5.721   0.200
  240SOL     OW 1618   0.212   3.122   5.282
  240SOL    HW1 1619   0.187   3.216   5.305
  240SOL    HW2 1620   0.142   3.082   5.223
  241SOL     OW 1621   0.975   0.503   4.032
  241SOL    HW1 1622   0.890   0.522   4.081
  241SOL    HW2 1623   1.036   0.449   4.090
  242SOL     OW 1624   2.329   3.077   6.423
  242SOL    HW1 1625   2.397   3.111   6.358
  242SOL    HW2 1626   2.315   2.979   6.408
  243SOL     OW 1627   5.084   6.786   6.466
  243SOL    HW1 1628   5.086   6.691   6.499
  243SOL    HW2 1629   5.035   6.843   6.532
  244SOL     OW 1630   4.905   3.007   4.330
  244SOL    HW1 1631   4.956   2.966   4.254
  244SOL    HW2 1632   4.860   2.935   4.383
  245SOL     OW 1633   6.932   2.305   4.553
  245SOL    HW1 1634   6.957   2.401   4.546
  245SOL    HW2 1635   6.961   2.269   4.642
  246SOL     OW 1636   5.666   2.920   3.452
  246SOL    HW1 1637   5.639   3.012   3.425
  246SOL    HW2 1638   5.719   2.878   3.379
  247SOL     OW 1639   1.959   1.812   2.302
  247SOL    HW1 1640   1.922   1.786   2.213
  247SOL    HW2 1641   1.895   1.874   2.348
  248SOL     OW 1642   4.573   2.437   4.710
  248SOL    HW1 1643   4.652   2.398   4.757
  248SOL    HW2 1644   4.560   2.532   4.738
  249SOL     OW 1645   4.967   0.150   5.117
  249SOL    HW1 1646   4.969   0.231   5.058
  249SOL    HW2 1647   5.049   0.148   5.174
  250SOL     OW 1648   4.683   2.276   5.685
  250SOL    HW1 1649   4.663   2.192   5.734
  250SOL    HW2 1650   4.702   2.350   5.750
  251SOL     OW 1651   4.467   4.507   6.004
  251SOL    HW1 1652   4.515   4.594   6.017
  251SOL    HW2 1653   4.433   4.474   6.092
  252SOL     OW 1654   6.878   0.377   6.928
  252SOL    HW1 1655   6.871   0.349   7.023
  252SOL    HW2 1656   6.894   0.297   6.870
  253SOL     OW 1657   2.321   4.231   0.344
  253SOL    HW1 1658   2.292   4.266   0.255
  253SOL    HW2 1659   2.247   4.178   0.385
  254SOL     OW 1660   6.462   2.767   3.386
  254SOL    HW1 1661   6.405   2.693   3.351
  254SOL    HW2 1662   6.558   2.741   3.377
  255SOL     OW 1663   2.283   2.990   4.355
  255SOL    HW1 1664   2.196   3.037   4.369
  255SOL    HW2 1665   2.358   3.056   4.361
  256SOL     OW 1666   6.718   4.604   0.327
  256SOL    HW1 1667   6.749   4.510   0.340
  256SOL    HW2 1668   6.657   4.630   0.401
  257SOL     OW 1669   3.642   5.448   5.279
  257SOL    HW1 1670   3.647   5.534   5.229
  257SOL    HW2 1671   3.553   5.405   5.263
  258SOL     OW 1672   5.905   4.238   5.028
  258SOL    HW1 1673   5.828   4.174   5.029
  258SOL    HW2 1674   5.890   4.309   5.097
  259SOL     OW 1675   1.978   2.994   2.169
  259SOL    HW1 1676   1.887   2.963   2.194
  259SOL    HW2 1677   1.975   3.091   2.146
  260SOL     OW 1678   4.268   0.977   1.078
  260SOL    HW1 1679   4.206   0.938   1.009
  260SOL    HW2 1680   4.325   0.904   1.116
  261SOL     OW 1681   6.777   3.849   1.294
  261SOL    HW1 1682   6.777   3.768   1.352
  261SOL    HW2 1683   6.866   3.858   1.249
  262SOL     OW 1684   0.840   3.746   1.978
  262SOL    HW1 1685   0.846   3.708   2.070
  262SOL    HW2 1686   0.744   3.751   1.949
  263SOL     OW 1687   0.439   1.417   3.643
  263SOL    HW1 1688   0.522   1.465   3.672
  263SOL    HW2 1689   0.463   1.344   3.579
  264SOL     OW 1690   5.570   4.312   5.561
  264SOL    HW1 1691   5.632   4.379   5.523
  264SOL    HW2 1692   5.486   4.309   5.506
  265SOL     OW 1693   4.864   3.954   3.147
  265SOL    HW1 1694   4.919   3.921   3.224
  265SOL    HW2 1695   4.857   3.883   3.077
  266SOL     OW 1696   3.669   2.790   6.254
  266SOL    HW1 1697   3.709   2.699   6.266
  266SOL    HW2 1698   3.624   2.818   6.338
  267SOL     OW 1699   6.939   2.461   6.042
  267SOL    HW1 1700   6.978   2.370   6.029
  267SOL    HW2 1701   6.914   2.500   5.954
  268SOL     OW 1702   5.086   5.775   5.367
  268SOL    HW1 1703   5.160   5.708   5.365
  268SOL    HW2 1704   5.051   5.783   5.461
  269SOL     OW 1705   1.530   1.792   0.541
  269SOL    HW1 1706   1.615   1.801   0.489
  269SOL    HW2 1707   1.469   1.868   0.519
  270SOL     OW 1708   0.087   0.605   2.164
  270SOL    HW1 1709   0.166   0.577   2.109
  270SOL    HW2 1710   0.116   0.672   2.233
  271SOL     OW 1711   2.887   1.817   0.268
  271SOL    HW1 1712   2.807   1.769   0.231
  271SOL    HW2 1713   2.889   1.808   0.367
  272SOL     OW 1714   3.094   5.221   4.371
  272SOL    HW1 1715   3.184   5.215   4.328
  272SOL    HW2 1716   3.099   5.279   4.452
  273SOL     OW 1717   1.507   5.444   5.151
  273SOL    HW1 1718   1.462   5.450   5.062
  273SOL    HW2 1719   1.446   5.480   5.222
  274SOL     OW 1720   5.388   2.193   4.226
  274SOL    HW1 1721   5.477   2.160   4.194
  274SOL    HW2 1722   5.321   2.186   4.152
  275SOL     OW 1723   0.436   5.762   6.221
  275SOL    HW1 1724   0.391   5.773   6.132
  275SOL    HW2 1725   0.431   5.666   6.249
  276SOL     OW 1726   6.492   5.348   3.703
  276SOL    HW1 1727   6.548   5.283   3.651
  276SOL    HW2 1728   6.426   5.298   3.759
  277SOL     OW 1729   2.900   1.537   6.489
  277SOL    HW1 1730   2.961   1.460   6.475
  277SOL    HW2 1731   2.817   1.506   6.536
  278SOL     OW 1732   6.441   3.526   2.152
  278SOL    HW1 1733   6.450   3.431   2.180
  278SOL    HW2 1734   6.516   3.579   2.190
  279SOL     OW 1735   6.283   2.933   4.199
  279SOL    HW1 1736   6.315   2.855   4.144
  279SOL    HW2 1737   6.353   2.959   4.265
  280SOL     OW 1738   4.065   0.114   3.166
  280SOL    HW1 1739   4.067   0.189   3.100
  280SOL    HW2 1740   3.974   0.108   3.208
  281SOL     OW 1741   2.900   4.762   3.113
  281SOL    HW1 1742   2.838   4.687   3.089
  281SOL    HW2 1743   2.940   4.800   3.029
  282SOL     OW 1744   4.059   2.416   5.410
  282SOL    HW1 1745   4.095   2.447   5.322
  282SOL    HW2 1746   4.084   2.320   5.425
  283SOL     OW 1747   6.049   0.609   6.056
  283SOL    HW1 1748   5.969   0.557   6.084
  283SOL    HW2 1749   6.132   0.567   6.094
  284SOL     OW 1750   0.916   4.610   4.671
  284SOL    HW1 1751   0.999   4.661   4.693
  284SOL    HW2 1752   0.893   4.549   4.746
  285SOL     OW 1753   5.120   5.654   0.238
  285SOL    HW1 1754   5.104   5.752   0.224
  285SOL    HW2 1755   5.198   5.625   0.183
  286SOL     OW 1756   4.218   4.832   5.393
  286SOL    HW1 1757   4.120   4.834   5.412
  286SOL    HW2 1758   4.263   4.905   5.445
  287SOL     OW 1759   1.263   5.410   6.500
  287SOL    HW1 1760   1.359   5.383   6.491
  287SOL    HW2 1761   1.257   5.509   6.509
  288SOL     OW 1762   4.115   1.261   0.180
  288SOL    HW1 1763   4.210   1.256   0.148
  288SOL    HW2 1764   4.059   1.307   0.112
  289SOL     OW 1765   0.399   5.241   5.556
  289SOL    HW1 1766   0.411   5.223   5.458
  289SOL    HW2 1767   0.489   5.243   5.601
  290SOL     OW 1768   4.741   1.125   3.847
  290SOL    HW1 1769   4.704   1.176   3.925
  290SOL    HW2 1770   4.820   1.174   3.810
  291SOL     OW 1771   4.250   1.016   4.317
  291SOL    HW1 1772   4.190   0.945   4.282
  291SOL    HW2 1773   4.338   1.011   4.270
  292SOL     OW 1774   4.927   1.329   3.777
  292SOL    HW1 1775   4.885   1.411   3.815
  292SOL    HW2 1776   5.022   1.347   3.752
  293SOL     OW 1777   4.310   6.203   1.733
  293SOL    HW1 1778   4.404   6.235   1.716
  293SOL    HW2 1779   4.301   6.174   1.828
  294SOL     OW 1780   5.790   5.736   0.084
  294SOL    HW1 1781   5.751   5.802   0.020
  294SOL    HW2 1782   5.832   5.661   0.034
  295SOL     OW 1783   2.408   2.029   5.310
  295SOL    HW1 1784   2.447   2.016   5.220
  295SOL    HW2 1785   2.344   2.107   5.308
  296SOL     OW 1786   6.835   2.217   1.977
  296SOL    HW1 1787   6.900   2.278   2.025
  296SOL    HW2 1788   6.776   2.172   2.044
  297SOL     OW 1789   3.384   5.001   3.152
  297SOL    HW1 1790   3.334   4.976   3.069
  297SOL    HW2 1791   3.321   5.003   3.230
  298SOL     OW 1792   4.390   6.920   0.088
  298SOL    HW1 1793   4.363   6.879   0.000
  298SOL    HW2 1794   4.372   6.855   0.162
  299SOL     OW 1795   4.586   2.123   6.619
  299SOL    HW1 1796   4.565   2.115   6.522
  299SOL    HW2 1797   4.529   2.059   6.671
  300SOL     OW 1798   4.209   0.413   2.548
  300SOL    HW1 1799   4.288   0.427   2.488
  300SOL    HW2 1800   4.186   0.500   2.593
  301SOL     OW 1801   5.001   1.435   1.197
  301SOL    HW1 1802   5.040   1.504   1.258
  301SOL    HW2 1803   4.908   1.461   1.171
  302SOL     OW 1804   6.912   0.768   2.482
  302SOL    HW1 1805   6.863   0.690   2.442
  302SOL    HW2 1806   6.861   0.803   2.560
  303SOL     OW 1807   6.463   5.738   2.045
  303SOL    HW1 1808   6.447   5.810   1.976
  303SOL    HW2 1809   6.517   5.776   2.120
  304SOL     OW 1810   2.169   6.195   6.546
  304SOL    HW1 1811   2.126   6.280   6.517
  304SOL    HW2 1812   2.138   6.171   6.638
  305SOL     OW 1813   1.298   3.110   0.944
  305SOL    HW1 1814   1.199   3.111   0.954
  305SOL    HW2 1815   1.339   3.174   1.008
  306SOL     OW 1816   0.317   1.005   2.798
  306SOL    HW1 1817   0.239   0.993   2.859
  306SOL    HW2 1818   0.370   1.084   2.829
  307SOL     OW 1819   4.071   4.316   0.216
  307SOL    HW1 1820   4.105   4.350   0.128
  307SOL    HW2 1821   4.013   4.386   0.258
  308SOL     OW 1822   5.630   2.497   4.138
  308SOL    HW1 1823   5.587   2.478   4.226
  308SOL    HW2 1824   5.588   2.578   4.097
  309SOL     OW 1825   1.654   6.254   0.064
  309SOL    HW1 1826   1.740   6.296   0.035
  309SOL    HW2 1827   1.670   6.200   0.147
  310SOL     OW 1828   5.053   6.231   4.659
  310SOL    HW1 1829   4.993   6.180   4.720
  310SOL    HW2 1830   4.999   6.274   4.587
  311SOL     OW 1831   3.037   5.222   2.711
  311SOL    HW1 1832   3.009   5.200   2.617
  311SOL    HW2 1833   3.085   5.144   2.750
  312SOL     OW 1834   3.556   2.042   4.055
  312SOL    HW1 1835   3.547   1.947   4.085
  312SOL    HW2 1836   3.470   2.090   4.068
  313SOL     OW 1837   3.313   4.078   2.466
  313SOL    HW1 1838   3.286   4.037   2.379
  313SOL    HW2 1839   3.412   4.094   2.465
  314SOL     OW 1840   2.341   4.830   5.589
  314SOL    HW1 1841   2.419   4.839   5.527
  314SOL    HW2 1842   2.353   4.889   5.668
  315SOL     OW 1843   1.042   2.202   4.197
  315SOL    HW1 1844   1.113   2.268   4.172
  315SOL    HW2 1845   0.969   2.248   4.246
  316SOL     OW 1846   3.687   0.563   4.316
  316SOL    HW1 1847   3.677   0.562   4.217
  316SOL    HW2 1848   3.745   0.487   4.344
  317SOL     OW 1849   0.220   1.584   1.292
  317SOL    HW1 1850   0.204   1.675   1.330
  317SOL    HW2 1851   0.182   1.515   1.354
  318SOL     OW 1852   6.818   6.697   6.987
  318SOL    HW1 1853   6.857   6.789   6.980
  318SOL    HW2 1854   6.843   6.643   6.907
  319SOL     OW 1855   6.451   1.540   3.393
  319SOL    HW1 1856   6.462   1.526   3.491
  319SOL    HW2 1857   6.414   1.631   3.375
  320SOL     OW 1858   5.713   2.816   0.355
  320SOL    HW1 1859   5.679   2.781   0.268
  320SOL    HW2 1860   5.731   2.914   0.347
  321SOL     OW 1861   4.032   2.214   7.009
  321SOL    HW1 1862   3.977   2.292   6.980
  321SOL    HW2 1863   4.057   2.225   0.079
  322SOL     OW 1864   3.192   2.998   4.364
  322SOL    HW1 1865   3.127   3.007   4.440
  322SOL    HW2 1866   3.227   3.088   4.339
  323SOL     OW 1867   1.011   2.590   5.764
  323SOL    HW1 1868   0.969   2.529   5.831
  323SOL    HW2 1869   1.022   2.541   5.677
  324SOL     OW 1870   2.592   0.371   3.252
  324SOL    HW1 1871   2.678   0.417   3.274
  324SOL    HW2 1872   2.602   0.323   3.164
  325SOL     OW 1873   0.418   2.961   2.017
  325SOL    HW1 1874   0.506   3.009   2.017
  325SOL    HW2 1875   0.406   2.913   1.931
  326SOL     OW 1876   0.904   4.383   6.229
  326SOL    HW1 1877   0.965   4.329   6.288
  326SOL    HW2 1878   0.809   4.365   6.255
  327SOL     OW 1879   2.246   4.679   2.875
  327SOL    HW1 1880   2.285   4.676   2.967
  327SOL    HW2 1881   2.230   4.774   2.849
  328SOL     OW 1882   1.941   5.096   2.140
  328SOL    HW1 1883   1.961   5.194   2.141
  328SOL    HW2 1884   2.020   5.046   2.105
  329SOL     OW 1885   2.914   3.495   5.673
  329SOL    HW1 1886   2.870   3.519   5.586
  329SOL    HW2 1887   2.844   3.463   5.737
  330SOL     OW 1888   3.071   6.601   1.010
  330SOL    HW1 1889   3.085   6.659   0.930
  330SOL    HW2 1890   3.145   6.533   1.015
  331SOL     OW 1891   4.390   5.628   0.442
  331SOL    HW1 1892   4.463   5.635   0.374
  331SOL    HW2 1893   4.403   5.698   0.512
  332SOL     OW 1894   5.442   2.792   5.359
  332SOL    HW1 1895   5.440   2.697   5.327
  332SOL    HW2 1896   5.515   2.803   5.425
  333SOL     OW 1897   4.508   0.725   5.705
  333SOL    HW1 1898   4.409   0.740   5.705
  333SOL    HW2 1899   4.534   0.675   5.788
  334SOL     OW 1900   3.103   1.999   0.139
  334SOL    HW1 1901   3.138   2.066   0.205
  334SOL    HW2 1902   3.065   1.921   0.189
  335SOL     OW 1903   3.803   0.152   6.454
  335SOL    HW1 1904   3.718   0.155   6.402
  335SOL    HW2 1905   3.799   0.076   6.520
  336SOL     OW 1906   3.216   0.941   3.219
  336SOL    HW1 1907   3.218   0.848   3.184
  336SOL    HW2 1908   3.122   0.976   3.216
  337SOL     OW 1909   6.842   3.301   5.311
  337SOL    HW1 1910   6.784   3.220   5.316
  337SOL    HW2 1911   6.815   3.365   5.383
  338SOL     OW 1912   2.866   2.354   1.410
  338SOL    HW1 1913   2.878   2.452   1.396
  338SOL    HW2 1914   2.915   2.325   1.491
  339SOL     OW 1915   4.500   5.558   4.661
  339SOL    HW1 1916   4.414   5.608   4.670
  339SOL    HW2 1917   4.568   5.616   4.618
  340SOL     OW 1918   5.614   3.290   4.421
  340SOL    HW1 1919   5.630   3.276   4.518
  340SOL    HW2 1920   5.534   3.238   4.392
  341SOL     OW 1921   6.157   6.455   4.702
  341SOL    HW1 1922   6.146   6.553   4.687
  341SOL    HW2 1923   6.109   6.429   4.786
  342SOL     OW 1924   5.682   3.533   0.135
  342SOL    HW1 1925   5.619   3.579   0.197
  342SOL    HW2 1926   5.737   3.467   0.187
  343SOL     OW 1927   0.818   6.000   1.586
  343SOL    HW1 1928   0.780   5.997   1.493
  343SOL    HW2 1929   0.823   6.095   1.617
  344SOL     OW 1930   0.799   3.373   1.968
  344SOL    HW1 1931   0.887   3.328   1.985
  344SOL    HW2 1932   0.791   3.396   1.871
  345SOL     OW 1933   5.159   2.202   3.274
  345SOL    HW1 1934   5.141   2.288   3.227
  345SOL    HW2 1935   5.100   2.130   3.237
  346SOL     OW 1936   1.833   1.410   2.388
  346SOL    HW1 1937   1.824   1.316   2.420
  346SOL    HW2 1938   1.883   1.411   2.301
  347SOL     OW 1939   2.883   5.894   0.172
  347SOL    HW1 1940   2.875   5.934   0.081
  347SOL    HW2 1941   2.948   5.818   0.169
  348SOL     OW 1942   4.883   3.713   2.639
  348SOL    HW1 1943   4.852   3.639   2.579
  348SOL    HW2 1944   4.893   3.797   2.586
  349SOL     OW 1945   0.048   5.219   1.538
  349SOL    HW1 1946   0.043   5.133   1.588
  349SOL    HW2 1947   0.141   5.256   1.544
  350SOL     OW 1948   2.926   2.022   1.572
  350SOL    HW1 1949   2.946   2.107   1.620
  350SOL    HW2 1950   2.837   1.987   1.602
  351SOL     OW 1951   2.518   3.472   0.885
  351SOL    HW1 1952   2.478   3.422   0.962
  351SOL    HW2 1953   2.608   3.507   0.912
  352SOL     OW 1954   3.318   6.816   3.664
  352SOL    HW1 1955   3.404   6.836   3.617
  352SOL    HW2 1956   3.244   6.870   3.624
  353SOL     OW 1957   3.204   0.323   6.851
  353SOL    HW1 1958   3.303   0.322   6.866
  353SOL    HW2 1959   3.159   0.371   6.927
  354SOL     OW 1960   4.544   2.213   1.680
  354SOL    HW1 1961   4.445   2.201   1.679
  354SOL    HW2 1962   4.588   2.124   1.690
  355SOL     OW 1963   1.396   4.585   2.964
  355SOL    HW1 1964   1.314   4.597   2.908
  355SOL    HW2 1965   1.384   4.630   3.052
  356SOL     OW 1966   2.163   0.692   5.375
  356SOL    HW1 1967   2.238   0.749   5.410
  356SOL    HW2 1968   2.101   0.668   5.450
  357SOL     OW 1969   6.983   6.648   5.193
  357SOL    HW1 1970   6.956   6.673   5.100
  357SOL    HW2 1971   6.914   6.679   5.258
  358SOL     OW 1972   4.649   6.336   0.570
  358SOL    HW1 1973   4.555   6.313   0.546
  358SOL    HW2 1974   4.663   6.326   0.668
  359SOL     OW 1975   3.014   1.878   1.853
  359SOL    HW1 1976   2.982   1.821   1.777
  359SOL    HW2 1977   2.967   1.966   1.850
  360SOL     OW 1978   1.249   4.519   5.561
  360SOL    HW1 1979   1.328   4.526   5.500
  360SOL    HW2 1980   1.255   4.591   5.630
  361SOL     OW 1981   6.931   6.279   3.148
  361SOL    HW1 1982   6.920   6.215   3.073
  361SOL    HW2 1983   6.900   6.238   3.234
  362SOL     OW 1984   3.441   2.630   1.509
  362SOL    HW1 1985   3.450   2.604   1.413
  362SOL    HW2 1986   3.521   2.600   1.560
  363SOL     OW 1987   5.523   3.892   2.978
  363SOL    HW1 1988   5.448   3.956   2.963
  363SOL    HW2 1989   5.610   3.934   2.953
  364SOL     OW 1990   6.472   4.846   6.550
  364SOL    HW1 1991   6.558   4.876   6.592
  364SOL    HW2 1992   6.447   4.910   6.477
  365SOL     OW 1993   5.314   0.033   2.256
  365SOL    HW1 1994   5.241   0.008   2.192
  365SOL    HW2 1995   5.380   0.092   2.211
  366SOL     OW 1996   5.502   1.339   6.782
  366SOL    HW1 1997   5.535   1.252   6.745
  366SOL    HW2 1998   5.579   1.391   6.818
  367SOL     OW 1999   5.978   2.219   1.482
  367SOL    HW1 2000   6.062   2.167   1.496
  367SOL    HW2 2001   5.899   2.160   1.500
  368SOL     OW 2002   0.557   2.731   5.545
  368SOL    HW1 2003   0.484   2.719   5.613
  368SOL    HW2 2004   0.592   2.824   5.549
  369SOL     OW 2005   5.966   4.982   2.683
  369SOL    HW1 2006   6.063   4.990   2.658
  369SOL    HW2 2007   5.913   4.960   2.601
  370SOL     OW 2008   1.608   1.390   5.303
  370SOL    HW1 2009   1.675   1.316   5.292
  370SOL    HW2 2010   1.629   1.463   5.237
  371SOL     OW 2011   1.495   4.922   5.778
  371SOL    HW1 2012   1.433   4.874   5.840
  371SOL    HW2 2013   1.589   4.908   5.808
  372SOL     OW 2014   1.861   0.035   6.250
  372SOL    HW1 2015   1.890   0.131   6.252
  372SOL    HW2 2016   1.772   0.028   6.206
  373SOL     OW 2017   6.224   6.108   4.881
  373SOL    HW1 2018   6.209   6.032   4.945
  373SOL    HW2 2019   6.136   6.141   4.848
  374SOL     OW 2020   2.770   1.833   4.329
  374SOL    HW1 2021   2.773   1.733   4.330
  374SOL    HW2 2022   2.841   1.870   4.389
  375SOL     OW 2023   0.801   4.527   3.438
  375SOL    HW1 2024   0.727   4.470   3.475
  375SOL    HW2 2025   0.772   4.623   3.436
  376SOL     OW 2026   2.264   1.265   5.284
  376SOL    HW1 2027   2.236   1.250   5.378
  376SOL    HW2 2028   2.201   1.329   5.240
  377SOL     OW 2029   1.141   1.898   0.803
  377SOL    HW1 2030   1.180   1.827   0.861
  377SOL    HW2 2031   1.052   1.925   0.838
  378SOL     OW 2032   4.528   2.393   6.726
  378SOL    HW1 2033   4.561   2.432   6.812
  378SOL    HW2 2034   4.587   2.316   6.700
  379SOL     OW 2035   6.365   2.269   1.680
  379SOL    HW1 2036   6.294   2.248   1.747
  379SOL    HW2 2037   6.450   2.290   1.727
  380SOL     OW 2038   3.307   1.087   0.683
  380SOL    HW1 2039   3.259   1.011   0.639
  380SOL    HW2 2040   3.387   1.053   0.732
  381SOL     OW 2041   1.976   4.076   3.170
  381SOL    HW1 2042   2.061   4.103   3.125
  381SOL    HW2 2043   1.920   4.023   3.107
  382SOL     OW 2044   6.076   0.948   0.122
  382SOL    HW1 2045   6.165   0.909   0.144
  382SOL    HW2 2046   6.078   1.047   0.134
  383SOL     OW 2047   3.915   3.627   6.526
  383SOL    HW1 2048   4.002   3.595   6.490
  383SOL    HW2 2049   3.880   3.701   6.470
  384SOL     OW 2050   6.685   5.494   4.299
  384SOL    HW1 2051   6.585   5.490   4.304
  384SOL    HW2 2052   6.717   5.579   4.340
  385SOL     OW 2053   3.116   4.833   5.113
  385SOL    HW1 2054   3.207   4.801   5.140
  385SOL    HW2 2055   3.054   4.756   5.107
  386SOL     OW 2056   2.904   6.770   4.136
  386SOL    HW1 2057   2.936   6.849   4.190
  386SOL    HW2 2058   2.810   6.748   4.163
  387SOL     OW 2059   1.316   6.750   2.571
  387SOL    HW1 2060   1.330   6.651   2.575
  387SOL    HW2 2061   1.328   6.782   2.477
  388SOL     OW 2062   1.114   2.476   5.418
  388SOL    HW1 2063   1.025   2.431   5.425
  388SOL    HW2 2064   1.139   2.485   5.321
  389SOL     OW 2065   3.850   3.806   1.663
  389SOL    HW1 2066   3.926   3.775   1.606
  389SOL    HW2 2067   3.768   3.755   1.639
  390SOL     OW 2068   2.653   1.752   2.318
  390SOL    HW1 2069   2.697   1.840   2.302
  390SOL    HW2 2070   2.671   1.722   2.411
  391SOL     OW 2071   2.356   2.246   6.578
  391SOL    HW1 2072   2.276   2.249   6.638
  391SOL    HW2 2073   2.403   2.159   6.588
  392SOL     OW 2074   1.494   4.643   0.187
  392SOL    HW1 2075   1.472   4.547   0.176
  392SOL    HW2 2076   1.443   4.680   0.265
  393SOL     OW 2077   1.061   4.311   6.437
  393SOL    HW1 2078   1.012   4.370   6.502
  393SOL    HW2 2079   1.152   4.291   6.473
  394SOL     OW 2080   6.891   1.837   0.093
  394SOL    HW1 2081   6.895   1.776   0.014
  394SOL    HW2 2082   6.897   1.783   0.177
  395SOL     OW 2083   4.868   3.767   2.951
  395SOL    HW1 2084   4.842   3.700   2.882
  395SOL    HW2 2085   4.948   3.818   2.921
  396SOL     OW 2086   3.446   3.742   1.375
  396SOL    HW1 2087   3.467   3.780   1.285
  396SOL    HW2 2088   3.437   3.643   1.369
  397SOL     OW 2089   5.741   1.373   5.664
  397SOL    HW1 2090   5.685   1.340   5.740
  397SOL    HW2 2091   5.682   1.392   5.585
  398SOL     OW 2092   0.679   6.363   2.122
  398SOL    HW1 2093   0.746   6.294   2.095
  398SOL    HW2 2094   0.711   6.409   2.205
  399SOL     OW 2095   6.290   6.241   2.605
  399SOL    HW1 2096   6.277   6.223   2.702
  399SOL    HW2 2097   6.388   6.252   2.586
  400SOL     OW 2098   6.672   6.296   5.740
  400SOL    HW1 2099   6.647   6.357   5.665
  400SOL    HW2 2100   6.769   6.273   5.733
  401SOL     OW 2101   5.449   0.727   5.948
  401SOL    HW1 2102   5.466   0.809   6.003
  401SOL    HW2 2103   5.498   0.734   5.862
  402SOL     OW 2104   5.748   6.818   3.404
  402SOL    HW1 2105   5.731   6.737   3.347
  402SOL    HW2 2106   5.684   6.891   3.379
  403SOL     OW 2107   3.827   2.071   4.141
  403SOL    HW1 2108   3.872   1.986   4.114
  403SOL    HW2 2109   3.728   2.062   4.128
  404SOL     OW 2110   1.583   4.812   4.390
  404SOL    HW1 2111   1.525   4.759   4.451
  404SOL    HW2 2112   1.679   4.788   4.405
  405SOL     OW 2113   1.278   3.861   1.731
  405SOL    HW1 2114   1.345   3.871   1.657
  405SOL    HW2 2115   1.304   3.920   1.807
  406SOL     OW 2116   1.125   4.532   4.329
  406SOL    HW1 2117   1.177   4.458   4.287
  406SOL    HW2 2118   1.176   4.618   4.321
  407SOL     OW 2119   1.565   0.595   4.008
  407SOL    HW1 2120   1.650   0.622   4.053
  407SOL    HW2 2121   1.506   0.548   4.073
  408SOL     OW 2122   1.360   2.007   2.821
  408SOL    HW1 2123   1.325   1.920   2.856
  408SOL    HW2 2124   1.302   2.081   2.854
  409SOL     OW 2125   6.872   2.958   1.662
  409SOL    HW1 2126   6.908   3.042   1.620
  409SOL    HW2 2127   6.779   2.976   1.696
  410SOL     OW 2128   1.688   1.600   1.474
  410SOL    HW1 2129   1.644   1.530   1.418
  410SOL    HW2 2130   1.775   1.625   1.434
  411SOL     OW 2131   5.625   6.881   1.906
  411SOL    HW1 2132   5.677   6.966   1.902
  411SOL    HW2 2133   5.532   6.896   1.874
  412SOL     OW 2134   4.359   6.086   4.135
  412SOL    HW1 2135   4.357   6.169   4.189
  412SOL    HW2 2136   4.292   6.021   4.171
  413SOL     OW 2137   4.913   3.714   1.534
  413SOL    HW1 2138   4.923   3.739   1.437
  413SOL    HW2 2139   4.849   3.776   1.578
  414SOL     OW 2140   3.797   5.859   3.520
  414SOL    HW1 2141   3.833   5.770   3.492
  414SOL    HW2 2142   3.726   5.887   3.456
  415SOL     OW 2143   1.131   6.111   6.655
  415SOL    HW1 2144   1.108   6.016   6.635
  415SOL    HW2 2145   1.181   6.150   6.577
  416SOL     OW 2146   5.119   6.676   4.058
  416SOL    HW1 2147   5.107   6.775   4.047
  416SOL    HW2 2148   5.170   6.640   3.979
  417SOL     OW 2149   2.632   5.594   6.137
  417SOL    HW1 2150   2.557   5.613   6.073
  417SOL    HW2 2151   2.600   5.611   6.230
  418SOL     OW 2152   4.161   6.558   6.956
  418SOL    HW1 2153   4.077   6.528   6.911
  418SOL    HW2 2154   4.153   6.543   0.029
  419SOL     OW 2155   2.168   0.117   1.816
  419SOL    HW1 2156   2.070   0.135   1.810
  419SOL    HW2 2157   2.183   0.022   1.842
  420SOL     OW 2158   5.917   1.396   0.072
  420SOL    HW1 2159   5.941   1.376   7.004
  420SOL    HW2 2160   5.955   1.485   0.098
  421SOL     OW 2161   0.368   4.527   6.128
  421SOL    HW1 2162   0.324   4.504   6.041
  421SOL    HW2 2163   0.300   4.527   6.201
  422SOL     OW 2164   6.018   3.585   1.685
  422SOL    HW1 2165   6.094   3.583   1.620
  422SOL    HW2 2166   5.989   3.491   1.704
  423SOL     OW 2167   0.901   2.186   6.327
  423SOL    HW1 2168   0.828   2.128   6.291
  423SOL    HW2 2169   0.958   2.133   6.391
  424SOL     OW 2170   2.229   5.103   0.931
  424SOL    HW1 2171   2.312   5.099   0.874
  424SOL    HW2 2172   2.229   5.025   0.994
  425SOL     OW 2173   5.173   1.606   3.632
  425SOL    HW1 2174   5.220   1.694   3.639
  425SOL    HW2 2175   5.224   1.537   3.684
  426SOL     OW 2176   3.717   2.026   4.658
  426SOL    HW1 2177   3.629   2.066   4.635
  426SOL    HW2 2178   3.787   2.062   4.596
  427SOL     OW 2179   5.436   6.537   3.706
  427SOL    HW1 2180   5.336   6.547   3.700
  427SOL    HW2 2181   5.477   6.561   3.618
  428SOL     OW 2182   4.121   0.230   4.575
  428SOL    HW1 2183   4.028   0.199   4.595
  428SOL    HW2 2184   4.164   0.262   4.660
  429SOL     OW 2185   1.178   4.195   1.457
  429SOL    HW1 2186   1.275   4.205   1.478
  429SOL    HW2 2187   1.126   4.261   1.511
  430SOL     OW 2188   0.646   0.687   4.820
  430SOL    HW1 2189   0.581   0.659   4.891
  430SOL    HW2 2190   0.667   0.609   4.762
  431SOL     OW 2191   2.830   0.439   0.744
  431SOL    HW1 2192   2.846   0.476   0.653
  431SOL    HW2 2193   2.747   0.382   0.743
  432SOL     OW 2194   6.367   1.869   0.768
  432SOL    HW1 2195   6.427   1.836   0.695
  432SOL    HW2 2196   6.281   1.903   0.728
  433SOL     OW 2197   2.585   6.729   4.858
  433SOL    HW1 2198   2.656   6.717   4.788
  433SOL    HW2 2199   2.537   6.643   4.872
  434SOL     OW 2200   3.177   5.643   3.011
  434SOL    HW1 2201   3.077   5.639   3.024
  434SOL    HW2 2202   3.199   5.711   2.942
  435SOL     OW 2203   5.184   2.747   6.744
  435SOL    HW1 2204   5.124   2.671   6.719
  435SOL    HW2 2205   5.232   2.725   6.829
  436SOL     OW 2206   2.870   5.878   1.626
  436SOL    HW1 2207   2.805   5.944   1.589
  436SOL    HW2 2208   2.870   5.795   1.570
  437SOL     OW 2209   0.875   1.569   0.056
  437SOL    HW1 2210   0.835   1.483   0.088
  437SOL    HW2 2211   0.863   1.639   0.126
  438SOL     OW 2212   1.897   4.045   3.478
  438SOL    HW1 2213   1.876   4.117   3.544
  438SOL    HW2 2214   1.975   4.073   3.422
  439SOL     OW 2215   5.708   4.906   2.846
  439SOL    HW1 2216   5.799   4.896   2.888
  439SOL    HW2 2217   5.655   4.973   2.897
  440SOL     OW 2218   2.259   1.461   4.933
  440SOL    HW1 2219   2.218   1.479   5.022
  440SOL    HW2 2220   2.357   1.481   4.936
  441SOL     OW 2221   0.535   2.994   4.065
  441SOL    HW1 2222   0.586   3.077   4.043
  441SOL    HW2 2223   0.543   2.929   3.990
  442SOL     OW 2224   3.737   5.197   5.622
  442SOL    HW1 2225   3.742   5.101   5.650
  442SOL    HW2 2226   3.829   5.230   5.601
  443SOL     OW 2227   6.093   4.747   3.929
  443SOL    HW1 2228   6.157   4.749   3.852
  443SOL    HW2 2229   6.144   4.738   4.014
  444SOL     OW 2230   4.849   0.547   5.902
  444SOL    HW1 2231   4.865   0.565   5.999
  444SOL    HW2 2232   4.924   0.586   5.849
  445SOL     OW 2233   0.912   5.592   3.081
  445SOL    HW1 2234   1.002   5.558   3.109
  445SOL    HW2 2235   0.918   5.629   2.988
  446SOL     OW 2236   2.721   5.607   3.989
  446SOL    HW1 2237   2.772   5.523   4.006
  446SOL    HW2 2238   2.653   5.620   4.061
  447SOL     OW 2239   0.374   2.871   6.221
  447SOL    HW1 2240   0.449   2.806   6.230
  447SOL    HW2 2241   0.390   2.931   6.143
  448SOL     OW 2242   2.005   0.396   3.331
  448SOL    HW1 2243   1.978   0.314   3.280
  448SOL    HW2 2244   2.060   0.455   3.272
  449SOL     OW 2245   3.631   1.162   3.886
  449SOL    HW1 2246   3.718   1.176   3.839
  449SOL    HW2 2247   3.562   1.133   3.820
  450SOL     OW 2248   1.237   5.368   2.693
  450SOL    HW1 2249   1.185   5.349   2.776
  450SOL    HW2 2250   1.230   5.465   2.671
  451SOL     OW 2251   1.542   2.355   3.547
  451SOL    HW1 2252   1.462   2.357   3.606
  451SOL    HW2 2253   1.541   2.273   3.491
  452SOL     OW 2254   5.415   6.672   0.660
  452SOL    HW1 2255   5.319   6.651   0.642
  452SOL    HW2 2256   5.460   6.700   0.576
  453SOL     OW 2257   4.391   0.455   6.131
  453SOL    HW1 2258   4.404   0.517   6.208
  453SOL    HW2 2259   4.318   0.490   6.071
  454SOL     OW 2260   6.588   4.547   6.374
  454SOL    HW1 2261   6.606   4.561   6.472
  454SOL    HW2 2262   6.548   4.630   6.335
  455SOL     OW 2263   5.809   2.391   3.916
  455SOL    HW1 2264   5.761   2.430   3.994
  455SOL    HW2 2265   5.823   2.461   3.846
  456SOL     OW 2266   6.219   6.689   3.778
  456SOL    HW1 2267   6.155   6.696   3.854
  456SOL    HW2 2268   6.311   6.673   3.814
  457SOL     OW 2269   1.901   2.442   4.013
  457SOL    HW1 2270   1.890   2.347   4.042
  457SOL    HW2 2271   1.846   2.501   4.072
  458SOL     OW 2272   4.379   5.857   3.180
  458SOL    HW1 2273   4.331   5.928   3.129
  458SOL    HW2 2274   4.410   5.894   3.267
  459SOL     OW 2275   1.662   6.672   5.652
  459SOL    HW1 2276   1.615   6.640   5.570
  459SOL    HW2 2277   1.745   6.619   5.666
  460SOL     OW 2278   2.428   6.317   3.894
  460SOL    HW1 2279   2.463   6.376   3.821
  460SOL    HW2 2280   2.498   6.250   3.920
  461SOL     OW 2281   6.666   6.188   6.486
  461SOL    HW1 2282   6.684   6.139   6.401
  461SOL    HW2 2283   6.687   6.285   6.473
  462SOL     OW 2284   4.071   3.314   0.002
  462SOL    HW1 2285   4.008   3.352   6.960
  462SOL    HW2 2286   4.028   3.318   0.092
  463SOL     OW 2287   5.379   5.884   3.350
  463SOL    HW1 2288   5.392   5.937   3.434
  463SOL    HW2 2289   5.281   5.876   3.331
  464SOL     OW 2290   2.533   1.716   5.656
  464SOL    HW1 2291   2.468   1.659   5.606
  464SOL    HW2 2292   2.520   1.812   5.632
  465SOL     OW 2293   0.594   2.937   0.319
  465SOL    HW1 2294   0.578   2.879   0.238
  465SOL    HW2 2295   0.672   2.997   0.302
  466SOL     OW 2296   1.300   6.227   3.629
  466SOL    HW1 2297   1.233   6.209   3.557
  466SOL    HW2 2298   1.356   6.145   3.643
  467SOL     OW 2299   1.447   1.038   0.900
  467SOL    HW1 2300   1.532   0.988   0.916
  467SOL    HW2 2301   1.442   1.064   0.803
  468SOL     OW 2302   3.629   0.028   6.116
  468SOL    HW1 2303   3.707   0.004   6.058
  468SOL    HW2 2304   3.608   0.126   6.106
  469SOL     OW 2305   2.774   3.261   6.474
  469SOL    HW1 2306   2.698   3.320   6.447
  469SOL    HW2 2307   2.833   3.243   6.395
  470SOL     OW 2308   4.587   6.225   1.602
  470SOL    HW1 2309   4.562   6.131   1.624
  470SOL    HW2 2310   4.613   6.273   1.686
  471SOL     OW 2311   2.498   2.538   3.636
  471SOL    HW1 2312   2.541   2.534   3.546
  471SOL    HW2 2313   2.447   2.453   3.652
  472SOL     OW 2314   4.321   3.399   0.024
  472SOL    HW1 2315   4.225   3.373   0.021
  472SOL    HW2 2316   4.378   3.318   0.037
  473SOL     OW 2317   1.687   2.293   2.748
  473SOL    HW1 2318   1.661   2.201   2.717
  473SOL    HW2 2319   1.605   2.350   2.753
  474SOL     OW 2320   5.573   5.283   4.387
  474SOL    HW1 2321   5.650   5.235   4.428
  474SOL    HW2 2322   5.591   5.298   4.289
  475SOL     OW 2323   5.809   1.152   6.466
  475SOL    HW1 2324   5.896   1.109   6.491
  475SOL    HW2 2325   5.764   1.099   6.394
  476SOL     OW 2326   0.349   3.116   2.930
  476SOL    HW1 2327   0.436   3.080   2.965
  476SOL    HW2 2328   0.292   3.040   2.899
  477SOL     OW 2329   2.407   6.001   3.006
  477SOL    HW1 2330   2.390   6.030   3.101
  477SOL    HW2 2331   2.417   6.081   2.948
  478SOL     OW 2332   3.457   6.329   2.507
  478SOL    HW1 2333   3.552   6.356   2.522
  478SOL    HW2 2334   3.413   6.396   2.447
  479SOL     OW 2335   4.298   2.121   6.087
  479SOL    HW1 2336   4.336   2.028   6.082
  479SOL    HW2 2337   4.267   2.149   5.996
  480SOL     OW 2338   2.839   0.625   0.198
  480SOL    HW1 2339   2.807   0.720   0.196
  480SOL    HW2 2340   2.822   0.586   0.288
  481SOL     OW 2341   1.905   6.970   1.425
  481SOL    HW1 2342   1.932   6.934   1.335
  481SOL    HW2 2343   1.948   0.033   1.439
  482SOL     OW 2344   4.043   4.719   2.145
  482SOL    HW1 2345   3.968   4.727   2.210
  482SOL    HW2 2346   4.124   4.683   2.191
  483SOL     OW 2347   6.319   1.520   2.127
  483SOL    HW1 2348   6.243   1.459   2.148
  483SOL    HW2 2349   6.394   1.505   2.191
  484SOL     OW 2350   1.735   3.421   4.833
  484SOL    HW1 2351   1.658   3.485   4.840
  484SOL    HW2 2352   1.804   3.444   4.901
  485SOL     OW 2353   4.066   5.508   2.909
  485SOL    HW1 2354   3.980   5.504   2.857
  485SOL    HW2 2355   4.051   5.471   3.001
  486SOL     OW 2356   6.571   1.815   0.589
  486SOL    HW1 2357   6.554   1.729   0.540
  486SOL    HW2 2358   6.669   1.831   0.594
  487SOL     OW 2359   0.785   0.626   2.834
  487SOL    HW1 2360   0.759   0.720   2.858
  487SOL    HW2 2361   0.716   0.587   2.773
  488SOL     OW 2362   0.829   1.230   1.806
  488SOL    HW1 2363   0.791   1.140   1.830
  488SOL    HW2 2364   0.860   1.229   1.711
  489SOL     OW 2365   4.405   6.082   5.878
  489SOL    HW1 2366   4.441   5.997   5.839
  489SOL    HW2 2367   4.315   6.101   5.839
  490SOL     OW 2368   0.558   6.093   2.694
  490SOL    HW1 2369   0.615   6.165   2.733
  490SOL    HW2 2370   0.509   6.047   2.768
  491SOL     OW 2371   0.972   3.891   2.185
  491SOL    HW1 2372   1.047   3.876   2.120
  491SOL    HW2 2373   0.937   3.803   2.216
  492SOL     OW 2374   1.315   0.495   5.137
  492SOL    HW1 2375   1.253   0.417   5.141
  492SOL    HW2 2376   1.376   0.485   5.059
  493SOL     OW 2377   4.832   6.341   5.637
  493SOL    HW1 2378   4.754   6.351   5.575
  493SOL    HW2 2379   4.914   6.318   5.584
  494SOL     OW 2380   0.596   6.299   6.676
  494SOL    HW1 2381   0.499   6.281   6.695
  494SOL    HW2 2382   0.621   6.388   6.713
  495SOL     OW 2383   4.645   5.937   3.557
  495SOL    HW1 2384   4.600   6.022   3.531
  495SOL    HW2 2385   4.679   5.945   3.651
  496SOL     OW 2386   5.111   2.776   1.763
  496SOL    HW1 2387   5.061   2.774   1.850
  496SOL    HW2 2388   5.124   2.683   1.730
  497SOL     OW 2389   2.856   1.823   4.950
  497SOL    HW1 2390   2.797   1.866   5.018
  497SOL    HW2 2391   2.814   1.828   4.860
  498SOL     OW 2392   0.840   4.350   1.270
  498SOL    HW1 2393   0.815   4.415   1.199
  498SOL    HW2 2394   0.826   4.392   1.360
  499SOL     OW 2395   1.409   5.929   4.411
  499SOL    HW1 2396   1.409   6.025   4.441
  499SOL    HW2 2397   1.492   5.911   4.358
  500SOL     OW 2398   0.010   2.220   5.973
  500SOL    HW1 2399   0.002   2.167   6.058
  500SOL    HW2 2400   6.970   2.186   5.907
  501SOL     OW 2401   3.063   6.970   0.848
  501SOL    HW1 2402   3.061   0.016   0.778
  501SOL    HW2 2403   3.062   6.881   0.803
  502SOL     OW 2404   1.001   3.689   6.251
  502SOL    HW1 2405   1.035   3.666   6.342
  502SOL    HW2 2406   1.069   3.745   6.203
  503SOL     OW 2407   6.959   5.075   6.639
  503SOL    HW1 2408   6.949   5.059   6.738
  503SOL    HW2 2409   6.873   5.113   6.603
  504SOL     OW 2410   0.975   5.156   2.673
  504SOL    HW1 2411   0.895   5.101   2.648
  504SOL    HW2 2412   1.058   5.107   2.645
  505SOL     OW 2413   3.012   6.038   4.996
  505SOL    HW1 2414   2.967   5.983   5.065
  505SOL    HW2 2415   3.109   6.050   5.020
  506SOL     OW 2416   3.006   4.828   4.119
  506SOL    HW1 2417   2.939   4.759   4.091
  506SOL    HW2 2418   2.959   4.904   4.163
  507SOL     OW 2419   3.531   6.888   3.498
  507SOL    HW1 2420   3.496   6.955   3.434
  507SOL    HW2 2421   3.631   6.893   3.500
  508SOL     OW 2422   6.558   3.608   2.926
  508SOL    HW1 2423   6.555   3.526   2.869
  508SOL    HW2 2424   6.526   3.686   2.873
  509SOL     OW 2425   2.685   1.560   1.525
  509SOL    HW1 2426   2.664   1.603   1.612
  509SOL    HW2 2427   2.783   1.542   1.519
  510SOL     OW 2428   6.354   3.953   6.493
  510SOL    HW1 2429   6.332   3.988   6.584
  510SOL    HW2 2430   6.415   4.017   6.446
  511SOL     OW 2431   1.069   2.525   6.208
  511SOL    HW1 2432   1.163   2.493   6.216
  511SOL    HW2 2433   1.022   2.513   6.295
  512SOL     OW 2434   6.511   3.029   6.148
  512SOL    HW1 2435   6.505   3.104   6.083
  512SOL    HW2 2436   6.588   3.045   6.211
  513SOL     OW 2437   5.881   6.902   3.636
  513SOL    HW1 2438   5.835   6.850   3.565
  513SOL    HW2 2439   5.848   6.874   3.726
  514SOL     OW 2440   6.411   1.156   4.289
  514SOL    HW1 2441   6.396   1.172   4.387
  514SOL    HW2 2442   6.401   1.058   4.269
  515SOL     OW 2443   0.996   6.658   0.166
  515SOL    HW1 2444   0.947   6.615   0.090
  515SOL    HW2 2445   1.034   6.745   0.136
  516SOL     OW 2446   2.967   4.807   2.171
  516SOL    HW1 2447   2.925   4.889   2.132
  516SOL    HW2 2448   2.928   4.725   2.129
  517SOL     OW 2449   4.211   5.473   1.439
  517SOL    HW1 2450   4.197   5.572   1.443
  517SOL    HW2 2451   4.303   5.453   1.404
  518SOL     OW 2452   2.530   2.056   3.396
  518SOL    HW1 2453   2.500   2.097   3.482
  518SOL    HW2 2454   2.543   1.958   3.408
  519SOL     OW 2455   0.313   6.159   4.251
  519SOL    HW1 2456   0.348   6.108   4.172
  519SOL    HW2 2457   0.217   6.181   4.235
  520SOL     OW 2458   6.184   3.474   6.806
  520SOL    HW1 2459   6.243   3.399   6.836
  520SOL    HW2 2460   6.092   3.461   6.845
  521SOL     OW 2461   6.179   5.650   5.309
  521SOL    HW1 2462   6.118   5.616   5.238
  521SOL    HW2 2463   6.125   5.677   5.389
  522SOL     OW 2464   3.479   3.151   4.886
  522SOL    HW1 2465   3.508   3.154   4.790
  522SOL    HW2 2466   3.559   3.137   4.944
  523SOL     OW 2467   1.130   5.843   1.150
  523SOL    HW1 2468   1.077   5.928   1.146
  523SOL    HW2 2469   1.226   5.865   1.171
  524SOL     OW 2470   0.526   1.605   2.619
  524SOL    HW1 2471   0.498   1.563   2.705
  524SOL    HW2 2472   0.470   1.686   2.602
  525SOL     OW 2473   1.987   4.087   5.872
  525SOL    HW1 2474   2.035   4.095   5.784
  525SOL    HW2 2475   2.036   4.141   5.941
  526SOL     OW 2476   4.082   5.547   3.900
  526SOL    HW1 2477   3.987   5.525   3.881
  526SOL    HW2 2478   4.093   5.645   3.913
  527SOL     OW 2479   6.189   2.738   0.558
  527SOL    HW1 2480   6.282   2.739   0.521
  527SOL    HW2 2481   6.125   2.705   0.489
  528SOL     OW 2482   1.109   2.255   3.791
  528SOL    HW1 2483   1.030   2.249   3.852
  528SOL    HW2 2484   1.193   2.257   3.845
  529SOL     OW 2485   1.158   6.443   4.760
  529SOL    HW1 2486   1.152   6.405   4.852
  529SOL    HW2 2487   1.244   6.413   4.717
  530SOL     OW 2488   3.497   3.237   4.006
  530SOL    HW1 2489   3.515   3.180   3.926
  530SOL    HW2 2490   3.398   3.241   4.023
  531SOL     OW 2491   0.538   1.969   2.996
  531SOL    HW1 2492   0.551   2.039   3.067
  531SOL    HW2 2493   0.626   1.942   2.959
  532SOL     OW 2494   0.638   3.170   6.801
  532SOL    HW1 2495   0.736   3.184   6.814
  532SOL    HW2 2496   0.593   3.160   6.890
  533SOL     OW 2497   3.900   6.406   4.129
  533SOL    HW1 2498   3.801   6.414   4.129
  533SOL    HW2 2499   3.925   6.310   4.115
  534SOL     OW 2500   5.498   6.069   2.064
  534SOL    HW1 2501   5.551   6.116   2.134
  534SOL    HW2 2502   5.517   5.971   2.067
  535SOL     OW 2503   6.857   3.389   4.465
  535SOL    HW1 2504   6.838   3.478   4.422
  535SOL    HW2 2505   6.891   3.325   4.396
  536SOL     OW 2506   5.929   4.901   2.227
  536SOL    HW1 2507   5.900   4.978   2.171
  536SOL    HW2 2508   5.858   4.830   2.226
  537SOL     OW 2509   2.700   6.688   4.579
  537SOL    HW1 2510   2.785   6.715   4.624
  537SOL    HW2 2511   2.689   6.741   4.494
  538SOL     OW 2512   1.160   5.116   3.919
  538SOL    HW1 2513   1.190   5.039   3.864
  538SOL    HW2 2514   1.060   5.123   3.916
  539SOL     OW 2515   1.993   5.787   1.311
  539SOL    HW1 2516   1.938   5.747   1.384
  539SOL    HW2 2517   1.953   5.874   1.283
  540SOL     OW 2518   1.582   1.398   3.090
  540SOL    HW1 2519   1.636   1.468   3.041
  540SOL    HW2 2520   1.584   1.313   3.038
  541SOL     OW 2521   4.813   5.442   3.583
  541SOL    HW1 2522   4.731   5.402   3.542
  541SOL    HW2 2523   4.858   5.375   3.641
  542SOL     OW 2524   5.729   6.115   6.472
  542SOL    HW1 2525   5.826   6.123   6.496
  542SOL    HW2 2526   5.708   6.173   6.394
  543SOL     OW 2527   0.888   3.019   4.876
  543SOL    HW1 2528   0.795   3.000   4.845
  543SOL    HW2 2529   0.903   3.118   4.876
  544SOL     OW 2530   1.814   4.870   6.902
  544SOL    HW1 2531   1.732   4.924   6.881
  544SOL    HW2 2532   1.889   4.932   6.925
  545SOL     OW 2533   3.486   1.453   1.586
  545SOL    HW1 2534   3.519   1.369   1.543
  545SOL    HW2 2535   3.434   1.507   1.519
  546SOL     OW 2536   1.914   3.271   0.556
  546SOL    HW1 2537   1.921   3.178   0.593
  546SOL    HW2 2538   1.858   3.269   0.473
  547SOL     OW 2539   3.377   0.854   0.345
  547SOL    HW1 2540   3.284   0.888   0.358
  547SOL    HW2 2541   3.424   0.911   0.277
  548SOL     OW 2542   3.631   3.444   2.250
  548SOL    HW1 2543   3.634   3.544   2.255
  548SOL    HW2 2544   3.536   3.414   2.242
  549SOL     OW 2545   5.267   3.049   1.281
  549SOL    HW1 2546   5.238   3.140   1.252
  549SOL    HW2 2547   5.195   2.983   1.261
  550SOL     OW 2548   0.913   5.156   3.847
  550SOL    HW1 2549   0.921   5.256   3.840
  550SOL    HW2 2550   0.818   5.130   3.832
  551SOL     OW 2551   1.354   0.706   2.479
  551SOL    HW1 2552   1.349   0.724   2.577
  551SOL    HW2 2553   1.275   0.746   2.434
  552SOL     OW 2554   5.821   4.331   6.932
  552SOL    HW1 2555   5.808   4.257   6.997
  552SOL    HW2 2556   5.733   4.374   6.912
  553SOL     OW 2557   2.743   6.583   2.843
  553SOL    HW1 2558   2.830   6.606   2.801
  553SOL    HW2 2559   2.716   6.656   2.906
  554SOL     OW 2560   5.668   0.347   6.794
  554SOL    HW1 2561   5.615   0.348   6.879
  554SOL    HW2 2562   5.691   0.253   6.770
  555SOL     OW 2563   2.054   4.355   4.286
  555SOL    HW1 2564   2.061   4.424   4.215
  555SOL    HW2 2565   1.957   4.333   4.302
  556SOL     OW 2566   4.098   2.111   3.668
  556SOL    HW1 2567   4.105   2.192   3.610
  556SOL    HW2 2568   4.063   2.034   3.614
  557SOL     OW 2569   0.212   5.315   0.955
  557SOL    HW1 2570   0.129   5.369   0.966
  557SOL    HW2 2571   0.261   5.345   0.872
  558SOL     OW 2572   3.123   3.093   4.611
  558SOL    HW1 2573   3.150   3.079   4.706
  558SOL    HW2 2574   3.076   3.181   4.602
  559SOL     OW 2575   6.808   6.123   0.229
  559SOL    HW1 2576   6.770   6.214   0.211
  559SOL    HW2 2577   6.747   6.053   0.192
  560SOL     OW 2578   5.058   4.884   6.667
  560SOL    HW1 2579   5.128   4.853   6.601
  560SOL    HW2 2580   4.982   4.926   6.617
  561SOL     OW 2581   0.866   1.528   1.501
  561SOL    HW1 2582   0.821   1.568   1.581
  561SOL    HW2 2583   0.811   1.548   1.419
  562SOL     OW 2584   4.927   0.596   6.163
  562SOL    HW1 2585   4.974   0.683   6.150
  562SOL    HW2 2586   4.991   0.529   6.201
  563SOL     OW 2587   2.224   0.678   3.856
  563SOL    HW1 2588   2.127   0.656   3.844
  563SOL    HW2 2589   2.275   0.648   3.776
  564SOL     OW 2590   1.671   1.969   0.337
  564SOL    HW1 2591   1.740   1.904   0.368
  564SOL    HW2 2592   1.624   1.933   0.256
  565SOL     OW 2593   3.502   2.967   5.212
  565SOL    HW1 2594   3.532   2.901   5.281
  565SOL    HW2 2595   3.462   2.918   5.135
  566SOL     OW 2596   0.002   5.025   3.603
  566SOL    HW1 2597   0.096   5.022   3.570
  566SOL    HW2 2598   6.967   4.988   3.533
  567SOL     OW 2599   2.902   2.604   1.335
  567SOL    HW1 2600   2.883   2.618   1.238
  567SOL    HW2 2601   3.000   2.614   1.352
  568SOL     OW 2602   4.537   1.603   0.161
  568SOL    HW1 2603   4.551   1.548   0.243
  568SOL    HW2 2604   4.597   1.569   0.088
  569SOL     OW 2605   1.570   3.130   6.396
  569SOL    HW1 2606   1.514   3.177   6.328
  569SOL    HW2 2607   1.662   3.168   6.396
  570SOL     OW 2608   3.409   6.713   6.927
  570SOL    HW1 2609   3.411   6.675   6.835
  570SOL    HW2 2610   3.367   6.804   6.925
  571SOL     OW 2611   2.954   0.200   1.665
  571SOL    HW1 2612   2.908   0.285   1.694
  571SOL    HW2 2613   2.895   0.122   1.685
  572SOL     OW 2614   2.538   5.151   5.540
  572SOL    HW1 2615   2.507   5.060   5.513
  572SOL    HW2 2616   2.622   5.142   5.595
  573SOL     OW 2617   5.758   1.892   5.480
  573SOL    HW1 2618   5.734   1.819   5.417
  573SOL    HW2 2619   5.836   1.943   5.445
  574SOL     OW 2620   3.308   1.555   4.220
  574SOL    HW1 2621   3.334   1.482   4.283
  574SOL    HW2 2622   3.270   1.515   4.136
  575SOL     OW 2623   5.220   3.962   0.230
  575SOL    HW1 2624   5.219   3.873   0.184
  575SOL    HW2 2625   5.259   4.031   0.169
  576SOL     OW 2626   0.831   2.183   2.979
  576SOL    HW1 2627   0.794   2.097   2.946
  576SOL    HW2 2628   0.849   2.177   3.077
  577SOL     OW 2629   1.328   1.177   2.258
  577SOL    HW1 2630   1.377   1.261   2.236
  577SOL    HW2 2631   1.293   1.136   2.174
  578SOL     OW 2632   5.656   5.650   3.693
  578SOL    HW1 2633   5.664   5.560   3.734
  578SOL    HW2 2634   5.737   5.704   3.715
  579SOL     OW 2635   2.211   2.954   2.751
  579SOL    HW1 2636   2.230   2.918   2.842
  579SOL    HW2 2637   2.265   3.036   2.736
  580SOL     OW 2638   6.313   5.195   0.521
  580SOL    HW1 2639   6.343   5.173   0.614
  580SOL    HW2 2640   6.239   5.262   0.524
  581SOL     OW 2641   2.782   3.812   1.718
  581SOL    HW1 2642   2.852   3.766   1.664
  581SOL    HW2 2643   2.721   3.744   1.759
  582SOL     OW 2644   4.420   6.846   2.098
  582SOL    HW1 2645   4.330   6.887   2.108
  582SOL    HW2 2646   4.468   6.889   2.022
  583SOL     OW 2647   2.951   5.243   5.806
  583SOL    HW1 2648   3.035   5.264   5.856
  583SOL    HW2 2649   2.878   5.303   5.839
  584SOL     OW 2650   2.895   4.212   6.321
  584SOL    HW1 2651   2.841   4.250   6.246
  584SOL    HW2 2652   2.833   4.174   6.390
  585SOL     OW 2653   5.662   2.934   6.428
  585SOL    HW1 2654   5.604   3.014   6.417
  585SOL    HW2 2655   5.609   2.851   6.407
  586SOL     OW 2656   3.609   1.626   5.758
  586SOL    HW1 2657   3.564   1.682   5.689
  586SOL    HW2 2658   3.553   1.546   5.778
  587SOL     OW 2659   4.510   1.573   5.783
  587SOL    HW1 2660   4.429   1.515   5.789
  587SOL    HW2 2661   4.588   1.518   5.753
  588SOL     OW 2662   1.970   4.622   1.858
  588SOL    HW1 2663   1.888   4.598   1.909
  588SOL    HW2 2664   1.949   4.694   1.792
  589SOL     OW 2665   3.306   4.604   1.457
  589SOL    HW1 2666   3.232   4.664   1.426
  589SOL    HW2 2667   3.353   4.647   1.535
  590SOL     OW 2668   4.933   3.340   3.541
  590SOL    HW1 2669   5.020   3.292   3.529
  590SOL    HW2 2670   4.884   3.301   3.619
  591SOL     OW 2671   4.130   5.484   4.176
  591SOL    HW1 2672   4.069   5.555   4.212
  591SOL    HW2 2673   4.115   5.474   4.078
  592SOL     OW 2674   3.405   0.910   1.376
  592SOL    HW1 2675   3.412   0.929   1.474
  592SOL    HW2 2676   3.474   0.842   1.350
  593SOL     OW 2677   5.015   2.531   3.367
  593SOL    HW1 2678   5.011   2.530   3.267
  593SOL    HW2 2679   4.952   2.600   3.402
  594SOL     OW 2680   6.041   2.215   6.608
  594SOL    HW1 2681   6.130   2.249   6.639
  594SOL    HW2 2682   6.050   2.118   6.583
  595SOL     OW 2683   6.034   6.832   3.339
  595SOL    HW1 2684   5.939   6.843   3.367
  595SOL    HW2 2685   6.089   6.804   3.418
  596SOL     OW 2686   1.510   4.990   3.186
  596SOL    HW1 2687   1.530   4.928   3.110
  596SOL    HW2 2688   1.528   5.084   3.159
  597SOL     OW 2689   3.973   0.206   0.433
  597SOL    HW1 2690   3.978   0.108   0.454
  597SOL    HW2 2691   3.997   0.221   0.337
  598SOL     OW 2692   3.975   4.944   5.660
  598SOL    HW1 2693   3.953   4.928   5.563
  598SOL    HW2 2694   3.904   4.902   5.717
  599SOL     OW 2695   2.488   6.033   2.230
  599SOL    HW1 2696   2.420   6.012   2.300
  599SOL    HW2 2697   2.553   6.101   2.265
  600SOL     OW 2698   0.451   1.363   0.304
  600SOL    HW1 2699   0.443   1.397   0.210
  600SOL    HW2 2700   0.387   1.288   0.318
  601SOL     OW 2701   2.685   0.394   4.025
  601SOL    HW1 2702   2.595   0.411   3.987
  601SOL    HW2 2703   2.742   0.475   4.013
  602SOL     OW 2704   2.226   2.866   6.752
  602SOL    HW1 2705   2.145   2.867   6.810
  602SOL    HW2 2706   2.200   2.886   6.657
  603SOL     OW 2707   2.985   2.151   4.294
  603SOL    HW1 2708   2.887   2.171   4.302
  603SOL    HW2 2709   3.017   2.178   4.204
  604SOL     OW 2710   1.116   3.417   1.451
  604SOL    HW1 2711   1.164   3.498   1.416
  604SOL    HW2 2712   1.101   3.427   1.549
  605SOL     OW 2713   0.091   6.374   2.211
  605SOL    HW1 2714   0.058   6.305   2.147
  605SOL    HW2 2715   0.033   6.374   2.293
  606SOL     OW 2716   4.697   0.147   6.902
  606SOL    HW1 2717   4.673   0.160   6.806
  606SOL    HW2 2718   4.795   0.157   6.913
  607SOL     OW 2719   6.312   7.018   6.003
  607SOL    HW1 2720   6.306   0.025   6.097
  607SOL    HW2 2721   6.342   0.066   5.943
  608SOL     OW 2722   2.808   6.383   6.351
  608SOL    HW1 2723   2.817   6.391   6.252
  608SOL    HW2 2724   2.869   6.312   6.385
  609SOL     OW 2725   4.082   3.188   3.251
  609SOL    HW1 2726   4.119   3.250   3.182
  609SOL    HW2 2727   4.068   3.239   3.337
  610SOL     OW 2728   4.873   3.260   2.083
  610SOL    HW1 2729   4.883   3.323   2.007
  610SOL    HW2 2730   4.833   3.174   2.050
  611SOL     OW 2731   3.785   0.234   0.616
  611SOL    HW1 2732   3.850   0.212   0.543
  611SOL    HW2 2733   3.814   0.190   0.701
  612SOL     OW 2734   4.234   6.945   5.723
  612SOL    HW1 2735   4.183   6.868   5.760
  612SOL    HW2 2736   4.332   6.931   5.739
  613SOL     OW 2737   4.104   0.150   5.659
  613SOL    HW1 2738   4.161   0.072   5.684
  613SOL    HW2 2739   4.084   0.205   5.741
  614SOL     OW 2740   4.678   4.310   1.041
  614SOL    HW1 2741   4.638   4.369   1.111
  614SOL    HW2 2742   4.610   4.289   0.972
  615SOL     OW 2743   6.979   2.778   2.077
  615SOL    HW1 2744   6.942   2.870   2.092
  615SOL    HW2 2745   6.991   2.732   2.165
  616SOL     OW 2746   0.669   2.134   4.005
  616SOL    HW1 2747   0.618   2.090   3.931
  616SOL    HW2 2748   0.726   2.207   3.967
  617SOL     OW 2749   6.286   3.807   6.145
  617SOL    HW1 2750   6.263   3.831   6.051
  617SOL    HW2 2751   6.378   3.841   6.167
  618SOL     OW 2752   6.859   2.717   6.788
  618SOL    HW1 2753   6.808   2.776   6.850
  618SOL    HW2 2754   6.923   2.772   6.735
  619SOL     OW 2755   4.617   1.024   6.925
  619SOL    HW1 2756   4.570   0.936   6.924
  619SOL    HW2 2757   4.554   1.096   6.897
  620SOL     OW 2758   4.556   2.850   1.365
  620SOL    HW1 2759   4.476   2.904   1.339
  620SOL    HW2 2760   4.602   2.816   1.284
  621SOL     OW 2761   2.437   6.228   6.108
  621SOL    HW1 2762   2.476   6.313   6.143
  621SOL    HW2 2763   2.364   6.198   6.169
  622SOL     OW 2764   1.441   1.080   4.584
  622SOL    HW1 2765   1.540   1.096   4.588
  622SOL    HW2 2766   1.393   1.168   4.585
  623SOL     OW 2767   1.090   5.923   6.000
  623SOL    HW1 2768   1.138   5.841   6.033
  623SOL    HW2 2769   0.996   5.899   5.976
  624SOL     OW 2770   0.114   1.931   1.879
  624SOL    HW1 2771   0.209   1.918   1.907
  624SOL    HW2 2772   0.089   1.862   1.811
  625SOL     OW 2773   0.983   1.886   1.911
  625SOL    HW1 2774   0.986   1.951   1.987
  625SOL    HW2 2775   1.045   1.810   1.931
  626SOL     OW 2776   1.023   5.955   3.102
  626SOL    HW1 2777   1.019   5.924   3.197
  626SOL    HW2 2778   0.937   6.001   3.078
  627SOL     OW 2779   6.479   6.447   0.964
  627SOL    HW1 2780   6.485   6.355   0.926
  627SOL    HW2 2781   6.501   6.444   1.061
  628SOL     OW 2782   5.731   5.696   5.951
  628SOL    HW1 2783   5.730   5.720   5.854
  628SOL    HW2 2784   5.817   5.725   5.992
  629SOL     OW 2785   0.573   0.708   6.981
  629SOL    HW1 2786   0.647   0.657   6.938
  629SOL    HW2 2787   0.523   0.759   6.911
  630SOL     OW 2788   0.363   1.579   0.974
  630SOL    HW1 2789   0.280   1.635   0.977
  630SOL    HW2 2790   0.424   1.605   1.049
  631SOL     OW 2791   4.162   1.458   5.223
  631SOL    HW1 2792   4.064   1.444   5.209
  631SOL    HW2 2793   4.209   1.458   5.135
  632SOL     OW 2794   4.080   1.777   1.522
  632SOL    HW1 2795   4.070   1.875   1.502
  632SOL    HW2 2796   4.015   1.751   1.593
  633SOL     OW 2797   3.334   3.656   6.562
  633SOL    HW1 2798   3.267   3.592   6.525
  633SOL    HW2 2799   3.416   3.657   6.503
  634SOL     OW 2800   4.132   3.275   2.574
  634SOL    HW1 2801   4.096   3.228   2.493
  634SOL    HW2 2802   4.081   3.245   2.655
  635SOL     OW 2803   4.411   5.435   0.628
  635SOL    HW1 2804   4.394   5.474   0.538
  635SOL    HW2 2805   4.460   5.502   0.685
  636SOL     OW 2806   2.976   6.476   0.499
  636SOL    HW1 2807   2.937   6.568   0.507
  636SOL    HW2 2808   2.904   6.408   0.513
  637SOL     OW 2809   6.943   3.217   2.751
  637SOL    HW1 2810   6.886   3.193   2.672
  637SOL    HW2 2811   6.895   3.192   2.835
  638SOL     OW 2812   5.428   2.266   3.138
  638SOL    HW1 2813   5.338   2.284   3.179
  638SOL    HW2 2814   5.487   2.346   3.153
  639SOL     OW 2815   4.915   3.631   3.211
  639SOL    HW1 2816   4.981   3.696   3.247
  639SOL    HW2 2817   4.878   3.664   3.124
  640SOL     OW 2818   0.250   5.238   3.871
  640SOL    HW1 2819   0.164   5.255   3.919
  640SOL    HW2 2820   0.245   5.278   3.779
  641SOL     OW 2821   0.188   4.517   5.341
  641SOL    HW1 2822   0.209   4.480   5.250
  641SOL    HW2 2823   0.236   4.604   5.353
  642SOL     OW 2824   6.967   3.249   3.834
  642SOL    HW1 2825   6.979   3.160   3.878
  642SOL    HW2 2826   0.016   3.310   3.862
  643SOL     OW 2827   5.677   5.992   6.126
  643SOL    HW1 2828   5.671   5.894   6.144
  643SOL    HW2 2829   5.761   6.028   6.166
  644SOL     OW 2830   1.632   6.722   4.512
  644SOL    HW1 2831   1.633   6.626   4.539
  644SOL    HW2 2832   1.539   6.750   4.489
  645SOL     OW 2833   4.520   0.113   4.734
  645SOL    HW1 2834   4.562   0.084   4.647
  645SOL    HW2 2835   4.591   0.143   4.797
  646SOL     OW 2836   3.730   0.783   4.486
  646SOL    HW1 2837   3.736   0.720   4.408
  646SOL    HW2 2838   3.725   0.877   4.452
  647SOL     OW 2839   5.563   1.986   5.034
  647SOL    HW1 2840   5.598   1.901   5.074
  647SOL    HW2 2841   5.487   1.966   4.974
  648SOL     OW 2842   0.763   3.596   3.265
  648SOL    HW1 2843   0.694   3.529   3.239
  648SOL    HW2 2844   0.821   3.618   3.186
  649SOL     OW 2845   2.421   4.514   0.946
  649SOL    HW1 2846   2.488   4.444   0.969
  649SOL    HW2 2847   2.468   4.598   0.919
  650SOL     OW 2848   5.848   4.141   0.127
  650SOL    HW1 2849   5.872   4.188   0.212
  650SOL    HW2 2850   5.907   4.060   0.117
  651SOL     OW 2851   0.604   6.312   6.185
  651SOL    HW1 2852   0.660   6.320   6.103
  651SOL    HW2 2853   0.661   6.323   6.266
  652SOL     OW 2854   5.138   0.346   4.094
  652SOL    HW1 2855   5.044   0.373   4.073
  652SOL    HW2 2856   5.152   0.347   4.193
  653SOL     OW 2857   0.870   5.838   6.529
  653SOL    HW1 2858   0.789   5.879   6.487
  653SOL    HW2 2859   0.902   5.896   6.604
  654SOL     OW 2860   0.901   5.085   6.801
  654SOL    HW1 2861   0.909   4.986   6.801
  654SOL    HW2 2862   0.989   5.126   6.823
  655SOL     OW 2863   0.239   5.737   1.845
  655SOL    HW1 2864   0.230   5.647   1.804
  655SOL    HW2 2865   0.155   5.761   1.893
  656SOL     OW 2866   1.900   6.383   1.403
  656SOL    HW1 2867   1.873   6.478   1.388
  656SOL    HW2 2868   1.826   6.322   1.377
  657SOL     OW 2869   2.341   3.838   1.747
  657SOL    HW1 2870   2.274   3.852   1.674
  657SOL    HW2 2871   2.333   3.745   1.783
  658SOL     OW 2872   2.235   3.762   6.478
  658SOL    HW1 2873   2.218   3.810   6.392
  658SOL    HW2 2874   2.317   3.705   6.468
  659SOL     OW 2875   1.289   5.971   5.083
  659SOL    HW1 2876   1.353   6.045   5.062
  659SOL    HW2 2877   1.195   6.004   5.070
  660SOL     OW 2878   5.614   3.770   2.094
  660SOL    HW1 2879   5.687   3.769   2.026
  660SOL    HW2 2880   5.530   3.735   2.053
  661SOL     OW 2881   4.809   4.185   3.287
  661SOL    HW1 2882   4.746   4.223   3.219
  661SOL    HW2 2883   4.843   4.096   3.256
  662SOL     OW 2884   4.215   0.392   4.773
  662SOL    HW1 2885   4.299   0.446   4.776
  662SOL    HW2 2886   4.187   0.370   4.867
  663SOL     OW 2887   1.145   3.416   6.506
  663SOL    HW1 2888   1.218   3.417   6.438
  663SOL    HW2 2889   1.076   3.485   6.482
  664SOL     OW 2890   6.686   5.159   6.565
  664SOL    HW1 2891   6.707   5.095   6.492
  664SOL    HW2 2892   6.663   5.248   6.525
  665SOL     OW 2893   4.434   5.051   1.042
  665SOL    HW1 2894   4.392   5.044   0.951
  665SOL    HW2 2895   4.377   5.003   1.108
  666SOL     OW 2896   4.965   1.695   2.969
  666SOL    HW1 2897   4.868   1.701   2.944
  666SOL    HW2 2898   5.018   1.667   2.889
  667SOL     OW 2899   6.223   3.603   3.474
  667SOL    HW1 2900   6.255   3.697   3.479
  667SOL    HW2 2901   6.241   3.567   3.382
  668SOL     OW 2902   4.910   5.841   6.507
  668SOL    HW1 2903   4.849   5.891   6.568
  668SOL    HW2 2904   4.857   5.775   6.454
  669SOL     OW 2905   3.641   6.153   3.449
  669SOL    HW1 2906   3.666   6.076   3.390
  669SOL    HW2 2907   3.623   6.120   3.541
  670SOL     OW 2908   2.628   3.077   1.298
  670SOL    HW1 2909   2.706   3.020   1.271
  670SOL    HW2 2910   2.662   3.164   1.335
  671SOL     OW 2911   2.613   5.868   0.330
  671SOL    HW1 2912   2.590   5.948   0.276
  671SOL    HW2 2913   2.682   5.813   0.282
  672SOL     OW 2914   0.672   4.641   1.679
  672SOL    HW1 2915   0.590   4.683   1.718
  672SOL    HW2 2916   0.719   4.588   1.750
  673SOL     OW 2917   6.799   0.622   1.327
  673SOL    HW1 2918   6.897   0.628   1.348
  673SOL    HW2 2919   6.766   0.531   1.352
  674SOL     OW 2920   6.770   3.027   4.340
  674SOL    HW1 2921   6.684   3.073   4.316
  674SOL    HW2 2922   6.847   3.088   4.319
  675SOL     OW 2923   0.783   0.818   4.223
  675SOL    HW1 2924   0.825   0.769   4.147
  675SOL    HW2 2925   0.771   0.914   4.198
  676SOL     OW 2926   4.071   6.063   2.681
  676SOL    HW1 2927   4.154   6.034   2.728
  676SOL    HW2 2928   4.037   6.147   2.723
  677SOL     OW 2929   5.953   1.538   6.567
  677SOL    HW1 2930   5.968   1.580   6.478
  677SOL    HW2 2931   6.012   1.580   6.635
  678SOL     OW 2932   1.717   1.095   4.672
  678SOL    HW1 2933   1.805   1.088   4.625
  678SOL    HW2 2934   1.732   1.097   4.771
  679SOL     OW 2935   4.450   1.869   4.629
  679SOL    HW1 2936   4.482   1.837   4.540
  679SOL    HW2 2937   4.350   1.861   4.633
  680SOL     OW 2938   5.994   5.579   6.036
  680SOL    HW1 2939   6.006   5.579   5.936
  680SOL    HW2 2940   5.994   5.673   6.069
  681SOL     OW 2941   5.453   5.887   1.471
  681SOL    HW1 2942   5.402   5.972   1.486
  681SOL    HW2 2943   5.464   5.873   1.372
  682SOL     OW 2944   1.494   0.684   0.641
  682SOL    HW1 2945   1.563   0.613   0.632
  682SOL    HW2 2946   1.415   0.661   0.583
  683SOL     OW 2947   3.889   2.912   6.707
  683SOL    HW1 2948   3.881   2.905   6.608
  683SOL    HW2 2949   3.801   2.938   6.746
  684SOL     OW 2950   6.365   0.895   0.110
  684SOL    HW1 2951   6.370   0.905   0.011
  684SOL    HW2 2952   6.409   0.809   0.137
  685SOL     OW 2953   4.800   1.329   4.333
  685SOL    HW1 2954   4.799   1.237   4.373
  685SOL    HW2 2955   4.760   1.325   4.241
  686SOL     OW 2956   5.628   2.233   3.831
  686SOL    HW1 2957   5.694   2.306   3.846
  686SOL    HW2 2958   5.659   2.176   3.754
  687SOL     OW 2959   0.807   2.685   4.620
  687SOL    HW1 2960   0.757   2.706   4.704
  687SOL    HW2 2961   0.903   2.670   4.641
  688SOL     OW 2962   1.358   2.857   0.162
  688SOL    HW1 2963   1.283   2.888   0.221
  688SOL    HW2 2964   1.326   2.851   0.068
  689SOL     OW 2965   0.292   4.198   5.975
  689SOL    HW1 2966   0.372   4.171   5.921
  689SOL    HW2 2967   0.245   4.274   5.930
  690SOL     OW 2968   0.815   4.051   3.278
  690SOL    HW1 2969   0.729   4.093   3.248
  690SOL    HW2 2970   0.851   4.101   3.356
  691SOL     OW 2971   2.787   7.021   6.268
  691SOL    HW1 2972   2.695   0.032   6.281
  691SOL    HW2 2973   2.797   6.936   6.321
  692SOL     OW 2974   4.206   5.818   4.187
  692SOL    HW1 2975   4.116   5.777   4.204
  692SOL    HW2 2976   4.233   5.803   4.092
  693SOL     OW 2977   6.700   0.268   3.571
  693SOL    HW1 2978   6.644   0.338   3.614
  693SOL    HW2 2979   6.642   0.206   3.518
  694SOL     OW 2980   3.985   6.516   2.574
  694SOL    HW1 2981   3.895   6.473   2.565
  694SOL    HW2 2982   3.988   6.571   2.657
  695SOL     OW 2983   4.433   5.944   4.921
  695SOL    HW1 2984   4.425   6.042   4.941
  695SOL    HW2 2985   4.348   5.913   4.877
  696SOL     OW 2986   3.143   5.348   2.399
  696SOL    HW1 2987   3.145   5.352   2.300
  696SOL    HW2 2988   3.235   5.330   2.434
  697SOL     OW 2989   2.200   3.019   3.850
  697SOL    HW1 2990   2.260   3.056   3.779
  697SOL    HW2 2991   2.204   2.919   3.849
  698SOL     OW 2992   5.520   6.955   7.017
  698SOL    HW1 2993   5.530   6.963   6.918
  698SOL    HW2 2994   5.426   6.930   0.013
  699SOL     OW 2995   1.641   3.623   5.996
  699SOL    HW1 2996   1.610   3.685   6.069
  699SOL    HW2 2997   1.590   3.537   6.002
  700SOL     OW 2998   2.705   1.392   3.760
  700SOL    HW1 2999   2.648   1.339   3.698
  700SOL    HW2 3000   2.781   1.434   3.709
  701SOL     OW 3001   5.917   3.457   4.845
  701SOL    HW1 3002   5.944   3.409   4.929
  701SOL    HW2 3003   5.965   3.417   4.767
  702SOL     OW 3004   0.282   6.607   5.867
  702SOL    HW1 3005   0.284   6.600   5.767
  702SOL    HW2 3006   0.196   6.649   5.896
  703SOL     OW 3007   3.310   4.242   6.456
  703SOL    HW1 3008   3.327   4.145   6.471
  703SOL    HW2 3009   3.250   4.253   6.376
  704SOL     OW 3010   1.318   1.441   0.251
  704SOL    HW1 3011   1.292   1.426   0.347
  704SOL    HW2 3012   1.302   1.537   0.227
  705SOL     OW 3013   6.159   6.182   3.036
  705SOL    HW1 3014   6.172   6.199   3.134
  705SOL    HW2 3015   6.191   6.262   2.985
  706SOL     OW 3016   4.661   2.432   4.025
  706SOL    HW1 3017   4.648   2.346   3.977
  706SOL    HW2 3018   4.581   2.451   4.082
  707SOL     OW 3019   5.230   6.588   2.040
  707SOL    HW1 3020   5.255   6.503   1.993
  707SOL    HW2 3021   5.314   6.635   2.070
  708SOL     OW 3022   3.718   0.758   1.507
  708SOL    HW1 3023   3.669   0.727   1.426
  708SOL    HW2 3024   3.804   0.801   1.480
  709SOL     OW 3025   0.819   5.437   0.816
  709SOL    HW1 3026   0.805   5.480   0.905
  709SOL    HW2 3027   0.862   5.348   0.828
  710SOL     OW 3028   3.612   2.883   2.664
  710SOL    HW1 3029   3.620   2.934   2.750
  710SOL    HW2 3030   3.550   2.805   2.677
  711SOL     OW 3031   0.218   2.447   5.450
  711SOL    HW1 3032   0.124   2.446   5.482
  711SOL    HW2 3033   0.225   2.396   5.364
  712SOL     OW 3034   3.756   3.652   1.118
  712SOL    HW1 3035   3.757   3.566   1.169
  712SOL    HW2 3036   3.755   3.633   1.020
  713SOL     OW 3037   4.051   2.865   5.953
  713SOL    HW1 3038   4.076   2.769   5.964
  713SOL    HW2 3039   4.010   2.899   6.038
  714SOL     OW 3040   6.678   4.267   4.172
  714SOL    HW1 3041   6.590   4.227   4.145
  714SOL    HW2 3042   6.672   4.302   4.266
  715SOL     OW 3043   5.730   5.592   0.342
  715SOL    HW1 3044   5.724   5.494   0.324
  715SOL    HW2 3045   5.763   5.639   0.260
  716SOL     OW 3046   1.015   0.090   0.979
  716SOL    HW1 3047   1.073   0.134   1.048
  716SOL    HW2 3048   0.960   0.019   1.022
  717SOL     OW 3049   6.323   4.533   6.081
  717SOL    HW1 3050   6.294   4.628   6.078
  717SOL    HW2 3051   6.383   4.519   6.160
  718SOL     OW 3052   5.089   2.588   6.330
  718SOL    HW1 3053   5.118   2.680   6.302
  718SOL    HW2 3054   5.163   2.544   6.381
  719SOL     OW 3055   6.665   0.573   1.975
  719SOL    HW1 3056   6.678   0.672   1.981
  719SOL    HW2 3057   6.567   0.552   1.967
  720SOL     OW 3058   3.319   0.983   6.387
  720SOL    HW1 3059   3.349   0.905   6.331
  720SOL    HW2 3060   3.343   0.966   6.482
  721SOL     OW 3061   2.505   1.093   4.208
  721SOL    HW1 3062   2.565   1.107   4.287
  721SOL    HW2 3063   2.484   1.182   4.166
  722SOL     OW 3064   2.855   0.504   4.759
  722SOL    HW1 3065   2.793   0.426   4.764
  722SOL    HW2 3066   2.934   0.489   4.817
  723SOL     OW 3067   1.860   3.931   2.923
  723SOL    HW1 3068   1.959   3.935   2.936
  723SOL    HW2 3069   1.828   3.837   2.937
  724SOL     OW 3070   1.181   3.135   4.578
  724SOL    HW1 3071   1.251   3.071   4.546
  724SOL    HW2 3072   1.127   3.091   4.650
  725SOL     OW 3073   3.818   5.775   1.011
  725SOL    HW1 3074   3.851   5.856   0.963
  725SOL    HW2 3075   3.793   5.704   0.944
  726SOL     OW 3076   4.240   4.801   0.674
  726SOL    HW1 3077   4.154   4.753   0.656
  726SOL    HW2 3078   4.305   4.738   0.716
  727SOL     OW 3079   5.601   4.872   6.027
  727SOL    HW1 3080   5.596   4.941   5.956
  727SOL    HW2 3081   5.550   4.791   5.998
  728SOL     OW 3082   6.661   3.235   4.679
  728SOL    HW1 3083   6.728   3.282   4.621
  728SOL    HW2 3084   6.707   3.199   4.760
  729SOL     OW 3085   1.403   2.341   1.087
  729SOL    HW1 3086   1.408   2.430   1.042
  729SOL    HW2 3087   1.327   2.341   1.152
  730SOL     OW 3088   5.274   0.990   3.324
  730SOL    HW1 3089   5.335   0.966   3.399
  730SOL    HW2 3090   5.210   1.061   3.354
  731SOL     OW 3091   5.296   4.163   5.783
  731SOL    HW1 3092   5.309   4.133   5.689
  731SOL    HW2 3093   5.385   4.177   5.826
  732SOL     OW 3094   0.007   2.363   2.168
  732SOL    HW1 3095   0.061   2.282   2.149
  732SOL    HW2 3096   0.030   2.436   2.104
  733SOL     OW 3097   6.137   6.271   5.593
  733SOL    HW1 3098   6.043   6.303   5.606
  733SOL    HW2 3099   6.151   6.188   5.647
  734SOL     OW 3100   0.054   4.624   2.690
  734SOL    HW1 3101   0.143   4.669   2.687
  734SOL    HW2 3102   7.021   4.673   2.754
  735SOL     OW 3103   3.619   2.219   0.515
  735SOL    HW1 3104   3.616   2.123   0.486
  735SOL    HW2 3105   3.621   2.279   0.435
  736SOL     OW 3106   0.741   0.545   3.099
  736SOL    HW1 3107   0.784   0.459   3.128
  736SOL    HW2 3108   0.760   0.561   3.002
  737SOL     OW 3109   4.920   2.382   5.947
  737SOL    HW1 3110   4.828   2.420   5.947
  737SOL    HW2 3111   4.983   2.448   5.990
  738SOL     OW 3112   1.884   4.609   2.262
  738SOL    HW1 3113   1.863   4.594   2.358
  738SOL    HW2 3114   1.799   4.616   2.210
  739SOL     OW 3115   3.994   0.498   3.988
  739SOL    HW1 3116   4.010   0.400   3.997
  739SOL    HW2 3117   4.077   0.542   3.955
  740SOL     OW 3118   5.471   0.315   1.118
  740SOL    HW1 3119   5.396   0.381   1.112
  740SOL    HW2 3120   5.441   0.227   1.080
  741SOL     OW 3121   2.249   6.297   3.410
  741SOL    HW1 3122   2.194   6.259   3.484
  741SOL    HW2 3123   2.283   6.387   3.436
  742SOL     OW 3124   2.807   6.795   2.343
  742SOL    HW1 3125   2.709   6.786   2.327
  742SOL    HW2 3126   2.850   6.838   2.264
  743SOL     OW 3127   0.187   3.934   4.076
  743SOL    HW1 3128   0.176   3.875   3.995
  743SOL    HW2 3129   0.283   3.958   4.086
  744SOL     OW 3130   5.594   0.680   6.988
  744SOL    HW1 3131   5.573   0.584   6.972
  744SOL    HW2 3132   5.546   0.736   6.921
  745SOL     OW 3133   0.901   5.761   4.922
  745SOL    HW1 3134   0.825   5.699   4.905
  745SOL    HW2 3135   0.938   5.795   4.835
  746SOL     OW 3136   0.098   4.972   6.189
  746SOL    HW1 3137   0.060   4.887   6.152
  746SOL    HW2 3138   0.138   4.954   6.279
  747SOL     OW 3139   3.814   6.305   4.453
  747SOL    HW1 3140   3.844   6.305   4.548
  747SOL    HW2 3141   3.858   6.229   4.405
  748SOL     OW 3142   3.871   4.827   2.319
  748SOL    HW1 3143   3.916   4.846   2.407
  748SOL    HW2 3144   3.780   4.870   2.319
  749SOL     OW 3145   6.335   4.378   5.222
  749SOL    HW1 3146   6.413   4.351   5.278
  749SOL    HW2 3147   6.311   4.303   5.160
  750SOL     OW 3148   1.597   2.189   0.907
  750SOL    HW1 3149   1.550   2.235   0.982
  750SOL    HW2 3150   1.582   2.090   0.913
  751SOL     OW 3151   3.930   2.311   6.477
  751SOL    HW1 3152   3.881   2.334   6.561
  751SOL    HW2 3153   3.964   2.395   6.434
  752SOL     OW 3154   3.599   1.192   2.410
  752SOL    HW1 3155   3.565   1.175   2.318
  752SOL    HW2 3156   3.561   1.278   2.444
  753SOL     OW 3157   2.028   3.407   5.362
  753SOL    HW1 3158   2.009   3.467   5.285
  753SOL    HW2 3159   2.126   3.387   5.366
  754SOL     OW 3160   5.203   2.790   5.495
  754SOL    HW1 3161   5.293   2.793   5.452
  754SOL    HW2 3162   5.136   2.754   5.430
  755SOL     OW 3163   1.370   4.437   5.137
  755SOL    HW1 3164   1.346   4.343   5.161
  755SOL    HW2 3165   1.405   4.484   5.218
  756SOL     OW 3166   3.418   6.842   0.386
  756SOL    HW1 3167   3.440   6.927   0.434
  756SOL    HW2 3168   3.401   6.770   0.454
  757SOL     OW 3169   1.245   0.179   3.768
  757SOL    HW1 3170   1.232   0.080   3.765
  757SOL    HW2 3171   1.170   0.221   3.820
  758SOL     OW 3172   3.685   0.125   1.806
  758SOL    HW1 3173   3.683   0.225   1.810
  758SOL    HW2 3174   3.591   0.090   1.808
  759SOL     OW 3175   0.251   1.343   1.071
  759SOL    HW1 3176   0.287   1.411   1.006
  759SOL    HW2 3177   0.306   1.344   1.154
  760SOL     OW 3178   5.552   0.434   5.626
  760SOL    HW1 3179   5.522   0.348   5.667
  760SOL    HW2 3180   5.526   0.436   5.529
  761SOL     OW 3181   5.614   2.784   5.565
  761SOL    HW1 3182   5.708   2.773   5.533
  761SOL    HW2 3183   5.613   2.787   5.665
  762SOL     OW 3184   2.386   0.764   4.846
  762SOL    HW1 3185   2.438   0.678   4.842
  762SOL    HW2 3186   2.422   0.828   4.778
  763SOL     OW 3187   4.087   5.447   6.188
  763SOL    HW1 3188   4.186   5.435   6.181
  763SOL    HW2 3189   4.067   5.536   6.229
  764SOL     OW 3190   5.336   2.154   5.162
  764SOL    HW1 3191   5.428   2.114   5.162
  764SOL    HW2 3192   5.275   2.096   5.217
  765SOL     OW 3193   1.168   6.199   1.420
  765SOL    HW1 3194   1.250   6.204   1.364
  765SOL    HW2 3195   1.109   6.126   1.387
  766SOL     OW 3196   2.207   3.411   6.437
  766SOL    HW1 3197   2.153   3.328   6.449
  766SOL    HW2 3198   2.281   3.394   6.372
  767SOL     OW 3199   6.233   5.539   1.831
  767SOL    HW1 3200   6.324   5.516   1.796
  767SOL    HW2 3201   6.164   5.519   1.761
  768SOL     OW 3202   2.094   6.370   2.030
  768SOL    HW1 3203   2.068   6.453   2.079
  768SOL    HW2 3204   2.185   6.341   2.059
  769SOL     OW 3205   3.203   0.628   4.884
  769SOL    HW1 3206   3.260   0.579   4.819
  769SOL    HW2 3207   3.257   0.698   4.930
  770SOL     OW 3208   2.052   4.441   2.773
  770SOL    HW1 3209   2.015   4.479   2.858
  770SOL    HW2 3210   2.123   4.502   2.738
  771SOL     OW 3211   2.569   5.288   2.604
  771SOL    HW1 3212   2.638   5.359   2.618
  771SOL    HW2 3213   2.478   5.328   2.608
  772SOL     OW 3214   5.561   5.120   0.687
  772SOL    HW1 3215   5.538   5.116   0.785
  772SOL    HW2 3216   5.656   5.150   0.677
  773SOL     OW 3217   0.457   3.707   5.004
  773SOL    HW1 3218   0.376   3.649   5.010
  773SOL    HW2 3219   0.431   3.803   5.014
  774SOL     OW 3220   0.721   1.568   1.264
  774SOL    HW1 3221   0.695   1.579   1.168
  774SOL    HW2 3222   0.640   1.577   1.321
  775SOL     OW 3223   0.772   2.356   2.791
  775SOL    HW1 3224   0.698   2.396   2.846
  775SOL    HW2 3225   0.828   2.297   2.848
  776SOL     OW 3226   1.056   0.568   6.356
  776SOL    HW1 3227   1.080   0.474   6.335
  776SOL    HW2 3228   1.011   0.610   6.277
  777SOL     OW 3229   2.400   5.054   1.246
  777SOL    HW1 3230   2.410   4.972   1.189
  777SOL    HW2 3231   2.404   5.028   1.342
  778SOL     OW 3232   2.624   1.174   2.317
  778SOL    HW1 3233   2.605   1.210   2.226
  778SOL    HW2 3234   2.565   1.219   2.384
  779SOL     OW 3235   6.764   2.653   2.729
  779SOL    HW1 3236   6.863   2.662   2.732
  779SOL    HW2 3237   6.736   2.624   2.637
  780SOL     OW 3238   6.515   3.791   3.623
  780SOL    HW1 3239   6.522   3.763   3.719
  780SOL    HW2 3240   6.505   3.710   3.566
  781SOL     OW 3241   5.602   1.288   0.320
  781SOL    HW1 3242   5.532   1.222   0.350
  781SOL    HW2 3243   5.692   1.255   0.346
  782SOL     OW 3244   1.487   4.109   6.671
  782SOL    HW1 3245   1.581   4.090   6.640
  782SOL    HW2 3246   1.427   4.116   6.591
  783SOL     OW 3247   4.293   5.252   0.796
  783SOL    HW1 3248   4.224   5.314   0.832
  783SOL    HW2 3249   4.353   5.301   0.733
  784SOL     OW 3250   5.450   6.046   0.362
  784SOL    HW1 3251   5.364   6.084   0.328
  784SOL    HW2 3252   5.506   6.015   0.285
  785SOL     OW 3253   0.697   2.636   3.044
  785SOL    HW1 3254   0.659   2.723   3.077
  785SOL    HW2 3255   0.629   2.590   2.986
  786SOL     OW 3256   1.482   0.669   1.977
  786SOL    HW1 3257   1.564   0.653   2.033
  786SOL    HW2 3258   1.451   0.582   1.937
  787SOL     OW 3259   2.725   0.423   6.964
  787SOL    HW1 3260   2.660   0.417   0.014
  787SOL    HW2 3261   2.816   0.396   6.996
  788SOL     OW 3262   3.978   3.088   5.819
  788SOL    HW1 3263   4.003   3.003   5.865
  788SOL    HW2 3264   3.917   3.069   5.743
  789SOL     OW 3265   5.269   4.014   0.769
  789SOL    HW1 3266   5.272   3.992   0.672
  789SOL    HW2 3267   5.182   4.059   0.791
  790SOL     OW 3268   2.178   1.233   4.072
  790SOL    HW1 3269   2.223   1.150   4.041
  790SOL    HW2 3270   2.176   1.235   4.172
  791SOL     OW 3271   3.022   5.698   4.192
  791SOL    HW1 3272   3.112   5.726   4.225
  791SOL    HW2 3273   2.987   5.767   4.128
  792SOL     OW 3274   0.795   6.626   0.847
  792SOL    HW1 3275   0.732   6.691   0.805
  792SOL    HW2 3276   0.881   6.625   0.796
  793SOL     OW 3277   5.036   4.892   3.548
  793SOL    HW1 3278   5.035   4.803   3.502
  793SOL    HW2 3279   4.971   4.953   3.505
  794SOL     OW 3280   3.184   3.950   5.189
  794SOL    HW1 3281   3.161   3.857   5.160
  794SOL    HW2 3282   3.141   4.015   5.126
  795SOL     OW 3283   3.486   6.746   4.200
  795SOL    HW1 3284   3.471   6.707   4.109
  795SOL    HW2 3285   3.469   6.677   4.270
  796SOL     OW 3286   0.299   2.034   6.612
  796SOL    HW1 3287   0.268   2.111   6.556
  796SOL    HW2 3288   0.360   1.975   6.558
  797SOL     OW 3289   5.662   3.283   0.795
  797SOL    HW1 3290   5.704   3.357   0.847
  797SOL    HW2 3291   5.729   3.211   0.777
  798SOL     OW 3292   3.839   0.642   2.533
  798SOL    HW1 3293   3.790   0.669   2.616
  798SOL    HW2 3294   3.774   0.634   2.457
  799SOL     OW 3295   6.587   0.233   5.759
  799SOL    HW1 3296   6.678   0.275   5.752
  799SOL    HW2 3297   6.532   0.283   5.826
  800SOL     OW 3298   5.442   2.204   2.500
  800SOL    HW1 3299   5.376   2.169   2.566
  800SOL    HW2 3300   5.421   2.167   2.409
  801SOL     OW 3301   1.019   3.694   4.212
  801SOL    HW1 3302   1.002   3.779   4.161
  801SOL    HW2 3303   1.100   3.649   4.176
  802SOL     OW 3304   4.110   1.770   1.033
  802SOL    HW1 3305   4.017   1.787   1.001
  802SOL    HW2 3306   4.169   1.748   0.955
  803SOL     OW 3307   0.355   6.911   5.430
  803SOL    HW1 3308   0.287   6.862   5.376
  803SOL    HW2 3309   0.330   6.907   5.527
  804SOL     OW 3310   5.395   5.465   6.843
  804SOL    HW1 3311   5.334   5.545   6.849
  804SOL    HW2 3312   5.342   5.385   6.815
  805SOL     OW 3313   3.892   0.074   5.471
  805SOL    HW1 3314   3.942   0.083   5.557
  805SOL    HW2 3315   3.899   0.159   5.419
  806SOL     OW 3316   5.415   0.991   4.679
  806SOL    HW1 3317   5.428   1.005   4.580
  806SOL    HW2 3318   5.401   1.080   4.723
  807SOL     OW 3319   1.586   2.333   4.248
  807SOL    HW1 3320   1.596   2.368   4.341
  807SOL    HW2 3321   1.489   2.334   4.222
  808SOL     OW 3322   4.590   3.567   6.439
  808SOL    HW1 3323   4.590   3.592   6.343
  808SOL    HW2 3324   4.530   3.488   6.454
  809SOL     OW 3325   6.789   4.941   1.299
  809SOL    HW1 3326   6.783   4.842   1.293
  809SOL    HW2 3327   6.885   4.969   1.300
  810SOL     OW 3328   3.164   2.785   1.214
  810SOL    HW1 3329   3.191   2.712   1.276
  810SOL    HW2 3330   3.246   2.823   1.170
  811SOL     OW 3331   4.167   5.456   5.200
  811SOL    HW1 3332   4.181   5.470   5.298
  811SOL    HW2 3333   4.072   5.431   5.182
  812SOL     OW 3334   0.308   1.324   2.111
  812SOL    HW1 3335   0.381   1.297   2.048
  812SOL    HW2 3336   0.328   1.414   2.149
  813SOL     OW 3337   3.411   6.120   5.393
  813SOL    HW1 3338   3.374   6.138   5.484
  813SOL    HW2 3339   3.448   6.027   5.390
  814SOL     OW 3340   6.721   6.058   2.557
  814SOL    HW1 3341   6.818   6.058   2.531
  814SOL    HW2 3342   6.680   6.145   2.528
  815SOL     OW 3343   0.557   3.395   3.229
  815SOL    HW1 3344   0.490   3.365   3.298
  815SOL    HW2 3345   0.514   3.394   3.139
  816SOL     OW 3346   6.154   6.495   0.949
  816SOL    HW1 3347   6.234   6.477   0.892
  816SOL    HW2 3348   6.175   6.469   1.044
  817SOL     OW 3349   2.073   4.160   0.443
  817SOL    HW1 3350   2.018   4.082   0.414
  817SOL    HW2 3351   2.071   4.167   0.543
  818SOL     OW 3352   6.199   2.992   2.378
  818SOL    HW1 3353   6.142   2.950   2.308
  818SOL    HW2 3354   6.177   2.952   2.467
  819SOL     OW 3355   5.485   2.843   3.093
  819SOL    HW1 3356   5.534   2.928   3.070
  819SOL    HW2 3357   5.462   2.794   3.010
  820SOL     OW 3358   3.014   2.404   5.350
  820SOL    HW1 3359   3.092   2.400   5.288
  820SOL    HW2 3360   3.045   2.430   5.441
  821SOL     OW 3361   1.451   4.513   1.188
  821SOL    HW1 3362   1.367   4.462   1.206
  821SOL    HW2 3363   1.477   4.563   1.271
  822SOL     OW 3364   1.722   4.394   3.904
  822SOL    HW1 3365   1.644   4.412   3.965
  822SOL    HW2 3366   1.699   4.425   3.812
  823SOL     OW 3367   5.493   3.700   6.748
  823SOL    HW1 3368   5.406   3.722   6.704
  823SOL    HW2 3369   5.494   3.738   6.840
  824SOL     OW 3370   5.573   1.008   6.020
  824SOL    HW1 3371   5.664   1.047   6.008
  824SOL    HW2 3372   5.508   1.057   5.961
  825SOL     OW 3373   0.627   4.200   1.322
  825SOL    HW1 3374   0.661   4.139   1.393
  825SOL    HW2 3375   0.698   4.266   1.297
  826SOL     OW 3376   5.279   3.170   5.455
  826SOL    HW1 3377   5.364   3.215   5.429
  826SOL    HW2 3378   5.203   3.210   5.403
  827SOL     OW 3379   2.888   5.145   5.398
  827SOL    HW1 3380   2.945   5.178   5.323
  827SOL    HW2 3381   2.939   5.079   5.453
  828SOL     OW 3382   5.523   6.800   6.614
  828SOL    HW1 3383   5.455   6.840   6.553
  828SOL    HW2 3384   5.486   6.715   6.653
  829SOL     OW 3385   2.963   3.779   2.815
  829SOL    HW1 3386   2.950   3.814   2.908
  829SOL    HW2 3387   2.909   3.696   2.803
  830SOL     OW 3388   5.245   4.954   6.848
  830SOL    HW1 3389   5.294   4.867   6.853
  830SOL    HW2 3390   5.161   4.941   6.794
  831SOL     OW 3391   6.426   0.537   6.986
  831SOL    HW1 3392   6.461   0.449   6.956
  831SOL    HW2 3393   6.358   0.571   6.919
  832SOL     OW 3394   3.150   0.719   1.738
  832SOL    HW1 3395   3.200   0.804   1.752
  832SOL    HW2 3396   3.203   0.642   1.775
  833SOL     OW 3397   0.590   3.942   5.553
  833SOL    HW1 3398   0.506   3.915   5.598
  833SOL    HW2 3399   0.570   3.982   5.463
  834SOL     OW 3400   4.099   3.617   0.416
  834SOL    HW1 3401   4.183   3.587   0.373
  834SOL    HW2 3402   4.069   3.704   0.377
  835SOL     OW 3403   3.867   0.259   5.081
  835SOL    HW1 3404   3.809   0.254   5.162
  835SOL    HW2 3405   3.824   0.318   5.013
  836SOL     OW 3406   3.661   6.301   6.679
  836SOL    HW1 3407   3.699   6.370   6.617
  836SOL    HW2 3408   3.699   6.212   6.657
  837SOL     OW 3409   5.441   0.184   0.491
  837SOL    HW1 3410   5.500   0.144   0.562
  837SOL    HW2 3411   5.496   0.237   0.427
  838SOL     OW 3412   2.340   0.388   4.589
  838SOL    HW1 3413   2.389   0.305   4.563
  838SOL    HW2 3414   2.278   0.367   4.666
  839SOL     OW 3415   1.911   2.720   2.082
  839SOL    HW1 3416   1.949   2.812   2.078
  839SOL    HW2 3417   1.983   2.654   2.059
  840SOL     OW 3418   6.109   6.169   6.853
  840SOL    HW1 3419   6.106   6.091   6.916
  840SOL    HW2 3420   6.172   6.149   6.778
  841SOL     OW 3421   4.116   4.904   6.433
  841SOL    HW1 3422   4.133   4.959   6.352
  841SOL    HW2 3423   4.084   4.964   6.507
  842SOL     OW 3424   4.517   6.927   4.981
  842SOL    HW1 3425   4.561   7.004   4.936
  842SOL    HW2 3426   4.418   6.937   4.976
  843SOL     OW 3427   0.999   1.485   1.150
  843SOL    HW1 3428   0.960   1.570   1.186
  843SOL    HW2 3429   1.007   1.418   1.223
  844SOL     OW 3430   6.186   0.651   0.925
  844SOL    HW1 3431   6.230   0.600   0.999
  844SOL    HW2 3432   6.256   0.691   0.866
  845SOL     OW 3433   5.299   4.475   5.084
  845SOL    HW1 3434   5.221   4.413   5.092
  845SOL    HW2 3435   5.382   4.428   5.116
  846SOL     OW 3436   1.917   2.040   6.745
  846SOL    HW1 3437   1.952   2.091   6.824
  846SOL    HW2 3438   1.837   1.987   6.773
  847SOL     OW 3439   1.529   3.408   1.407
  847SOL    HW1 3440   1.621   3.400   1.446
  847SOL    HW2 3441   1.474   3.467   1.465
  848SOL     OW 3442   6.040   0.619   6.359
  848SOL    HW1 3443   6.116   0.570   6.318
  848SOL    HW2 3444   6.003   0.684   6.292
  849SOL     OW 3445   0.636   4.305   6.321
  849SOL    HW1 3446   0.594   4.396   6.316
  849SOL    HW2 3447   0.570   4.240   6.358
  850SOL     OW 3448   4.959   0.341   3.759
  850SOL    HW1 3449   5.058   0.331   3.762
  850SOL    HW2 3450   4.933   0.390   3.676
  851SOL     OW 3451   0.220   1.619   2.444
  851SOL    HW1 3452   0.264   1.699   2.484
  851SOL    HW2 3453   0.121   1.631   2.442
  852SOL     OW 3454   1.264   2.994   6.950
  852SOL    HW1 3455   1.293   3.074   7.003
  852SOL    HW2 3456   1.339   2.965   6.890
  853SOL     OW 3457   1.840   4.562   2.530
  853SOL    HW1 3458   1.869   4.653   2.560
  853SOL    HW2 3459   1.773   4.526   2.596
  854SOL     OW 3460   4.641   6.016   1.208
  854SOL    HW1 3461   4.546   5.992   1.229
  854SOL    HW2 3462   4.645   6.109   1.171
  855SOL     OW 3463   0.331   0.542   1.978
  855SOL    HW1 3464   0.392   0.615   1.945
  855SOL    HW2 3465   0.378   0.489   2.049
  856SOL     OW 3466   1.345   2.203   5.443
  856SOL    HW1 3467   1.320   2.233   5.535
  856SOL    HW2 3468   1.300   2.117   5.423
  857SOL     OW 3469   5.921   4.567   1.798
  857SOL    HW1 3470   5.970   4.496   1.847
  857SOL    HW2 3471   5.961   4.656   1.817
  858SOL     OW 3472   3.044   3.558   1.276
  858SOL    HW1 3473   3.042   3.459   1.267
  858SOL    HW2 3474   3.070   3.599   1.188
  859SOL     OW 3475   4.987   5.748   5.640
  859SOL    HW1 3476   4.998   5.834   5.689
  859SOL    HW2 3477   5.054   5.682   5.672
  860SOL     OW 3478   4.777   3.581   0.098
  860SOL    HW1 3479   4.826   3.514   0.042
  860SOL    HW2 3480   4.824   3.670   0.091
  861SOL     OW 3481   2.569   6.126   3.555
  861SOL    HW1 3482   2.632   6.088   3.487
  861SOL    HW2 3483   2.610   6.207   3.597
  862SOL     OW 3484   0.908   4.202   4.994
  862SOL    HW1 3485   0.950   4.121   4.955
  862SOL    HW2 3486   0.935   4.211   5.090
  863SOL     OW 3487   6.398   0.247   0.938
  863SOL    HW1 3488   6.448   0.313   0.995
  863SOL    HW2 3489   6.338   0.193   0.996
  864SOL     OW 3490   4.089   4.828   3.791
  864SOL    HW1 3491   4.174   4.786   3.825
  864SOL    HW2 3492   4.036   4.863   3.869
  865SOL     OW 3493   0.537   6.008   6.123
  865SOL    HW1 3494   0.474   6.086   6.123
  865SOL    HW2 3495   0.484   5.923   6.129
  866SOL     OW 3496   1.980   1.914   1.685
  866SOL    HW1 3497   1.895   1.907   1.736
  866SOL    HW2 3498   2.054   1.939   1.748
  867SOL     OW 3499   4.195   3.700   0.656
  867SOL    HW1 3500   4.164   3.654   0.572
  867SOL    HW2 3501   4.263   3.769   0.632
  868SOL     OW 3502   5.881   0.693   1.398
  868SOL    HW1 3503   5.966   0.663   1.440
  868SOL    HW2 3504   5.857   0.630   1.323
  869SOL     OW 3505   6.871   5.223   3.179
  869SOL    HW1 3506   6.796   5.165   3.147
  869SOL    HW2 3507   6.882   5.301   3.117
  870SOL     OW 3508   4.199   3.347   0.543
  870SOL    HW1 3509   4.229   3.414   0.476
  870SOL    HW2 3510   4.277   3.318   0.599
  871SOL     OW 3511   4.788   3.053   3.149
  871SOL    HW1 3512   4.764   3.148   3.127
  871SOL    HW2 3513   4.749   3.029   3.238
  872SOL     OW 3514   5.445   4.105   4.090
  872SOL    HW1 3515   5.440   4.058   4.002
  872SOL    HW2 3516   5.356   4.145   4.112
  873SOL     OW 3517   5.989   6.874   4.150
  873SOL    HW1 3518   6.051   6.934   4.099
  873SOL    HW2 3519   5.993   6.897   4.247
  874SOL     OW 3520   1.200   4.053   5.870
  874SOL    HW1 3521   1.214   4.039   5.772
  874SOL    HW2 3522   1.105   4.032   5.893
  875SOL     OW 3523   3.142   2.999   0.058
  875SOL    HW1 3524   3.109   2.951   7.003
  875SOL    HW2 3525   3.118   2.947   0.140
  876SOL     OW 3526   0.626   5.109   2.725
  876SOL    HW1 3527   0.616   5.057   2.810
  876SOL    HW2 3528   0.627   5.207   2.745
  877SOL     OW 3529   4.147   4.074   6.759
  877SOL    HW1 3530   4.207   3.995   6.750
  877SOL    HW2 3531   4.062   4.047   6.805
  878SOL     OW 3532   3.898   5.673   5.193
  878SOL    HW1 3533   3.866   5.699   5.102
  878SOL    HW2 3534   3.894   5.573   5.203
  879SOL     OW 3535   2.889   2.116   1.854
  879SOL    HW1 3536   2.808   2.085   1.905
  879SOL    HW2 3537   2.931   2.193   1.901
  880SOL     OW 3538   3.170   4.371   5.605
  880SOL    HW1 3539   3.121   4.284   5.605
  880SOL    HW2 3540   3.266   4.356   5.580
  881SOL     OW 3541   4.795   4.032   5.116
  881SOL    HW1 3542   4.769   3.967   5.187
  881SOL    HW2 3543   4.827   3.982   5.035
  882SOL     OW 3544   1.122   1.659   4.425
  882SOL    HW1 3545   1.108   1.730   4.356
  882SOL    HW2 3546   1.127   1.570   4.380
  883SOL     OW 3547   4.908   5.387   6.225
  883SOL    HW1 3548   4.987   5.328   6.240
  883SOL    HW2 3549   4.832   5.356   6.281
  884SOL     OW 3550   0.163   4.097   0.373
  884SOL    HW1 3551   0.218   4.031   0.423
  884SOL    HW2 3552   0.089   4.050   0.324
  885SOL     OW 3553   4.586   5.314   6.621
  885SOL    HW1 3554   4.611   5.219   6.640
  885SOL    HW2 3555   4.621   5.372   6.695
  886SOL     OW 3556   3.934   0.764   0.999
  886SOL    HW1 3557   4.018   0.803   0.963
  886SOL    HW2 3558   3.896   0.699   0.933
  887SOL     OW 3559   3.755   6.843   4.167
  887SOL    HW1 3560   3.781   6.869   4.074
  887SOL    HW2 3561   3.657   6.826   4.171
  888SOL     OW 3562   5.565   6.011   3.189
  888SOL    HW1 3563   5.517   6.087   3.144
  888SOL    HW2 3564   5.498   5.945   3.222
  889SOL     OW 3565   1.616   6.465   5.875
  889SOL    HW1 3566   1.593   6.489   5.781
  889SOL    HW2 3567   1.596   6.368   5.890
  890SOL     OW 3568   2.210   5.058   2.044
  890SOL    HW1 3569   2.272   4.980   2.048
  890SOL    HW2 3570   2.239   5.127   2.111
  891SOL     OW 3571   6.153   4.341   0.751
  891SOL    HW1 3572   6.093   4.407   0.796
  891SOL    HW2 3573   6.225   4.313   0.815
  892SOL     OW 3574   3.907   4.097   5.502
  892SOL    HW1 3575   3.962   4.141   5.431
  892SOL    HW2 3576   3.968   4.052   5.568
  893SOL     OW 3577   1.944   1.183   1.873
  893SOL    HW1 3578   1.932   1.101   1.929
  893SOL    HW2 3579   2.029   1.229   1.898
  894SOL     OW 3580   1.609   2.088   3.064
  894SOL    HW1 3581   1.519   2.044   3.071
  894SOL    HW2 3582   1.599   2.187   3.074
  895SOL     OW 3583   1.072   5.637   4.615
  895SOL    HW1 3584   1.126   5.653   4.533
  895SOL    HW2 3585   1.027   5.722   4.643
  896SOL     OW 3586   6.525   6.181   2.105
  896SOL    HW1 3587   6.427   6.194   2.118
  896SOL    HW2 3588   6.572   6.189   2.193
  897SOL     OW 3589   4.624   1.218   0.501
  897SOL    HW1 3590   4.532   1.183   0.486
  897SOL    HW2 3591   4.650   1.203   0.596
  898SOL     OW 3592   4.064   6.071   3.005
  898SOL    HW1 3593   4.155   6.096   3.036
  898SOL    HW2 3594   4.026   6.146   2.950
  899SOL     OW 3595   0.313   5.198   0.530
  899SOL    HW1 3596   0.245   5.235   0.466
  899SOL    HW2 3597   0.269   5.132   0.590
  900SOL     OW 3598   4.337   6.421   0.727
  900SOL    HW1 3599   4.349   6.369   0.642
  900SOL    HW2 3600   4.387   6.376   0.801
  901SOL     OW 3601   0.912   1.206   5.531
  901SOL    HW1 3602   0.875   1.148   5.604
  901SOL    HW2 3603   0.998   1.246   5.561
  902SOL     OW 3604   0.899   2.418   0.404
  902SOL    HW1 3605   0.842   2.500   0.396
  902SOL    HW2 3606   0.899   2.388   0.499
  903SOL     OW 3607   7.008   4.262   6.089
  903SOL    HW1 3608   6.927   4.306   6.128
  903SOL    HW2 3609   7.023   4.295   5.996
  904SOL     OW 3610   2.039   2.482   3.279
  904SOL    HW1 3611   1.959   2.541   3.289
  904SOL    HW2 3612   2.096   2.515   3.204
  905SOL     OW 3613   4.771   3.865   6.004
  905SOL    HW1 3614   4.777   3.789   5.939
  905SOL    HW2 3615   4.678   3.872   6.039
  906SOL     OW 3616   0.762   3.133   5.893
  906SOL    HW1 3617   0.783   3.230   5.887
  906SOL    HW2 3618   0.707   3.105   5.815
  907SOL     OW 3619   6.142   2.911   2.617
  907SOL    HW1 3620   6.166   2.966   2.697
  907SOL    HW2 3621   6.086   2.833   2.646
  908SOL     OW 3622   1.571   6.019   3.290
  908SOL    HW1 3623   1.503   5.946   3.303
  908SOL    HW2 3624   1.633   5.993   3.216
  909SOL     OW 3625   2.903   6.073   2.123
  909SOL    HW1 3626   2.996   6.067   2.159
  909SOL    HW2 3627   2.838   6.074   2.198
  910SOL     OW 3628   2.855   1.017   0.934
  910SOL    HW1 3629   2.887   0.923   0.943
  910SOL    HW2 3630   2.780   1.033   0.998
  911SOL     OW 3631   0.058   5.098   1.012
  911SOL    HW1 3632   0.129   5.168   1.007
  911SOL    HW2 3633   0.021   5.094   1.105
  912SOL     OW 3634   6.129   0.722   4.126
  912SOL    HW1 3635   6.045   0.689   4.082
  912SOL    HW2 3636   6.207   0.704   4.066
  913SOL     OW 3637   1.680   0.906   2.929
  913SOL    HW1 3638   1.753   0.891   2.862
  913SOL    HW2 3639   1.647   1.000   2.921
  914SOL     OW 3640   2.368   6.230   5.018
  914SOL    HW1 3641   2.444   6.189   4.968
  914SOL    HW2 3642   2.320   6.295   4.959
  915SOL     OW 3643   1.408   3.676   6.534
  915SOL    HW1 3644   1.456   3.740   6.474
  915SOL    HW2 3645   1.462   3.593   6.545
  916SOL     OW 3646   1.231   2.671   1.934
  916SOL    HW1 3647   1.200   2.702   1.844
  916SOL    HW2 3648   1.326   2.640   1.926
  917SOL     OW 3649   5.833   0.330   2.208
  917SOL    HW1 3650   5.784   0.349   2.123
  917SOL    HW2 3651   5.813   0.237   2.239
  918SOL     OW 3652   2.664   6.807   0.057
  918SOL    HW1 3653   2.694   6.862   7.005
  918SOL    HW2 3654   2.700   6.714   0.048
  919SOL     OW 3655   6.470   5.459   2.520
  919SOL    HW1 3656   6.430   5.389   2.580
  919SOL    HW2 3657   6.417   5.465   2.435
  920SOL     OW 3658   2.401   5.796   3.239
  920SOL    HW1 3659   2.382   5.814   3.142
  920SOL    HW2 3660   2.317   5.766   3.284
  921SOL     OW 3661   4.646   4.362   3.817
  921SOL    HW1 3662   4.596   4.289   3.771
  921SOL    HW2 3663   4.596   4.390   3.899
  922SOL     OW 3664   3.637   2.833   5.697
  922SOL    HW1 3665   3.721   2.860   5.651
  922SOL    HW2 3666   3.571   2.908   5.694
  923SOL     OW 3667   2.842   4.544   6.042
  923SOL    HW1 3668   2.820   4.592   6.126
  923SOL    HW2 3669   2.878   4.609   5.974
  924SOL     OW 3670   6.323   2.445   2.595
  924SOL    HW1 3671   6.258   2.388   2.544
  924SOL    HW2 3672   6.353   2.521   2.538
  925SOL     OW 3673   6.791   2.174   6.408
  925SOL    HW1 3674   6.739   2.130   6.334
  925SOL    HW2 3675   6.832   2.105   6.466
  926SOL     OW 3676   6.252   1.482   0.416
  926SOL    HW1 3677   6.196   1.489   0.498
  926SOL    HW2 3678   6.251   1.388   0.382
  927SOL     OW 3679   5.883   3.900   3.516
  927SOL    HW1 3680   5.902   3.892   3.418
  927SOL    HW2 3681   5.870   3.809   3.555
  928SOL     OW 3682   1.117   6.382   0.571
  928SOL    HW1 3683   1.207   6.416   0.595
  928SOL    HW2 3684   1.097   6.299   0.624
  929SOL     OW 3685   0.775   0.687   1.196
  929SOL    HW1 3686   0.829   0.611   1.161
  929SOL    HW2 3687   0.801   0.705   1.291
  930SOL     OW 3688   5.526   6.123   4.728
  930SOL    HW1 3689   5.497   6.030   4.705
  930SOL    HW2 3690   5.446   6.180   4.746
  931SOL     OW 3691   5.762   3.133   2.931
  931SOL    HW1 3692   5.775   3.041   2.969
  931SOL    HW2 3693   5.832   3.151   2.862
  932SOL     OW 3694   3.231   6.506   2.869
  932SOL    HW1 3695   3.142   6.517   2.913
  932SOL    HW2 3696   3.276   6.596   2.862
  933SOL     OW 3697   0.837   5.583   3.620
  933SOL    HW1 3698   0.759   5.636   3.654
  933SOL    HW2 3699   0.843   5.590   3.521
  934SOL     OW 3700   1.749   0.550   4.746
  934SOL    HW1 3701   1.763   0.555   4.845
  934SOL    HW2 3702   1.663   0.595   4.723
  935SOL     OW 3703   5.095   4.290   5.074
  935SOL    HW1 3704   5.004   4.258   5.099
  935SOL    HW2 3705   5.162   4.218   5.095
  936SOL     OW 3706   1.559   0.792   6.272
  936SOL    HW1 3707   1.459   0.781   6.278
  936SOL    HW2 3708   1.581   0.890   6.274
  937SOL     OW 3709   4.778   1.594   4.945
  937SOL    HW1 3710   4.837   1.656   4.892
  937SOL    HW2 3711   4.834   1.541   5.008
  938SOL     OW 3712   0.182   5.581   6.167
  938SOL    HW1 3713   0.125   5.517   6.114
  938SOL    HW2 3714   0.260   5.532   6.205
  939SOL     OW 3715   5.596   0.745   5.713
  939SOL    HW1 3716   5.561   0.795   5.634
  939SOL    HW2 3717   5.585   0.646   5.697
  940SOL     OW 3718   0.726   2.967   2.327
  940SOL    HW1 3719   0.753   3.062   2.311
  940SOL    HW2 3720   0.626   2.959   2.322
  941SOL     OW 3721   6.588   0.868   5.035
  941SOL    HW1 3722   6.506   0.896   5.085
  941SOL    HW2 3723   6.568   0.866   4.937
  942SOL     OW 3724   4.944   0.057   3.677
  942SOL    HW1 3725   4.873   0.073   3.608
  942SOL    HW2 3726   4.971   0.144   3.718
  943SOL     OW 3727   1.684   3.339   3.581
  943SOL    HW1 3728   1.756   3.272   3.560
  943SOL    HW2 3729   1.720   3.406   3.646
  944SOL     OW 3730   6.677   4.398   5.498
  944SOL    HW1 3731   6.598   4.459   5.510
  944SOL    HW2 3732   6.759   4.453   5.484
  945SOL     OW 3733   6.435   4.571   5.445
  945SOL    HW1 3734   6.424   4.608   5.353
  945SOL    HW2 3735   6.485   4.636   5.502
  946SOL     OW 3736   4.527   3.030   5.914
  946SOL    HW1 3737   4.440   3.061   5.874
  946SOL    HW2 3738   4.550   3.089   5.991
  947SOL     OW 3739   3.540   2.872   4.225
  947SOL    HW1 3740   3.530   2.783   4.182
  947SOL    HW2 3741   3.636   2.899   4.222
  948SOL     OW 3742   4.162   0.522   0.842
  948SOL    HW1 3743   4.112   0.442   0.874
  948SOL    HW2 3744   4.170   0.518   0.742
  949SOL     OW 3745   0.859   6.747   6.222
  949SOL    HW1 3746   0.881   6.834   6.178
  949SOL    HW2 3747   0.926   6.728   6.294
  950SOL     OW 3748   4.366   4.931   1.847
  950SOL    HW1 3749   4.455   4.894   1.876
  950SOL    HW2 3750   4.354   5.023   1.884
  951SOL     OW 3751   2.127   0.500   2.918
  951SOL    HW1 3752   2.162   0.453   2.837
  951SOL    HW2 3753   2.181   0.473   2.998
  952SOL     OW 3754   5.350   1.889   2.830
  952SOL    HW1 3755   5.397   1.978   2.823
  952SOL    HW2 3756   5.259   1.903   2.869
  953SOL     OW 3757   5.020   5.469   4.551
  953SOL    HW1 3758   5.028   5.375   4.518
  953SOL    HW2 3759   4.984   5.469   4.644
  954SOL     OW 3760   4.888   5.800   0.397
  954SOL    HW1 3761   4.788   5.803   0.408
  954SOL    HW2 3762   4.928   5.754   0.476
  955SOL     OW 3763   0.124   4.299   2.855
  955SOL    HW1 3764   0.210   4.247   2.861
  955SOL    HW2 3765   0.047   4.238   2.874
  956SOL     OW 3766   0.202   2.190   2.785
  956SOL    HW1 3767   0.145   2.235   2.854
  956SOL    HW2 3768   0.148   2.121   2.738
  957SOL     OW 3769   0.471   5.050   4.340
  957SOL    HW1 3770   0.533   5.027   4.415
  957SOL    HW2 3771   0.383   5.078   4.377
  958SOL     OW 3772   4.629   1.960   3.040
  958SOL    HW1 3773   4.568   1.904   2.985
  958SOL    HW2 3774   4.658   1.910   3.121
  959SOL     OW 3775   3.584   5.427   3.315
  959SOL    HW1 3776   3.539   5.365   3.252
  959SOL    HW2 3777   3.519   5.496   3.346
  960SOL     OW 3778   0.642   5.887   3.283
  960SOL    HW1 3779   0.579   5.881   3.206
  960SOL    HW2 3780   0.735   5.898   3.249
  961SOL     OW 3781   4.190   0.221   3.413
  961SOL    HW1 3782   4.159   0.192   3.323
  961SOL    HW2 3783   4.150   0.310   3.436
  962SOL     OW 3784   1.382   1.062   4.104
  962SOL    HW1 3785   1.378   1.156   4.138
  962SOL    HW2 3786   1.337   1.057   4.016
  963SOL     OW 3787   0.086   2.507   6.275
  963SOL    HW1 3788   0.084   2.607   6.273
  963SOL    HW2 3789   0.036   2.471   6.197
  964SOL     OW 3790   6.098   4.274   6.811
  964SOL    HW1 3791   6.131   4.306   6.899
  964SOL    HW2 3792   6.007   4.233   6.822
  965SOL     OW 3793   5.849   1.655   0.791
  965SOL    HW1 3794   5.882   1.721   0.724
  965SOL    HW2 3795   5.775   1.696   0.844
  966SOL     OW 3796   5.406   2.874   1.767
  966SOL    HW1 3797   5.317   2.902   1.803
  966SOL    HW2 3798   5.419   2.913   1.676
  967SOL     OW 3799   2.337   4.461   1.640
  967SOL    HW1 3800   2.297   4.541   1.685
  967SOL    HW2 3801   2.313   4.461   1.543
  968SOL     OW 3802   3.614   1.828   2.123
  968SOL    HW1 3803   3.554   1.779   2.187
  968SOL    HW2 3804   3.562   1.902   2.080
  969SOL     OW 3805   3.492   5.914   6.684
  969SOL    HW1 3806   3.486   5.926   6.585
  969SOL    HW2 3807   3.440   5.833   6.711
  970SOL     OW 3808   4.707   0.858   6.047
  970SOL    HW1 3809   4.740   0.833   5.956
  970SOL    HW2 3810   4.608   0.870   6.044
  971SOL     OW 3811   6.667   2.062   3.259
  971SOL    HW1 3812   6.639   2.081   3.165
  971SOL    HW2 3813   6.693   1.965   3.267
  972SOL     OW 3814   5.947   3.826   1.548
  972SOL    HW1 3815   5.944   3.810   1.449
  972SOL    HW2 3816   5.990   3.748   1.593
  973SOL     OW 3817   6.773   4.557   6.960
  973SOL    HW1 3818   6.754   4.631   7.025
  973SOL    HW2 3819   6.831   4.592   6.886
  974SOL     OW 3820   5.860   0.132   2.723
  974SOL    HW1 3821   5.896   0.223   2.703
  974SOL    HW2 3822   5.793   0.106   2.653
  975SOL     OW 3823   1.542   5.406   6.474
  975SOL    HW1 3824   1.640   5.390   6.485
  975SOL    HW2 3825   1.527   5.488   6.420
  976SOL     OW 3826   6.788   3.461   3.078
  976SOL    HW1 3827   6.715   3.527   3.099
  976SOL    HW2 3828   6.841   3.441   3.160
  977SOL     OW 3829   1.145   0.890   2.906
  977SOL    HW1 3830   1.056   0.908   2.947
  977SOL    HW2 3831   1.188   0.976   2.880
  978SOL     OW 3832   4.804   3.733   5.513
  978SOL    HW1 3833   4.809   3.642   5.553
  978SOL    HW2 3834   4.803   3.801   5.587
  979SOL     OW 3835   6.915   2.275   0.976
  979SOL    HW1 3836   6.929   2.268   1.075
  979SOL    HW2 3837   6.864   2.359   0.956
  980SOL     OW 3838   4.292   2.398   3.972
  980SOL    HW1 3839   4.276   2.397   4.071
  980SOL    HW2 3840   4.346   2.318   3.947
  981SOL     OW 3841   0.965   2.125   5.321
  981SOL    HW1 3842   1.043   2.083   5.367
  981SOL    HW2 3843   0.995   2.164   5.234
  982SOL     OW 3844   2.364   2.269   3.651
  982SOL    HW1 3845   2.297   2.265   3.725
  982SOL    HW2 3846   2.321   2.306   3.569
  983SOL     OW 3847   5.841   2.030   4.765
  983SOL    HW1 3848   5.938   2.048   4.750
  983SOL    HW2 3849   5.813   2.070   4.852
  984SOL     OW 3850   2.786   1.837   4.694
  984SOL    HW1 3851   2.702   1.870   4.651
  984SOL    HW2 3852   2.865   1.880   4.649
  985SOL     OW 3853   4.945   4.683   6.177
  985SOL    HW1 3854   4.987   4.765   6.215
  985SOL    HW2 3855   4.919   4.699   6.082
  986SOL     OW 3856   5.354   4.438   0.755
  986SOL    HW1 3857   5.309   4.407   0.838
  986SOL    HW2 3858   5.453   4.443   0.770
  987SOL     OW 3859   4.181   6.951   2.152
  987SOL    HW1 3860   4.140   7.022   2.096
  987SOL    HW2 3861   4.232   6.993   2.227
  988SOL     OW 3862   3.289   3.291   2.869
  988SOL    HW1 3863   3.340   3.249   2.794
  988SOL    HW2 3864   3.344   3.286   2.953
  989SOL     OW 3865   6.734   0.658   5.184
  989SOL    HW1 3866   6.673   0.665   5.105
  989SOL    HW2 3867   6.713   0.732   5.248
  990SOL     OW 3868   4.045   0.172   1.806
  990SOL    HW1 3869   4.005   0.169   1.898
  990SOL    HW2 3870   3.974   0.188   1.739
  991SOL     OW 3871   1.278   2.904   5.336
  991SOL    HW1 3872   1.300   2.982   5.395
  991SOL    HW2 3873   1.327   2.913   5.250
  992SOL     OW 3874   6.960   2.599   2.287
  992SOL    HW1 3875   6.944   2.504   2.259
  992SOL    HW2 3876   7.013   2.600   2.371
  993SOL     OW 3877   1.691   4.319   1.807
  993SOL    HW1 3878   1.782   4.322   1.765
  993SOL    HW2 3879   1.695   4.267   1.891
  994SOL     OW 3880   3.369   3.789   2.235
  994SOL    HW1 3881   3.318   3.714   2.276
  994SOL    HW2 3882   3.307   3.865   2.216
  995SOL     OW 3883   3.585   2.703   5.320
  995SOL    HW1 3884   3.628   2.642   5.387
  995SOL    HW2 3885   3.655   2.738   5.258
  996SOL     OW 3886   2.519   4.506   3.982
  996SOL    HW1 3887   2.467   4.438   4.034
  996SOL    HW2 3888   2.521   4.592   4.033
  997SOL     OW 3889   1.280   0.706   2.745
  997SOL    HW1 3890   1.215   0.772   2.782
  997SOL    HW2 3891   1.349   0.685   2.814
  998SOL     OW 3892   4.108   6.908   4.435
  998SOL    HW1 3893   4.061   6.822   4.417
  998SOL    HW2 3894   4.138   6.910   4.531
  999SOL     OW 3895   5.328   4.233   1.937
  999SOL    HW1 3896   5.275   4.160   1.980
  999SOL    HW2 3897   5.395   4.193   1.874
 1000SOL     OW 3898   2.044   1.179   2.343
 1000SOL    HW1 3899   2.101   1.097   2.348
 1000SOL    HW2 3900   1.948   1.152   2.329
 1001SOL     OW 3901   5.393   6.312   0.766
 1001SOL    HW1 3902   5.413   6.216   0.749
 1001SOL    HW2 3903   5.478   6.361   0.786
 1002SOL     OW 3904   6.256   1.647   0.181
 1002SOL    HW1 3905   6.265   1.616   0.275
 1002SOL    HW2 3906   6.255   1.747   0.178
 1003SOL     OW 3907   2.219   6.021   1.578
 1003SOL    HW1 3908   2.172   5.948   1.529
 1003SOL    HW2 3909   2.268   5.983   1.656
 1004SOL     OW 3910   0.527   0.667   1.761
 1004SOL    HW1 3911   0.453   0.724   1.727
 1004SOL    HW2 3912   0.586   0.640   1.684
 1005SOL     OW 3913   1.395   2.594   3.684
 1005SOL    HW1 3914   1.403   2.623   3.589
 1005SOL    HW2 3915   1.325   2.523   3.692
 1006SOL     OW 3916   1.348   5.162   1.025
 1006SOL    HW1 3917   1.346   5.115   1.114
 1006SOL    HW2 3918   1.295   5.109   0.959
 1007SOL     OW 3919   5.052   0.366   4.963
 1007SOL    HW1 3920   5.027   0.447   5.017
 1007SOL    HW2 3921   5.151   0.360   4.956
 1008SOL     OW 3922   1.863   3.161   4.795
 1008SOL    HW1 3923   1.876   3.104   4.876
 1008SOL    HW2 3924   1.788   3.225   4.811
 1009SOL     OW 3925   0.037   5.713   5.117
 1009SOL    HW1 3926   0.105   5.739   5.185
 1009SOL    HW2 3927   7.001   5.645   5.157
 1010SOL     OW 3928   3.732   2.344   5.828
 1010SOL    HW1 3929   3.721   2.426   5.772
 1010SOL    HW2 3930   3.795   2.364   5.904
 1011SOL     OW 3931   2.575   4.908   2.369
 1011SOL    HW1 3932   2.560   4.851   2.450
 1011SOL    HW2 3933   2.491   4.915   2.316
 1012SOL     OW 3934   6.439   0.652   1.244
 1012SOL    HW1 3935   6.502   0.719   1.283
 1012SOL    HW2 3936   6.345   0.684   1.258
 1013SOL     OW 3937   0.866   1.241   6.068
 1013SOL    HW1 3938   0.821   1.281   5.988
 1013SOL    HW2 3939   0.857   1.141   6.064
 1014SOL     OW 3940   5.152   5.733   6.492
 1014SOL    HW1 3941   5.066   5.778   6.515
 1014SOL    HW2 3942   5.146   5.693   6.401
 1015SOL     OW 3943   2.629   0.042   5.427
 1015SOL    HW1 3944   2.538   0.006   5.448
 1015SOL    HW2 3945   2.622   0.119   5.364
 1016SOL     OW 3946   3.650   3.614   6.954
 1016SOL    HW1 3947   3.740   3.587   6.921
 1016SOL    HW2 3948   3.583   3.544   6.928
 1017SOL     OW 3949   4.115   2.527   1.147
 1017SOL    HW1 3950   4.145   2.523   1.052
 1017SOL    HW2 3951   4.044   2.458   1.163
 1018SOL     OW 3952   0.787   3.550   4.196
 1018SOL    HW1 3953   0.742   3.612   4.131
 1018SOL    HW2 3954   0.864   3.597   4.239
 1019SOL     OW 3955   6.910   0.173   1.660
 1019SOL    HW1 3956   6.924   0.074   1.649
 1019SOL    HW2 3957   6.958   0.205   1.741
 1020SOL     OW 3958   0.965   6.622   1.143
 1020SOL    HW1 3959   0.909   6.566   1.082
 1020SOL    HW2 3960   1.059   6.625   1.109
 1021SOL     OW 3961   4.909   0.261   1.359
 1021SOL    HW1 3962   4.876   0.170   1.334
 1021SOL    HW2 3963   4.835   0.312   1.405
 1022SOL     OW 3964   3.480   4.861   6.142
 1022SOL    HW1 3965   3.555   4.796   6.152
 1022SOL    HW2 3966   3.397   4.812   6.114
 1023SOL     OW 3967   0.779   6.790   2.932
 1023SOL    HW1 3968   0.873   6.761   2.949
 1023SOL    HW2 3969   0.716   6.718   2.962
 1024SOL     OW 3970   6.828   2.852   4.022
 1024SOL    HW1 3971   6.908   2.912   4.014
 1024SOL    HW2 3972   6.751   2.904   4.057
 1025SOL     OW 3973   2.616   2.856   0.652
 1025SOL    HW1 3974   2.622   2.939   0.596
 1025SOL    HW2 3975   2.687   2.858   0.722
 1026SOL     OW 3976   2.687   2.717   1.456
 1026SOL    HW1 3977   2.619   2.646   1.476
 1026SOL    HW2 3978   2.767   2.676   1.412
 1027SOL     OW 3979   2.826   6.649   1.143
 1027SOL    HW1 3980   2.792   6.717   1.078
 1027SOL    HW2 3981   2.914   6.614   1.111
 1028SOL     OW 3982   2.636   6.286   0.214
 1028SOL    HW1 3983   2.584   6.248   0.290
 1028SOL    HW2 3984   2.583   6.281   0.130
 1029SOL     OW 3985   1.830   0.449   0.415
 1029SOL    HW1 3986   1.789   0.489   0.333
 1029SOL    HW2 3987   1.925   0.478   0.423
 1030SOL     OW 3988   3.273   3.545   1.890
 1030SOL    HW1 3989   3.229   3.621   1.842
 1030SOL    HW2 3990   3.204   3.476   1.914
 1031SOL     OW 3991   4.853   5.272   0.872
 1031SOL    HW1 3992   4.904   5.231   0.796
 1031SOL    HW2 3993   4.860   5.372   0.867
 1032SOL     OW 3994   1.981   1.794   4.853
 1032SOL    HW1 3995   2.059   1.751   4.807
 1032SOL    HW2 3996   2.007   1.816   4.947
 1033SOL     OW 3997   1.597   6.169   0.793
 1033SOL    HW1 3998   1.681   6.163   0.847
 1033SOL    HW2 3999   1.606   6.245   0.728
 1034SOL     OW 4000   0.562   5.683   5.184
 1034SOL    HW1 4001   0.603   5.657   5.271
 1034SOL    HW2 4002   0.473   5.725   5.200
 1035SOL     OW 4003   1.271   1.123   4.854
 1035SOL    HW1 4004   1.176   1.150   4.836
 1035SOL    HW2 4005   1.293   1.041   4.803
 1036SOL     OW 4006   3.187   0.978   1.994
 1036SOL    HW1 4007   3.223   1.072   1.995
 1036SOL    HW2 4008   3.093   0.979   1.961
 1037SOL     OW 4009   1.492   0.396   1.832
 1037SOL    HW1 4010   1.411   0.343   1.859
 1037SOL    HW2 4011   1.572   0.362   1.881
 1038SOL     OW 4012   1.451   0.015   5.653
 1038SOL    HW1 4013   1.457   6.942   5.664
 1038SOL    HW2 4014   1.515   0.045   5.583
 1039SOL     OW 4015   3.503   3.110   5.900
 1039SOL    HW1 4016   3.562   3.190   5.894
 1039SOL    HW2 4017   3.505   3.074   5.994
 1040SOL     OW 4018   4.862   2.882   2.799
 1040SOL    HW1 4019   4.869   2.969   2.751
 1040SOL    HW2 4020   4.787   2.828   2.759
 1041SOL     OW 4021   6.729   6.942   4.387
 1041SOL    HW1 4022   6.679   6.901   4.463
 1041SOL    HW2 4023   6.779   7.022   4.420
 1042SOL     OW 4024   4.356   5.033   2.396
 1042SOL    HW1 4025   4.414   4.962   2.438
 1042SOL    HW2 4026   4.287   5.062   2.462
 1043SOL     OW 4027   3.655   1.573   4.810
 1043SOL    HW1 4028   3.651   1.475   4.793
 1043SOL    HW2 4029   3.566   1.605   4.843
 1044SOL     OW 4030   5.074   4.195   2.296
 1044SOL    HW1 4031   4.983   4.234   2.282
 1044SOL    HW2 4032   5.091   4.124   2.227
 1045SOL     OW 4033   4.208   6.428   2.374
 1045SOL    HW1 4034   4.187   6.469   2.462
 1045SOL    HW2 4035   4.279   6.481   2.328
 1046SOL     OW 4036   0.954   0.331   0.447
 1046SOL    HW1 4037   0.921   0.367   0.535
 1046SOL    HW2 4038   0.876   0.304   0.391
 1047SOL     OW 4039   1.899   0.681   3.069
 1047SOL    HW1 4040   1.961   0.612   3.032
 1047SOL    HW2 4041   1.805   0.658   3.044
 1048SOL     OW 4042   5.701   6.220   4.921
 1048SOL    HW1 4043   5.647   6.149   4.876
 1048SOL    HW2 4044   5.680   6.309   4.882
 1049SOL     OW 4045   6.101   5.573   4.198
 1049SOL    HW1 4046   6.115   5.478   4.171
 1049SOL    HW2 4047   6.003   5.593   4.198
 1050SOL     OW 4048   4.408   5.370   1.061
 1050SOL    HW1 4049   4.478   5.436   1.036
 1050SOL    HW2 4050   4.434   5.279   1.029
 1051SOL     OW 4051   2.482   6.091   1.233
 1051SOL    HW1 4052   2.422   6.055   1.162
 1051SOL    HW2 4053   2.563   6.132   1.191
 1052SOL     OW 4054   3.906   0.434   4.648
 1052SOL    HW1 4055   3.894   0.531   4.669
 1052SOL    HW2 4056   4.003   0.410   4.655
 1053SOL     OW 4057   6.059   4.705   3.019
 1053SOL    HW1 4058   6.053   4.785   3.080
 1053SOL    HW2 4059   5.981   4.645   3.036
 1054SOL     OW 4060   2.307   4.279   5.782
 1054SOL    HW1 4061   2.385   4.286   5.720
 1054SOL    HW2 4062   2.284   4.370   5.817
 1055SOL     OW 4063   5.269   6.350   4.104
 1055SOL    HW1 4064   5.354   6.402   4.115
 1055SOL    HW2 4065   5.241   6.353   4.008
 1056SOL     OW 4066   1.493   5.130   5.581
 1056SOL    HW1 4067   1.485   5.051   5.642
 1056SOL    HW2 4068   1.565   5.112   5.513
 1057SOL     OW 4069   3.031   3.188   2.475
 1057SOL    HW1 4070   3.050   3.101   2.431
 1057SOL    HW2 4071   2.988   3.251   2.410
 1058SOL     OW 4072   4.706   1.611   3.288
 1058SOL    HW1 4073   4.750   1.604   3.377
 1058SOL    HW2 4074   4.770   1.583   3.217
 1059SOL     OW 4075   2.185   0.106   1.385
 1059SOL    HW1 4076   2.237   0.162   1.450
 1059SOL    HW2 4077   2.153   0.164   1.310
 1060SOL     OW 4078   0.152   4.339   4.396
 1060SOL    HW1 4079   0.163   4.272   4.322
 1060SOL    HW2 4080   0.089   4.303   4.464
 1061SOL     OW 4081   5.639   3.887   1.333
 1061SOL    HW1 4082   5.549   3.875   1.290
 1061SOL    HW2 4083   5.632   3.869   1.431
 1062SOL     OW 4084   5.792   3.676   6.274
 1062SOL    HW1 4085   5.724   3.661   6.202
 1062SOL    HW2 4086   5.878   3.706   6.233
 1063SOL     OW 4087   1.941   4.828   1.684
 1063SOL    HW1 4088   1.866   4.893   1.672
 1063SOL    HW2 4089   2.025   4.879   1.702
 1064SOL     OW 4090   1.932   3.936   1.950
 1064SOL    HW1 4091   2.031   3.941   1.962
 1064SOL    HW2 4092   1.910   3.940   1.853
 1065SOL     OW 4093   4.188   0.035   3.990
 1065SOL    HW1 4094   4.201   0.057   4.087
 1065SOL    HW2 4095   4.161   0.117   3.940
 1066SOL     OW 4096   4.639   0.576   3.968
 1066SOL    HW1 4097   4.666   0.659   3.918
 1066SOL    HW2 4098   4.539   0.573   3.976
 1067SOL     OW 4099   0.686   3.133   0.671
 1067SOL    HW1 4100   0.635   3.049   0.651
 1067SOL    HW2 4101   0.737   3.162   0.590
 1068SOL     OW 4102   5.349   4.811   2.793
 1068SOL    HW1 4103   5.391   4.753   2.863
 1068SOL    HW2 4104   5.328   4.901   2.832
 1069SOL     OW 4105   4.618   4.694   0.815
 1069SOL    HW1 4106   4.651   4.712   0.907
 1069SOL    HW2 4107   4.644   4.770   0.755
 1070SOL     OW 4108   0.205   0.016   2.237
 1070SOL    HW1 4109   0.138   0.054   2.301
 1070SOL    HW2 4110   0.271   0.087   2.213
 1071SOL     OW 4111   1.930   0.179   3.189
 1071SOL    HW1 4112   1.846   0.150   3.235
 1071SOL    HW2 4113   1.912   0.190   3.091
 1072SOL     OW 4114   1.586   0.464   1.066
 1072SOL    HW1 4115   1.583   0.367   1.039
 1072SOL    HW2 4116   1.665   0.479   1.125
 1073SOL     OW 4117   4.740   6.586   1.903
 1073SOL    HW1 4118   4.838   6.590   1.880
 1073SOL    HW2 4119   4.686   6.610   1.822
 1074SOL     OW 4120   2.761   5.116   0.912
 1074SOL    HW1 4121   2.709   5.143   0.993
 1074SOL    HW2 4122   2.733   5.171   0.833
 1075SOL     OW 4123   4.358   6.805   4.098
 1075SOL    HW1 4124   4.270   6.847   4.074
 1075SOL    HW2 4125   4.417   6.802   4.017
 1076SOL     OW 4126   6.635   3.893   5.373
 1076SOL    HW1 4127   6.726   3.865   5.404
 1076SOL    HW2 4128   6.633   3.894   5.273
 1077SOL     OW 4129   5.527   0.318   0.839
 1077SOL    HW1 4130   5.431   0.315   0.810
 1077SOL    HW2 4131   5.533   0.325   0.938
 1078SOL     OW 4132   0.774   1.463   2.162
 1078SOL    HW1 4133   0.774   1.468   2.062
 1078SOL    HW2 4134   0.766   1.368   2.191
 1079SOL     OW 4135   1.970   6.214   2.206
 1079SOL    HW1 4136   1.883   6.199   2.158
 1079SOL    HW2 4137   2.028   6.275   2.152
 1080SOL     OW 4138   1.415   4.431   3.511
 1080SOL    HW1 4139   1.349   4.504   3.530
 1080SOL    HW2 4140   1.470   4.414   3.593
 1081SOL     OW 4141   0.362   6.214   6.133
 1081SOL    HW1 4142   0.302   6.294   6.134
 1081SOL    HW2 4143   0.453   6.240   6.166
 1082SOL     OW 4144   3.865   1.735   5.728
 1082SOL    HW1 4145   3.769   1.729   5.754
 1082SOL    HW2 4146   3.917   1.777   5.803
 1083SOL     OW 4147   4.052   3.896   0.862
 1083SOL    HW1 4148   4.097   3.949   0.934
 1083SOL    HW2 4149   4.118   3.835   0.819
 1084SOL     OW 4150   6.183   5.732   0.321
 1084SOL    HW1 4151   6.108   5.798   0.324
 1084SOL    HW2 4152   6.183   5.686   0.232
 1085SOL     OW 4153   1.180   3.498   4.042
 1085SOL    HW1 4154   1.262   3.478   3.988
 1085SOL    HW2 4155   1.105   3.523   3.980
 1086SOL     OW 4156   6.535   6.437   1.654
 1086SOL    HW1 4157   6.617   6.429   1.709
 1086SOL    HW2 4158   6.552   6.401   1.562
 1087SOL     OW 4159   6.008   2.523   5.672
 1087SOL    HW1 4160   6.003   2.610   5.722
 1087SOL    HW2 4161   5.954   2.454   5.721
 1088SOL     OW 4162   6.348   4.609   3.365
 1088SOL    HW1 4163   6.332   4.556   3.281
 1088SOL    HW2 4164   6.419   4.678   3.347
 1089SOL     OW 4165   1.379   6.417   4.588
 1089SOL    HW1 4166   1.355   6.320   4.586
 1089SOL    HW2 4167   1.476   6.427   4.609
 1090SOL     OW 4168   2.433   1.563   3.641
 1090SOL    HW1 4169   2.436   1.478   3.693
 1090SOL    HW2 4170   2.338   1.586   3.620
 1091SOL     OW 4171   2.430   2.844   5.508
 1091SOL    HW1 4172   2.471   2.764   5.464
 1091SOL    HW2 4173   2.396   2.907   5.439
 1092SOL     OW 4174   1.674   4.132   0.779
 1092SOL    HW1 4175   1.673   4.228   0.807
 1092SOL    HW2 4176   1.749   4.084   0.825
 1093SOL     OW 4177   1.297   1.889   2.217
 1093SOL    HW1 4178   1.369   1.852   2.276
 1093SOL    HW2 4179   1.222   1.823   2.211
 1094SOL     OW 4180   0.825   6.215   3.773
 1094SOL    HW1 4181   0.756   6.287   3.782
 1094SOL    HW2 4182   0.824   6.179   3.680
 1095SOL     OW 4183   0.632   2.665   6.280
 1095SOL    HW1 4184   0.669   2.705   6.197
 1095SOL    HW2 4185   0.666   2.715   6.360
 1096SOL     OW 4186   3.372   4.380   1.706
 1096SOL    HW1 4187   3.309   4.380   1.784
 1096SOL    HW2 4188   3.447   4.444   1.723
 1097SOL     OW 4189   1.917   4.131   4.117
 1097SOL    HW1 4190   2.001   4.169   4.156
 1097SOL    HW2 4191   1.880   4.194   4.049
 1098SOL     OW 4192   4.616   3.723   0.960
 1098SOL    HW1 4193   4.575   3.705   0.871
 1098SOL    HW2 4194   4.578   3.660   1.028
 1099SOL     OW 4195   4.141   1.737   5.148
 1099SOL    HW1 4196   4.218   1.676   5.131
 1099SOL    HW2 4197   4.067   1.715   5.085
 1100SOL     OW 4198   3.570   2.063   6.088
 1100SOL    HW1 4199   3.528   2.145   6.050
 1100SOL    HW2 4200   3.516   1.983   6.063
 1101SOL     OW 4201   6.097   1.987   0.380
 1101SOL    HW1 4202   6.042   2.063   0.417
 1101SOL    HW2 4203   6.098   1.912   0.446
 1102SOL     OW 4204   0.867   5.860   4.473
 1102SOL    HW1 4205   0.789   5.801   4.496
 1102SOL    HW2 4206   0.900   5.837   4.381
 1103SOL     OW 4207   3.470   1.865   1.128
 1103SOL    HW1 4208   3.394   1.930   1.129
 1103SOL    HW2 4209   3.467   1.811   1.044
 1104SOL     OW 4210   2.300   3.383   5.293
 1104SOL    HW1 4211   2.367   3.448   5.329
 1104SOL    HW2 4212   2.319   3.292   5.330
 1105SOL     OW 4213   6.244   3.791   5.035
 1105SOL    HW1 4214   6.278   3.735   5.111
 1105SOL    HW2 4215   6.176   3.856   5.070
 1106SOL     OW 4216   0.828   2.063   1.373
 1106SOL    HW1 4217   0.830   1.985   1.310
 1106SOL    HW2 4218   0.857   2.033   1.464
 1107SOL     OW 4219   2.373   0.229   6.411
 1107SOL    HW1 4220   2.281   0.193   6.430
 1107SOL    HW2 4221   2.412   0.266   6.495
 1108SOL     OW 4222   3.434   0.872   5.526
 1108SOL    HW1 4223   3.525   0.897   5.494
 1108SOL    HW2 4224   3.369   0.945   5.502
 1109SOL     OW 4225   4.893   0.062   4.537
 1109SOL    HW1 4226   4.821   0.061   4.468
 1109SOL    HW2 4227   4.856   0.028   4.624
 1110SOL     OW 4228   2.403   2.123   3.149
 1110SOL    HW1 4229   2.439   2.101   3.240
 1110SOL    HW2 4230   2.364   2.040   3.108
 1111SOL     OW 4231   5.237   4.787   6.460
 1111SOL    HW1 4232   5.327   4.830   6.466
 1111SOL    HW2 4233   5.245   4.690   6.483
 1112SOL     OW 4234   5.059   1.379   2.182
 1112SOL    HW1 4235   5.130   1.337   2.125
 1112SOL    HW2 4236   5.061   1.338   2.273
 1113SOL     OW 4237   0.136   3.197   2.521
 1113SOL    HW1 4238   0.103   3.272   2.463
 1113SOL    HW2 4239   0.078   3.191   2.603
 1114SOL     OW 4240   4.415   1.723   6.322
 1114SOL    HW1 4241   4.508   1.700   6.352
 1114SOL    HW2 4242   4.351   1.710   6.398
 1115SOL     OW 4243   4.378   3.179   0.318
 1115SOL    HW1 4244   4.290   3.141   0.290
 1115SOL    HW2 4245   4.396   3.155   0.414
 1116SOL     OW 4246   5.345   6.120   5.229
 1116SOL    HW1 4247   5.333   6.202   5.174
 1116SOL    HW2 4248   5.263   6.064   5.225
 1117SOL     OW 4249   1.481   2.453   1.339
 1117SOL    HW1 4250   1.469   2.395   1.258
 1117SOL    HW2 4251   1.456   2.547   1.315
 1118SOL     OW 4252   2.759   4.385   1.439
 1118SOL    HW1 4253   2.686   4.318   1.423
 1118SOL    HW2 4254   2.748   4.426   1.529
 1119SOL     OW 4255   4.191   3.932   0.244
 1119SOL    HW1 4256   4.246   4.011   0.216
 1119SOL    HW2 4257   4.167   3.878   0.164
 1120SOL     OW 4258   6.151   0.104   4.873
 1120SOL    HW1 4259   6.112   0.053   4.796
 1120SOL    HW2 4260   6.137   0.054   4.958
 1121SOL     OW 4261   5.096   4.949   2.660
 1121SOL    HW1 4262   5.158   4.910   2.592
 1121SOL    HW2 4263   5.030   4.879   2.688
 1122SOL     OW 4264   5.067   3.357   6.881
 1122SOL    HW1 4265   5.110   3.415   6.811
 1122SOL    HW2 4266   4.974   3.390   6.898
 1123SOL     OW 4267   5.287   1.369   3.761
 1123SOL    HW1 4268   5.285   1.303   3.686
 1123SOL    HW2 4269   5.260   1.324   3.846
 1124SOL     OW 4270   6.207   4.179   5.068
 1124SOL    HW1 4271   6.138   4.108   5.082
 1124SOL    HW2 4272   6.238   4.176   4.972
 1125SOL     OW 4273   2.999   1.347   5.001
 1125SOL    HW1 4274   3.006   1.340   4.902
 1125SOL    HW2 4275   2.964   1.438   5.026
 1126SOL     OW 4276   5.393   5.223   6.536
 1126SOL    HW1 4277   5.342   5.213   6.621
 1126SOL    HW2 4278   5.490   5.235   6.556
 1127SOL     OW 4279   4.647   5.142   4.386
 1127SOL    HW1 4280   4.622   5.234   4.359
 1127SOL    HW2 4281   4.565   5.090   4.409
 1128SOL     OW 4282   5.506   1.976   5.561
 1128SOL    HW1 4283   5.587   1.941   5.515
 1128SOL    HW2 4284   5.445   1.901   5.583
 1129SOL     OW 4285   3.296   0.632   6.989
 1129SOL    HW1 4286   3.207   0.607   7.025
 1129SOL    HW2 4287   3.286   0.666   6.895
 1130SOL     OW 4288   1.849   4.611   0.637
 1130SOL    HW1 4289   1.841   4.642   0.542
 1130SOL    HW2 4290   1.842   4.690   0.698
 1131SOL     OW 4291   6.913   6.292   6.331
 1131SOL    HW1 4292   6.995   6.278   6.387
 1131SOL    HW2 4293   6.877   6.204   6.301
 1132SOL     OW 4294   4.807   0.014   1.353
 1132SOL    HW1 4295   4.839   6.995   1.270
 1132SOL    HW2 4296   4.862   7.009   1.431
 1133SOL     OW 4297   0.937   0.417   1.186
 1133SOL    HW1 4298   0.889   0.377   1.107
 1133SOL    HW2 4299   0.898   0.380   1.270
 1134SOL     OW 4300   4.837   1.314   1.696
 1134SOL    HW1 4301   4.779   1.394   1.684
 1134SOL    HW2 4302   4.929   1.333   1.662
 1135SOL     OW 4303   1.925   1.388   2.786
 1135SOL    HW1 4304   1.925   1.398   2.886
 1135SOL    HW2 4305   1.841   1.341   2.758
 1136SOL     OW 4306   2.930   4.842   4.623
 1136SOL    HW1 4307   2.946   4.862   4.719
 1136SOL    HW2 4308   2.976   4.756   4.599
 1137SOL     OW 4309   1.449   1.437   6.005
 1137SOL    HW1 4310   1.377   1.506   5.998
 1137SOL    HW2 4311   1.414   1.356   6.050
 1138SOL     OW 4312   0.635   1.316   6.858
 1138SOL    HW1 4313   0.728   1.349   6.874
 1138SOL    HW2 4314   0.614   1.242   6.922
 1139SOL     OW 4315   3.395   5.524   1.432
 1139SOL    HW1 4316   3.465   5.591   1.456
 1139SOL    HW2 4317   3.420   5.434   1.470
 1140SOL     OW 4318   3.980   1.086   2.011
 1140SOL    HW1 4319   3.904   1.054   2.068
 1140SOL    HW2 4320   3.945   1.138   1.934
 1141SOL     OW 4321   0.231   6.989   6.528
 1141SOL    HW1 4322   0.205   0.051   6.568
 1141SOL    HW2 4323   0.287   7.004   6.447
 1142SOL     OW 4324   2.841   0.478   4.348
 1142SOL    HW1 4325   2.793   0.559   4.313
 1142SOL    HW2 4326   2.792   0.396   4.318
 1143SOL     OW 4327   1.476   3.440   2.140
 1143SOL    HW1 4328   1.430   3.367   2.191
 1143SOL    HW2 4329   1.430   3.454   2.053
 1144SOL     OW 4330   6.477   5.017   5.321
 1144SOL    HW1 4331   6.515   5.013   5.413
 1144SOL    HW2 4332   6.400   4.953   5.314
 1145SOL     OW 4333   0.288   3.950   2.109
 1145SOL    HW1 4334   0.299   3.862   2.154
 1145SOL    HW2 4335   0.213   3.945   2.043
 1146SOL     OW 4336   6.140   0.813   1.980
 1146SOL    HW1 4337   6.112   0.733   1.927
 1146SOL    HW2 4338   6.209   0.864   1.929
 1147SOL     OW 4339   1.757   5.392   0.891
 1147SOL    HW1 4340   1.775   5.351   0.980
 1147SOL    HW2 4341   1.659   5.387   0.872
 1148SOL     OW 4342   4.910   0.110   0.120
 1148SOL    HW1 4343   4.839   0.040   0.130
 1148SOL    HW2 4344   4.940   0.113   0.024
 1149SOL     OW 4345   6.423   4.189   2.504
 1149SOL    HW1 4346   6.342   4.177   2.447
 1149SOL    HW2 4347   6.482   4.259   2.464
 1150SOL     OW 4348   2.894   4.104   0.663
 1150SOL    HW1 4349   2.937   4.015   0.677
 1150SOL    HW2 4350   2.833   4.100   0.584
 1151SOL     OW 4351   4.236   5.224   6.676
 1151SOL    HW1 4352   4.251   5.277   6.593
 1151SOL    HW2 4353   4.323   5.184   6.705
 1152SOL     OW 4354   6.429   5.453   6.062
 1152SOL    HW1 4355   6.335   5.449   6.098
 1152SOL    HW2 4356   6.492   5.421   6.133
 1153SOL     OW 4357   2.455   6.884   2.495
 1153SOL    HW1 4358   2.459   6.817   2.569
 1153SOL    HW2 4359   2.359   6.908   2.478
 1154SOL     OW 4360   0.766   4.070   1.634
 1154SOL    HW1 4361   0.716   3.989   1.665
 1154SOL    HW2 4362   0.821   4.047   1.554
 1155SOL     OW 4363   2.051   5.515   6.674
 1155SOL    HW1 4364   2.026   5.419   6.676
 1155SOL    HW2 4365   1.991   5.567   6.734
 1156SOL     OW 4366   2.754   1.195   4.889
 1156SOL    HW1 4367   2.715   1.115   4.843
 1156SOL    HW2 4368   2.854   1.192   4.881
 1157SOL     OW 4369   6.112   0.548   5.226
 1157SOL    HW1 4370   6.057   0.601   5.291
 1157SOL    HW2 4371   6.146   0.465   5.272
 1158SOL     OW 4372   0.249   6.119   5.356
 1158SOL    HW1 4373   0.163   6.164   5.380
 1158SOL    HW2 4374   0.263   6.125   5.257
 1159SOL     OW 4375   6.199   6.697   4.390
 1159SOL    HW1 4376   6.288   6.719   4.430
 1159SOL    HW2 4377   6.144   6.780   4.384
 1160SOL     OW 4378   3.579   3.237   0.742
 1160SOL    HW1 4379   3.537   3.190   0.665
 1160SOL    HW2 4380   3.671   3.200   0.758
 1161SOL     OW 4381   5.888   0.493   6.740
 1161SOL    HW1 4382   5.799   0.451   6.757
 1161SOL    HW2 4383   5.911   0.553   6.817
 1162SOL     OW 4384   2.683   2.046   6.435
 1162SOL    HW1 4385   2.615   1.977   6.463
 1162SOL    HW2 4386   2.771   2.022   6.475
 1163SOL     OW 4387   6.749   3.296   1.532
 1163SOL    HW1 4388   6.653   3.276   1.552
 1163SOL    HW2 4389   6.769   3.271   1.437
 1164SOL     OW 4390   5.290   2.742   4.915
 1164SOL    HW1 4391   5.363   2.679   4.888
 1164SOL    HW2 4392   5.314   2.786   5.002
 1165SOL     OW 4393   2.599   4.648   3.760
 1165SOL    HW1 4394   2.635   4.730   3.803
 1165SOL    HW2 4395   2.596   4.573   3.826
 1166SOL     OW 4396   3.711   6.849   0.189
 1166SOL    HW1 4397   3.629   6.811   0.232
 1166SOL    HW2 4398   3.754   6.915   0.251
 1167SOL     OW 4399   4.261   6.613   6.477
 1167SOL    HW1 4400   4.354   6.647   6.487
 1167SOL    HW2 4401   4.263   6.520   6.440
 1168SOL     OW 4402   5.375   1.868   4.060
 1168SOL    HW1 4403   5.459   1.843   4.108
 1168SOL    HW2 4404   5.370   1.819   3.973
 1169SOL     OW 4405   5.620   2.583   6.201
 1169SOL    HW1 4406   5.575   2.549   6.119
 1169SOL    HW2 4407   5.691   2.518   6.229
 1170SOL     OW 4408   5.094   1.253   3.062
 1170SOL    HW1 4409   5.181   1.283   3.101
 1170SOL    HW2 4410   5.109   1.221   2.968
 1171SOL     OW 4411   3.234   6.725   0.121
 1171SOL    HW1 4412   3.259   6.707   0.026
 1171SOL    HW2 4413   3.305   6.689   0.181
 1172SOL     OW 4414   3.243   4.055   2.216
 1172SOL    HW1 4415   3.173   4.069   2.146
 1172SOL    HW2 4416   3.295   4.140   2.228
 1173SOL     OW 4417   3.547   0.272   5.940
 1173SOL    HW1 4418   3.456   0.295   5.906
 1173SOL    HW2 4419   3.577   0.342   6.005
 1174SOL     OW 4420   3.161   4.284   6.838
 1174SOL    HW1 4421   3.124   4.349   6.772
 1174SOL    HW2 4422   3.092   4.262   6.906
 1175SOL     OW 4423   3.730   3.398   6.474
 1175SOL    HW1 4424   3.730   3.345   6.389
 1175SOL    HW2 4425   3.818   3.443   6.485
 1176SOL     OW 4426   5.909   4.484   0.505
 1176SOL    HW1 4427   5.830   4.468   0.447
 1176SOL    HW2 4428   5.954   4.569   0.478
 1177SOL     OW 4429   0.067   1.744   6.138
 1177SOL    HW1 4430   7.014   1.784   6.185
 1177SOL    HW2 4431   0.081   1.650   6.170
 1178SOL     OW 4432   3.329   3.227   1.364
 1178SOL    HW1 4433   3.393   3.201   1.292
 1178SOL    HW2 4434   3.324   3.153   1.431
 1179SOL     OW 4435   3.180   6.315   0.651
 1179SOL    HW1 4436   3.106   6.355   0.597
 1179SOL    HW2 4437   3.164   6.217   0.663
 1180SOL     OW 4438   2.153   5.830   3.941
 1180SOL    HW1 4439   2.070   5.860   3.894
 1180SOL    HW2 4440   2.163   5.731   3.932
 1181SOL     OW 4441   0.056   2.451   4.990
 1181SOL    HW1 4442   0.036   2.523   5.057
 1181SOL    HW2 4443   0.012   2.474   4.903
 1182SOL     OW 4444   3.133   5.406   3.800
 1182SOL    HW1 4445   3.074   5.487   3.792
 1182SOL    HW2 4446   3.142   5.381   3.897
 1183SOL     OW 4447   3.650   6.018   1.864
 1183SOL    HW1 4448   3.562   6.040   1.908
 1183SOL    HW2 4449   3.709   5.972   1.930
 1184SOL     OW 4450   4.955   6.966   6.606
 1184SOL    HW1 4451   5.005   0.026   6.598
 1184SOL    HW2 4452   4.858   6.982   6.588
 1185SOL     OW 4453   1.077   0.769   0.777
 1185SOL    HW1 4454   1.092   0.843   0.843
 1185SOL    HW2 4455   1.045   0.688   0.824
 1186SOL     OW 4456   5.943   6.120   6.100
 1186SOL    HW1 4457   6.035   6.148   6.071
 1186SOL    HW2 4458   5.895   6.198   6.140
 1187SOL     OW 4459   5.926   6.982   5.421
 1187SOL    HW1 4460   5.861   0.017   5.377
 1187SOL    HW2 4461   5.900   6.969   5.517
 1188SOL     OW 4462   3.655   5.923   6.183
 1188SOL    HW1 4463   3.732   5.860   6.171
 1188SOL    HW2 4464   3.639   5.972   6.097
 1189SOL     OW 4465   6.268   0.575   2.074
 1189SOL    HW1 4466   6.287   0.655   2.129
 1189SOL    HW2 4467   6.267   0.600   1.977
 1190SOL     OW 4468   3.295   5.209   3.674
 1190SOL    HW1 4469   3.232   5.274   3.715
 1190SOL    HW2 4470   3.375   5.259   3.638
 1191SOL     OW 4471   2.884   6.297   4.456
 1191SOL    HW1 4472   2.856   6.331   4.546
 1191SOL    HW2 4473   2.959   6.354   4.421
 1192SOL     OW 4474   5.394   6.161   3.038
 1192SOL    HW1 4475   5.335   6.236   3.005
 1192SOL    HW2 4476   5.341   6.077   3.041
 1193SOL     OW 4477   0.495   0.693   5.410
 1193SOL    HW1 4478   0.484   0.764   5.339
 1193SOL    HW2 4479   0.582   0.646   5.396
 1194SOL     OW 4480   0.140   1.727   1.006
 1194SOL    HW1 4481   0.156   1.776   1.093
 1194SOL    HW2 4482   0.045   1.741   0.977
 1195SOL     OW 4483   6.675   3.537   1.137
 1195SOL    HW1 4484   6.705   3.551   1.232
 1195SOL    HW2 4485   6.585   3.493   1.136
 1196SOL     OW 4486   5.873   4.591   2.543
 1196SOL    HW1 4487   5.931   4.633   2.612
 1196SOL    HW2 4488   5.911   4.502   2.517
 1197SOL     OW 4489   4.775   6.718   4.181
 1197SOL    HW1 4490   4.709   6.660   4.133
 1197SOL    HW2 4491   4.841   6.660   4.230
 1198SOL     OW 4492   1.223   3.704   2.392
 1198SOL    HW1 4493   1.226   3.794   2.436
 1198SOL    HW2 4494   1.200   3.716   2.295
 1199SOL     OW 4495   3.602   3.433   2.659
 1199SOL    HW1 4496   3.572   3.526   2.638
 1199SOL    HW2 4497   3.656   3.397   2.583
 1200SOL     OW 4498   3.950   3.925   4.183
 1200SOL    HW1 4499   3.916   3.831   4.195
 1200SOL    HW2 4500   4.041   3.922   4.141
 1201SOL     OW 4501   0.137   1.272   4.237
 1201SOL    HW1 4502   0.070   1.242   4.305
 1201SOL    HW2 4503   0.208   1.326   4.282
 1202SOL     OW 4504   6.263   0.529   6.193
 1202SOL    HW1 4505   6.279   0.444   6.142
 1202SOL    HW2 4506   6.351   0.567   6.223
 1203SOL     OW 4507   0.199   6.852   1.022
 1203SOL    HW1 4508   0.269   6.825   1.087
 1203SOL    HW2 4509   0.154   6.771   0.985
 1204SOL     OW 4510   4.499   1.783   2.115
 1204SOL    HW1 4511   4.510   1.721   2.192
 1204SOL    HW2 4512   4.407   1.774   2.077
 1205SOL     OW 4513   3.777   3.216   0.132
 1205SOL    HW1 4514   3.690   3.240   0.174
 1205SOL    HW2 4515   3.768   3.216   0.032
 1206SOL     OW 4516   1.479   2.891   4.770
 1206SOL    HW1 4517   1.423   2.847   4.841
 1206SOL    HW2 4518   1.555   2.830   4.747
 1207SOL     OW 4519   0.178   0.755   0.383
 1207SOL    HW1 4520   0.260   0.805   0.354
 1207SOL    HW2 4521   0.128   0.809   0.451
 1208SOL     OW 4522   3.333   3.490   1.419
 1208SOL    HW1 4523   3.343   3.394   1.393
 1208SOL    HW2 4524   3.236   3.513   1.427
 1209SOL     OW 4525   5.616   0.402   4.338
 1209SOL    HW1 4526   5.546   0.414   4.268
 1209SOL    HW2 4527   5.690   0.467   4.322
 1210SOL     OW 4528   4.945   6.791   3.612
 1210SOL    HW1 4529   4.852   6.789   3.577
 1210SOL    HW2 4530   4.975   6.885   3.624
 1211SOL     OW 4531   0.977   3.593   3.066
 1211SOL    HW1 4532   1.002   3.669   3.006
 1211SOL    HW2 4533   1.056   3.563   3.118
 1212SOL     OW 4534   6.519   0.839   6.096
 1212SOL    HW1 4535   6.601   0.804   6.051
 1212SOL    HW2 4536   6.531   0.937   6.115
 1213SOL     OW 4537   5.716   2.039   2.553
 1213SOL    HW1 4538   5.647   2.102   2.589
 1213SOL    HW2 4539   5.685   1.945   2.564
 1214SOL     OW 4540   0.505   2.315   6.396
 1214SOL    HW1 4541   0.569   2.274   6.461
 1214SOL    HW2 4542   0.480   2.407   6.427
 1215SOL     OW 4543   2.215   4.919   2.758
 1215SOL    HW1 4544   2.172   5.009   2.759
 1215SOL    HW2 4545   2.187   4.868   2.677
 1216SOL     OW 4546   6.609   1.567   0.803
 1216SOL    HW1 4547   6.618   1.545   0.705
 1216SOL    HW2 4548   6.674   1.513   0.855
 1217SOL     OW 4549   2.753   4.706   0.588
 1217SOL    HW1 4550   2.792   4.684   0.498
 1217SOL    HW2 4551   2.722   4.801   0.588
 1218SOL     OW 4552   1.615   3.661   5.722
 1218SOL    HW1 4553   1.646   3.653   5.817
 1218SOL    HW2 4554   1.563   3.579   5.697
 1219SOL     OW 4555   5.157   5.608   1.391
 1219SOL    HW1 4556   5.125   5.651   1.307
 1219SOL    HW2 4557   5.247   5.567   1.375
 1220SOL     OW 4558   6.936   3.878   2.436
 1220SOL    HW1 4559   6.874   3.883   2.513
 1220SOL    HW2 4560   6.995   3.797   2.446
 1221SOL     OW 4561   5.516   3.378   6.182
 1221SOL    HW1 4562   5.497   3.456   6.241
 1221SOL    HW2 4563   5.437   3.360   6.123
 1222SOL     OW 4564   0.644   0.832   0.196
 1222SOL    HW1 4565   0.618   0.797   0.106
 1222SOL    HW2 4566   0.725   0.891   0.187
 1223SOL     OW 4567   3.687   1.468   0.397
 1223SOL    HW1 4568   3.599   1.514   0.398
 1223SOL    HW2 4569   3.719   1.455   0.491
 1224SOL     OW 4570   3.269   5.814   6.821
 1224SOL    HW1 4571   3.263   5.903   6.868
 1224SOL    HW2 4572   3.230   5.743   6.880
 1225SOL     OW 4573   4.054   2.736   0.021
 1225SOL    HW1 4574   4.028   2.692   6.961
 1225SOL    HW2 4575   4.095   2.668   0.082
 1226SOL     OW 4576   4.367   6.228   0.495
 1226SOL    HW1 4577   4.323   6.163   0.556
 1226SOL    HW2 4578   4.318   6.231   0.408
 1227SOL     OW 4579   5.045   5.199   5.992
 1227SOL    HW1 4580   5.122   5.170   5.936
 1227SOL    HW2 4581   4.977   5.125   5.996
 1228SOL     OW 4582   3.474   2.450   6.780
 1228SOL    HW1 4583   3.412   2.393   6.833
 1228SOL    HW2 4584   3.442   2.545   6.781
 1229SOL     OW 4585   1.714   5.305   0.174
 1229SOL    HW1 4586   1.749   5.319   0.082
 1229SOL    HW2 4587   1.779   5.250   0.226
 1230SOL     OW 4588   5.965   5.776   2.350
 1230SOL    HW1 4589   5.969   5.793   2.449
 1230SOL    HW2 4590   5.870   5.765   2.321
 1231SOL     OW 4591   1.807   1.991   5.435
 1231SOL    HW1 4592   1.754   1.923   5.383
 1231SOL    HW2 4593   1.762   2.008   5.522
 1232SOL     OW 4594   6.424   1.345   4.942
 1232SOL    HW1 4595   6.403   1.416   4.876
 1232SOL    HW2 4596   6.339   1.308   4.980
 1233SOL     OW 4597   0.428   5.872   4.619
 1233SOL    HW1 4598   0.447   5.875   4.717
 1233SOL    HW2 4599   0.445   5.962   4.579
 1234SOL     OW 4600   6.132   2.132   5.674
 1234SOL    HW1 4601   6.071   2.184   5.734
 1234SOL    HW2 4602   6.152   2.044   5.715
 1235SOL     OW 4603   6.376   4.806   1.604
 1235SOL    HW1 4604   6.319   4.728   1.633
 1235SOL    HW2 4605   6.403   4.793   1.509
 1236SOL     OW 4606   4.108   1.581   1.921
 1236SOL    HW1 4607   4.161   1.656   1.882
 1236SOL    HW2 4608   4.014   1.585   1.888
 1237SOL     OW 4609   1.146   4.810   5.178
 1237SOL    HW1 4610   1.140   4.897   5.129
 1237SOL    HW2 4611   1.163   4.827   5.275
 1238SOL     OW 4612   1.215   0.590   5.901
 1238SOL    HW1 4613   1.197   0.504   5.854
 1238SOL    HW2 4614   1.133   0.618   5.951
 1239SOL     OW 4615   0.184   0.095   6.093
 1239SOL    HW1 4616   0.206   7.025   6.076
 1239SOL    HW2 4617   0.144   0.135   6.011
 1240SOL     OW 4618   6.032   5.985   1.173
 1240SOL    HW1 4619   6.101   6.057   1.164
 1240SOL    HW2 4620   6.013   5.969   1.270
 1241SOL     OW 4621   5.918   4.624   5.700
 1241SOL    HW1 4622   6.005   4.577   5.713
 1241SOL    HW2 4623   5.909   4.697   5.769
 1242SOL     OW 4624   2.447   4.775   0.825
 1242SOL    HW1 4625   2.371   4.840   0.827
 1242SOL    HW2 4626   2.521   4.808   0.884
 1243SOL     OW 4627   0.996   1.082   4.800
 1243SOL    HW1 4628   0.949   1.169   4.789
 1243SOL    HW2 4629   0.929   1.007   4.799
 1244SOL     OW 4630   5.108   5.809   5.000
 1244SOL    HW1 4631   5.184   5.762   5.044
 1244SOL    HW2 4632   5.022   5.765   5.026
 1245SOL     OW 4633   5.571   4.078   6.724
 1245SOL    HW1 4634   5.643   4.137   6.688
 1245SOL    HW2 4635   5.601   4.037   6.810
 1246SOL     OW 4636   2.872   1.559   2.197
 1246SOL    HW1 4637   2.808   1.624   2.239
 1246SOL    HW2 4638   2.929   1.519   2.268
 1247SOL     OW 4639   6.538   6.875   6.207
 1247SOL    HW1 4640   6.634   6.887   6.179
 1247SOL    HW2 4641   6.495   6.964   6.217
 1248SOL     OW 4642   1.704   6.075   3.726
 1248SOL    HW1 4643   1.675   6.130   3.804
 1248SOL    HW2 4644   1.693   6.128   3.642
 1249SOL     OW 4645   0.257   2.525   2.284
 1249SOL    HW1 4646   0.206   2.537   2.198
 1249SOL    HW2 4647   0.350   2.557   2.272
 1250SOL     OW 4648   5.510   5.131   3.456
 1250SOL    HW1 4649   5.413   5.126   3.431
 1250SOL    HW2 4650   5.520   5.179   3.543
 1251SOL     OW 4651   1.849   0.994   2.728
 1251SOL    HW1 4652   1.924   0.935   2.698
 1251SOL    HW2 4653   1.882   1.056   2.800
 1252SOL     OW 4654   3.762   4.537   6.442
 1252SOL    HW1 4655   3.738   4.541   6.539
 1252SOL    HW2 4656   3.751   4.628   6.402
 1253SOL     OW 4657   3.617   6.562   2.735
 1253SOL    HW1 4658   3.653   6.553   2.642
 1253SOL    HW2 4659   3.565   6.480   2.758
 1254SOL     OW 4660   0.539   2.058   3.754
 1254SOL    HW1 4661   0.486   2.141   3.736
 1254SOL    HW2 4662   0.508   1.985   3.693
 1255SOL     OW 4663   5.785   1.412   6.219
 1255SOL    HW1 4664   5.717   1.342   6.198
 1255SOL    HW2 4665   5.792   1.421   6.319
 1256SOL     OW 4666   0.662   6.669   4.180
 1256SOL    HW1 4667   0.741   6.608   4.186
 1256SOL    HW2 4668   0.603   6.654   4.259
 1257SOL     OW 4669   0.090   5.305   4.387
 1257SOL    HW1 4670   7.021   5.315   4.414
 1257SOL    HW2 4671   0.112   5.372   4.315
 1258SOL     OW 4672   1.639   5.214   2.838
 1258SOL    HW1 4673   1.730   5.244   2.865
 1258SOL    HW2 4674   1.604   5.274   2.767
 1259SOL     OW 4675   3.902   6.861   4.821
 1259SOL    HW1 4676   3.894   6.769   4.784
 1259SOL    HW2 4677   3.995   6.894   4.809
 1260SOL     OW 4678   3.375   1.925   0.539
 1260SOL    HW1 4679   3.467   1.909   0.505
 1260SOL    HW2 4680   3.379   1.982   0.621
 1261SOL     OW 4681   6.681   5.574   6.614
 1261SOL    HW1 4682   6.720   5.577   6.706
 1261SOL    HW2 4683   6.664   5.667   6.581
 1262SOL     OW 4684   5.286   4.839   1.304
 1262SOL    HW1 4685   5.369   4.797   1.268
 1262SOL    HW2 4686   5.260   4.795   1.389
 1263SOL     OW 4687   6.816   1.813   1.517
 1263SOL    HW1 4688   6.717   1.807   1.517
 1263SOL    HW2 4689   6.853   1.761   1.440
 1264SOL     OW 4690   7.024   3.568   1.506
 1264SOL    HW1 4691   0.094   3.592   1.519
 1264SOL    HW2 4692   6.969   3.609   1.579
 1265SOL     OW 4693   5.123   5.893   3.654
 1265SOL    HW1 4694   5.093   5.798   3.655
 1265SOL    HW2 4695   5.220   5.897   3.678
 1266SOL     OW 4696   0.773   1.429   4.015
 1266SOL    HW1 4697   0.824   1.351   4.050
 1266SOL    HW2 4698   0.683   1.399   3.984
 1267SOL     OW 4699   5.316   6.232   1.387
 1267SOL    HW1 4700   5.400   6.226   1.441
 1267SOL    HW2 4701   5.339   6.230   1.290
 1268SOL     OW 4702   4.169   2.988   0.008
 1268SOL    HW1 4703   4.182   3.023   0.100
 1268SOL    HW2 4704   4.116   2.903   0.011
 1269SOL     OW 4705   5.603   6.247   5.648
 1269SOL    HW1 4706   5.592   6.197   5.734
 1269SOL    HW2 4707   5.574   6.190   5.571
 1270SOL     OW 4708   2.191   4.100   4.008
 1270SOL    HW1 4709   2.133   4.088   3.927
 1270SOL    HW2 4710   2.202   4.012   4.055
 1271SOL     OW 4711   3.033   2.217   4.016
 1271SOL    HW1 4712   2.938   2.232   3.988
 1271SOL    HW2 4713   3.092   2.285   3.971
 1272SOL     OW 4714   5.424   5.683   0.266
 1272SOL    HW1 4715   5.419   5.602   0.208
 1272SOL    HW2 4716   5.513   5.687   0.311
 1273SOL     OW 4717   0.532   4.610   6.862
 1273SOL    HW1 4718   0.458   4.544   6.859
 1273SOL    HW2 4719   0.605   4.575   6.921
 1274SOL     OW 4720   6.377   3.567   1.862
 1274SOL    HW1 4721   6.349   3.662   1.853
 1274SOL    HW2 4722   6.425   3.554   1.949
 1275SOL     OW 4723   3.365   1.490   4.510
 1275SOL    HW1 4724   3.445   1.440   4.474
 1275SOL    HW2 4725   3.364   1.582   4.471
 1276SOL     OW 4726   0.033   0.351   4.770
 1276SOL    HW1 4727   0.023   0.424   4.837
 1276SOL    HW2 4728   0.112   0.371   4.711
 1277SOL     OW 4729   0.885   6.512   6.045
 1277SOL    HW1 4730   0.858   6.594   6.096
 1277SOL    HW2 4731   0.967   6.531   5.992
 1278SOL     OW 4732   1.170   0.292   5.220
 1278SOL    HW1 4733   1.071   0.292   5.239
 1278SOL    HW2 4734   1.219   0.319   5.303
 1279SOL     OW 4735   3.636   6.357   0.642
 1279SOL    HW1 4736   3.545   6.352   0.600
 1279SOL    HW2 4737   3.629   6.334   0.739
 1280SOL     OW 4738   3.131   6.434   4.349
 1280SOL    HW1 4739   3.149   6.532   4.358
 1280SOL    HW2 4740   3.214   6.382   4.367
 1281SOL     OW 4741   1.285   6.474   3.503
 1281SOL    HW1 4742   1.270   6.452   3.406
 1281SOL    HW2 4743   1.286   6.389   3.556
 1282SOL     OW 4744   0.743   1.716   6.595
 1282SOL    HW1 4745   0.750   1.643   6.527
 1282SOL    HW2 4746   0.767   1.803   6.553
 1283SOL     OW 4747   6.548   3.151   5.135
 1283SOL    HW1 4748   6.585   3.238   5.103
 1283SOL    HW2 4749   6.458   3.136   5.093
 1284SOL     OW 4750   4.887   1.609   2.209
 1284SOL    HW1 4751   4.963   1.547   2.194
 1284SOL    HW2 4752   4.801   1.559   2.200
 1285SOL     OW 4753   4.879   2.302   6.491
 1285SOL    HW1 4754   4.908   2.331   6.583
 1285SOL    HW2 4755   4.825   2.375   6.449
 1286SOL     OW 4756   4.862   3.583   2.169
 1286SOL    HW1 4757   4.780   3.534   2.142
 1286SOL    HW2 4758   4.884   3.652   2.100
 1287SOL     OW 4759   5.298   5.212   5.337
 1287SOL    HW1 4760   5.361   5.195   5.262
 1287SOL    HW2 4761   5.203   5.202   5.306
 1288SOL     OW 4762   4.820   3.511   6.730
 1288SOL    HW1 4763   4.791   3.461   6.648
 1288SOL    HW2 4764   4.773   3.474   6.810
 1289SOL     OW 4765   0.883   6.160   1.967
 1289SOL    HW1 4766   0.845   6.076   2.005
 1289SOL    HW2 4767   0.869   6.161   1.868
 1290SOL     OW 4768   1.356   6.883   6.945
 1290SOL    HW1 4769   1.356   6.976   6.908
 1290SOL    HW2 4770   1.449   6.858   6.971
 1291SOL     OW 4771   0.186   4.114   5.170
 1291SOL    HW1 4772   0.145   4.203   5.149
 1291SOL    HW2 4773   0.175   4.095   5.268
 1292SOL     OW 4774   0.446   5.939   2.491
 1292SOL    HW1 4775   0.459   5.849   2.534
 1292SOL    HW2 4776   0.488   6.009   2.549
 1293SOL     OW 4777   1.357   1.983   0.432
 1293SOL    HW1 4778   1.264   1.955   0.408
 1293SOL    HW2 4779   1.382   2.064   0.379
 1294SOL     OW 4780   1.074   3.569   6.957
 1294SOL    HW1 4781   1.148   3.529   6.903
 1294SOL    HW2 4782   1.046   3.504   0.001
 1295SOL     OW 4783   0.246   3.520   2.723
 1295SOL    HW1 4784   0.222   3.610   2.760
 1295SOL    HW2 4785   0.169   3.486   2.668
 1296SOL     OW 4786   3.576   0.178   5.536
 1296SOL    HW1 4787   3.517   0.219   5.605
 1296SOL    HW2 4788   3.666   0.222   5.538
 1297SOL     OW 4789   6.368   0.921   0.944
 1297SOL    HW1 4790   6.320   0.957   0.864
 1297SOL    HW2 4791   6.407   0.832   0.923
 1298SOL     OW 4792   6.053   4.677   2.746
 1298SOL    HW1 4793   6.052   4.774   2.723
 1298SOL    HW2 4794   6.050   4.666   2.846
 1299SOL     OW 4795   1.104   3.748   3.362
 1299SOL    HW1 4796   1.168   3.675   3.382
 1299SOL    HW2 4797   1.029   3.712   3.306
 1300SOL     OW 4798   3.348   2.888   1.638
 1300SOL    HW1 4799   3.364   2.813   1.574
 1300SOL    HW2 4800   3.253   2.918   1.631
 1301SOL     OW 4801   0.703   5.966   1.336
 1301SOL    HW1 4802   0.615   5.937   1.374
 1301SOL    HW2 4803   0.687   6.037   1.267
 1302SOL     OW 4804   4.887   0.637   5.414
 1302SOL    HW1 4805   4.911   0.687   5.331
 1302SOL    HW2 4806   4.898   0.539   5.398
 1303SOL     OW 4807   4.500   1.611   2.329
 1303SOL    HW1 4808   4.550   1.533   2.290
 1303SOL    HW2 4809   4.403   1.587   2.339
 1304SOL     OW 4810   1.947   0.675   6.761
 1304SOL    HW1 4811   1.941   0.716   6.670
 1304SOL    HW2 4812   1.872   0.610   6.774
 1305SOL     OW 4813   5.005   2.897   0.014
 1305SOL    HW1 4814   4.982   2.890   6.943
 1305SOL    HW2 4815   5.093   2.942   0.026
 1306SOL     OW 4816   0.529   4.350   4.458
 1306SOL    HW1 4817   0.484   4.264   4.435
 1306SOL    HW2 4818   0.508   4.419   4.388
 1307SOL     OW 4819   0.623   3.676   4.536
 1307SOL    HW1 4820   0.658   3.583   4.542
 1307SOL    HW2 4821   0.679   3.736   4.593
 1308SOL     OW 4822   5.983   6.226   4.862
 1308SOL    HW1 4823   5.921   6.184   4.928
 1308SOL    HW2 4824   5.931   6.286   4.801
 1309SOL     OW 4825   5.048   3.305   5.385
 1309SOL    HW1 4826   4.974   3.349   5.335
 1309SOL    HW2 4827   5.121   3.371   5.403
 1310SOL     OW 4828   0.072   3.619   4.334
 1310SOL    HW1 4829   0.073   3.537   4.277
 1310SOL    HW2 4830   7.004   3.641   4.359
 1311SOL     OW 4831   0.584   6.911   4.742
 1311SOL    HW1 4832   0.523   6.858   4.684
 1311SOL    HW2 4833   0.571   7.009   4.724
 1312SOL     OW 4834   1.952   0.277   6.266
 1312SOL    HW1 4835   1.917   0.346   6.330
 1312SOL    HW2 4836   1.963   0.318   6.176
 1313SOL     OW 4837   0.759   4.238   3.688
 1313SOL    HW1 4838   0.793   4.244   3.782
 1313SOL    HW2 4839   0.701   4.157   3.679
 1314SOL     OW 4840   4.296   0.883   5.718
 1314SOL    HW1 4841   4.208   0.874   5.671
 1314SOL    HW2 4842   4.351   0.952   5.672
 1315SOL     OW 4843   0.133   1.142   0.931
 1315SOL    HW1 4844   0.192   1.207   0.980
 1315SOL    HW2 4845   0.059   1.113   0.992
 1316SOL     OW 4846   1.964   6.520   5.037
 1316SOL    HW1 4847   1.976   6.594   5.103
 1316SOL    HW2 4848   1.917   6.555   4.956
 1317SOL     OW 4849   1.931   4.394   5.968
 1317SOL    HW1 4850   1.901   4.366   5.878
 1317SOL    HW2 4851   2.026   4.364   5.983
 1318SOL     OW 4852   1.037   1.079   1.095
 1318SOL    HW1 4853   1.095   1.029   1.031
 1318SOL    HW2 4854   1.081   1.165   1.121
 1319SOL     OW 4855   0.242   1.024   6.835
 1319SOL    HW1 4856   0.317   0.990   6.891
 1319SOL    HW2 4857   0.194   1.098   6.884
 1320SOL     OW 4858   5.494   3.656   0.277
 1320SOL    HW1 4859   5.425   3.638   0.207
 1320SOL    HW2 4860   5.507   3.575   0.334
 1321SOL     OW 4861   5.509   1.808   6.122
 1321SOL    HW1 4862   5.495   1.866   6.203
 1321SOL    HW2 4863   5.529   1.865   6.043
 1322SOL     OW 4864   3.542   0.722   3.900
 1322SOL    HW1 4865   3.504   0.795   3.957
 1322SOL    HW2 4866   3.615   0.676   3.949
 1323SOL     OW 4867   4.773   1.473   5.718
 1323SOL    HW1 4868   4.752   1.376   5.725
 1323SOL    HW2 4869   4.860   1.491   5.763
 1324SOL     OW 4870   1.349   3.432   0.188
 1324SOL    HW1 4871   1.293   3.491   0.246
 1324SOL    HW2 4872   1.445   3.439   0.216
 1325SOL     OW 4873   2.199   6.844   2.399
 1325SOL    HW1 4874   2.250   6.758   2.387
 1325SOL    HW2 4875   2.126   6.830   2.465
 1326SOL     OW 4876   4.860   3.319   4.993
 1326SOL    HW1 4877   4.870   3.416   5.016
 1326SOL    HW2 4878   4.879   3.263   5.074
 1327SOL     OW 4879   1.208   4.960   1.761
 1327SOL    HW1 4880   1.240   5.028   1.696
 1327SOL    HW2 4881   1.235   4.869   1.731
 1328SOL     OW 4882   1.437   3.321   1.051
 1328SOL    HW1 4883   1.496   3.376   1.110
 1328SOL    HW2 4884   1.478   3.314   0.960
 1329SOL     OW 4885   0.510   2.283   1.602
 1329SOL    HW1 4886   0.462   2.369   1.620
 1329SOL    HW2 4887   0.536   2.280   1.505
 1330SOL     OW 4888   6.993   1.290   1.865
 1330SOL    HW1 4889   7.011   1.236   1.947
 1330SOL    HW2 4890   6.999   1.387   1.887
 1331SOL     OW 4891   5.047   2.885   3.367
 1331SOL    HW1 4892   4.970   2.920   3.313
 1331SOL    HW2 4893   5.020   2.880   3.463
 1332SOL     OW 4894   2.963   6.783   0.134
 1332SOL    HW1 4895   2.915   6.816   0.053
 1332SOL    HW2 4896   3.061   6.776   0.114
 1333SOL     OW 4897   3.504   3.730   5.215
 1333SOL    HW1 4898   3.541   3.740   5.122
 1333SOL    HW2 4899   3.406   3.713   5.210
 1334SOL     OW 4900   6.461   2.139   4.414
 1334SOL    HW1 4901   6.404   2.207   4.367
 1334SOL    HW2 4902   6.553   2.175   4.425
 1335SOL     OW 4903   2.594   1.407   3.405
 1335SOL    HW1 4904   2.647   1.327   3.377
 1335SOL    HW2 4905   2.551   1.390   3.493
 1336SOL     OW 4906   1.623   2.318   5.718
 1336SOL    HW1 4907   1.697   2.366   5.765
 1336SOL    HW2 4908   1.600   2.366   5.634
 1337SOL     OW 4909   2.121   2.118   5.139
 1337SOL    HW1 4910   2.188   2.147   5.208
 1337SOL    HW2 4911   2.038   2.173   5.148
 1338SOL     OW 4912   5.743   2.239   5.539
 1338SOL    HW1 4913   5.810   2.208   5.472
 1338SOL    HW2 4914   5.652   2.242   5.497
 1339SOL     OW 4915   0.926   1.809   6.354
 1339SOL    HW1 4916   0.871   1.846   6.280
 1339SOL    HW2 4917   0.958   1.717   6.329
 1340SOL     OW 4918   0.362   1.847   2.531
 1340SOL    HW1 4919   0.445   1.887   2.491
 1340SOL    HW2 4920   0.340   1.893   2.617
 1341SOL     OW 4921   5.295   0.064   5.915
 1341SOL    HW1 4922   5.264   0.096   5.825
 1341SOL    HW2 4923   5.215   0.035   5.968
 1342SOL     OW 4924   1.791   5.263   6.175
 1342SOL    HW1 4925   1.784   5.166   6.198
 1342SOL    HW2 4926   1.871   5.278   6.116
 1343SOL     OW 4927   4.684   6.036   3.199
 1343SOL    HW1 4928   4.645   5.945   3.210
 1343SOL    HW2 4929   4.698   6.077   3.290
 1344SOL     OW 4930   6.774   4.652   4.139
 1344SOL    HW1 4931   6.819   4.568   4.172
 1344SOL    HW2 4932   6.791   4.726   4.203
 1345SOL     OW 4933   2.145   0.906   2.636
 1345SOL    HW1 4934   2.121   0.833   2.699
 1345SOL    HW2 4935   2.181   0.984   2.687
 1346SOL     OW 4936   0.590   6.365   4.192
 1346SOL    HW1 4937   0.599   6.358   4.292
 1346SOL    HW2 4938   0.531   6.443   4.170
 1347SOL     OW 4939   6.303   5.815   4.448
 1347SOL    HW1 4940   6.337   5.746   4.513
 1347SOL    HW2 4941   6.211   5.842   4.474
 1348SOL     OW 4942   5.036   4.738   2.451
 1348SOL    HW1 4943   5.127   4.701   2.432
 1348SOL    HW2 4944   4.984   4.672   2.506
 1349SOL     OW 4945   4.806   2.509   6.299
 1349SOL    HW1 4946   4.735   2.574   6.271
 1349SOL    HW2 4947   4.895   2.553   6.297
 1350SOL     OW 4948   5.215   4.116   6.554
 1350SOL    HW1 4949   5.139   4.076   6.606
 1350SOL    HW2 4950   5.243   4.202   6.598
 1351SOL     OW 4951   6.635   1.211   3.393
 1351SOL    HW1 4952   6.696   1.215   3.472
 1351SOL    HW2 4953   6.542   1.191   3.423
 1352SOL     OW 4954   6.883   6.698   3.217
 1352SOL    HW1 4955   6.919   6.720   3.126
 1352SOL    HW2 4956   6.894   6.777   3.277
 1353SOL     OW 4957   6.798   3.890   6.359
 1353SOL    HW1 4958   6.844   3.802   6.372
 1353SOL    HW2 4959   6.846   3.943   6.288
 1354SOL     OW 4960   0.989   2.937   0.660
 1354SOL    HW1 4961   0.968   2.851   0.612
 1354SOL    HW2 4962   0.971   2.926   0.757
 1355SOL     OW 4963   6.855   2.502   5.356
 1355SOL    HW1 4964   6.836   2.440   5.432
 1355SOL    HW2 4965   6.900   2.453   5.282
 1356SOL     OW 4966   2.860   3.531   2.782
 1356SOL    HW1 4967   2.798   3.483   2.845
 1356SOL    HW2 4968   2.850   3.493   2.690
 1357SOL     OW 4969   1.175   3.634   5.043
 1357SOL    HW1 4970   1.140   3.688   5.120
 1357SOL    HW2 4971   1.248   3.685   4.997
 1358SOL     OW 4972   3.830   1.115   6.062
 1358SOL    HW1 4973   3.774   1.195   6.084
 1358SOL    HW2 4974   3.914   1.118   6.116
 1359SOL     OW 4975   5.646   4.692   1.832
 1359SOL    HW1 4976   5.609   4.726   1.919
 1359SOL    HW2 4977   5.743   4.670   1.844
 1360SOL     OW 4978   3.793   2.793   0.480
 1360SOL    HW1 4979   3.814   2.868   0.418
 1360SOL    HW2 4980   3.868   2.781   0.545
 1361SOL     OW 4981   0.259   5.495   5.622
 1361SOL    HW1 4982   0.318   5.574   5.607
 1361SOL    HW2 4983   0.305   5.413   5.589
 1362SOL     OW 4984   3.107   4.020   4.246
 1362SOL    HW1 4985   3.073   4.020   4.340
 1362SOL    HW2 4986   3.183   4.085   4.238
 1363SOL     OW 4987   6.784   5.845   3.712
 1363SOL    HW1 4988   6.811   5.824   3.806
 1363SOL    HW2 4989   6.807   5.768   3.652
 1364SOL     OW 4990   6.462   2.469   1.268
 1364SOL    HW1 4991   6.367   2.437   1.265
 1364SOL    HW2 4992   6.517   2.403   1.319
 1365SOL     OW 4993   1.226   2.709   5.978
 1365SOL    HW1 4994   1.226   2.806   6.002
 1365SOL    HW2 4995   1.153   2.691   5.912
 1366SOL     OW 4996   0.391   4.586   0.503
 1366SOL    HW1 4997   0.491   4.591   0.503
 1366SOL    HW2 4998   0.354   4.665   0.552
 1367SOL     OW 4999   1.478   6.211   2.475
 1367SOL    HW1 5000   1.559   6.231   2.530
 1367SOL    HW2 5001   1.465   6.284   2.408
 1368SOL     OW 5002   0.362   0.458   3.901
 1368SOL    HW1 5003   0.328   0.364   3.895
 1368SOL    HW2 5004   0.292   0.521   3.868
 1369SOL     OW 5005   2.448   0.410   2.585
 1369SOL    HW1 5006   2.498   0.468   2.649
 1369SOL    HW2 5007   2.466   0.441   2.491
 1370SOL     OW 5008   4.260   1.496   2.497
 1370SOL    HW1 5009   4.193   1.458   2.433
 1370SOL    HW2 5010   4.219   1.573   2.546
 1371SOL     OW 5011   6.301   1.660   4.590
 1371SOL    HW1 5012   6.387   1.666   4.539
 1371SOL    HW2 5013   6.321   1.660   4.688
 1372SOL     OW 5014   1.262   2.917   0.716
 1372SOL    HW1 5015   1.174   2.920   0.668
 1372SOL    HW2 5016   1.255   2.969   0.801
 1373SOL     OW 5017   4.223   2.637   6.646
 1373SOL    HW1 5018   4.232   2.626   6.547
 1373SOL    HW2 5019   4.300   2.692   6.680
 1374SOL     OW 5020   4.488   2.270   0.636
 1374SOL    HW1 5021   4.412   2.221   0.594
 1374SOL    HW2 5022   4.452   2.347   0.689
 1375SOL     OW 5023   0.285   5.280   6.535
 1375SOL    HW1 5024   0.265   5.281   6.437
 1375SOL    HW2 5025   0.224   5.216   6.581
 1376SOL     OW 5026   4.449   4.796   5.155
 1376SOL    HW1 5027   4.477   4.887   5.122
 1376SOL    HW2 5028   4.418   4.741   5.077
 1377SOL     OW 5029   0.506   3.046   5.383
 1377SOL    HW1 5030   0.542   2.975   5.322
 1377SOL    HW2 5031   0.417   3.076   5.349
 1378SOL     OW 5032   6.241   1.408   4.483
 1378SOL    HW1 5033   6.176   1.395   4.408
 1378SOL    HW2 5034   6.256   1.506   4.498
 1379SOL     OW 5035   3.881   6.640   3.164
 1379SOL    HW1 5036   3.938   6.722   3.159
 1379SOL    HW2 5037   3.927   6.570   3.218
 1380SOL     OW 5038   0.713   6.819   3.748
 1380SOL    HW1 5039   0.664   6.899   3.782
 1380SOL    HW2 5040   0.805   6.846   3.719
 1381SOL     OW 5041   6.056   1.747   6.728
 1381SOL    HW1 5042   6.117   1.814   6.770
 1381SOL    HW2 5043   5.961   1.773   6.743
 1382SOL     OW 5044   5.265   3.428   0.580
 1382SOL    HW1 5045   5.193   3.419   0.511
 1382SOL    HW2 5046   5.230   3.480   0.658
 1383SOL     OW 5047   0.606   0.298   2.291
 1383SOL    HW1 5048   0.599   0.202   2.318
 1383SOL    HW2 5049   0.667   0.346   2.354
 1384SOL     OW 5050   4.602   0.639   2.089
 1384SOL    HW1 5051   4.665   0.582   2.037
 1384SOL    HW2 5052   4.631   0.734   2.085
 1385SOL     OW 5053   2.362   4.395   3.315
 1385SOL    HW1 5054   2.297   4.467   3.291
 1385SOL    HW2 5055   2.312   4.313   3.344
 1386SOL     OW 5056   3.029   0.704   4.442
 1386SOL    HW1 5057   2.986   0.618   4.415
 1386SOL    HW2 5058   3.082   0.741   4.366
 1387SOL     OW 5059   3.238   6.082   3.038
 1387SOL    HW1 5060   3.219   6.180   3.040
 1387SOL    HW2 5061   3.333   6.066   3.067
 1388SOL     OW 5062   0.482   0.792   2.949
 1388SOL    HW1 5063   0.535   0.874   2.926
 1388SOL    HW2 5064   0.505   0.764   3.042
 1389SOL     OW 5065   6.743   1.930   4.088
 1389SOL    HW1 5066   6.841   1.949   4.089
 1389SOL    HW2 5067   6.726   1.843   4.135
 1390SOL     OW 5068   6.538   3.240   5.964
 1390SOL    HW1 5069   6.488   3.236   5.877
 1390SOL    HW2 5070   6.633   3.266   5.947
 1391SOL     OW 5071   5.965   0.280   5.707
 1391SOL    HW1 5072   5.901   0.355   5.689
 1391SOL    HW2 5073   5.932   0.226   5.784
 1392SOL     OW 5074   6.271   6.485   5.459
 1392SOL    HW1 5075   6.366   6.456   5.471
 1392SOL    HW2 5076   6.211   6.424   5.510
 1393SOL     OW 5077   6.776   4.386   6.190
 1393SOL    HW1 5078   6.700   4.424   6.242
 1393SOL    HW2 5079   6.836   4.460   6.158
 1394SOL     OW 5080   3.474   5.848   5.392
 1394SOL    HW1 5081   3.391   5.794   5.381
 1394SOL    HW2 5082   3.528   5.813   5.469
 1395SOL     OW 5083   1.792   4.382   4.850
 1395SOL    HW1 5084   1.829   4.429   4.770
 1395SOL    HW2 5085   1.867   4.340   4.901
 1396SOL     OW 5086   0.268   1.230   5.034
 1396SOL    HW1 5087   0.243   1.234   4.937
 1396SOL    HW2 5088   0.200   1.177   5.084
 1397SOL     OW 5089   0.137   6.364   4.771
 1397SOL    HW1 5090   0.157   6.269   4.748
 1397SOL    HW2 5091   0.111   6.414   4.689
 1398SOL     OW 5092   2.955   0.692   6.343
 1398SOL    HW1 5093   2.978   0.669   6.438
 1398SOL    HW2 5094   2.932   0.789   6.337
 1399SOL     OW 5095   4.078   5.824   0.511
 1399SOL    HW1 5096   4.101   5.861   0.421
 1399SOL    HW2 5097   4.083   5.724   0.509
 1400SOL     OW 5098   0.384   1.661   3.867
 1400SOL    HW1 5099   0.322   1.604   3.922
 1400SOL    HW2 5100   0.434   1.604   3.803
 1401SOL     OW 5101   5.747   0.139   4.409
 1401SOL    HW1 5102   5.836   0.154   4.366
 1401SOL    HW2 5103   5.695   0.224   4.409
 1402SOL     OW 5104   5.625   4.136   6.261
 1402SOL    HW1 5105   5.720   4.112   6.282
 1402SOL    HW2 5106   5.623   4.211   6.195
 1403SOL     OW 5107   2.619   2.007   0.720
 1403SOL    HW1 5108   2.520   2.024   0.720
 1403SOL    HW2 5109   2.638   1.920   0.676
 1404SOL     OW 5110   6.684   0.635   6.836
 1404SOL    HW1 5111   6.727   0.545   6.844
 1404SOL    HW2 5112   6.601   0.637   6.891
 1405SOL     OW 5113   2.663   3.552   0.583
 1405SOL    HW1 5114   2.729   3.478   0.571
 1405SOL    HW2 5115   2.574   3.513   0.607
 1406SOL     OW 5116   1.445   5.741   0.705
 1406SOL    HW1 5117   1.414   5.816   0.764
 1406SOL    HW2 5118   1.545   5.736   0.707
 1407SOL     OW 5119   0.583   3.638   3.590
 1407SOL    HW1 5120   0.492   3.673   3.611
 1407SOL    HW2 5121   0.636   3.708   3.543
 1408SOL     OW 5122   5.126   0.892   6.625
 1408SOL    HW1 5123   5.168   0.970   6.671
 1408SOL    HW2 5124   5.193   0.820   6.612
 1409SOL     OW 5125   0.574   0.888   5.204
 1409SOL    HW1 5126   0.513   0.945   5.149
 1409SOL    HW2 5127   0.664   0.884   5.161
 1410SOL     OW 5128   1.251   4.167   6.184
 1410SOL    HW1 5129   1.156   4.137   6.197
 1410SOL    HW2 5130   1.277   4.156   6.088
 1411SOL     OW 5131   3.419   6.202   0.356
 1411SOL    HW1 5132   3.395   6.299   0.351
 1411SOL    HW2 5133   3.356   6.149   0.299
 1412SOL     OW 5134   0.762   3.625   1.357
 1412SOL    HW1 5135   0.708   3.576   1.289
 1412SOL    HW2 5136   0.784   3.564   1.434
 1413SOL     OW 5137   2.190   0.994   4.442
 1413SOL    HW1 5138   2.279   0.983   4.486
 1413SOL    HW2 5139   2.190   0.944   4.355
 1414SOL     OW 5140   2.235   1.496   1.837
 1414SOL    HW1 5141   2.187   1.497   1.749
 1414SOL    HW2 5142   2.195   1.565   1.897
 1415SOL     OW 5143   2.636   1.371   4.301
 1415SOL    HW1 5144   2.540   1.400   4.301
 1415SOL    HW2 5145   2.660   1.335   4.211
 1416SOL     OW 5146   4.436   6.417   4.911
 1416SOL    HW1 5147   4.519   6.458   4.873
 1416SOL    HW2 5148   4.456   6.380   5.001
 1417SOL     OW 5149   2.867   2.389   0.155
 1417SOL    HW1 5150   2.938   2.430   0.212
 1417SOL    HW2 5151   2.797   2.458   0.134
 1418SOL     OW 5152   3.135   3.762   1.752
 1418SOL    HW1 5153   3.213   3.785   1.694
 1418SOL    HW2 5154   3.060   3.726   1.695
 1419SOL     OW 5155   3.551   5.976   4.398
 1419SOL    HW1 5156   3.463   5.972   4.445
 1419SOL    HW2 5157   3.537   5.996   4.301
 1420SOL     OW 5158   3.350   5.791   3.302
 1420SOL    HW1 5159   3.301   5.831   3.380
 1420SOL    HW2 5160   3.283   5.760   3.234
 1421SOL     OW 5161   1.579   4.326   4.141
 1421SOL    HW1 5162   1.593   4.418   4.177
 1421SOL    HW2 5163   1.483   4.299   4.154
 1422SOL     OW 5164   1.691   4.148   6.272
 1422SOL    HW1 5165   1.605   4.198   6.284
 1422SOL    HW2 5166   1.708   4.133   6.174
 1423SOL     OW 5167   4.510   6.779   4.351
 1423SOL    HW1 5168   4.479   6.775   4.256
 1423SOL    HW2 5169   4.610   6.779   4.352
 1424SOL     OW 5170   6.621   3.521   6.596
 1424SOL    HW1 5171   6.694   3.457   6.572
 1424SOL    HW2 5172   6.573   3.488   6.678
 1425SOL     OW 5173   1.715   5.598   5.690
 1425SOL    HW1 5174   1.650   5.572   5.761
 1425SOL    HW2 5175   1.667   5.612   5.603
 1426SOL     OW 5176   2.528   2.294   6.918
 1426SOL    HW1 5177   2.613   2.273   6.870
 1426SOL    HW2 5178   2.460   2.327   6.852
 1427SOL     OW 5179   6.663   6.919   4.655
 1427SOL    HW1 5180   6.591   6.961   4.710
 1427SOL    HW2 5181   6.751   6.961   4.677
 1428SOL     OW 5182   0.647   2.336   0.730
 1428SOL    HW1 5183   0.605   2.262   0.783
 1428SOL    HW2 5184   0.698   2.397   0.791
 1429SOL     OW 5185   5.146   1.589   0.643
 1429SOL    HW1 5186   5.181   1.515   0.585
 1429SOL    HW2 5187   5.052   1.568   0.671
 1430SOL     OW 5188   1.992   4.908   3.922
 1430SOL    HW1 5189   2.005   4.812   3.900
 1430SOL    HW2 5190   1.899   4.936   3.901
 1431SOL     OW 5191   2.757   2.607   6.834
 1431SOL    HW1 5192   2.818   2.553   6.777
 1431SOL    HW2 5193   2.675   2.632   6.782
 1432SOL     OW 5194   3.046   1.371   0.980
 1432SOL    HW1 5195   3.034   1.310   1.058
 1432SOL    HW2 5196   2.964   1.370   0.923
 1433SOL     OW 5197   5.185   0.592   5.736
 1433SOL    HW1 5198   5.246   0.570   5.660
 1433SOL    HW2 5199   5.232   0.575   5.822
 1434SOL     OW 5200   0.716   0.814   6.269
 1434SOL    HW1 5201   0.647   0.887   6.276
 1434SOL    HW2 5202   0.767   0.808   6.355
 1435SOL     OW 5203   6.992   0.081   3.106
 1435SOL    HW1 5204   6.925   0.151   3.082
 1435SOL    HW2 5205   0.050   0.096   3.054
 1436SOL     OW 5206   5.398   4.257   6.807
 1436SOL    HW1 5207   5.337   4.234   6.882
 1436SOL    HW2 5208   5.423   4.173   6.758
 1437SOL     OW 5209   3.239   1.951   5.575
 1437SOL    HW1 5210   3.250   2.037   5.526
 1437SOL    HW2 5211   3.170   1.962   5.646
 1438SOL     OW 5212   2.823   0.102   1.992
 1438SOL    HW1 5213   2.834   0.201   1.997
 1438SOL    HW2 5214   2.755   0.072   2.059
 1439SOL     OW 5215   6.925   4.734   0.901
 1439SOL    HW1 5216   7.013   4.714   0.943
 1439SOL    HW2 5217   6.903   4.663   0.834
 1440SOL     OW 5218   3.732   2.745   5.957
 1440SOL    HW1 5219   3.712   2.781   5.865
 1440SOL    HW2 5220   3.704   2.812   6.025
 1441SOL     OW 5221   6.090   2.316   3.974
 1441SOL    HW1 5222   5.996   2.349   3.964
 1441SOL    HW2 5223   6.151   2.373   3.918
 1442SOL     OW 5224   5.963   5.019   6.952
 1442SOL    HW1 5225   5.909   4.994   6.872
 1442SOL    HW2 5226   6.057   4.988   6.941
 1443SOL     OW 5227   0.846   3.047   4.319
 1443SOL    HW1 5228   0.904   2.999   4.253
 1443SOL    HW2 5229   0.769   2.988   4.344
 1444SOL     OW 5230   4.006   6.141   1.239
 1444SOL    HW1 5231   3.952   6.221   1.212
 1444SOL    HW2 5232   4.079   6.169   1.301
 1445SOL     OW 5233   0.638   2.617   2.099
 1445SOL    HW1 5234   0.729   2.636   2.135
 1445SOL    HW2 5235   0.570   2.660   2.157
 1446SOL     OW 5236   4.661   2.219   0.092
 1446SOL    HW1 5237   4.691   2.133   0.049
 1446SOL    HW2 5238   4.720   2.239   0.170
 1447SOL     OW 5239   6.285   6.851   5.774
 1447SOL    HW1 5240   6.314   6.884   5.864
 1447SOL    HW2 5241   6.280   6.927   5.710
 1448SOL     OW 5242   6.759   2.852   7.017
 1448SOL    HW1 5243   6.751   2.915   6.940
 1448SOL    HW2 5244   6.709   2.889   0.069
 1449SOL     OW 5245   0.401   0.890   0.380
 1449SOL    HW1 5246   0.451   0.895   0.466
 1449SOL    HW2 5247   0.466   0.875   0.305
 1450SOL     OW 5248   0.696   1.842   1.575
 1450SOL    HW1 5249   0.793   1.863   1.589
 1450SOL    HW2 5250   0.647   1.853   1.662
 1451SOL     OW 5251   2.553   0.723   2.582
 1451SOL    HW1 5252   2.506   0.768   2.506
 1451SOL    HW2 5253   2.649   0.752   2.582
 1452SOL     OW 5254   4.409   0.565   4.772
 1452SOL    HW1 5255   4.423   0.635   4.842
 1452SOL    HW2 5256   4.487   0.566   4.709
 1453SOL     OW 5257   0.131   3.810   5.177
 1453SOL    HW1 5258   0.114   3.900   5.218
 1453SOL    HW2 5259   0.183   3.754   5.241
 1454SOL     OW 5260   6.668   2.849   2.336
 1454SOL    HW1 5261   6.745   2.903   2.302
 1454SOL    HW2 5262   6.648   2.775   2.271
 1455SOL     OW 5263   1.265   0.252   1.838
 1455SOL    HW1 5264   1.195   0.244   1.909
 1455SOL    HW2 5265   1.221   0.263   1.749
 1456SOL     OW 5266   6.576   6.426   5.525
 1456SOL    HW1 5267   6.589   6.525   5.524
 1456SOL    HW2 5268   6.621   6.385   5.445
 1457SOL     OW 5269   1.150   6.489   1.446
 1457SOL    HW1 5270   1.194   6.533   1.367
 1457SOL    HW2 5271   1.162   6.390   1.439
 1458SOL     OW 5272   5.579   5.674   3.236
 1458SOL    HW1 5273   5.639   5.722   3.173
 1458SOL    HW2 5274   5.504   5.734   3.264
 1459SOL     OW 5275   2.860   5.393   5.511
 1459SOL    HW1 5276   2.837   5.298   5.489
 1459SOL    HW2 5277   2.864   5.447   5.428
 1460SOL     OW 5278   0.624   5.247   5.043
 1460SOL    HW1 5279   0.563   5.325   5.028
 1460SOL    HW2 5280   0.719   5.279   5.041
 1461SOL     OW 5281   6.878   5.280   3.642
 1461SOL    HW1 5282   6.958   5.223   3.625
 1461SOL    HW2 5283   6.835   5.251   3.728
 1462SOL     OW 5284   0.940   0.798   6.443
 1462SOL    HW1 5285   0.978   0.707   6.432
 1462SOL    HW2 5286   0.906   0.809   6.537
 1463SOL     OW 5287   0.116   5.661   6.637
 1463SOL    HW1 5288   0.210   5.626   6.642
 1463SOL    HW2 5289   0.060   5.615   6.705
 1464SOL     OW 5290   5.885   7.016   0.656
 1464SOL    HW1 5291   5.800   6.995   0.703
 1464SOL    HW2 5292   5.961   6.969   0.700
 1465SOL     OW 5293   1.662   0.898   3.516
 1465SOL    HW1 5294   1.563   0.910   3.519
 1465SOL    HW2 5295   1.702   0.972   3.462
 1466SOL     OW 5296   1.045   1.676   2.208
 1466SOL    HW1 5297   1.035   1.664   2.109
 1466SOL    HW2 5298   1.053   1.587   2.252
 1467SOL     OW 5299   1.850   1.928   2.712
 1467SOL    HW1 5300   1.758   1.894   2.731
 1467SOL    HW2 5301   1.880   1.986   2.787
 1468SOL     OW 5302   5.573   5.507   2.783
 1468SOL    HW1 5303   5.563   5.605   2.769
 1468SOL    HW2 5304   5.623   5.490   2.868
 1469SOL     OW 5305   0.714   0.823   2.108
 1469SOL    HW1 5306   0.722   0.804   2.206
 1469SOL    HW2 5307   0.752   0.746   2.057
 1470SOL     OW 5308   1.457   1.757   2.635
 1470SOL    HW1 5309   1.500   1.804   2.713
 1470SOL    HW2 5310   1.359   1.777   2.634
 1471SOL     OW 5311   0.717   0.045   0.457
 1471SOL    HW1 5312   0.694   6.981   0.422
 1471SOL    HW2 5313   0.692   0.115   0.390
 1472SOL     OW 5314   3.980   6.229   5.342
 1472SOL    HW1 5315   3.907   6.234   5.275
 1472SOL    HW2 5316   3.954   6.280   5.424
 1473SOL     OW 5317   5.167   5.936   4.597
 1473SOL    HW1 5318   5.110   6.013   4.627
 1473SOL    HW2 5319   5.109   5.863   4.562
 1474SOL     OW 5320   5.530   5.552   2.390
 1474SOL    HW1 5321   5.558   5.462   2.356
 1474SOL    HW2 5322   5.609   5.614   2.388
 1475SOL     OW 5323   6.244   6.793   2.166
 1475SOL    HW1 5324   6.184   6.714   2.179
 1475SOL    HW2 5325   6.197   6.876   2.197
 1476SOL     OW 5326   2.376   1.151   1.396
 1476SOL    HW1 5327   2.434   1.195   1.465
 1476SOL    HW2 5328   2.415   1.063   1.371
 1477SOL     OW 5329   3.412   0.558   6.475
 1477SOL    HW1 5330   3.337   0.495   6.454
 1477SOL    HW2 5331   3.484   0.508   6.523
 1478SOL     OW 5332   6.057   5.279   0.432
 1478SOL    HW1 5333   6.053   5.297   0.333
 1478SOL    HW2 5334   6.007   5.195   0.452
 1479SOL     OW 5335   1.689   3.270   0.078
 1479SOL    HW1 5336   1.630   3.305   0.005
 1479SOL    HW2 5337   1.685   3.331   0.157
 1480SOL     OW 5338   3.521   0.558   5.587
 1480SOL    HW1 5339   3.599   0.561   5.525
 1480SOL    HW2 5340   3.479   0.649   5.594
 1481SOL     OW 5341   6.287   2.436   5.257
 1481SOL    HW1 5342   6.328   2.366   5.198
 1481SOL    HW2 5343   6.250   2.392   5.338
 1482SOL     OW 5344   4.941   2.461   1.426
 1482SOL    HW1 5345   4.863   2.404   1.449
 1482SOL    HW2 5346   5.024   2.406   1.427
 1483SOL     OW 5347   5.157   1.862   6.573
 1483SOL    HW1 5348   5.155   1.917   6.657
 1483SOL    HW2 5349   5.080   1.888   6.515
 1484SOL     OW 5350   5.907   4.934   3.814
 1484SOL    HW1 5351   5.840   4.976   3.875
 1484SOL    HW2 5352   5.952   4.858   3.860
 1485SOL     OW 5353   3.460   1.660   3.351
 1485SOL    HW1 5354   3.543   1.629   3.396
 1485SOL    HW2 5355   3.478   1.745   3.301
 1486SOL     OW 5356   5.140   1.955   2.980
 1486SOL    HW1 5357   5.132   2.055   2.975
 1486SOL    HW2 5358   5.049   1.914   2.974
 1487SOL     OW 5359   6.665   2.690   6.417
 1487SOL    HW1 5360   6.672   2.590   6.411
 1487SOL    HW2 5361   6.755   2.729   6.435
 1488SOL     OW 5362   5.198   1.501   4.093
 1488SOL    HW1 5363   5.130   1.443   4.137
 1488SOL    HW2 5364   5.153   1.581   4.053
 1489SOL     OW 5365   3.960   5.197   4.381
 1489SOL    HW1 5366   3.916   5.281   4.412
 1489SOL    HW2 5367   4.046   5.184   4.430
 1490SOL     OW 5368   1.150   2.801   1.702
 1490SOL    HW1 5369   1.176   2.828   1.610
 1490SOL    HW2 5370   1.061   2.840   1.725
 1491SOL     OW 5371   6.587   4.023   3.778
 1491SOL    HW1 5372   6.549   3.960   3.710
 1491SOL    HW2 5373   6.532   4.107   3.780
 1492SOL     OW 5374   5.472   0.697   2.415
 1492SOL    HW1 5375   5.533   0.768   2.381
 1492SOL    HW2 5376   5.520   0.610   2.418
 1493SOL     OW 5377   4.213   6.451   4.498
 1493SOL    HW1 5378   4.120   6.479   4.474
 1493SOL    HW2 5379   4.210   6.391   4.578
 1494SOL     OW 5380   5.560   1.957   5.897
 1494SOL    HW1 5381   5.642   1.932   5.846
 1494SOL    HW2 5382   5.479   1.943   5.840
 1495SOL     OW 5383   6.636   2.523   4.402
 1495SOL    HW1 5384   6.642   2.487   4.494
 1495SOL    HW2 5385   6.695   2.603   4.394
 1496SOL     OW 5386   0.478   1.311   1.605
 1496SOL    HW1 5387   0.544   1.382   1.630
 1496SOL    HW2 5388   0.405   1.308   1.673
 1497SOL     OW 5389   6.656   2.913   3.191
 1497SOL    HW1 5390   6.736   2.881   3.141
 1497SOL    HW2 5391   6.575   2.862   3.161
 1498SOL     OW 5392   2.043   4.943   6.353
 1498SOL    HW1 5393   2.138   4.939   6.384
 1498SOL    HW2 5394   1.987   4.881   6.408
 1499SOL     OW 5395   1.118   3.142   6.572
 1499SOL    HW1 5396   1.139   3.105   6.481
 1499SOL    HW2 5397   1.121   3.242   6.568
 1500SOL     OW 5398   6.751   6.381   0.176
 1500SOL    HW1 5399   6.693   6.447   0.223
 1500SOL    HW2 5400   6.847   6.405   0.191
 1501SOL     OW 5401   5.429   1.934   6.369
 1501SOL    HW1 5402   5.499   1.978   6.425
 1501SOL    HW2 5403   5.359   2.001   6.343
 1502SOL     OW 5404   5.279   0.374   0.687
 1502SOL    HW1 5405   5.299   0.465   0.650
 1502SOL    HW2 5406   5.295   0.305   0.617
 1503SOL     OW 5407   1.468   2.970   1.566
 1503SOL    HW1 5408   1.430   3.044   1.510
 1503SOL    HW2 5409   1.432   2.977   1.659
 1504SOL     OW 5410   0.703   0.512   5.725
 1504SOL    HW1 5411   0.714   0.413   5.734
 1504SOL    HW2 5412   0.616   0.540   5.768
 1505SOL     OW 5413   6.058   1.074   5.518
 1505SOL    HW1 5414   6.099   1.142   5.578
 1505SOL    HW2 5415   6.025   0.996   5.572
 1506SOL     OW 5416   1.745   5.729   1.035
 1506SOL    HW1 5417   1.719   5.665   1.108
 1506SOL    HW2 5418   1.743   5.682   0.947
 1507SOL     OW 5419   1.043   1.822   5.668
 1507SOL    HW1 5420   1.030   1.776   5.756
 1507SOL    HW2 5421   0.984   1.779   5.599
 1508SOL     OW 5422   6.857   0.882   2.186
 1508SOL    HW1 5423   6.915   0.804   2.163
 1508SOL    HW2 5424   6.901   0.937   2.257
 1509SOL     OW 5425   4.470   2.569   6.065
 1509SOL    HW1 5426   4.414   2.505   6.117
 1509SOL    HW2 5427   4.412   2.625   6.007
 1510SOL     OW 5428   4.760   2.317   4.885
 1510SOL    HW1 5429   4.769   2.242   4.819
 1510SOL    HW2 5430   4.832   2.308   4.955
 1511SOL     OW 5431   3.118   3.214   1.688
 1511SOL    HW1 5432   3.203   3.262   1.667
 1511SOL    HW2 5433   3.134   3.115   1.689
 1512SOL     OW 5434   0.779   5.418   1.274
 1512SOL    HW1 5435   0.794   5.437   1.371
 1512SOL    HW2 5436   0.744   5.500   1.229
 1513SOL     OW 5437   3.133   0.421   3.913
 1513SOL    HW1 5438   3.228   0.451   3.917
 1513SOL    HW2 5439   3.114   0.382   3.823
 1514SOL     OW 5440   4.175   2.053   5.833
 1514SOL    HW1 5441   4.112   2.126   5.806
 1514SOL    HW2 5442   4.196   1.996   5.754
 1515SOL     OW 5443   5.845   2.130   4.332
 1515SOL    HW1 5444   5.809   2.131   4.426
 1515SOL    HW2 5445   5.769   2.127   4.267
 1516SOL     OW 5446   6.564   0.340   0.679
 1516SOL    HW1 5447   6.491   0.314   0.741
 1516SOL    HW2 5448   6.573   0.271   0.607
 1517SOL     OW 5449   4.518   6.147   3.938
 1517SOL    HW1 5450   4.598   6.172   3.993
 1517SOL    HW2 5451   4.449   6.104   3.997
 1518SOL     OW 5452   0.944   3.419   0.119
 1518SOL    HW1 5453   0.855   3.429   0.074
 1518SOL    HW2 5454   0.935   3.440   0.216
 1519SOL     OW 5455   5.962   4.959   1.837
 1519SOL    HW1 5456   6.022   4.879   1.836
 1519SOL    HW2 5457   5.903   4.957   1.756
 1520SOL     OW 5458   0.640   3.896   2.299
 1520SOL    HW1 5459   0.551   3.904   2.342
 1520SOL    HW2 5460   0.704   3.960   2.343
 1521SOL     OW 5461   1.634   4.240   6.892
 1521SOL    HW1 5462   1.591   4.191   6.816
 1521SOL    HW2 5463   1.729   4.210   6.900
 1522SOL     OW 5464   6.208   6.969   5.351
 1522SOL    HW1 5465   6.112   6.972   5.378
 1522SOL    HW2 5466   6.265   6.971   5.434
 1523SOL     OW 5467   5.206   5.043   0.842
 1523SOL    HW1 5468   5.176   4.948   0.829
 1523SOL    HW2 5469   5.300   5.044   0.875
 1524SOL     OW 5470   1.801   2.152   1.948
 1524SOL    HW1 5471   1.737   2.142   2.024
 1524SOL    HW2 5472   1.847   2.241   1.955
 1525SOL     OW 5473   6.753   2.326   0.152
 1525SOL    HW1 5474   6.721   2.232   0.139
 1525SOL    HW2 5475   6.843   2.336   0.109
 1526SOL     OW 5476   6.978   6.691   0.186
 1526SOL    HW1 5477   7.019   6.601   0.199
 1526SOL    HW2 5478   6.947   6.700   0.091
 1527SOL     OW 5479   3.435   1.370   5.048
 1527SOL    HW1 5480   3.391   1.331   5.129
 1527SOL    HW2 5481   3.464   1.464   5.068
 1528SOL     OW 5482   4.933   6.403   2.653
 1528SOL    HW1 5483   4.862   6.346   2.611
 1528SOL    HW2 5484   4.978   6.458   2.582
 1529SOL     OW 5485   3.559   0.430   0.170
 1529SOL    HW1 5486   3.589   0.513   0.122
 1529SOL    HW2 5487   3.602   0.350   0.128
 1530SOL     OW 5488   3.795   1.646   1.959
 1530SOL    HW1 5489   3.761   1.719   2.018
 1530SOL    HW2 5490   3.816   1.565   2.014
 1531SOL     OW 5491   4.376   0.836   4.484
 1531SOL    HW1 5492   4.435   0.896   4.539
 1531SOL    HW2 5493   4.433   0.784   4.421
 1532SOL     OW 5494   2.608   3.952   6.069
 1532SOL    HW1 5495   2.562   4.041   6.075
 1532SOL    HW2 5496   2.652   3.932   6.157
 1533SOL     OW 5497   6.755   3.257   0.113
 1533SOL    HW1 5498   6.665   3.291   0.140
 1533SOL    HW2 5499   6.754   3.157   0.108
 1534SOL     OW 5500   1.685   4.806   6.090
 1534SOL    HW1 5501   1.689   4.749   6.172
 1534SOL    HW2 5502   1.694   4.749   6.009
 1535SOL     OW 5503   4.949   6.427   3.923
 1535SOL    HW1 5504   4.985   6.472   4.005
 1535SOL    HW2 5505   4.884   6.356   3.949
 1536SOL     OW 5506   4.268   4.221   5.307
 1536SOL    HW1 5507   4.354   4.175   5.289
 1536SOL    HW2 5508   4.254   4.294   5.240
 1537SOL     OW 5509   4.334   6.496   3.623
 1537SOL    HW1 5510   4.255   6.451   3.580
 1537SOL    HW2 5511   4.348   6.457   3.714
 1538SOL     OW 5512   4.527   6.585   5.753
 1538SOL    HW1 5513   4.486   6.494   5.760
 1538SOL    HW2 5514   4.469   6.652   5.800
 1539SOL     OW 5515   4.041   3.815   1.895
 1539SOL    HW1 5516   4.117   3.859   1.848
 1539SOL    HW2 5517   3.955   3.840   1.850
 1540SOL     OW 5518   2.193   6.488   6.136
 1540SOL    HW1 5519   2.148   6.563   6.087
 1540SOL    HW2 5520   2.181   6.403   6.085
 1541SOL     OW 5521   3.404   2.893   2.163
 1541SOL    HW1 5522   3.448   2.811   2.201
 1541SOL    HW2 5523   3.373   2.952   2.237
 1542SOL     OW 5524   6.218   5.673   2.067
 1542SOL    HW1 5525   6.311   5.708   2.077
 1542SOL    HW2 5526   6.207   5.632   1.976
 1543SOL     OW 5527   3.615   4.201   5.052
 1543SOL    HW1 5528   3.557   4.150   5.115
 1543SOL    HW2 5529   3.705   4.157   5.046
 1544SOL     OW 5530   3.291   3.567   2.971
 1544SOL    HW1 5531   3.241   3.596   3.053
 1544SOL    HW2 5532   3.356   3.495   2.995
 1545SOL     OW 5533   4.867   0.945   4.043
 1545SOL    HW1 5534   4.800   0.942   4.117
 1545SOL    HW2 5535   4.824   0.979   3.960
 1546SOL     OW 5536   4.088   6.761   5.968
 1546SOL    HW1 5537   3.991   6.763   5.943
 1546SOL    HW2 5538   4.100   6.708   6.052
 1547SOL     OW 5539   1.533   3.715   3.082
 1547SOL    HW1 5540   1.632   3.707   3.066
 1547SOL    HW2 5541   1.515   3.715   3.180
 1548SOL     OW 5542   4.738   4.061   5.414
 1548SOL    HW1 5543   4.727   3.967   5.382
 1548SOL    HW2 5544   4.725   4.064   5.513
 1549SOL     OW 5545   4.159   1.149   3.338
 1549SOL    HW1 5546   4.155   1.152   3.239
 1549SOL    HW2 5547   4.254   1.150   3.368
 1550SOL     OW 5548   2.483   5.001   6.358
 1550SOL    HW1 5549   2.537   5.026   6.439
 1550SOL    HW2 5550   2.400   4.952   6.387
 1551SOL     OW 5551   2.153   4.043   6.780
 1551SOL    HW1 5552   2.244   4.047   6.822
 1551SOL    HW2 5553   2.151   4.101   6.699
 1552SOL     OW 5554   7.019   6.901   0.602
 1552SOL    HW1 5555   6.955   6.868   0.533
 1552SOL    HW2 5556   0.021   6.994   0.579
 1553SOL     OW 5557   0.422   1.280   5.506
 1553SOL    HW1 5558   0.415   1.190   5.462
 1553SOL    HW2 5559   0.422   1.269   5.605
 1554SOL     OW 5560   4.320   1.496   3.564
 1554SOL    HW1 5561   4.223   1.484   3.542
 1554SOL    HW2 5562   4.375   1.475   3.484
 1555SOL     OW 5563   4.959   2.266   0.660
 1555SOL    HW1 5564   4.872   2.248   0.706
 1555SOL    HW2 5565   5.029   2.203   0.696
 1556SOL     OW 5566   2.776   1.171   0.730
 1556SOL    HW1 5567   2.800   1.123   0.814
 1556SOL    HW2 5568   2.791   1.269   0.743
 1557SOL     OW 5569   2.015   1.092   6.550
 1557SOL    HW1 5570   1.964   1.168   6.508
 1557SOL    HW2 5571   1.992   1.086   6.647
 1558SOL     OW 5572   5.420   1.032   4.388
 1558SOL    HW1 5573   5.326   1.068   4.383
 1558SOL    HW2 5574   5.474   1.069   4.312
 1559SOL     OW 5575   0.169   2.692   0.071
 1559SOL    HW1 5576   0.084   2.640   0.079
 1559SOL    HW2 5577   0.247   2.630   0.082
 1560SOL     OW 5578   2.607   2.299   6.065
 1560SOL    HW1 5579   2.529   2.357   6.091
 1560SOL    HW2 5580   2.609   2.290   5.965
 1561SOL     OW 5581   6.931   5.973   2.848
 1561SOL    HW1 5582   6.978   6.030   2.781
 1561SOL    HW2 5583   6.855   6.024   2.887
 1562SOL     OW 5584   3.922   5.861   1.874
 1562SOL    HW1 5585   3.925   5.871   1.775
 1562SOL    HW2 5586   3.943   5.949   1.917
 1563SOL     OW 5587   2.311   0.885   6.016
 1563SOL    HW1 5588   2.222   0.844   6.036
 1563SOL    HW2 5589   2.311   0.919   5.922
 1564SOL     OW 5590   1.104   3.004   3.047
 1564SOL    HW1 5591   1.172   2.932   3.057
 1564SOL    HW2 5592   1.033   2.974   2.983
 1565SOL     OW 5593   4.219   5.051   4.270
 1565SOL    HW1 5594   4.244   5.029   4.176
 1565SOL    HW2 5595   4.221   5.150   4.284
 1566SOL     OW 5596   5.643   4.849   4.090
 1566SOL    HW1 5597   5.552   4.830   4.126
 1566SOL    HW2 5598   5.655   4.802   4.003
 1567SOL     OW 5599   6.191   6.059   0.206
 1567SOL    HW1 5600   6.135   6.119   0.264
 1567SOL    HW2 5601   6.286   6.062   0.237
 1568SOL     OW 5602   2.257   5.693   1.344
 1568SOL    HW1 5603   2.252   5.610   1.400
 1568SOL    HW2 5604   2.164   5.725   1.325
 1569SOL     OW 5605   2.751   6.917   3.444
 1569SOL    HW1 5606   2.777   7.007   3.408
 1569SOL    HW2 5607   2.826   6.852   3.428
 1570SOL     OW 5608   1.999   6.891   0.693
 1570SOL    HW1 5609   2.049   6.827   0.751
 1570SOL    HW2 5610   2.031   6.882   0.599
 1571SOL     OW 5611   6.000   1.497   2.392
 1571SOL    HW1 5612   5.995   1.508   2.293
 1571SOL    HW2 5613   5.951   1.415   2.419
 1572SOL     OW 5614   1.322   5.955   0.516
 1572SOL    HW1 5615   1.255   5.900   0.565
 1572SOL    HW2 5616   1.386   5.895   0.467
 1573SOL     OW 5617   5.959   3.294   1.998
 1573SOL    HW1 5618   6.059   3.297   2.002
 1573SOL    HW2 5619   5.923   3.387   2.007
 1574SOL     OW 5620   6.949   1.404   3.073
 1574SOL    HW1 5621   6.926   1.399   3.170
 1574SOL    HW2 5622   0.010   1.357   3.057
 1575SOL     OW 5623   2.586   2.258   1.649
 1575SOL    HW1 5624   2.489   2.245   1.671
 1575SOL    HW2 5625   2.622   2.174   1.610
 1576SOL     OW 5626   0.897   0.934   2.990
 1576SOL    HW1 5627   0.862   0.969   3.077
 1576SOL    HW2 5628   0.844   0.973   2.915
 1577SOL     OW 5629   2.843   0.579   5.510
 1577SOL    HW1 5630   2.834   0.678   5.515
 1577SOL    HW2 5631   2.822   0.539   5.599
 1578SOL     OW 5632   5.727   2.860   6.131
 1578SOL    HW1 5633   5.736   2.761   6.140
 1578SOL    HW2 5634   5.698   2.900   6.218
 1579SOL     OW 5635   0.551   2.005   2.401
 1579SOL    HW1 5636   0.643   1.996   2.362
 1579SOL    HW2 5637   0.528   2.102   2.410
 1580SOL     OW 5638   3.428   4.155   3.848
 1580SOL    HW1 5639   3.442   4.160   3.947
 1580SOL    HW2 5640   3.331   4.141   3.828
 1581SOL     OW 5641   6.713   4.456   4.981
 1581SOL    HW1 5642   6.706   4.366   4.938
 1581SOL    HW2 5643   6.691   4.526   4.914
 1582SOL     OW 5644   2.419   6.688   4.051
 1582SOL    HW1 5645   2.382   6.740   3.973
 1582SOL    HW2 5646   2.385   6.594   4.048
 1583SOL     OW 5647   0.946   5.451   2.642
 1583SOL    HW1 5648   0.961   5.353   2.656
 1583SOL    HW2 5649   0.964   5.475   2.547
 1584SOL     OW 5650   0.766   6.347   6.437
 1584SOL    HW1 5651   0.823   6.264   6.435
 1584SOL    HW2 5652   0.699   6.339   6.511
 1585SOL     OW 5653   4.732   1.791   3.577
 1585SOL    HW1 5654   4.705   1.701   3.608
 1585SOL    HW2 5655   4.822   1.786   3.533
 1586SOL     OW 5656   3.231   4.832   1.804
 1586SOL    HW1 5657   3.309   4.818   1.742
 1586SOL    HW2 5658   3.169   4.900   1.764
 1587SOL     OW 5659   3.063   6.110   6.078
 1587SOL    HW1 5660   3.135   6.102   6.148
 1587SOL    HW2 5661   2.974   6.112   6.122
 1588SOL     OW 5662   3.922   0.957   2.706
 1588SOL    HW1 5663   3.971   1.040   2.734
 1588SOL    HW2 5664   3.878   0.972   2.618
 1589SOL     OW 5665   6.629   3.078   2.017
 1589SOL    HW1 5666   6.534   3.063   2.046
 1589SOL    HW2 5667   6.639   3.048   1.922
 1590SOL     OW 5668   4.349   0.203   4.970
 1590SOL    HW1 5669   4.432   0.232   4.921
 1590SOL    HW2 5670   4.296   0.142   4.912
 1591SOL     OW 5671   6.967   5.287   1.838
 1591SOL    HW1 5672   6.916   5.279   1.752
 1591SOL    HW2 5673   6.910   5.257   1.914
 1592SOL     OW 5674   1.699   3.688   6.979
 1592SOL    HW1 5675   1.781   3.724   7.024
 1592SOL    HW2 5676   1.618   3.715   0.005
 1593SOL     OW 5677   1.224   6.467   5.435
 1593SOL    HW1 5678   1.252   6.534   5.366
 1593SOL    HW2 5679   1.295   6.397   5.445
 1594SOL     OW 5680   0.620   6.455   1.734
 1594SOL    HW1 5681   0.524   6.437   1.714
 1594SOL    HW2 5682   0.627   6.509   1.818
 1595SOL     OW 5683   1.798   4.857   0.260
 1595SOL    HW1 5684   1.703   4.827   0.257
 1595SOL    HW2 5685   1.815   4.903   0.348
 1596SOL     OW 5686   0.001   2.184   3.917
 1596SOL    HW1 5687   6.957   2.199   3.847
 1596SOL    HW2 5688   0.050   2.269   3.934
 1597SOL     OW 5689   1.488   6.627   0.282
 1597SOL    HW1 5690   1.478   6.634   0.183
 1597SOL    HW2 5691   1.458   6.536   0.312
 1598SOL     OW 5692   0.343   4.465   5.865
 1598SOL    HW1 5693   0.429   4.417   5.884
 1598SOL    HW2 5694   0.310   4.438   5.775
 1599SOL     OW 5695   4.751   4.986   4.942
 1599SOL    HW1 5696   4.651   4.994   4.942
 1599SOL    HW2 5697   4.790   5.060   4.887
 1600SOL     OW 5698   3.717   1.245   3.202
 1600SOL    HW1 5699   3.619   1.248   3.180
 1600SOL    HW2 5700   3.735   1.305   3.280
 1601SOL     OW 5701   6.739   5.746   4.380
 1601SOL    HW1 5702   6.705   5.744   4.474
 1601SOL    HW2 5703   6.662   5.759   4.317
 1602SOL     OW 5704   3.967   6.099   3.518
 1602SOL    HW1 5705   3.878   6.056   3.529
 1602SOL    HW2 5706   4.023   6.045   3.455
 1603SOL     OW 5707   1.429   5.998   3.551
 1603SOL    HW1 5708   1.468   6.053   3.478
 1603SOL    HW2 5709   1.351   5.946   3.516
 1604SOL     OW 5710   5.929   4.383   1.444
 1604SOL    HW1 5711   5.857   4.448   1.466
 1604SOL    HW2 5712   5.981   4.362   1.527
 1605SOL     OW 5713   6.356   5.069   1.606
 1605SOL    HW1 5714   6.342   4.974   1.579
 1605SOL    HW2 5715   6.448   5.079   1.644
 1606SOL     OW 5716   3.862   0.813   5.555
 1606SOL    HW1 5717   3.844   0.859   5.642
 1606SOL    HW2 5718   3.960   0.791   5.549
 1607SOL     OW 5719   4.410   1.230   1.251
 1607SOL    HW1 5720   4.442   1.204   1.342
 1607SOL    HW2 5721   4.405   1.148   1.193
 1608SOL     OW 5722   1.284   1.170   3.624
 1608SOL    HW1 5723   1.186   1.184   3.614
 1608SOL    HW2 5724   1.331   1.258   3.615
 1609SOL     OW 5725   4.299   0.271   0.426
 1609SOL    HW1 5726   4.385   0.237   0.466
 1609SOL    HW2 5727   4.244   0.193   0.395
 1610SOL     OW 5728   6.093   4.531   6.468
 1610SOL    HW1 5729   6.107   4.587   6.550
 1610SOL    HW2 5730   6.145   4.446   6.476
 1611SOL     OW 5731   2.201   4.032   1.171
 1611SOL    HW1 5732   2.270   3.960   1.178
 1611SOL    HW2 5733   2.198   4.083   1.257
 1612SOL     OW 5734   2.791   6.808   6.728
 1612SOL    HW1 5735   2.697   6.775   6.726
 1612SOL    HW2 5736   2.799   6.883   6.795
 1613SOL     OW 5737   1.278   5.707   1.814
 1613SOL    HW1 5738   1.341   5.784   1.820
 1613SOL    HW2 5739   1.199   5.732   1.758
 1614SOL     OW 5740   5.302   3.001   7.018
 1614SOL    HW1 5741   5.338   2.912   6.989
 1614SOL    HW2 5742   5.279   3.056   6.938
 1615SOL     OW 5743   5.804   5.509   0.787
 1615SOL    HW1 5744   5.801   5.594   0.735
 1615SOL    HW2 5745   5.759   5.436   0.735
 1616SOL     OW 5746   3.201   1.423   5.215
 1616SOL    HW1 5747   3.178   1.392   5.123
 1616SOL    HW2 5748   3.138   1.383   5.281
 1617SOL     OW 5749   6.139   6.788   2.993
 1617SOL    HW1 5750   6.053   6.758   3.033
 1617SOL    HW2 5751   6.128   6.880   2.956
 1618SOL     OW 5752   1.729   5.022   1.670
 1618SOL    HW1 5753   1.666   5.087   1.627
 1618SOL    HW2 5754   1.731   5.039   1.769
 1619SOL     OW 5755   1.205   4.219   2.009
 1619SOL    HW1 5756   1.133   4.245   1.945
 1619SOL    HW2 5757   1.247   4.133   1.979
 1620SOL     OW 5758   2.804   4.767   1.746
 1620SOL    HW1 5759   2.835   4.823   1.824
 1620SOL    HW2 5760   2.813   4.671   1.769
 1621SOL     OW 5761   6.976   1.278   0.756
 1621SOL    HW1 5762   0.030   1.244   0.805
 1621SOL    HW2 5763   6.916   1.327   0.819
 1622SOL     OW 5764   0.559   3.087   4.899
 1622SOL    HW1 5765   0.464   3.056   4.899
 1622SOL    HW2 5766   0.585   3.113   4.992
 1623SOL     OW 5767   2.190   3.249   5.039
 1623SOL    HW1 5768   2.184   3.274   5.135
 1623SOL    HW2 5769   2.264   3.184   5.025
 1624SOL     OW 5770   3.227   1.011   5.223
 1624SOL    HW1 5771   3.293   1.041   5.291
 1624SOL    HW2 5772   3.149   1.073   5.221
 1625SOL     OW 5773   1.339   5.102   0.023
 1625SOL    HW1 5774   1.393   5.172   0.070
 1625SOL    HW2 5775   1.391   5.017   0.019
 1626SOL     OW 5776   4.274   1.958   0.178
 1626SOL    HW1 5777   4.265   1.890   0.251
 1626SOL    HW2 5778   4.226   2.042   0.204
 1627SOL     OW 5779   6.258   3.460   3.221
 1627SOL    HW1 5780   6.311   3.544   3.208
 1627SOL    HW2 5781   6.280   3.396   3.148
 1628SOL     OW 5782   4.994   4.256   6.939
 1628SOL    HW1 5783   4.901   4.248   6.976
 1628SOL    HW2 5784   4.994   4.321   6.864
 1629SOL     OW 5785   3.169   0.830   4.251
 1629SOL    HW1 5786   3.172   0.918   4.206
 1629SOL    HW2 5787   3.260   0.789   4.253
 1630SOL     OW 5788   1.115   4.831   5.556
 1630SOL    HW1 5789   1.149   4.772   5.629
 1630SOL    HW2 5790   1.085   4.918   5.594
 1631SOL     OW 5791   1.357   3.230   0.014
 1631SOL    HW1 5792   1.424   3.261   6.972
 1631SOL    HW2 5793   1.343   3.302   0.081
 1632SOL     OW 5794   6.424   2.561   0.528
 1632SOL    HW1 5795   6.342   2.509   0.503
 1632SOL    HW2 5796   6.505   2.512   0.496
 1633SOL     OW 5797   5.503   3.555   4.338
 1633SOL    HW1 5798   5.460   3.592   4.420
 1633SOL    HW2 5799   5.534   3.462   4.356
 1634SOL     OW 5800   4.474   5.652   5.033
 1634SOL    HW1 5801   4.486   5.678   5.128
 1634SOL    HW2 5802   4.463   5.733   4.976
 1635SOL     OW 5803   6.784   4.909   6.326
 1635SOL    HW1 5804   6.862   4.871   6.375
 1635SOL    HW2 5805   6.730   4.834   6.286
 1636SOL     OW 5806   2.667   4.473   1.696
 1636SOL    HW1 5807   2.583   4.499   1.744
 1636SOL    HW2 5808   2.745   4.481   1.758
 1637SOL     OW 5809   1.001   0.295   2.590
 1637SOL    HW1 5810   1.009   0.234   2.668
 1637SOL    HW2 5811   1.081   0.354   2.584
 1638SOL     OW 5812   0.027   4.228   3.316
 1638SOL    HW1 5813   0.111   4.231   3.371
 1638SOL    HW2 5814   6.981   4.280   3.361
 1639SOL     OW 5815   5.016   6.714   2.201
 1639SOL    HW1 5816   5.096   6.660   2.175
 1639SOL    HW2 5817   4.933   6.662   2.180
 1640SOL     OW 5818   6.452   0.649   0.198
 1640SOL    HW1 5819   6.541   0.694   0.204
 1640SOL    HW2 5820   6.438   0.614   0.106
 1641SOL     OW 5821   4.638   2.333   3.497
 1641SOL    HW1 5822   4.620   2.425   3.530
 1641SOL    HW2 5823   4.726   2.301   3.533
 1642SOL     OW 5824   6.231   3.542   6.188
 1642SOL    HW1 5825   6.304   3.476   6.202
 1642SOL    HW2 5826   6.270   3.632   6.169
 1643SOL     OW 5827   2.938   4.876   4.893
 1643SOL    HW1 5828   2.994   4.910   4.969
 1643SOL    HW2 5829   2.882   4.799   4.925
 1644SOL     OW 5830   6.266   3.638   0.666
 1644SOL    HW1 5831   6.265   3.731   0.627
 1644SOL    HW2 5832   6.291   3.572   0.595
 1645SOL     OW 5833   3.161   5.411   5.535
 1645SOL    HW1 5834   3.188   5.322   5.499
 1645SOL    HW2 5835   3.063   5.410   5.557
 1646SOL     OW 5836   2.949   6.493   0.227
 1646SOL    HW1 5837   2.961   6.592   0.216
 1646SOL    HW2 5838   2.972   6.468   0.321
 1647SOL     OW 5839   5.721   3.046   4.538
 1647SOL    HW1 5840   5.765   2.996   4.463
 1647SOL    HW2 5841   5.631   3.006   4.556
 1648SOL     OW 5842   5.060   5.219   0.704
 1648SOL    HW1 5843   5.121   5.147   0.736
 1648SOL    HW2 5844   5.107   5.307   0.711
 1649SOL     OW 5845   3.218   1.148   4.505
 1649SOL    HW1 5846   3.260   1.192   4.585
 1649SOL    HW2 5847   3.220   1.049   4.515
 1650SOL     OW 5848   1.803   6.228   5.689
 1650SOL    HW1 5849   1.845   6.285   5.619
 1650SOL    HW2 5850   1.705   6.217   5.669
 1651SOL     OW 5851   0.402   1.877   1.932
 1651SOL    HW1 5852   0.448   1.898   2.019
 1651SOL    HW2 5853   0.434   1.940   1.862
 1652SOL     OW 5854   1.096   3.844   2.656
 1652SOL    HW1 5855   1.137   3.753   2.665
 1652SOL    HW2 5856   1.147   3.896   2.587
 1653SOL     OW 5857   0.877   6.898   1.055
 1653SOL    HW1 5858   0.919   6.817   1.096
 1653SOL    HW2 5859   0.819   6.871   0.978
 1654SOL     OW 5860   0.711   3.773   1.627
 1654SOL    HW1 5861   0.749   3.682   1.610
 1654SOL    HW2 5862   0.612   3.771   1.614
 1655SOL     OW 5863   0.579   2.358   5.235
 1655SOL    HW1 5864   0.516   2.378   5.160
 1655SOL    HW2 5865   0.566   2.263   5.265
 1656SOL     OW 5866   2.647   4.665   2.279
 1656SOL    HW1 5867   2.707   4.643   2.202
 1656SOL    HW2 5868   2.671   4.755   2.315
 1657SOL     OW 5869   0.288   1.101   3.217
 1657SOL    HW1 5870   0.338   1.187   3.218
 1657SOL    HW2 5871   0.264   1.077   3.123
 1658SOL     OW 5872   6.934   5.845   1.102
 1658SOL    HW1 5873   6.946   5.945   1.098
 1658SOL    HW2 5874   6.941   5.807   1.011
 1659SOL     OW 5875   3.977   7.003   6.329
 1659SOL    HW1 5876   3.928   0.063   6.342
 1659SOL    HW2 5877   4.029   7.007   6.244
 1660SOL     OW 5878   0.938   5.032   3.531
 1660SOL    HW1 5879   1.002   5.015   3.456
 1660SOL    HW2 5880   0.988   5.060   3.613
 1661SOL     OW 5881   2.556   0.426   1.773
 1661SOL    HW1 5882   2.468   0.445   1.817
 1661SOL    HW2 5883   2.560   0.329   1.747
 1662SOL     OW 5884   6.813   0.801   4.476
 1662SOL    HW1 5885   6.862   0.888   4.483
 1662SOL    HW2 5886   6.820   0.751   4.562
 1663SOL     OW 5887   4.485   6.199   2.856
 1663SOL    HW1 5888   4.528   6.115   2.825
 1663SOL    HW2 5889   4.549   6.251   2.912
 1664SOL     OW 5890   1.886   0.143   4.719
 1664SOL    HW1 5891   1.845   0.220   4.670
 1664SOL    HW2 5892   1.824   0.064   4.715
 1665SOL     OW 5893   0.161   1.646   2.836
 1665SOL    HW1 5894   0.188   1.700   2.756
 1665SOL    HW2 5895   0.163   1.705   2.917
 1666SOL     OW 5896   5.665   2.036   6.804
 1666SOL    HW1 5897   5.726   2.104   6.846
 1666SOL    HW2 5898   5.583   2.027   6.860
 1667SOL     OW 5899   6.963   5.924   1.414
 1667SOL    HW1 5900   0.029   5.887   1.407
 1667SOL    HW2 5901   6.896   5.849   1.406
 1668SOL     OW 5902   5.313   6.578   4.818
 1668SOL    HW1 5903   5.220   6.597   4.785
 1668SOL    HW2 5904   5.331   6.632   4.900
 1669SOL     OW 5905   6.372   5.580   6.331
 1669SOL    HW1 5906   6.397   5.532   6.415
 1669SOL    HW2 5907   6.454   5.596   6.276
 1670SOL     OW 5908   0.164   3.971   5.414
 1670SOL    HW1 5909   0.229   3.898   5.391
 1670SOL    HW2 5910   0.110   3.943   5.494
 1671SOL     OW 5911   5.179   1.458   1.656
 1671SOL    HW1 5912   5.121   1.537   1.678
 1671SOL    HW2 5913   5.270   1.490   1.630
 1672SOL     OW 5914   1.801   3.091   0.875
 1672SOL    HW1 5915   1.883   3.035   0.882
 1672SOL    HW2 5916   1.825   3.187   0.892
 1673SOL     OW 5917   1.067   1.703   4.158
 1673SOL    HW1 5918   1.017   1.761   4.093
 1673SOL    HW2 5919   1.165   1.713   4.142
 1674SOL     OW 5920   0.738   3.283   2.331
 1674SOL    HW1 5921   0.669   3.325   2.273
 1674SOL    HW2 5922   0.719   3.305   2.427
 1675SOL     OW 5923   5.005   0.039   6.906
 1675SOL    HW1 5924   5.086   0.099   6.907
 1675SOL    HW2 5925   4.998   7.020   6.818
 1676SOL     OW 5926   2.038   2.306   1.743
 1676SOL    HW1 5927   2.131   2.286   1.713
 1676SOL    HW2 5928   2.037   2.393   1.792
 1677SOL     OW 5929   3.196   3.742   4.483
 1677SOL    HW1 5930   3.242   3.783   4.404
 1677SOL    HW2 5931   3.099   3.732   4.463
 1678SOL     OW 5932   5.182   4.175   4.169
 1678SOL    HW1 5933   5.162   4.102   4.103
 1678SOL    HW2 5934   5.140   4.152   4.257
 1679SOL     OW 5935   2.258   2.286   4.392
 1679SOL    HW1 5936   2.356   2.278   4.375
 1679SOL    HW2 5937   2.227   2.379   4.370
 1680SOL     OW 5938   6.935   2.557   4.773
 1680SOL    HW1 5939   6.966   2.579   4.680
 1680SOL    HW2 5940   6.839   2.526   4.769
 1681SOL     OW 5941   6.737   5.720   0.103
 1681SOL    HW1 5942   6.693   5.809   0.115
 1681SOL    HW2 5943   6.680   5.648   0.142
 1682SOL     OW 5944   1.419   0.905   4.392
 1682SOL    HW1 5945   1.415   0.957   4.477
 1682SOL    HW2 5946   1.478   0.952   4.326
 1683SOL     OW 5947   4.886   5.028   1.262
 1683SOL    HW1 5948   4.952   5.022   1.336
 1683SOL    HW2 5949   4.829   4.946   1.260
 1684SOL     OW 5950   1.676   5.898   2.120
 1684SOL    HW1 5951   1.581   5.929   2.109
 1684SOL    HW2 5952   1.735   5.949   2.057
 1685SOL     OW 5953   2.779   0.917   4.768
 1685SOL    HW1 5954   2.761   0.851   4.695
 1685SOL    HW2 5955   2.708   0.908   4.838
 1686SOL     OW 5956   2.971   5.966   4.728
 1686SOL    HW1 5957   2.989   5.986   4.824
 1686SOL    HW2 5958   2.884   6.007   4.701
 1687SOL     OW 5959   2.042   3.687   1.480
 1687SOL    HW1 5960   2.068   3.784   1.480
 1687SOL    HW2 5961   2.083   3.642   1.559
 1688SOL     OW 5962   2.365   2.738   4.292
 1688SOL    HW1 5963   2.340   2.815   4.350
 1688SOL    HW2 5964   2.430   2.769   4.222
 1689SOL     OW 5965   5.764   1.369   3.061
 1689SOL    HW1 5966   5.855   1.334   3.039
 1689SOL    HW2 5967   5.730   1.425   2.985
 1690SOL     OW 5968   1.593   2.948   3.801
 1690SOL    HW1 5969   1.536   2.890   3.860
 1690SOL    HW2 5970   1.687   2.947   3.834
 1691SOL     OW 5971   6.054   3.568   3.670
 1691SOL    HW1 5972   6.101   3.550   3.584
 1691SOL    HW2 5973   6.091   3.507   3.741
 1692SOL     OW 5974   5.628   6.481   1.459
 1692SOL    HW1 5975   5.581   6.399   1.493
 1692SOL    HW2 5976   5.685   6.519   1.532
 1693SOL     OW 5977   0.109   2.121   2.091
 1693SOL    HW1 5978   0.056   2.080   2.165
 1693SOL    HW2 5979   0.106   2.061   2.011
 1694SOL     OW 5980   5.142   0.523   2.592
 1694SOL    HW1 5981   5.130   0.528   2.691
 1694SOL    HW2 5982   5.229   0.565   2.567
 1695SOL     OW 5983   3.955   1.030   5.134
 1695SOL    HW1 5984   3.875   1.087   5.116
 1695SOL    HW2 5985   4.001   1.063   5.216
 1696SOL     OW 5986   4.356   4.534   0.473
 1696SOL    HW1 5987   4.431   4.476   0.441
 1696SOL    HW2 5988   4.361   4.543   0.572
 1697SOL     OW 5989   5.803   0.327   0.691
 1697SOL    HW1 5990   5.806   0.262   0.615
 1697SOL    HW2 5991   5.710   0.330   0.729
 1698SOL     OW 5992   4.273   0.495   0.586
 1698SOL    HW1 5993   4.357   0.549   0.581
 1698SOL    HW2 5994   4.287   0.406   0.542
 1699SOL     OW 5995   1.543   0.756   1.034
 1699SOL    HW1 5996   1.459   0.756   1.089
 1699SOL    HW2 5997   1.566   0.662   1.009
 1700SOL     OW 5998   5.628   2.623   3.523
 1700SOL    HW1 5999   5.699   2.557   3.499
 1700SOL    HW2 6000   5.662   2.716   3.506
 1701SOL     OW 6001   4.602   4.256   6.165
 1701SOL    HW1 6002   4.587   4.182   6.099
 1701SOL    HW2 6003   4.521   4.314   6.169
 1702SOL     OW 6004   6.666   2.416   0.411
 1702SOL    HW1 6005   6.728   2.489   0.382
 1702SOL    HW2 6006   6.690   2.332   0.363
 1703SOL     OW 6007   2.990   2.590   1.658
 1703SOL    HW1 6008   2.999   2.518   1.727
 1703SOL    HW2 6009   2.903   2.638   1.669
 1704SOL     OW 6010   1.441   2.579   0.943
 1704SOL    HW1 6011   1.505   2.598   0.869
 1704SOL    HW2 6012   1.457   2.642   1.019
 1705SOL     OW 6013   3.483   1.725   1.439
 1705SOL    HW1 6014   3.537   1.745   1.358
 1705SOL    HW2 6015   3.542   1.726   1.520
 1706SOL     OW 6016   4.635   1.014   2.315
 1706SOL    HW1 6017   4.662   0.973   2.228
 1706SOL    HW2 6018   4.710   1.005   2.380
 1707SOL     OW 6019   5.111   2.099   2.348
 1707SOL    HW1 6020   5.097   2.001   2.338
 1707SOL    HW2 6021   5.192   2.127   2.297
 1708SOL     OW 6022   4.842   5.248   1.476
 1708SOL    HW1 6023   4.911   5.183   1.443
 1708SOL    HW2 6024   4.816   5.309   1.402
 1709SOL     OW 6025   3.289   5.798   2.350
 1709SOL    HW1 6026   3.257   5.788   2.256
 1709SOL    HW2 6027   3.224   5.754   2.413
 1710SOL     OW 6028   5.073   5.042   4.303
 1710SOL    HW1 6029   5.012   5.002   4.234
 1710SOL    HW2 6030   5.045   5.013   4.394
 1711SOL     OW 6031   1.175   4.443   3.997
 1711SOL    HW1 6032   1.127   4.406   3.918
 1711SOL    HW2 6033   1.119   4.512   4.042
 1712SOL     OW 6034   6.788   2.371   5.578
 1712SOL    HW1 6035   6.759   2.431   5.653
 1712SOL    HW2 6036   6.725   2.294   5.570
 1713SOL     OW 6037   4.450   2.650   1.515
 1713SOL    HW1 6038   4.512   2.612   1.583
 1713SOL    HW2 6039   4.488   2.736   1.480
 1714SOL     OW 6040   3.344   1.469   5.562
 1714SOL    HW1 6041   3.340   1.564   5.531
 1714SOL    HW2 6042   3.260   1.448   5.612
 1715SOL     OW 6043   0.269   5.660   3.071
 1715SOL    HW1 6044   0.171   5.682   3.069
 1715SOL    HW2 6045   0.281   5.566   3.102
 1716SOL     OW 6046   4.973   6.797   3.096
 1716SOL    HW1 6047   4.953   6.713   3.146
 1716SOL    HW2 6048   5.068   6.795   3.065
 1717SOL     OW 6049   2.496   6.767   5.675
 1717SOL    HW1 6050   2.514   6.678   5.718
 1717SOL    HW2 6051   2.568   6.831   5.700
 1718SOL     OW 6052   2.176   1.828   1.351
 1718SOL    HW1 6053   2.095   1.792   1.396
 1718SOL    HW2 6054   2.202   1.767   1.275
 1719SOL     OW 6055   1.557   3.419   0.801
 1719SOL    HW1 6056   1.529   3.510   0.832
 1719SOL    HW2 6057   1.640   3.391   0.849
 1720SOL     OW 6058   0.298   3.146   6.852
 1720SOL    HW1 6059   0.352   3.082   6.798
 1720SOL    HW2 6060   0.347   3.169   6.936
 1721SOL     OW 6061   1.580   6.030   1.380
 1721SOL    HW1 6062   1.510   6.050   1.448
 1721SOL    HW2 6063   1.602   5.932   1.383
 1722SOL     OW 6064   3.728   1.367   3.472
 1722SOL    HW1 6065   3.806   1.310   3.499
 1722SOL    HW2 6066   3.698   1.420   3.551
 1723SOL     OW 6067   6.193   2.448   2.851
 1723SOL    HW1 6068   6.136   2.365   2.855
 1723SOL    HW2 6069   6.257   2.440   2.776
 1724SOL     OW 6070   6.990   2.743   1.815
 1724SOL    HW1 6071   7.000   2.748   1.914
 1724SOL    HW2 6072   6.941   2.824   1.782
 1725SOL     OW 6073   1.611   4.620   6.282
 1725SOL    HW1 6074   1.606   4.536   6.228
 1725SOL    HW2 6075   1.520   4.643   6.316
 1726SOL     OW 6076   5.762   4.796   4.897
 1726SOL    HW1 6077   5.684   4.809   4.958
 1726SOL    HW2 6078   5.847   4.804   4.949
 1727SOL     OW 6079   3.352   2.973   3.948
 1727SOL    HW1 6080   3.346   2.918   4.031
 1727SOL    HW2 6081   3.260   2.993   3.914
 1728SOL     OW 6082   5.179   4.789   5.260
 1728SOL    HW1 6083   5.160   4.691   5.255
 1728SOL    HW2 6084   5.093   4.840   5.251
 1729SOL     OW 6085   2.413   4.357   3.049
 1729SOL    HW1 6086   2.431   4.332   3.143
 1729SOL    HW2 6087   2.449   4.449   3.031
 1730SOL     OW 6088   1.265   6.685   5.696
 1730SOL    HW1 6089   1.275   6.750   5.621
 1730SOL    HW2 6090   1.242   6.595   5.660
 1731SOL     OW 6091   6.734   3.874   2.953
 1731SOL    HW1 6092   6.687   3.786   2.951
 1731SOL    HW2 6093   6.827   3.861   2.988
 1732SOL     OW 6094   2.337   5.442   5.311
 1732SOL    HW1 6095   2.258   5.383   5.326
 1732SOL    HW2 6096   2.419   5.399   5.347
 1733SOL     OW 6097   2.001   4.787   1.408
 1733SOL    HW1 6098   1.960   4.777   1.499
 1733SOL    HW2 6099   2.086   4.839   1.415
 1734SOL     OW 6100   4.478   3.131   0.867
 1734SOL    HW1 6101   4.516   3.207   0.918
 1734SOL    HW2 6102   4.531   3.048   0.885
 1735SOL     OW 6103   5.064   5.935   0.235
 1735SOL    HW1 6104   5.085   6.002   0.306
 1735SOL    HW2 6105   4.970   5.904   0.245
 1736SOL     OW 6106   3.220   3.227   0.167
 1736SOL    HW1 6107   3.191   3.146   0.118
 1736SOL    HW2 6108   3.242   3.203   0.262
 1737SOL     OW 6109   3.033   1.364   4.467
 1737SOL    HW1 6110   3.112   1.304   4.481
 1737SOL    HW2 6111   2.949   1.309   4.468
 1738SOL     OW 6112   2.136   2.578   4.083
 1738SOL    HW1 6113   2.064   2.515   4.053
 1738SOL    HW2 6114   2.151   2.566   4.181
 1739SOL     OW 6115   0.478   2.111   5.334
 1739SOL    HW1 6116   0.523   2.024   5.313
 1739SOL    HW2 6117   0.501   2.139   5.427
 1740SOL     OW 6118   0.185   1.812   5.661
 1740SOL    HW1 6119   0.279   1.813   5.695
 1740SOL    HW2 6120   0.122   1.836   5.735
 1741SOL     OW 6121   2.398   0.652   3.628
 1741SOL    HW1 6122   2.456   0.730   3.604
 1741SOL    HW2 6123   2.408   0.581   3.559
 1742SOL     OW 6124   5.571   0.500   6.444
 1742SOL    HW1 6125   5.563   0.409   6.486
 1742SOL    HW2 6126   5.667   0.519   6.425
 1743SOL     OW 6127   1.169   2.432   1.210
 1743SOL    HW1 6128   1.161   2.530   1.197
 1743SOL    HW2 6129   1.092   2.385   1.167
 1744SOL     OW 6130   6.526   1.541   2.567
 1744SOL    HW1 6131   6.624   1.528   2.557
 1744SOL    HW2 6132   6.490   1.478   2.636
 1745SOL     OW 6133   6.146   5.974   2.711
 1745SOL    HW1 6134   6.195   5.898   2.753
 1745SOL    HW2 6135   6.208   6.025   2.652
 1746SOL     OW 6136   1.144   4.272   4.671
 1746SOL    HW1 6137   1.239   4.263   4.642
 1746SOL    HW2 6138   1.135   4.348   4.735
 1747SOL     OW 6139   4.907   1.511   3.139
 1747SOL    HW1 6140   4.938   1.581   3.075
 1747SOL    HW2 6141   4.965   1.430   3.131
 1748SOL     OW 6142   1.360   1.008   5.301
 1748SOL    HW1 6143   1.334   0.954   5.221
 1748SOL    HW2 6144   1.285   1.009   5.366
 1749SOL     OW 6145   2.582   0.596   4.819
 1749SOL    HW1 6146   2.679   0.588   4.795
 1749SOL    HW2 6147   2.534   0.514   4.787
 1750SOL     OW 6148   5.402   6.107   4.406
 1750SOL    HW1 6149   5.374   6.049   4.482
 1750SOL    HW2 6150   5.477   6.167   4.435
 1751SOL     OW 6151   3.938   6.542   5.066
 1751SOL    HW1 6152   3.964   6.638   5.061
 1751SOL    HW2 6153   4.012   6.485   5.031
 1752SOL     OW 6154   6.795   2.125   1.529
 1752SOL    HW1 6155   6.792   2.067   1.447
 1752SOL    HW2 6156   6.862   2.088   1.593
 1753SOL     OW 6157   0.253   1.175   0.686
 1753SOL    HW1 6158   0.214   1.159   0.776
 1753SOL    HW2 6159   0.292   1.267   0.682
 1754SOL     OW 6160   1.170   4.391   6.951
 1754SOL    HW1 6161   1.205   4.299   6.931
 1754SOL    HW2 6162   1.119   4.389   0.011
 1755SOL     OW 6163   7.025   6.078   2.356
 1755SOL    HW1 6164   0.099   6.080   2.349
 1755SOL    HW2 6165   6.987   6.049   2.268
 1756SOL     OW 6166   4.272   5.730   6.087
 1756SOL    HW1 6167   4.236   5.718   5.994
 1756SOL    HW2 6168   4.320   5.647   6.116
 1757SOL     OW 6169   2.782   5.677   4.996
 1757SOL    HW1 6170   2.836   5.592   5.002
 1757SOL    HW2 6171   2.686   5.657   5.015
 1758SOL     OW 6172   2.041   0.043   4.005
 1758SOL    HW1 6173   2.124   0.094   3.979
 1758SOL    HW2 6174   2.010   0.074   4.095
 1759SOL     OW 6175   1.651   5.872   6.223
 1759SOL    HW1 6176   1.714   5.933   6.271
 1759SOL    HW2 6177   1.690   5.779   6.221
 1760SOL     OW 6178   5.327   1.343   3.176
 1760SOL    HW1 6179   5.413   1.292   3.177
 1760SOL    HW2 6180   5.335   1.423   3.235
 1761SOL     OW 6181   0.296   0.449   0.791
 1761SOL    HW1 6182   0.379   0.397   0.811
 1761SOL    HW2 6183   0.311   0.545   0.811
 1762SOL     OW 6184   0.480   1.062   4.996
 1762SOL    HW1 6185   0.437   1.147   5.025
 1762SOL    HW2 6186   0.418   1.012   4.935
 1763SOL     OW 6187   1.205   3.535   3.682
 1763SOL    HW1 6188   1.110   3.565   3.675
 1763SOL    HW2 6189   1.266   3.614   3.678
 1764SOL     OW 6190   2.090   3.690   2.721
 1764SOL    HW1 6191   2.117   3.739   2.804
 1764SOL    HW2 6192   2.128   3.736   2.641
 1765SOL     OW 6193   3.541   1.000   0.792
 1765SOL    HW1 6194   3.587   0.956   0.715
 1765SOL    HW2 6195   3.573   0.959   0.878
 1766SOL     OW 6196   4.956   3.904   2.410
 1766SOL    HW1 6197   5.039   3.852   2.428
 1766SOL    HW2 6198   4.949   3.921   2.312
 1767SOL     OW 6199   0.613   3.584   2.860
 1767SOL    HW1 6200   0.568   3.632   2.785
 1767SOL    HW2 6201   0.686   3.526   2.824
 1768SOL     OW 6202   4.391   1.855   6.070
 1768SOL    HW1 6203   4.393   1.833   6.167
 1768SOL    HW2 6204   4.321   1.800   6.024
 1769SOL     OW 6205   4.234   1.885   5.617
 1769SOL    HW1 6206   4.176   1.897   5.536
 1769SOL    HW2 6207   4.211   1.799   5.662
 1770SOL     OW 6208   6.957   4.211   4.504
 1770SOL    HW1 6209   6.972   4.148   4.580
 1770SOL    HW2 6210   6.864   4.248   4.509
 1771SOL     OW 6211   1.951   5.013   0.104
 1771SOL    HW1 6212   1.909   4.945   0.164
 1771SOL    HW2 6213   1.960   5.100   0.154
 1772SOL     OW 6214   3.416   0.034   3.321
 1772SOL    HW1 6215   3.447   0.127   3.300
 1772SOL    HW2 6216   3.430   7.002   3.241
 1773SOL     OW 6217   3.096   3.824   6.809
 1773SOL    HW1 6218   3.169   3.764   6.778
 1773SOL    HW2 6219   3.099   3.910   6.758
 1774SOL     OW 6220   4.535   0.339   1.703
 1774SOL    HW1 6221   4.534   0.439   1.706
 1774SOL    HW2 6222   4.463   0.302   1.761
 1775SOL     OW 6223   1.617   5.642   4.917
 1775SOL    HW1 6224   1.661   5.618   5.003
 1775SOL    HW2 6225   1.522   5.611   4.919
 1776SOL     OW 6226   4.412   0.869   6.031
 1776SOL    HW1 6227   4.451   0.778   6.019
 1776SOL    HW2 6228   4.314   0.867   6.009
 1777SOL     OW 6229   2.922   6.001   5.653
 1777SOL    HW1 6230   2.979   5.959   5.582
 1777SOL    HW2 6231   2.828   5.968   5.644
 1778SOL     OW 6232   4.219   2.319   4.349
 1778SOL    HW1 6233   4.161   2.337   4.429
 1778SOL    HW2 6234   4.315   2.324   4.376
 1779SOL     OW 6235   3.938   2.035   4.416
 1779SOL    HW1 6236   4.008   2.085   4.467
 1779SOL    HW2 6237   3.930   2.073   4.324
 1780SOL     OW 6238   1.960   4.561   5.670
 1780SOL    HW1 6239   1.942   4.654   5.636
 1780SOL    HW2 6240   1.955   4.497   5.594
 1781SOL     OW 6241   5.026   5.635   3.640
 1781SOL    HW1 6242   4.954   5.588   3.589
 1781SOL    HW2 6243   5.092   5.568   3.674
 1782SOL     OW 6244   2.855   1.804   3.453
 1782SOL    HW1 6245   2.880   1.739   3.381
 1782SOL    HW2 6246   2.764   1.782   3.488
 1783SOL     OW 6247   2.294   3.352   6.168
 1783SOL    HW1 6248   2.365   3.282   6.172
 1783SOL    HW2 6249   2.312   3.415   6.092
 1784SOL     OW 6250   2.984   0.919   2.826
 1784SOL    HW1 6251   3.074   0.962   2.815
 1784SOL    HW2 6252   2.913   0.987   2.806
 1785SOL     OW 6253   5.419   5.651   3.562
 1785SOL    HW1 6254   5.397   5.702   3.478
 1785SOL    HW2 6255   5.514   5.668   3.588
 1786SOL     OW 6256   0.964   3.560   0.782
 1786SOL    HW1 6257   0.961   3.606   0.871
 1786SOL    HW2 6258   0.922   3.469   0.790
 1787SOL     OW 6259   2.043   0.835   5.175
 1787SOL    HW1 6260   1.971   0.894   5.210
 1787SOL    HW2 6261   2.070   0.769   5.246
 1788SOL     OW 6262   3.279   3.936   0.005
 1788SOL    HW1 6263   3.203   3.908   0.065
 1788SOL    HW2 6264   3.282   3.876   6.952
 1789SOL     OW 6265   6.112   2.298   2.484
 1789SOL    HW1 6266   6.037   2.356   2.516
 1789SOL    HW2 6267   6.082   2.203   2.485
 1790SOL     OW 6268   3.987   6.333   4.693
 1790SOL    HW1 6269   4.079   6.312   4.726
 1790SOL    HW2 6270   3.969   6.431   4.704
 1791SOL     OW 6271   0.801   1.716   4.620
 1791SOL    HW1 6272   0.839   1.623   4.627
 1791SOL    HW2 6273   0.834   1.770   4.698
 1792SOL     OW 6274   0.798   1.432   4.351
 1792SOL    HW1 6275   0.741   1.384   4.417
 1792SOL    HW2 6276   0.773   1.529   4.349
 1793SOL     OW 6277   6.919   0.114   3.567
 1793SOL    HW1 6278   6.990   0.133   3.499
 1793SOL    HW2 6279   6.856   0.191   3.572
 1794SOL     OW 6280   4.975   6.370   6.338
 1794SOL    HW1 6281   4.905   6.339   6.274
 1794SOL    HW2 6282   5.066   6.352   6.301
 1795SOL     OW 6283   0.098   4.846   1.884
 1795SOL    HW1 6284   0.016   4.885   1.925
 1795SOL    HW2 6285   0.144   4.788   1.951
 1796SOL     OW 6286   2.352   1.393   4.270
 1796SOL    HW1 6287   2.347   1.455   4.192
 1796SOL    HW2 6288   2.264   1.346   4.281
 1797SOL     OW 6289   1.299   0.104   5.993
 1797SOL    HW1 6290   1.399   0.109   5.992
 1797SOL    HW2 6291   1.270   0.014   5.962
 1798SOL     OW 6292   4.762   2.866   5.598
 1798SOL    HW1 6293   4.852   2.909   5.599
 1798SOL    HW2 6294   4.771   2.769   5.573
 1799SOL     OW 6295   5.775   2.194   6.382
 1799SOL    HW1 6296   5.714   2.244   6.321
 1799SOL    HW2 6297   5.862   2.177   6.336
 1800SOL     OW 6298   5.055   4.373   3.594
 1800SOL    HW1 6299   5.061   4.295   3.532
 1800SOL    HW2 6300   5.141   4.424   3.592
 1801SOL     OW 6301   1.164   1.527   3.009
 1801SOL    HW1 6302   1.084   1.569   2.966
 1801SOL    HW2 6303   1.162   1.428   2.992
 1802SOL     OW 6304   5.568   5.304   2.594
 1802SOL    HW1 6305   5.574   5.394   2.638
 1802SOL    HW2 6306   5.618   5.237   2.648
 1803SOL     OW 6307   6.723   6.386   1.424
 1803SOL    HW1 6308   6.768   6.305   1.387
 1803SOL    HW2 6309   6.789   6.444   1.470
 1804SOL     OW 6310   3.368   3.183   5.326
 1804SOL    HW1 6311   3.415   3.106   5.281
 1804SOL    HW2 6312   3.428   3.263   5.326
 1805SOL     OW 6313   0.781   3.987   5.732
 1805SOL    HW1 6314   0.871   3.950   5.710
 1805SOL    HW2 6315   0.717   3.965   5.659
 1806SOL     OW 6316   1.694   2.274   1.699
 1806SOL    HW1 6317   1.717   2.371   1.707
 1806SOL    HW2 6318   1.724   2.226   1.782
 1807SOL     OW 6319   6.017   2.172   6.241
 1807SOL    HW1 6320   6.050   2.197   6.332
 1807SOL    HW2 6321   6.092   2.132   6.188
 1808SOL     OW 6322   5.957   4.703   4.721
 1808SOL    HW1 6323   6.030   4.707   4.790
 1808SOL    HW2 6324   5.881   4.760   4.752
 1809SOL     OW 6325   2.512   2.352   4.839
 1809SOL    HW1 6326   2.482   2.257   4.826
 1809SOL    HW2 6327   2.601   2.365   4.797
 1810SOL     OW 6328   1.894   6.863   5.377
 1810SOL    HW1 6329   1.985   6.846   5.340
 1810SOL    HW2 6330   1.829   6.798   5.338
 1811SOL     OW 6331   4.414   4.732   3.521
 1811SOL    HW1 6332   4.401   4.706   3.425
 1811SOL    HW2 6333   4.352   4.807   3.544
 1812SOL     OW 6334   5.225   0.074   5.598
 1812SOL    HW1 6335   5.235   0.067   5.498
 1812SOL    HW2 6336   5.145   0.020   5.626
 1813SOL     OW 6337   4.269   4.932   1.226
 1813SOL    HW1 6338   4.194   4.986   1.265
 1813SOL    HW2 6339   4.242   4.836   1.221
 1814SOL     OW 6340   6.498   0.690   0.900
 1814SOL    HW1 6341   6.500   0.625   0.977
 1814SOL    HW2 6342   6.572   0.668   0.836
 1815SOL     OW 6343   5.851   0.740   2.504
 1815SOL    HW1 6344   5.827   0.757   2.600
 1815SOL    HW2 6345   5.938   0.785   2.483
 1816SOL     OW 6346   2.310   4.690   0.602
 1816SOL    HW1 6347   2.239   4.650   0.661
 1816SOL    HW2 6348   2.375   4.740   0.659
 1817SOL     OW 6349   3.621   0.079   3.094
 1817SOL    HW1 6350   3.546   0.013   3.093
 1817SOL    HW2 6351   3.693   0.048   3.031
 1818SOL     OW 6352   2.476   5.856   1.363
 1818SOL    HW1 6353   2.384   5.818   1.374
 1818SOL    HW2 6354   2.470   5.952   1.338
 1819SOL     OW 6355   1.039   6.403   1.904
 1819SOL    HW1 6356   1.096   6.347   1.843
 1819SOL    HW2 6357   0.977   6.343   1.955
 1820SOL     OW 6358   3.168   0.129   1.869
 1820SOL    HW1 6359   3.091   0.128   1.805
 1820SOL    HW2 6360   3.161   0.210   1.928
 1821SOL     OW 6361   2.656   0.918   1.615
 1821SOL    HW1 6362   2.743   0.968   1.613
 1821SOL    HW2 6363   2.673   0.820   1.614
 1822SOL     OW 6364   1.222   2.893   1.469
 1822SOL    HW1 6365   1.320   2.903   1.490
 1822SOL    HW2 6366   1.203   2.933   1.380
 1823SOL     OW 6367   3.302   5.450   3.387
 1823SOL    HW1 6368   3.307   5.366   3.334
 1823SOL    HW2 6369   3.226   5.505   3.354
 1824SOL     OW 6370   3.977   3.309   0.282
 1824SOL    HW1 6371   3.971   3.313   0.382
 1824SOL    HW2 6372   3.890   3.275   0.245
 1825SOL     OW 6373   1.964   1.992   4.468
 1825SOL    HW1 6374   2.055   2.004   4.508
 1825SOL    HW2 6375   1.957   2.045   4.384
 1826SOL     OW 6376   3.743   1.651   1.382
 1826SOL    HW1 6377   3.811   1.663   1.454
 1826SOL    HW2 6378   3.758   1.720   1.311
 1827SOL     OW 6379   6.564   5.438   1.243
 1827SOL    HW1 6380   6.498   5.375   1.285
 1827SOL    HW2 6381   6.656   5.398   1.247
 1828SOL     OW 6382   1.792   2.509   0.350
 1828SOL    HW1 6383   1.799   2.467   0.440
 1828SOL    HW2 6384   1.741   2.594   0.356
 1829SOL     OW 6385   3.334   0.472   3.004
 1829SOL    HW1 6386   3.278   0.415   2.944
 1829SOL    HW2 6387   3.431   0.455   2.985
 1830SOL     OW 6388   5.708   5.815   4.413
 1830SOL    HW1 6389   5.691   5.868   4.496
 1830SOL    HW2 6390   5.765   5.868   4.351
 1831SOL     OW 6391   5.712   6.846   1.637
 1831SOL    HW1 6392   5.755   6.756   1.636
 1831SOL    HW2 6393   5.695   6.874   1.732
 1832SOL     OW 6394   4.538   2.395   1.093
 1832SOL    HW1 6395   4.635   2.419   1.102
 1832SOL    HW2 6396   4.494   2.401   1.183
 1833SOL     OW 6397   5.398   0.834   0.794
 1833SOL    HW1 6398   5.454   0.842   0.876
 1833SOL    HW2 6399   5.450   0.786   0.723
 1834SOL     OW 6400   2.149   3.860   0.780
 1834SOL    HW1 6401   2.108   3.846   0.870
 1834SOL    HW2 6402   2.220   3.790   0.765
 1835SOL     OW 6403   0.211   4.526   1.679
 1835SOL    HW1 6404   0.224   4.428   1.668
 1835SOL    HW2 6405   0.213   4.550   1.777
 1836SOL     OW 6406   5.100   2.245   1.443
 1836SOL    HW1 6407   5.024   2.191   1.479
 1836SOL    HW2 6408   5.175   2.184   1.418
 1837SOL     OW 6409   1.225   0.123   4.781
 1837SOL    HW1 6410   1.298   0.078   4.730
 1837SOL    HW2 6411   1.148   0.060   4.792
 1838SOL     OW 6412   6.647   1.017   5.834
 1838SOL    HW1 6413   6.713   1.062   5.773
 1838SOL    HW2 6414   6.574   0.977   5.779
 1839SOL     OW 6415   0.435   1.712   5.398
 1839SOL    HW1 6416   0.379   1.629   5.401
 1839SOL    HW2 6417   0.377   1.791   5.381
 1840SOL     OW 6418   3.799   0.180   1.298
 1840SOL    HW1 6419   3.744   0.163   1.380
 1840SOL    HW2 6420   3.828   0.093   1.259
 1841SOL     OW 6421   2.487   1.250   3.630
 1841SOL    HW1 6422   2.491   1.206   3.540
 1841SOL    HW2 6423   2.458   1.184   3.699
 1842SOL     OW 6424   1.449   5.832   0.285
 1842SOL    HW1 6425   1.460   5.926   0.252
 1842SOL    HW2 6426   1.515   5.773   0.239
 1843SOL     OW 6427   6.270   1.395   4.134
 1843SOL    HW1 6428   6.302   1.315   4.186
 1843SOL    HW2 6429   6.208   1.449   4.191
 1844SOL     OW 6430   3.494   6.326   5.267
 1844SOL    HW1 6431   3.479   6.238   5.311
 1844SOL    HW2 6432   3.541   6.388   5.330
 1845SOL     OW 6433   3.280   6.642   4.976
 1845SOL    HW1 6434   3.268   6.734   5.013
 1845SOL    HW2 6435   3.291   6.647   4.877
 1846SOL     OW 6436   3.622   1.205   1.899
 1846SOL    HW1 6437   3.647   1.111   1.875
 1846SOL    HW2 6438   3.661   1.227   1.989
 1847SOL     OW 6439   1.502   0.642   6.563
 1847SOL    HW1 6440   1.416   0.594   6.577
 1847SOL    HW2 6441   1.486   0.724   6.508
 1848SOL     OW 6442   1.969   6.065   3.437
 1848SOL    HW1 6443   1.881   6.103   3.411
 1848SOL    HW2 6444   1.987   6.084   3.534
 1849SOL     OW 6445   4.015   2.672   1.707
 1849SOL    HW1 6446   4.110   2.703   1.698
 1849SOL    HW2 6447   4.013   2.574   1.727
 1850SOL     OW 6448   0.218   2.507   2.684
 1850SOL    HW1 6449   0.220   2.409   2.662
 1850SOL    HW2 6450   0.312   2.541   2.695
 1851SOL     OW 6451   0.617   3.296   6.557
 1851SOL    HW1 6452   0.700   3.342   6.587
 1851SOL    HW2 6453   0.585   3.233   6.627
 1852SOL     OW 6454   6.602   4.416   2.369
 1852SOL    HW1 6455   6.574   4.491   2.429
 1852SOL    HW2 6456   6.701   4.405   2.374
 1853SOL     OW 6457   0.758   2.427   3.520
 1853SOL    HW1 6458   0.771   2.396   3.426
 1853SOL    HW2 6459   0.661   2.427   3.542
 1854SOL     OW 6460   2.168   5.626   2.929
 1854SOL    HW1 6461   2.126   5.652   3.016
 1854SOL    HW2 6462   2.239   5.557   2.945
 1855SOL     OW 6463   5.290   3.848   5.293
 1855SOL    HW1 6464   5.195   3.816   5.292
 1855SOL    HW2 6465   5.326   3.841   5.386
 1856SOL     OW 6466   5.074   4.046   5.878
 1856SOL    HW1 6467   5.059   3.981   5.804
 1856SOL    HW2 6468   5.156   4.099   5.860
 1857SOL     OW 6469   4.257   2.107   6.489
 1857SOL    HW1 6470   4.308   2.144   6.566
 1857SOL    HW2 6471   4.272   2.164   6.409
 1858SOL     OW 6472   5.470   3.555   3.194
 1858SOL    HW1 6473   5.448   3.634   3.250
 1858SOL    HW2 6474   5.398   3.486   3.204
 1859SOL     OW 6475   4.748   1.845   4.050
 1859SOL    HW1 6476   4.701   1.844   3.962
 1859SOL    HW2 6477   4.721   1.764   4.103
 1860SOL     OW 6478   0.430   0.992   5.416
 1860SOL    HW1 6479   0.498   0.947   5.358
 1860SOL    HW2 6480   0.338   0.972   5.382
 1861SOL     OW 6481   6.708   6.724   2.076
 1861SOL    HW1 6482   6.672   6.638   2.112
 1861SOL    HW2 6483   6.632   6.783   2.049
 1862SOL     OW 6484   3.184   0.360   6.568
 1862SOL    HW1 6485   3.199   0.368   6.667
 1862SOL    HW2 6486   3.188   0.263   6.542
 1863SOL     OW 6487   0.491   2.525   3.329
 1863SOL    HW1 6488   0.476   2.538   3.427
 1863SOL    HW2 6489   0.566   2.462   3.314
 1864SOL     OW 6490   1.619   6.399   4.987
 1864SOL    HW1 6491   1.681   6.321   4.993
 1864SOL    HW2 6492   1.651   6.471   5.049
 1865SOL     OW 6493   4.003   6.982   0.202
 1865SOL    HW1 6494   4.006   0.056   0.210
 1865SOL    HW2 6495   3.963   6.957   0.114
 1866SOL     OW 6496   5.994   4.886   3.209
 1866SOL    HW1 6497   5.927   4.871   3.282
 1866SOL    HW2 6498   6.079   4.921   3.249
 1867SOL     OW 6499   0.910   3.797   0.350
 1867SOL    HW1 6500   0.860   3.790   0.435
 1867SOL    HW2 6501   0.926   3.893   0.327
 1868SOL     OW 6502   4.741   3.780   6.527
 1868SOL    HW1 6503   4.706   3.693   6.493
 1868SOL    HW2 6504   4.785   3.766   6.616
 1869SOL     OW 6505   6.934   3.417   4.732
 1869SOL    HW1 6506   6.901   3.426   4.639
 1869SOL    HW2 6507   6.932   3.320   4.759
 1870SOL     OW 6508   1.734   2.893   5.061
 1870SOL    HW1 6509   1.749   2.822   5.131
 1870SOL    HW2 6510   1.787   2.870   4.980
 1871SOL     OW 6511   0.446   0.914   6.524
 1871SOL    HW1 6512   0.434   0.887   6.429
 1871SOL    HW2 6513   0.388   0.993   6.544
 1872SOL     OW 6514   4.506   2.076   0.289
 1872SOL    HW1 6515   4.406   2.083   0.299
 1872SOL    HW2 6516   4.538   2.146   0.226
 1873SOL     OW 6517   6.084   1.256   5.842
 1873SOL    HW1 6518   6.177   1.273   5.811
 1873SOL    HW2 6519   6.032   1.342   5.839
 1874SOL     OW 6520   2.293   0.794   7.010
 1874SOL    HW1 6521   2.364   0.787   0.055
 1874SOL    HW2 6522   2.329   0.847   6.934
 1875SOL     OW 6523   6.956   0.982   1.024
 1875SOL    HW1 6524   6.858   0.959   1.026
 1875SOL    HW2 6525   7.001   0.942   1.104
 1876SOL     OW 6526   3.792   6.335   6.005
 1876SOL    HW1 6527   3.847   6.269   5.954
 1876SOL    HW2 6528   3.803   6.319   6.103
 1877SOL     OW 6529   0.376   1.503   3.370
 1877SOL    HW1 6530   0.435   1.562   3.427
 1877SOL    HW2 6531   0.321   1.444   3.429
 1878SOL     OW 6532   6.538   3.137   4.240
 1878SOL    HW1 6533   6.554   3.066   4.171
 1878SOL    HW2 6534   6.476   3.206   4.203
 1879SOL     OW 6535   1.864   5.441   3.537
 1879SOL    HW1 6536   1.812   5.515   3.581
 1879SOL    HW2 6537   1.802   5.366   3.515
 1880SOL     OW 6538   0.197   1.792   3.598
 1880SOL    HW1 6539   0.204   1.719   3.666
 1880SOL    HW2 6540   0.162   1.875   3.642
 1881SOL     OW 6541   1.238   2.427   3.109
 1881SOL    HW1 6542   1.294   2.492   3.161
 1881SOL    HW2 6543   1.156   2.474   3.075
 1882SOL     OW 6544   1.074   3.986   6.600
 1882SOL    HW1 6545   1.088   3.971   6.698
 1882SOL    HW2 6546   1.001   4.053   6.587
 1883SOL     OW 6547   1.055   2.998   3.731
 1883SOL    HW1 6548   1.061   2.911   3.780
 1883SOL    HW2 6549   1.082   3.072   3.792
 1884SOL     OW 6550   5.977   2.694   0.104
 1884SOL    HW1 6551   6.023   2.612   0.069
 1884SOL    HW2 6552   5.878   2.678   0.108
 1885SOL     OW 6553   6.998   2.285   6.718
 1885SOL    HW1 6554   7.003   2.201   6.664
 1885SOL    HW2 6555   0.044   2.347   6.690
 1886SOL     OW 6556   1.809   1.367   1.284
 1886SOL    HW1 6557   1.713   1.374   1.311
 1886SOL    HW2 6558   1.827   1.430   1.208
 1887SOL     OW 6559   0.905   5.953   6.790
 1887SOL    HW1 6560   0.817   5.953   6.838
 1887SOL    HW2 6561   0.979   5.941   6.856
 1888SOL     OW 6562   2.814   2.352   6.670
 1888SOL    HW1 6563   2.905   2.392   6.683
 1888SOL    HW2 6564   2.808   2.267   6.723
 1889SOL     OW 6565   5.468   2.704   6.370
 1889SOL    HW1 6566   5.508   2.667   6.286
 1889SOL    HW2 6567   5.476   2.635   6.442
 1890SOL     OW 6568   1.412   5.820   5.293
 1890SOL    HW1 6569   1.358   5.833   5.210
 1890SOL    HW2 6570   1.360   5.853   5.372
 1891SOL     OW 6571   5.812   2.422   3.476
 1891SOL    HW1 6572   5.852   2.364   3.547
 1891SOL    HW2 6573   5.814   2.374   3.389
 1892SOL     OW 6574   4.100   0.686   0.479
 1892SOL    HW1 6575   4.019   0.631   0.495
 1892SOL    HW2 6576   4.180   0.639   0.516
 1893SOL     OW 6577   3.012   2.416   6.378
 1893SOL    HW1 6578   2.938   2.369   6.330
 1893SOL    HW2 6579   2.983   2.508   6.403
 1894SOL     OW 6580   3.440   3.377   3.114
 1894SOL    HW1 6581   3.521   3.346   3.063
 1894SOL    HW2 6582   3.431   3.323   3.198
 1895SOL     OW 6583   5.595   0.795   2.845
 1895SOL    HW1 6584   5.688   0.832   2.833
 1895SOL    HW2 6585   5.532   0.871   2.864
 1896SOL     OW 6586   0.601   0.536   2.651
 1896SOL    HW1 6587   0.628   0.506   2.559
 1896SOL    HW2 6588   0.525   0.600   2.644
 1897SOL     OW 6589   0.923   4.989   2.352
 1897SOL    HW1 6590   0.851   4.929   2.316
 1897SOL    HW2 6591   0.924   4.982   2.452
 1898SOL     OW 6592   3.652   4.982   2.334
 1898SOL    HW1 6593   3.627   4.964   2.429
 1898SOL    HW2 6594   3.659   5.081   2.320
 1899SOL     OW 6595   0.943   1.953   2.551
 1899SOL    HW1 6596   0.922   1.922   2.459
 1899SOL    HW2 6597   0.870   2.013   2.584
 1900SOL     OW 6598   1.065   0.408   5.585
 1900SOL    HW1 6599   1.104   0.357   5.662
 1900SOL    HW2 6600   1.077   0.506   5.601
 1901SOL     OW 6601   1.923   1.238   1.516
 1901SOL    HW1 6602   1.837   1.255   1.564
 1901SOL    HW2 6603   1.912   1.258   1.419
 1902SOL     OW 6604   1.827   2.567   5.100
 1902SOL    HW1 6605   1.792   2.597   5.189
 1902SOL    HW2 6606   1.776   2.487   5.069
 1903SOL     OW 6607   6.136   2.979   3.309
 1903SOL    HW1 6608   6.213   2.979   3.373
 1903SOL    HW2 6609   6.059   3.028   3.349
 1904SOL     OW 6610   6.006   6.726   4.715
 1904SOL    HW1 6611   5.984   6.687   4.625
 1904SOL    HW2 6612   5.977   6.662   4.786
 1905SOL     OW 6613   1.930   0.986   4.059
 1905SOL    HW1 6614   1.839   1.019   4.086
 1905SOL    HW2 6615   1.926   0.951   3.965
 1906SOL     OW 6616   2.648   0.254   5.226
 1906SOL    HW1 6617   2.578   0.199   5.182
 1906SOL    HW2 6618   2.671   0.332   5.168
 1907SOL     OW 6619   3.387   6.923   3.069
 1907SOL    HW1 6620   3.318   6.989   3.038
 1907SOL    HW2 6621   3.402   6.854   2.998
 1908SOL     OW 6622   4.144   0.360   5.056
 1908SOL    HW1 6623   4.066   0.297   5.063
 1908SOL    HW2 6624   4.227   0.308   5.034
 1909SOL     OW 6625   1.184   3.982   2.412
 1909SOL    HW1 6626   1.166   4.070   2.457
 1909SOL    HW2 6627   1.134   3.978   2.326
 1910SOL     OW 6628   0.286   2.835   6.512
 1910SOL    HW1 6629   0.253   2.865   6.422
 1910SOL    HW2 6630   0.208   2.804   6.567
 1911SOL     OW 6631   5.780   3.672   4.866
 1911SOL    HW1 6632   5.830   3.589   4.891
 1911SOL    HW2 6633   5.691   3.647   4.829
 1912SOL     OW 6634   2.733   0.221   0.972
 1912SOL    HW1 6635   2.717   0.142   0.912
 1912SOL    HW2 6636   2.821   0.262   0.951
 1913SOL     OW 6637   1.014   5.980   5.065
 1913SOL    HW1 6638   0.987   5.903   5.007
 1913SOL    HW2 6639   0.986   5.962   5.159
 1914SOL     OW 6640   3.577   2.947   6.497
 1914SOL    HW1 6641   3.518   3.023   6.469
 1914SOL    HW2 6642   3.596   2.952   6.595
 1915SOL     OW 6643   3.571   2.076   5.253
 1915SOL    HW1 6644   3.475   2.086   5.228
 1915SOL    HW2 6645   3.587   1.983   5.287
 1916SOL     OW 6646   3.263   5.724   1.242
 1916SOL    HW1 6647   3.172   5.686   1.224
 1916SOL    HW2 6648   3.298   5.686   1.328
 1917SOL     OW 6649   2.905   3.429   4.844
 1917SOL    HW1 6650   2.964   3.433   4.924
 1917SOL    HW2 6651   2.810   3.412   4.873
 1918SOL     OW 6652   0.935   1.508   6.301
 1918SOL    HW1 6653   1.000   1.431   6.298
 1918SOL    HW2 6654   0.901   1.520   6.394
 1919SOL     OW 6655   2.558   0.628   1.597
 1919SOL    HW1 6656   2.547   0.548   1.655
 1919SOL    HW2 6657   2.468   0.655   1.560
 1920SOL     OW 6658   1.783   4.825   2.571
 1920SOL    HW1 6659   1.686   4.828   2.597
 1920SOL    HW2 6660   1.796   4.877   2.487
 1921SOL     OW 6661   1.210   5.110   0.364
 1921SOL    HW1 6662   1.159   5.115   0.278
 1921SOL    HW2 6663   1.234   5.202   0.394
 1922SOL     OW 6664   2.922   4.369   0.530
 1922SOL    HW1 6665   2.951   4.404   0.441
 1922SOL    HW2 6666   2.861   4.290   0.516
 1923SOL     OW 6667   3.194   0.711   5.787
 1923SOL    HW1 6668   3.218   0.616   5.765
 1923SOL    HW2 6669   3.277   0.765   5.795
 1924SOL     OW 6670   4.498   5.298   1.673
 1924SOL    HW1 6671   4.471   5.207   1.643
 1924SOL    HW2 6672   4.589   5.295   1.713
 1925SOL     OW 6673   1.435   4.044   0.365
 1925SOL    HW1 6674   1.518   4.017   0.317
 1925SOL    HW2 6675   1.457   4.112   0.435
 1926SOL     OW 6676   2.013   6.024   2.906
 1926SOL    HW1 6677   2.061   6.023   2.993
 1926SOL    HW2 6678   1.922   6.065   2.919
 1927SOL     OW 6679   3.172   4.218   6.228
 1927SOL    HW1 6680   3.083   4.185   6.259
 1927SOL    HW2 6681   3.161   4.264   6.140
 1928SOL     OW 6682   6.449   4.421   5.867
 1928SOL    HW1 6683   6.545   4.448   5.857
 1928SOL    HW2 6684   6.412   4.460   5.952
 1929SOL     OW 6685   1.097   5.232   1.326
 1929SOL    HW1 6686   1.137   5.322   1.308
 1929SOL    HW2 6687   1.015   5.221   1.270
 1930SOL     OW 6688   3.722   3.893   6.786
 1930SOL    HW1 6689   3.738   3.820   6.719
 1930SOL    HW2 6690   3.810   3.927   6.819
 1931SOL     OW 6691   0.607   3.255   2.576
 1931SOL    HW1 6692   0.509   3.239   2.590
 1931SOL    HW2 6693   0.660   3.187   2.626
 1932SOL     OW 6694   4.874   3.636   3.534
 1932SOL    HW1 6695   4.910   3.651   3.626
 1932SOL    HW2 6696   4.896   3.542   3.504
 1933SOL     OW 6697   2.353   4.343   0.747
 1933SOL    HW1 6698   2.422   4.355   0.676
 1933SOL    HW2 6699   2.366   4.412   0.818
 1934SOL     OW 6700   0.636   0.214   5.660
 1934SOL    HW1 6701   0.714   0.236   5.602
 1934SOL    HW2 6702   0.564   0.173   5.605
 1935SOL     OW 6703   4.185   6.258   3.858
 1935SOL    HW1 6704   4.168   6.172   3.905
 1935SOL    HW2 6705   4.180   6.334   3.924
 1936SOL     OW 6706   6.173   3.823   3.694
 1936SOL    HW1 6707   6.207   3.852   3.604
 1936SOL    HW2 6708   6.131   3.732   3.687
 1937SOL     OW 6709   3.915   0.066   1.015
 1937SOL    HW1 6710   3.993   0.038   1.070
 1937SOL    HW2 6711   3.836   0.008   1.037
 1938SOL     OW 6712   1.938   1.672   1.220
 1938SOL    HW1 6713   1.894   1.758   1.196
 1938SOL    HW2 6714   1.956   1.670   1.319
 1939SOL     OW 6715   6.743   0.474   4.867
 1939SOL    HW1 6716   6.821   0.533   4.888
 1939SOL    HW2 6717   6.737   0.460   4.768
 1940SOL     OW 6718   4.916   4.933   0.622
 1940SOL    HW1 6719   4.980   4.874   0.573
 1940SOL    HW2 6720   4.958   5.021   0.641
 1941SOL     OW 6721   0.230   4.368   3.474
 1941SOL    HW1 6722   0.320   4.399   3.445
 1941SOL    HW2 6723   0.229   4.356   3.574
 1942SOL     OW 6724   5.526   0.802   1.034
 1942SOL    HW1 6725   5.594   0.870   1.059
 1942SOL    HW2 6726   5.514   0.737   1.109
 1943SOL     OW 6727   2.915   6.264   2.726
 1943SOL    HW1 6728   2.969   6.217   2.656
 1943SOL    HW2 6729   2.942   6.232   2.817
 1944SOL     OW 6730   6.303   2.386   0.200
 1944SOL    HW1 6731   6.355   2.351   0.122
 1944SOL    HW2 6732   6.350   2.465   0.239
 1945SOL     OW 6733   3.392   5.970   1.116
 1945SOL    HW1 6734   3.484   6.007   1.133
 1945SOL    HW2 6735   3.362   5.918   1.196
 1946SOL     OW 6736   6.585   0.180   1.501
 1946SOL    HW1 6737   6.644   0.253   1.536
 1946SOL    HW2 6738   6.599   0.171   1.402
 1947SOL     OW 6739   5.128   6.741   4.650
 1947SOL    HW1 6740   5.097   6.801   4.576
 1947SOL    HW2 6741   5.162   6.796   4.725
 1948SOL     OW 6742   5.313   5.356   4.485
 1948SOL    HW1 6743   5.256   5.391   4.410
 1948SOL    HW2 6744   5.403   5.332   4.450
 1949SOL     OW 6745   3.162   4.551   6.181
 1949SOL    HW1 6746   3.105   4.633   6.173
 1949SOL    HW2 6747   3.131   4.497   6.259
 1950SOL     OW 6748   3.809   4.369   6.811
 1950SOL    HW1 6749   3.788   4.289   6.867
 1950SOL    HW2 6750   3.745   4.443   6.832
 1951SOL     OW 6751   6.360   3.130   0.014
 1951SOL    HW1 6752   6.264   3.129   0.043
 1951SOL    HW2 6753   6.375   3.057   6.974
 1952SOL     OW 6754   4.895   2.893   0.546
 1952SOL    HW1 6755   4.888   2.807   0.495
 1952SOL    HW2 6756   4.975   2.890   0.605
 1953SOL     OW 6757   6.641   1.614   6.044
 1953SOL    HW1 6758   6.564   1.598   5.982
 1953SOL    HW2 6759   6.701   1.684   6.005
 1954SOL     OW 6760   5.582   0.643   3.489
 1954SOL    HW1 6761   5.642   0.564   3.498
 1954SOL    HW2 6762   5.637   0.727   3.489
 1955SOL     OW 6763   0.769   1.485   3.004
 1955SOL    HW1 6764   0.840   1.554   2.994
 1955SOL    HW2 6765   0.695   1.522   3.060
 1956SOL     OW 6766   5.205   6.790   2.956
 1956SOL    HW1 6767   5.197   6.750   2.864
 1956SOL    HW2 6768   5.288   6.845   2.961
 1957SOL     OW 6769   5.955   4.580   4.133
 1957SOL    HW1 6770   5.979   4.676   4.117
 1957SOL    HW2 6771   5.873   4.558   4.081
 1958SOL     OW 6772   4.947   2.436   2.343
 1958SOL    HW1 6773   4.905   2.358   2.389
 1958SOL    HW2 6774   5.035   2.457   2.388
 1959SOL     OW 6775   0.854   0.767   5.055
 1959SOL    HW1 6776   0.790   0.727   4.990
 1959SOL    HW2 6777   0.844   0.866   5.055
 1960SOL     OW 6778   6.837   4.612   2.083
 1960SOL    HW1 6779   6.906   4.541   2.099
 1960SOL    HW2 6780   6.868   4.698   2.121
 1961SOL     OW 6781   6.177   4.280   4.015
 1961SOL    HW1 6782   6.193   4.350   3.946
 1961SOL    HW2 6783   6.082   4.248   4.009
 1962SOL     OW 6784   1.403   6.527   4.081
 1962SOL    HW1 6785   1.377   6.477   4.164
 1962SOL    HW2 6786   1.413   6.625   4.104
 1963SOL     OW 6787   0.613   2.241   1.347
 1963SOL    HW1 6788   0.696   2.188   1.364
 1963SOL    HW2 6789   0.541   2.181   1.313
 1964SOL     OW 6790   4.377   4.617   0.794
 1964SOL    HW1 6791   4.476   4.631   0.791
 1964SOL    HW2 6792   4.354   4.562   0.874
 1965SOL     OW 6793   1.476   2.958   5.125
 1965SOL    HW1 6794   1.572   2.946   5.099
 1965SOL    HW2 6795   1.462   3.051   5.156
 1966SOL     OW 6796   6.985   6.151   0.751
 1966SOL    HW1 6797   6.992   6.250   0.755
 1966SOL    HW2 6798   6.956   6.123   0.659
 1967SOL     OW 6799   5.423   2.536   5.975
 1967SOL    HW1 6800   5.414   2.634   5.957
 1967SOL    HW2 6801   5.394   2.485   5.894
 1968SOL     OW 6802   1.787   6.814   6.093
 1968SOL    HW1 6803   1.704   6.840   6.043
 1968SOL    HW2 6804   1.829   6.895   6.133
 1969SOL     OW 6805   0.581   1.554   1.694
 1969SOL    HW1 6806   0.553   1.620   1.624
 1969SOL    HW2 6807   0.545   1.583   1.783
 1970SOL     OW 6808   2.846   6.397   6.079
 1970SOL    HW1 6809   2.935   6.433   6.107
 1970SOL    HW2 6810   2.858   6.315   6.024
 1971SOL     OW 6811   0.329   0.312   5.485
 1971SOL    HW1 6812   0.411   0.296   5.429
 1971SOL    HW2 6813   0.255   0.253   5.452
 1972SOL     OW 6814   5.415   2.227   2.017
 1972SOL    HW1 6815   5.459   2.174   1.946
 1972SOL    HW2 6816   5.412   2.323   1.990
 1973SOL     OW 6817   3.321   2.716   6.853
 1973SOL    HW1 6818   3.248   2.668   6.903
 1973SOL    HW2 6819   3.291   2.732   6.759
 1974SOL     OW 6820   6.092   6.630   5.243
 1974SOL    HW1 6821   6.006   6.677   5.260
 1974SOL    HW2 6822   6.142   6.618   5.328
 1975SOL     OW 6823   2.259   1.392   3.859
 1975SOL    HW1 6824   2.240   1.321   3.926
 1975SOL    HW2 6825   2.281   1.478   3.905
 1976SOL     OW 6826   0.191   6.846   0.177
 1976SOL    HW1 6827   0.152   6.935   0.200
 1976SOL    HW2 6828   0.118   6.777   0.177
 1977SOL     OW 6829   1.040   2.815   5.094
 1977SOL    HW1 6830   1.010   2.878   5.165
 1977SOL    HW2 6831   0.986   2.830   5.011
 1978SOL     OW 6832   2.148   6.843   2.783
 1978SOL    HW1 6833   2.188   6.767   2.733
 1978SOL    HW2 6834   2.200   6.859   2.867
 1979SOL     OW 6835   5.977   3.812   6.059
 1979SOL    HW1 6836   5.988   3.761   5.974
 1979SOL    HW2 6837   6.067   3.837   6.094
 1980SOL     OW 6838   3.267   6.913   4.561
 1980SOL    HW1 6839   3.219   6.980   4.617
 1980SOL    HW2 6840   3.313   6.959   4.485
 1981SOL     OW 6841   6.897   2.380   2.492
 1981SOL    HW1 6842   6.993   2.364   2.471
 1981SOL    HW2 6843   6.862   2.307   2.550
 1982SOL     OW 6844   0.131   4.121   4.778
 1982SOL    HW1 6845   0.212   4.062   4.773
 1982SOL    HW2 6846   0.058   4.073   4.826
 1983SOL     OW 6847   1.255   1.101   2.795
 1983SOL    HW1 6848   1.248   1.067   2.701
 1983SOL    HW2 6849   1.283   1.197   2.794
 1984SOL     OW 6850   5.322   1.674   5.183
 1984SOL    HW1 6851   5.263   1.667   5.263
 1984SOL    HW2 6852   5.301   1.759   5.134
 1985SOL     OW 6853   1.314   6.244   2.023
 1985SOL    HW1 6854   1.375   6.188   2.080
 1985SOL    HW2 6855   1.340   6.235   1.927
 1986SOL     OW 6856   2.039   1.588   6.780
 1986SOL    HW1 6857   2.000   1.599   6.872
 1986SOL    HW2 6858   1.967   1.603   6.712
 1987SOL     OW 6859   1.894   2.483   2.391
 1987SOL    HW1 6860   1.967   2.421   2.363
 1987SOL    HW2 6861   1.811   2.464   2.339
 1988SOL     OW 6862   6.088   4.112   0.996
 1988SOL    HW1 6863   6.166   4.174   1.000
 1988SOL    HW2 6864   6.108   4.029   1.048
 1989SOL     OW 6865   2.045   5.354   5.123
 1989SOL    HW1 6866   1.986   5.419   5.171
 1989SOL    HW2 6867   2.134   5.396   5.107
 1990SOL     OW 6868   3.713   6.213   0.335
 1990SOL    HW1 6869   3.725   6.155   0.255
 1990SOL    HW2 6870   3.615   6.216   0.359
 1991SOL     OW 6871   3.427   5.465   6.968
 1991SOL    HW1 6872   3.525   5.466   6.946
 1991SOL    HW2 6873   3.411   5.404   0.019
 1992SOL     OW 6874   0.695   0.662   0.385
 1992SOL    HW1 6875   0.783   0.675   0.431
 1992SOL    HW2 6876   0.680   0.737   0.320
 1993SOL     OW 6877   3.818   2.567   5.413
 1993SOL    HW1 6878   3.851   2.478   5.381
 1993SOL    HW2 6879   3.895   2.628   5.430
 1994SOL     OW 6880   0.797   1.602   0.508
 1994SOL    HW1 6881   0.762   1.518   0.468
 1994SOL    HW2 6882   0.873   1.581   0.569
 1995SOL     OW 6883   5.245   2.254   3.639
 1995SOL    HW1 6884   5.216   2.350   3.646
 1995SOL    HW2 6885   5.165   2.194   3.645
 1996SOL     OW 6886   1.936   3.516   0.710
 1996SOL    HW1 6887   1.996   3.578   0.661
 1996SOL    HW2 6888   1.946   3.424   0.672
 1997SOL     OW 6889   3.493   1.110   4.365
 1997SOL    HW1 6890   3.519   1.188   4.422
 1997SOL    HW2 6891   3.407   1.072   4.397
 1998SOL     OW 6892   2.480   4.483   6.800
 1998SOL    HW1 6893   2.483   4.550   6.726
 1998SOL    HW2 6894   2.385   4.470   6.830
 1999SOL     OW 6895   2.390   6.449   6.795
 1999SOL    HW1 6896   2.298   6.477   6.821
 1999SOL    HW2 6897   2.387   6.399   6.708
 2000SOL     OW 6898   4.355   2.287   5.404
 2000SOL    HW1 6899   4.454   2.300   5.401
 2000SOL    HW2 6900   4.321   2.311   5.495
 2001SOL     OW 6901   3.349   0.497   1.443
 2001SOL    HW1 6902   3.262   0.538   1.468
 2001SOL    HW2 6903   3.356   0.492   1.344
 2002SOL     OW 6904   0.188   4.842   6.938
 2002SOL    HW1 6905   0.190   4.786   6.855
 2002SOL    HW2 6906   0.274   4.891   6.947
 2003SOL     OW 6907   6.080   5.525   2.311
 2003SOL    HW1 6908   6.067   5.475   2.397
 2003SOL    HW2 6909   6.043   5.618   2.321
 2004SOL     OW 6910   4.945   1.448   5.194
 2004SOL    HW1 6911   4.998   1.532   5.179
 2004SOL    HW2 6912   4.915   1.445   5.290
 2005SOL     OW 6913   0.416   5.084   0.219
 2005SOL    HW1 6914   0.469   5.152   0.168
 2005SOL    HW2 6915   0.318   5.102   0.206
 2006SOL     OW 6916   5.701   6.865   3.860
 2006SOL    HW1 6917   5.606   6.836   3.848
 2006SOL    HW2 6918   5.706   6.937   3.929
 2007SOL     OW 6919   4.648   4.717   1.122
 2007SOL    HW1 6920   4.589   4.641   1.152
 2007SOL    HW2 6921   4.675   4.771   1.202
 2008SOL     OW 6922   2.336   4.860   3.867
 2008SOL    HW1 6923   2.323   4.924   3.943
 2008SOL    HW2 6924   2.432   4.857   3.841
 2009SOL     OW 6925   5.669   0.885   2.318
 2009SOL    HW1 6926   5.637   0.842   2.233
 2009SOL    HW2 6927   5.768   0.872   2.326
 2010SOL     OW 6928   1.716   2.061   1.506
 2010SOL    HW1 6929   1.723   2.133   1.575
 2010SOL    HW2 6930   1.747   2.095   1.418
 2011SOL     OW 6931   6.447   6.249   4.917
 2011SOL    HW1 6932   6.380   6.185   4.880
 2011SOL    HW2 6933   6.528   6.250   4.859
 2012SOL     OW 6934   1.444   4.099   2.396
 2012SOL    HW1 6935   1.480   4.043   2.322
 2012SOL    HW2 6936   1.378   4.046   2.450
 2013SOL     OW 6937   6.408   2.485   3.206
 2013SOL    HW1 6938   6.362   2.536   3.132
 2013SOL    HW2 6939   6.361   2.398   3.221
 2014SOL     OW 6940   2.569   5.634   3.646
 2014SOL    HW1 6941   2.563   5.716   3.589
 2014SOL    HW2 6942   2.665   5.615   3.667
 2015SOL     OW 6943   2.030   0.660   0.170
 2015SOL    HW1 6944   2.099   0.711   0.221
 2015SOL    HW2 6945   1.975   0.724   0.116
 2016SOL     OW 6946   1.549   6.084   5.648
 2016SOL    HW1 6947   1.453   6.057   5.647
 2016SOL    HW2 6948   1.595   6.046   5.568
 2017SOL     OW 6949   3.474   6.643   4.481
 2017SOL    HW1 6950   3.523   6.556   4.471
 2017SOL    HW2 6951   3.539   6.718   4.480
 2018SOL     OW 6952   5.018   0.970   5.887
 2018SOL    HW1 6953   4.969   0.928   5.811
 2018SOL    HW2 6954   4.987   1.064   5.899
 2019SOL     OW 6955   5.238   2.850   6.479
 2019SOL    HW1 6956   5.232   2.801   6.565
 2019SOL    HW2 6957   5.327   2.834   6.437
 2020SOL     OW 6958   1.513   6.566   5.429
 2020SOL    HW1 6959   1.511   6.491   5.363
 2020SOL    HW2 6960   1.470   6.647   5.389
 2021SOL     OW 6961   0.501   6.065   4.428
 2021SOL    HW1 6962   0.593   6.063   4.388
 2021SOL    HW2 6963   0.437   6.104   4.362
 2022SOL     OW 6964   1.553   3.695   3.358
 2022SOL    HW1 6965   1.507   3.730   3.439
 2022SOL    HW2 6966   1.646   3.731   3.354
 2023SOL     OW 6967   6.563   1.018   6.638
 2023SOL    HW1 6968   6.569   0.928   6.595
 2023SOL    HW2 6969   6.503   1.014   6.718
 2024SOL     OW 6970   0.337   6.583   3.797
 2024SOL    HW1 6971   0.426   6.593   3.842
 2024SOL    HW2 6972   0.350   6.547   3.705
 2025SOL     OW 6973   2.862   1.463   3.198
 2025SOL    HW1 6974   2.871   1.561   3.181
 2025SOL    HW2 6975   2.949   1.427   3.232
 2026SOL     OW 6976   0.101   2.845   5.405
 2026SOL    HW1 6977   0.187   2.799   5.427
 2026SOL    HW2 6978   0.111   2.943   5.421
 2027SOL     OW 6979   1.156   0.084   0.215
 2027SOL    HW1 6980   1.169   0.180   0.240
 2027SOL    HW2 6981   1.112   0.035   0.290
 2028SOL     OW 6982   2.989   6.452   4.816
 2028SOL    HW1 6983   2.989   6.519   4.891
 2028SOL    HW2 6984   2.937   6.371   4.843
 2029SOL     OW 6985   6.852   1.081   0.601
 2029SOL    HW1 6986   6.921   1.012   0.578
 2029SOL    HW2 6987   6.892   1.148   0.664
 2030SOL     OW 6988   2.863   0.765   3.271
 2030SOL    HW1 6989   2.885   0.795   3.364
 2030SOL    HW2 6990   2.777   0.806   3.242
 2031SOL     OW 6991   6.548   6.112   1.187
 2031SOL    HW1 6992   6.492   6.035   1.219
 2031SOL    HW2 6993   6.623   6.128   1.251
 2032SOL     OW 6994   4.848   0.273   2.148
 2032SOL    HW1 6995   4.922   0.298   2.211
 2032SOL    HW2 6996   4.787   0.208   2.193
 2033SOL     OW 6997   3.295   3.691   5.680
 2033SOL    HW1 6998   3.340   3.650   5.760
 2033SOL    HW2 6999   3.246   3.620   5.630
 2034SOL     OW 7000   2.574   5.688   5.440
 2034SOL    HW1 7001   2.569   5.784   5.411
 2034SOL    HW2 7002   2.506   5.635   5.390
 2035SOL     OW 7003   6.780   6.508   4.071
 2035SOL    HW1 7004   6.688   6.483   4.041
 2035SOL    HW2 7005   6.848   6.466   4.011
 2036SOL     OW 7006   1.257   4.386   2.684
 2036SOL    HW1 7007   1.303   4.333   2.755
 2036SOL    HW2 7008   1.215   4.468   2.725
 2037SOL     OW 7009   6.735   3.074   5.462
 2037SOL    HW1 7010   6.744   2.976   5.443
 2037SOL    HW2 7011   6.797   3.099   5.536
 2038SOL     OW 7012   1.797   2.765   0.234
 2038SOL    HW1 7013   1.770   2.861   0.222
 2038SOL    HW2 7014   1.726   2.706   0.195
 2039SOL     OW 7015   0.043   5.305   4.043
 2039SOL    HW1 7016   0.085   5.363   4.112
 2039SOL    HW2 7017   6.976   5.337   4.024
 2040SOL     OW 7018   3.160   3.274   5.469
 2040SOL    HW1 7019   3.102   3.335   5.416
 2040SOL    HW2 7020   3.241   3.250   5.415
 2041SOL     OW 7021   0.990   6.255   6.100
 2041SOL    HW1 7022   1.017   6.227   6.008
 2041SOL    HW2 7023   0.943   6.343   6.095
 2042SOL     OW 7024   4.853   6.353   0.171
 2042SOL    HW1 7025   4.769   6.300   0.175
 2042SOL    HW2 7026   4.862   6.395   0.081
 2043SOL     OW 7027   6.288   3.899   3.462
 2043SOL    HW1 7028   6.230   3.962   3.411
 2043SOL    HW2 7029   6.362   3.951   3.506
 2044SOL     OW 7030   6.534   0.029   2.019
 2044SOL    HW1 7031   6.523   6.957   1.999
 2044SOL    HW2 7032   6.507   0.047   2.113
 2045SOL     OW 7033   1.556   4.954   4.100
 2045SOL    HW1 7034   1.493   4.919   4.031
 2045SOL    HW2 7035   1.584   4.878   4.160
 2046SOL     OW 7036   6.822   2.271   3.720
 2046SOL    HW1 7037   6.794   2.271   3.624
 2046SOL    HW2 7038   6.753   2.319   3.774
 2047SOL     OW 7039   0.215   2.771   6.845
 2047SOL    HW1 7040   0.201   2.747   6.941
 2047SOL    HW2 7041   0.154   2.845   6.820
 2048SOL     OW 7042   1.293   6.810   6.152
 2048SOL    HW1 7043   1.390   6.788   6.147
 2048SOL    HW2 7044   1.256   6.825   6.060
 2049SOL     OW 7045   6.366   1.613   4.855
 2049SOL    HW1 7046   6.341   1.626   4.951
 2049SOL    HW2 7047   6.448   1.667   4.835
 2050SOL     OW 7048   6.370   2.426   3.754
 2050SOL    HW1 7049   6.332   2.364   3.685
 2050SOL    HW2 7050   6.465   2.401   3.772
 2051SOL     OW 7051   1.111   5.928   6.978
 2051SOL    HW1 7052   1.127   5.897   0.045
 2051SOL    HW2 7053   1.125   6.027   6.973
 2052SOL     OW 7054   1.276   3.622   1.116
 2052SOL    HW1 7055   1.362   3.605   1.163
 2052SOL    HW2 7056   1.231   3.534   1.096
 2053SOL     OW 7057   6.509   6.402   4.044
 2053SOL    HW1 7058   6.487   6.319   3.993
 2053SOL    HW2 7059   6.525   6.380   4.140
 2054SOL     OW 7060   3.171   4.029   3.199
 2054SOL    HW1 7061   3.252   4.063   3.151
 2054SOL    HW2 7062   3.146   4.092   3.272
 2055SOL     OW 7063   6.050   3.895   3.920
 2055SOL    HW1 7064   5.956   3.918   3.895
 2055SOL    HW2 7065   6.103   3.874   3.838
 2056SOL     OW 7066   4.228   5.418   2.346
 2056SOL    HW1 7067   4.173   5.467   2.413
 2056SOL    HW2 7068   4.226   5.468   2.259
 2057SOL     OW 7069   5.132   4.366   5.746
 2057SOL    HW1 7070   5.050   4.354   5.802
 2057SOL    HW2 7071   5.199   4.295   5.767
 2058SOL     OW 7072   0.675   0.943   2.825
 2058SOL    HW1 7073   0.634   1.022   2.871
 2058SOL    HW2 7074   0.705   0.969   2.734
 2059SOL     OW 7075   1.583   6.112   6.559
 2059SOL    HW1 7076   1.656   6.159   6.509
 2059SOL    HW2 7077   1.588   6.135   6.656
 2060SOL     OW 7078   0.557   4.258   1.683
 2060SOL    HW1 7079   0.528   4.332   1.744
 2060SOL    HW2 7080   0.575   4.176   1.736
 2061SOL     OW 7081   1.178   1.776   2.642
 2061SOL    HW1 7082   1.156   1.709   2.572
 2061SOL    HW2 7083   1.108   1.848   2.642
 2062SOL     OW 7084   6.253   5.340   4.969
 2062SOL    HW1 7085   6.260   5.275   4.894
 2062SOL    HW2 7086   6.271   5.294   5.055
 2063SOL     OW 7087   1.476   6.616   6.054
 2063SOL    HW1 7088   1.408   6.558   6.099
 2063SOL    HW2 7089   1.524   6.563   5.984
 2064SOL     OW 7090   0.715   2.453   5.618
 2064SOL    HW1 7091   0.708   2.552   5.610
 2064SOL    HW2 7092   0.757   2.416   5.535
 2065SOL     OW 7093   6.152   2.347   5.486
 2065SOL    HW1 7094   6.110   2.413   5.548
 2065SOL    HW2 7095   6.165   2.260   5.532
 2066SOL     OW 7096   0.652   4.623   4.145
 2066SOL    HW1 7097   0.740   4.627   4.193
 2066SOL    HW2 7098   0.589   4.690   4.184
 2067SOL     OW 7099   6.577   5.675   1.088
 2067SOL    HW1 7100   6.674   5.695   1.103
 2067SOL    HW2 7101   6.551   5.592   1.137
 2068SOL     OW 7102   2.506   0.061   4.192
 2068SOL    HW1 7103   2.459   0.150   4.195
 2068SOL    HW2 7104   2.438   7.014   4.198
 2069SOL     OW 7105   6.499   2.289   3.521
 2069SOL    HW1 7106   6.502   2.386   3.547
 2069SOL    HW2 7107   6.589   2.261   3.487
 2070SOL     OW 7108   0.816   0.762   1.451
 2070SOL    HW1 7109   0.737   0.764   1.512
 2070SOL    HW2 7110   0.899   0.744   1.505
 2071SOL     OW 7111   6.262   0.281   5.909
 2071SOL    HW1 7112   6.257   0.237   5.820
 2071SOL    HW2 7113   6.288   0.377   5.897
 2072SOL     OW 7114   4.420   5.683   4.319
 2072SOL    HW1 7115   4.426   5.594   4.274
 2072SOL    HW2 7116   4.357   5.742   4.269
 2073SOL     OW 7117   4.772   6.837   5.105
 2073SOL    HW1 7118   4.746   6.853   5.201
 2073SOL    HW2 7119   4.690   6.831   5.049
 2074SOL     OW 7120   1.967   2.492   6.596
 2074SOL    HW1 7121   1.930   2.399   6.586
 2074SOL    HW2 7122   1.978   2.512   6.693
 2075SOL     OW 7123   0.094   2.643   3.475
 2075SOL    HW1 7124   0.105   2.711   3.402
 2075SOL    HW2 7125   0.024   2.674   3.539
 2076SOL     OW 7126   5.873   0.397   6.092
 2076SOL    HW1 7127   5.823   0.378   6.176
 2076SOL    HW2 7128   5.822   0.361   6.014
 2077SOL     OW 7129   5.885   1.829   3.143
 2077SOL    HW1 7130   5.857   1.915   3.186
 2077SOL    HW2 7131   5.827   1.755   3.177
 2078SOL     OW 7132   1.375   5.773   5.814
 2078SOL    HW1 7133   1.436   5.766   5.893
 2078SOL    HW2 7134   1.298   5.711   5.825
 2079SOL     OW 7135   5.704   1.870   2.927
 2079SOL    HW1 7136   5.791   1.864   2.977
 2079SOL    HW2 7137   5.657   1.954   2.951
 2080SOL     OW 7138   1.809   0.213   5.043
 2080SOL    HW1 7139   1.904   0.193   5.016
 2080SOL    HW2 7140   1.746   0.175   4.975
 2081SOL     OW 7141   0.994   5.892   4.713
 2081SOL    HW1 7142   1.013   5.986   4.739
 2081SOL    HW2 7143   0.949   5.890   4.623
 2082SOL     OW 7144   0.681   6.582   3.104
 2082SOL    HW1 7145   0.595   6.620   3.138
 2082SOL    HW2 7146   0.756   6.613   3.163
 2083SOL     OW 7147   0.515   4.859   5.793
 2083SOL    HW1 7148   0.523   4.803   5.875
 2083SOL    HW2 7149   0.580   4.827   5.724
 2084SOL     OW 7150   0.695   4.595   3.143
 2084SOL    HW1 7151   0.673   4.619   3.238
 2084SOL    HW2 7152   0.670   4.671   3.083
 2085SOL     OW 7153   4.833   1.162   0.306
 2085SOL    HW1 7154   4.738   1.192   0.307
 2085SOL    HW2 7155   4.886   1.219   0.368
 2086SOL     OW 7156   3.528   6.692   6.425
 2086SOL    HW1 7157   3.441   6.725   6.388
 2086SOL    HW2 7158   3.597   6.765   6.419
 2087SOL     OW 7159   4.980   0.735   1.328
 2087SOL    HW1 7160   5.035   0.707   1.407
 2087SOL    HW2 7161   4.939   0.824   1.347
 2088SOL     OW 7162   1.209   5.793   6.743
 2088SOL    HW1 7163   1.304   5.780   6.770
 2088SOL    HW2 7164   1.157   5.831   6.820
 2089SOL     OW 7165   5.070   3.028   5.885
 2089SOL    HW1 7166   5.002   3.078   5.831
 2089SOL    HW2 7167   5.151   3.010   5.829
 2090SOL     OW 7168   4.455   3.491   5.900
 2090SOL    HW1 7169   4.511   3.435   5.839
 2090SOL    HW2 7170   4.397   3.551   5.845
 2091SOL     OW 7171   0.193   5.037   0.714
 2091SOL    HW1 7172   0.114   5.100   0.716
 2091SOL    HW2 7173   0.211   5.003   0.806
 2092SOL     OW 7174   5.654   3.899   0.310
 2092SOL    HW1 7175   5.608   3.810   0.305
 2092SOL    HW2 7176   5.659   3.939   0.219
 2093SOL     OW 7177   2.551   2.060   1.138
 2093SOL    HW1 7178   2.646   2.083   1.159
 2093SOL    HW2 7179   2.538   1.961   1.141
 2094SOL     OW 7180   5.658   1.477   2.827
 2094SOL    HW1 7181   5.573   1.526   2.844
 2094SOL    HW2 7182   5.723   1.537   2.780
 2095SOL     OW 7183   6.744   6.990   4.958
 2095SOL    HW1 7184   6.803   0.039   4.929
 2095SOL    HW2 7185   6.656   6.997   4.910
 2096SOL     OW 7186   4.789   4.153   2.965
 2096SOL    HW1 7187   4.739   4.215   3.025
 2096SOL    HW2 7188   4.829   4.078   3.019
 2097SOL     OW 7189   2.814   3.617   6.211
 2097SOL    HW1 7190   2.827   3.620   6.310
 2097SOL    HW2 7191   2.799   3.709   6.176
 2098SOL     OW 7192   4.262   6.194   2.161
 2098SOL    HW1 7193   4.285   6.251   2.082
 2098SOL    HW2 7194   4.233   6.253   2.236
 2099SOL     OW 7195   3.508   1.958   6.434
 2099SOL    HW1 7196   3.444   1.977   6.359
 2099SOL    HW2 7197   3.592   2.010   6.420
 2100SOL     OW 7198   4.817   1.983   0.332
 2100SOL    HW1 7199   4.785   1.957   0.241
 2100SOL    HW2 7200   4.851   1.903   0.380
 2101SOL     OW 7201   0.457   6.538   0.972
 2101SOL    HW1 7202   0.502   6.502   0.890
 2101SOL    HW2 7203   0.365   6.500   0.979
 2102SOL     OW 7204   5.210   4.227   2.549
 2102SOL    HW1 7205   5.177   4.208   2.456
 2102SOL    HW2 7206   5.132   4.241   2.610
 2103SOL     OW 7207   3.504   4.046   6.625
 2103SOL    HW1 7208   3.530   4.045   6.529
 2103SOL    HW2 7209   3.563   3.985   6.677
 2104SOL     OW 7210   1.606   4.509   2.316
 2104SOL    HW1 7211   1.647   4.433   2.366
 2104SOL    HW2 7212   1.530   4.475   2.260
 2105SOL     OW 7213   5.041   4.416   6.471
 2105SOL    HW1 7214   4.994   4.328   6.466
 2105SOL    HW2 7215   5.103   4.426   6.393
 2106SOL     OW 7216   5.604   3.347   1.193
 2106SOL    HW1 7217   5.511   3.379   1.176
 2106SOL    HW2 7218   5.602   3.251   1.222
 2107SOL     OW 7219   6.394   2.226   5.139
 2107SOL    HW1 7220   6.321   2.165   5.106
 2107SOL    HW2 7221   6.482   2.179   5.131
 2108SOL     OW 7222   5.969   5.369   5.063
 2108SOL    HW1 7223   6.039   5.330   5.003
 2108SOL    HW2 7224   5.973   5.469   5.057
 2109SOL     OW 7225   4.371   5.771   2.544
 2109SOL    HW1 7226   4.365   5.869   2.525
 2109SOL    HW2 7227   4.386   5.756   2.642
 2110SOL     OW 7228   2.580   0.845   0.472
 2110SOL    HW1 7229   2.500   0.804   0.517
 2110SOL    HW2 7230   2.552   0.885   0.385
 2111SOL     OW 7231   1.974   3.406   0.313
 2111SOL    HW1 7232   1.944   3.502   0.308
 2111SOL    HW2 7233   2.069   3.403   0.345
 2112SOL     OW 7234   5.235   2.516   0.855
 2112SOL    HW1 7235   5.264   2.602   0.896
 2112SOL    HW2 7236   5.285   2.500   0.770
 2113SOL     OW 7237   2.670   1.049   4.417
 2113SOL    HW1 7238   2.741   1.008   4.360
 2113SOL    HW2 7239   2.712   1.113   4.482
 2114SOL     OW 7240   2.317   1.971   6.708
 2114SOL    HW1 7241   2.226   1.950   6.675
 2114SOL    HW2 7242   2.384   1.914   6.661
 2115SOL     OW 7243   0.456   4.555   2.411
 2115SOL    HW1 7244   0.478   4.464   2.446
 2115SOL    HW2 7245   0.472   4.557   2.312
 2116SOL     OW 7246   0.596   4.080   2.725
 2116SOL    HW1 7247   0.629   3.989   2.702
 2116SOL    HW2 7248   0.670   4.131   2.770
 2117SOL     OW 7249   6.779   4.515   1.673
 2117SOL    HW1 7250   6.869   4.502   1.631
 2117SOL    HW2 7251   6.763   4.612   1.690
 2118SOL     OW 7252   6.272   3.029   3.044
 2118SOL    HW1 7253   6.229   3.022   3.134
 2118SOL    HW2 7254   6.328   2.948   3.027
 2119SOL     OW 7255   1.400   0.552   1.474
 2119SOL    HW1 7256   1.378   0.461   1.508
 2119SOL    HW2 7257   1.316   0.601   1.451
 2120SOL     OW 7258   0.555   4.122   3.225
 2120SOL    HW1 7259   0.535   4.201   3.167
 2120SOL    HW2 7260   0.474   4.065   3.234
 2121SOL     OW 7261   1.350   3.109   5.731
 2121SOL    HW1 7262   1.363   3.023   5.780
 2121SOL    HW2 7263   1.439   3.148   5.708
 2122SOL     OW 7264   5.725   5.470   6.516
 2122SOL    HW1 7265   5.746   5.451   6.420
 2122SOL    HW2 7266   5.674   5.394   6.555
 2123SOL     OW 7267   6.587   5.505   1.951
 2123SOL    HW1 7268   6.552   5.497   1.857
 2123SOL    HW2 7269   6.541   5.581   1.997
 2124SOL     OW 7270   3.028   1.839   1.213
 2124SOL    HW1 7271   3.080   1.855   1.129
 2124SOL    HW2 7272   3.051   1.909   1.280
 2125SOL     OW 7273   1.697   6.513   2.247
 2125SOL    HW1 7274   1.770   6.559   2.298
 2125SOL    HW2 7275   1.693   6.550   2.154
 2126SOL     OW 7276   3.285   2.400   6.361
 2126SOL    HW1 7277   3.190   2.407   6.391
 2126SOL    HW2 7278   3.327   2.321   6.404
 2127SOL     OW 7279   1.291   1.765   5.828
 2127SOL    HW1 7280   1.268   1.862   5.836
 2127SOL    HW2 7281   1.284   1.722   5.917
 2128SOL     OW 7282   6.195   2.718   3.182
 2128SOL    HW1 7283   6.171   2.809   3.215
 2128SOL    HW2 7284   6.205   2.656   3.261
 2129SOL     OW 7285   5.075   3.537   5.137
 2129SOL    HW1 7286   5.097   3.561   5.232
 2129SOL    HW2 7287   4.981   3.564   5.117
 2130SOL     OW 7288   3.403   7.011   2.794
 2130SOL    HW1 7289   3.427   7.012   2.697
 2130SOL    HW2 7290   3.315   0.029   2.807
 2131SOL     OW 7291   4.764   1.718   0.970
 2131SOL    HW1 7292   4.712   1.648   0.923
 2131SOL    HW2 7293   4.843   1.744   0.915
 2132SOL     OW 7294   3.366   1.283   0.491
 2132SOL    HW1 7295   3.449   1.252   0.444
 2132SOL    HW2 7296   3.335   1.211   0.554
 2133SOL     OW 7297   3.465   2.568   1.241
 2133SOL    HW1 7298   3.548   2.512   1.239
 2133SOL    HW2 7299   3.468   2.635   1.166
 2134SOL     OW 7300   1.124   0.836   4.337
 2134SOL    HW1 7301   1.047   0.898   4.321
 2134SOL    HW2 7302   1.196   0.884   4.386
 2135SOL     OW 7303   1.113   2.046   4.435
 2135SOL    HW1 7304   1.050   2.053   4.357
 2135SOL    HW2 7305   1.111   2.132   4.487
 2136SOL     OW 7306   0.986   4.180   4.293
 2136SOL    HW1 7307   0.961   4.168   4.389
 2136SOL    HW2 7308   0.950   4.267   4.260
 2137SOL     OW 7309   6.987   6.023   4.081
 2137SOL    HW1 7310   6.926   5.948   4.055
 2137SOL    HW2 7311   6.994   6.088   4.004
 2138SOL     OW 7312   0.029   1.126   1.470
 2138SOL    HW1 7313   6.958   1.112   1.486
 2138SOL    HW2 7314   0.081   1.068   1.533
 2139SOL     OW 7315   3.333   0.779   2.943
 2139SOL    HW1 7316   3.292   0.689   2.930
 2139SOL    HW2 7317   3.397   0.798   2.868
 2140SOL     OW 7318   3.345   5.777   3.764
 2140SOL    HW1 7319   3.358   5.875   3.752
 2140SOL    HW2 7320   3.363   5.753   3.860
 2141SOL     OW 7321   6.525   4.576   1.474
 2141SOL    HW1 7322   6.469   4.600   1.395
 2141SOL    HW2 7323   6.614   4.621   1.467
 2142SOL     OW 7324   1.356   1.975   3.141
 2142SOL    HW1 7325   1.382   1.887   3.103
 2142SOL    HW2 7326   1.356   1.970   3.241
 2143SOL     OW 7327   3.018   4.486   1.418
 2143SOL    HW1 7328   2.995   4.584   1.413
 2143SOL    HW2 7329   2.935   4.432   1.409
 2144SOL     OW 7330   1.135   5.557   3.227
 2144SOL    HW1 7331   1.131   5.479   3.289
 2144SOL    HW2 7332   1.230   5.582   3.210
 2145SOL     OW 7333   3.860   6.043   4.352
 2145SOL    HW1 7334   3.823   5.984   4.281
 2145SOL    HW2 7335   3.857   5.997   4.441
 2146SOL     OW 7336   2.553   3.749   1.438
 2146SOL    HW1 7337   2.515   3.781   1.525
 2146SOL    HW2 7338   2.533   3.652   1.427
 2147SOL     OW 7339   0.419   1.332   6.692
 2147SOL    HW1 7340   0.345   1.357   6.755
 2147SOL    HW2 7341   0.502   1.312   6.744
 2148SOL     OW 7342   5.270   2.593   4.470
 2148SOL    HW1 7343   5.252   2.547   4.557
 2148SOL    HW2 7344   5.228   2.542   4.396
 2149SOL     OW 7345   3.840   1.547   1.098
 2149SOL    HW1 7346   3.878   1.611   1.165
 2149SOL    HW2 7347   3.836   1.591   1.009
 2150SOL     OW 7348   2.457   2.246   2.360
 2150SOL    HW1 7349   2.468   2.306   2.440
 2150SOL    HW2 7350   2.492   2.155   2.380
 2151SOL     OW 7351   1.693   1.114   4.138
 2151SOL    HW1 7352   1.690   1.213   4.130
 2151SOL    HW2 7353   1.612   1.074   4.094
 2152SOL     OW 7354   3.834   6.665   1.223
 2152SOL    HW1 7355   3.913   6.679   1.164
 2152SOL    HW2 7356   3.750   6.676   1.169
 2153SOL     OW 7357   3.932   0.626   3.233
 2153SOL    HW1 7358   3.977   0.705   3.191
 2153SOL    HW2 7359   3.842   0.653   3.267
 2154SOL     OW 7360   5.318   0.299   4.938
 2154SOL    HW1 7361   5.306   0.224   4.873
 2154SOL    HW2 7362   5.415   0.322   4.944
 2155SOL     OW 7363   2.130   5.915   0.256
 2155SOL    HW1 7364   2.105   5.819   0.248
 2155SOL    HW2 7365   2.079   5.968   0.188
 2156SOL     OW 7366   2.342   0.891   3.176
 2156SOL    HW1 7367   2.262   0.946   3.197
 2156SOL    HW2 7368   2.326   0.838   3.092
 2157SOL     OW 7369   5.650   0.916   3.478
 2157SOL    HW1 7370   5.715   0.934   3.552
 2157SOL    HW2 7371   5.559   0.900   3.517
 2158SOL     OW 7372   3.930   6.405   1.178
 2158SOL    HW1 7373   3.898   6.434   1.088
 2158SOL    HW2 7374   3.892   6.466   1.248
 2159SOL     OW 7375   2.370   6.396   5.480
 2159SOL    HW1 7376   2.287   6.446   5.453
 2159SOL    HW2 7377   2.415   6.360   5.398
 2160SOL     OW 7378   4.640   3.315   1.040
 2160SOL    HW1 7379   4.691   3.249   1.096
 2160SOL    HW2 7380   4.696   3.342   0.961
 2161SOL     OW 7381   5.136   4.172   3.428
 2161SOL    HW1 7382   5.121   4.081   3.391
 2161SOL    HW2 7383   5.221   4.210   3.390
 2162SOL     OW 7384   2.810   0.965   0.555
 2162SOL    HW1 7385   2.799   1.034   0.627
 2162SOL    HW2 7386   2.722   0.922   0.537
 2163SOL     OW 7387   6.944   4.405   6.418
 2163SOL    HW1 7388   6.866   4.386   6.360
 2163SOL    HW2 7389   6.924   4.374   6.511
 2164SOL     OW 7390   1.726   3.011   0.167
 2164SOL    HW1 7391   1.663   3.076   0.125
 2164SOL    HW2 7392   1.808   3.059   0.198
 2165SOL     OW 7393   0.781   1.731   2.696
 2165SOL    HW1 7394   0.811   1.778   2.613
 2165SOL    HW2 7395   0.690   1.693   2.682
 2166SOL     OW 7396   1.826   2.774   5.556
 2166SOL    HW1 7397   1.733   2.780   5.592
 2166SOL    HW2 7398   1.866   2.686   5.580
 2167SOL     OW 7399   1.377   0.894   3.530
 2167SOL    HW1 7400   1.380   0.829   3.606
 2167SOL    HW2 7401   1.324   0.974   3.557
 2168SOL     OW 7402   0.749   1.734   3.343
 2168SOL    HW1 7403   0.846   1.734   3.321
 2168SOL    HW2 7404   0.723   1.823   3.381
 2169SOL     OW 7405   5.496   2.226   5.436
 2169SOL    HW1 7406   5.503   2.135   5.477
 2169SOL    HW2 7407   5.416   2.273   5.472
 2170SOL     OW 7408   6.385   4.789   5.636
 2170SOL    HW1 7409   6.388   4.826   5.543
 2170SOL    HW2 7410   6.308   4.727   5.644
 2171SOL     OW 7411   6.697   3.616   2.177
 2171SOL    HW1 7412   6.756   3.696   2.182
 2171SOL    HW2 7413   6.750   3.537   2.146
 2172SOL     OW 7414   2.479   2.241   0.310
 2172SOL    HW1 7415   2.568   2.194   0.312
 2172SOL    HW2 7416   2.490   2.332   0.269
 2173SOL     OW 7417   4.475   0.222   5.244
 2173SOL    HW1 7418   4.431   0.225   5.155
 2173SOL    HW2 7419   4.570   0.191   5.233
 2174SOL     OW 7420   5.672   5.186   5.808
 2174SOL    HW1 7421   5.691   5.276   5.768
 2174SOL    HW2 7422   5.690   5.189   5.906
 2175SOL     OW 7423   2.909   1.922   4.097
 2175SOL    HW1 7424   2.846   1.911   4.175
 2175SOL    HW2 7425   2.972   1.997   4.116
 2176SOL     OW 7426   0.665   3.446   7.007
 2176SOL    HW1 7427   0.586   3.422   0.038
 2176SOL    HW2 7428   0.685   3.369   6.946
 2177SOL     OW 7429   6.739   1.128   3.637
 2177SOL    HW1 7430   6.793   1.210   3.657
 2177SOL    HW2 7431   6.799   1.056   3.604
 2178SOL     OW 7432   1.009   3.797   0.067
 2178SOL    HW1 7433   1.002   3.802   0.167
 2178SOL    HW2 7434   1.006   3.702   0.038
 2179SOL     OW 7435   1.367   5.500   4.934
 2179SOL    HW1 7436   1.342   5.597   4.924
 2179SOL    HW2 7437   1.347   5.452   4.848
 2180SOL     OW 7438   2.618   3.590   1.751
 2180SOL    HW1 7439   2.680   3.515   1.773
 2180SOL    HW2 7440   2.523   3.561   1.763
 2181SOL     OW 7441   5.102   4.426   5.492
 2181SOL    HW1 7442   5.138   4.386   5.577
 2181SOL    HW2 7443   5.177   4.437   5.427
 2182SOL     OW 7444   6.844   2.840   4.977
 2182SOL    HW1 7445   6.851   2.759   5.035
 2182SOL    HW2 7446   6.899   2.827   4.894
 2183SOL     OW 7447   3.539   3.511   6.148
 2183SOL    HW1 7448   3.459   3.566   6.171
 2183SOL    HW2 7449   3.573   3.539   6.058
 2184SOL     OW 7450   4.245   1.552   5.469
 2184SOL    HW1 7451   4.174   1.547   5.538
 2184SOL    HW2 7452   4.206   1.533   5.379
 2185SOL     OW 7453   1.279   1.745   1.027
 2185SOL    HW1 7454   1.280   1.783   1.120
 2185SOL    HW2 7455   1.372   1.720   1.000
 2186SOL     OW 7456   6.513   5.083   2.065
 2186SOL    HW1 7457   6.589   5.141   2.035
 2186SOL    HW2 7458   6.530   4.988   2.035
 2187SOL     OW 7459   0.142   1.663   2.106
 2187SOL    HW1 7460   0.238   1.663   2.134
 2187SOL    HW2 7461   0.102   1.752   2.125
 2188SOL     OW 7462   5.156   6.136   4.258
 2188SOL    HW1 7463   5.237   6.149   4.316
 2188SOL    HW2 7464   5.169   6.184   4.171
 2189SOL     OW 7465   1.827   6.678   0.033
 2189SOL    HW1 7466   1.787   6.651   6.972
 2189SOL    HW2 7467   1.820   6.602   0.098
 2190SOL     OW 7468   0.447   2.654   2.688
 2190SOL    HW1 7469   0.447   2.749   2.717
 2190SOL    HW2 7470   0.483   2.647   2.596
 2191SOL     OW 7471   2.836   1.702   6.288
 2191SOL    HW1 7472   2.921   1.734   6.246
 2191SOL    HW2 7473   2.857   1.652   6.372
 2192SOL     OW 7474   3.791   6.928   3.489
 2192SOL    HW1 7475   3.807   7.008   3.546
 2192SOL    HW2 7476   3.878   6.880   3.474
 2193SOL     OW 7477   0.135   5.862   6.303
 2193SOL    HW1 7478   0.229   5.858   6.337
 2193SOL    HW2 7479   0.121   5.788   6.237
 2194SOL     OW 7480   2.054   5.246   6.689
 2194SOL    HW1 7481   1.974   5.189   6.669
 2194SOL    HW2 7482   2.131   5.215   6.634
 2195SOL     OW 7483   6.997   6.817   3.795
 2195SOL    HW1 7484   6.980   6.803   3.892
 2195SOL    HW2 7485   6.917   6.789   3.742
 2196SOL     OW 7486   3.720   6.950   5.320
 2196SOL    HW1 7487   3.728   6.948   5.221
 2196SOL    HW2 7488   3.797   7.000   5.359
 2197SOL     OW 7489   3.739   3.519   1.556
 2197SOL    HW1 7490   3.722   3.421   1.556
 2197SOL    HW2 7491   3.670   3.566   1.611
 2198SOL     OW 7492   6.446   1.611   6.773
 2198SOL    HW1 7493   6.467   1.694   6.824
 2198SOL    HW2 7494   6.384   1.554   6.826
 2199SOL     OW 7495   4.708   0.952   2.717
 2199SOL    HW1 7496   4.673   0.886   2.783
 2199SOL    HW2 7497   4.767   1.018   2.763
 2200SOL     OW 7498   3.781   0.315   4.439
 2200SOL    HW1 7499   3.807   0.220   4.450
 2200SOL    HW2 7500   3.827   0.371   4.509
 2201SOL     OW 7501   6.351   2.726   2.761
 2201SOL    HW1 7502   6.329   2.655   2.694
 2201SOL    HW2 7503   6.323   2.816   2.725
 2202SOL     OW 7504   3.213   4.951   2.951
 2202SOL    HW1 7505   3.145   4.900   2.900
 2202SOL    HW2 7506   3.298   4.956   2.899
 2203SOL     OW 7507   2.293   2.999   1.443
 2203SOL    HW1 7508   2.208   3.026   1.398
 2203SOL    HW2 7509   2.296   2.899   1.452
 2204SOL     OW 7510   3.457   0.984   6.644
 2204SOL    HW1 7511   3.443   1.062   6.705
 2204SOL    HW2 7512   3.554   0.962   6.640
 2205SOL     OW 7513   1.590   0.022   6.015
 2205SOL    HW1 7514   1.667   0.080   5.988
 2205SOL    HW2 7515   1.575   6.979   5.945
 2206SOL     OW 7516   2.509   4.347   5.569
 2206SOL    HW1 7517   2.523   4.272   5.504
 2206SOL    HW2 7518   2.432   4.403   5.540
 2207SOL     OW 7519   2.159   3.779   6.724
 2207SOL    HW1 7520   2.192   3.759   6.631
 2207SOL    HW2 7521   2.151   3.878   6.736
 2208SOL     OW 7522   1.747   5.398   2.229
 2208SOL    HW1 7523   1.704   5.487   2.243
 2208SOL    HW2 7524   1.795   5.398   2.140
 2209SOL     OW 7525   1.071   5.636   5.694
 2209SOL    HW1 7526   1.009   5.619   5.617
 2209SOL    HW2 7527   1.139   5.563   5.700
 2210SOL     OW 7528   7.008   4.661   3.693
 2210SOL    HW1 7529   6.990   4.583   3.753
 2210SOL    HW2 7530   0.066   4.706   3.723
 2211SOL     OW 7531   5.297   1.050   0.209
 2211SOL    HW1 7532   5.310   1.085   0.302
 2211SOL    HW2 7533   5.208   1.081   0.174
 2212SOL     OW 7534   1.892   6.367   0.033
 2212SOL    HW1 7535   1.947   6.374   6.976
 2212SOL    HW2 7536   1.950   6.378   0.113
 2213SOL     OW 7537   4.031   2.931   5.341
 2213SOL    HW1 7538   4.090   2.850   5.340
 2213SOL    HW2 7539   4.070   3.001   5.281
 2214SOL     OW 7540   4.570   2.577   5.417
 2214SOL    HW1 7541   4.523   2.646   5.473
 2214SOL    HW2 7542   4.502   2.516   5.376
 2215SOL     OW 7543   6.486   1.816   6.951
 2215SOL    HW1 7544   6.412   1.870   6.990
 2215SOL    HW2 7545   6.561   1.808   7.017
 2216SOL     OW 7546   2.016   0.488   6.068
 2216SOL    HW1 7547   1.920   0.517   6.068
 2216SOL    HW2 7548   2.042   0.460   5.975
 2217SOL     OW 7549   3.826   0.441   1.143
 2217SOL    HW1 7550   3.881   0.463   1.224
 2217SOL    HW2 7551   3.782   0.352   1.156
 2218SOL     OW 7552   0.632   6.756   0.613
 2218SOL    HW1 7553   0.640   6.847   0.654
 2218SOL    HW2 7554   0.695   6.749   0.536
 2219SOL     OW 7555   0.479   2.777   2.229
 2219SOL    HW1 7556   0.452   2.810   2.319
 2219SOL    HW2 7557   0.470   2.851   2.162
 2220SOL     OW 7558   0.767   0.928   4.783
 2220SOL    HW1 7559   0.754   0.976   4.870
 2220SOL    HW2 7560   0.708   0.848   4.780
 2221SOL     OW 7561   6.835   0.625   5.545
 2221SOL    HW1 7562   6.808   0.558   5.475
 2221SOL    HW2 7563   6.799   0.596   5.634
 2222SOL     OW 7564   3.837   0.550   0.827
 2222SOL    HW1 7565   3.909   0.485   0.851
 2222SOL    HW2 7566   3.830   0.557   0.727
 2223SOL     OW 7567   6.066   0.143   4.044
 2223SOL    HW1 7568   6.018   0.114   3.962
 2223SOL    HW2 7569   6.131   0.215   4.021
 2224SOL     OW 7570   1.686   4.587   1.923
 2224SOL    HW1 7571   1.650   4.512   1.866
 2224SOL    HW2 7572   1.628   4.598   2.003
 2225SOL     OW 7573   6.168   5.816   3.198
 2225SOL    HW1 7574   6.115   5.880   3.142
 2225SOL    HW2 7575   6.201   5.863   3.280
 2226SOL     OW 7576   4.136   4.634   0.321
 2226SOL    HW1 7577   4.147   4.733   0.315
 2226SOL    HW2 7578   4.216   4.594   0.368
 2227SOL     OW 7579   5.317   3.481   0.152
 2227SOL    HW1 7580   5.234   3.426   0.146
 2227SOL    HW2 7581   5.386   3.446   0.088
 2228SOL     OW 7582   3.125   5.479   1.370
 2228SOL    HW1 7583   3.084   5.404   1.319
 2228SOL    HW2 7584   3.224   5.469   1.370
 2229SOL     OW 7585   4.300   1.521   4.687
 2229SOL    HW1 7586   4.257   1.471   4.763
 2229SOL    HW2 7587   4.396   1.494   4.679
 2230SOL     OW 7588   6.550   5.365   5.713
 2230SOL    HW1 7589   6.561   5.418   5.629
 2230SOL    HW2 7590   6.615   5.289   5.712
 2231SOL     OW 7591   1.194   0.826   1.399
 2231SOL    HW1 7592   1.223   0.922   1.406
 2231SOL    HW2 7593   1.144   0.800   1.481
 2232SOL     OW 7594   1.774   2.204   4.090
 2232SOL    HW1 7595   1.701   2.262   4.127
 2232SOL    HW2 7596   1.739   2.155   4.010
 2233SOL     OW 7597   2.262   4.527   1.376
 2233SOL    HW1 7598   2.354   4.562   1.365
 2233SOL    HW2 7599   2.222   4.508   1.286
 2234SOL     OW 7600   4.715   2.260   2.029
 2234SOL    HW1 7601   4.648   2.263   2.103
 2234SOL    HW2 7602   4.784   2.190   2.049
 2235SOL     OW 7603   1.841   0.506   1.172
 2235SOL    HW1 7604   1.901   0.458   1.236
 2235SOL    HW2 7605   1.874   0.493   1.079
 2236SOL     OW 7606   0.861   4.139   6.506
 2236SOL    HW1 7607   0.923   4.209   6.469
 2236SOL    HW2 7608   0.786   4.184   6.555
 2237SOL     OW 7609   5.410   4.253   4.344
 2237SOL    HW1 7610   5.367   4.192   4.277
 2237SOL    HW2 7611   5.452   4.198   4.417
 2238SOL     OW 7612   5.479   5.534   1.790
 2238SOL    HW1 7613   5.572   5.536   1.828
 2238SOL    HW2 7614   5.430   5.616   1.817
 2239SOL     OW 7615   3.615   5.265   3.589
 2239SOL    HW1 7616   3.655   5.330   3.525
 2239SOL    HW2 7617   3.550   5.312   3.650
 2240SOL     OW 7618   5.351   5.893   3.817
 2240SOL    HW1 7619   5.300   5.913   3.901
 2240SOL    HW2 7620   5.403   5.808   3.829
 2241SOL     OW 7621   0.375   6.927   2.047
 2241SOL    HW1 7622   0.466   6.968   2.040
 2241SOL    HW2 7623   0.325   6.971   2.122
 2242SOL     OW 7624   5.204   2.400   2.681
 2242SOL    HW1 7625   5.216   2.306   2.651
 2242SOL    HW2 7626   5.265   2.418   2.759
 2243SOL     OW 7627   2.716   6.438   5.096
 2243SOL    HW1 7628   2.789   6.489   5.050
 2243SOL    HW2 7629   2.736   6.433   5.194
 2244SOL     OW 7630   3.041   0.389   2.908
 2244SOL    HW1 7631   3.031   0.346   2.819
 2244SOL    HW2 7632   3.024   0.487   2.900
 2245SOL     OW 7633   0.556   1.889   2.145
 2245SOL    HW1 7634   0.598   1.805   2.180
 2245SOL    HW2 7635   0.510   1.936   2.220
 2246SOL     OW 7636   1.531   0.898   5.486
 2246SOL    HW1 7637   1.479   0.824   5.528
 2246SOL    HW2 7638   1.470   0.954   5.430
 2247SOL     OW 7639   2.740   2.747   5.681
 2247SOL    HW1 7640   2.675   2.794   5.621
 2247SOL    HW2 7641   2.778   2.812   5.747
 2248SOL     OW 7642   3.781   4.176   6.364
 2248SOL    HW1 7643   3.847   4.225   6.307
 2248SOL    HW2 7644   3.806   4.187   6.460
 2249SOL     OW 7645   6.574   5.975   2.804
 2249SOL    HW1 7646   6.577   6.035   2.884
 2249SOL    HW2 7647   6.643   6.004   2.738
 2250SOL     OW 7648   4.905   3.689   1.033
 2250SOL    HW1 7649   4.816   3.676   0.988
 2250SOL    HW2 7650   4.931   3.605   1.080
 2251SOL     OW 7651   5.236   1.525   0.327
 2251SOL    HW1 7652   5.287   1.465   0.266
 2251SOL    HW2 7653   5.188   1.595   0.274
 2252SOL     OW 7654   6.477   2.040   3.065
 2252SOL    HW1 7655   6.398   2.101   3.072
 2252SOL    HW2 7656   6.500   2.026   2.969
 2253SOL     OW 7657   0.686   3.697   6.885
 2253SOL    HW1 7658   0.761   3.697   6.819
 2253SOL    HW2 7659   0.686   3.611   6.936
 2254SOL     OW 7660   2.384   3.215   5.873
 2254SOL    HW1 7661   2.398   3.312   5.894
 2254SOL    HW2 7662   2.288   3.191   5.888
 2255SOL     OW 7663   4.659   2.449   6.954
 2255SOL    HW1 7664   4.631   2.362   6.994
 2255SOL    HW2 7665   4.750   2.440   6.913
 2256SOL     OW 7666   4.134   6.619   1.406
 2256SOL    HW1 7667   4.167   6.709   1.435
 2256SOL    HW2 7668   4.098   6.569   1.485
 2257SOL     OW 7669   0.136   2.461   3.922
 2257SOL    HW1 7670   0.054   2.511   3.950
 2257SOL    HW2 7671   0.210   2.526   3.904
 2258SOL     OW 7672   0.928   5.288   5.548
 2258SOL    HW1 7673   1.026   5.270   5.554
 2258SOL    HW2 7674   0.897   5.335   5.630
 2259SOL     OW 7675   4.853   4.212   6.565
 2259SOL    HW1 7676   4.812   4.277   6.629
 2259SOL    HW2 7677   4.873   4.126   6.612
 2260SOL     OW 7678   5.918   4.473   3.061
 2260SOL    HW1 7679   5.839   4.494   3.119
 2260SOL    HW2 7680   5.890   4.412   2.987
 2261SOL     OW 7681   6.425   6.870   0.957
 2261SOL    HW1 7682   6.467   6.788   0.995
 2261SOL    HW2 7683   6.460   6.888   0.866
 2262SOL     OW 7684   5.285   2.562   2.455
 2262SOL    HW1 7685   5.296   2.534   2.550
 2262SOL    HW2 7686   5.203   2.619   2.446
 2263SOL     OW 7687   2.830   6.186   5.894
 2263SOL    HW1 7688   2.863   6.232   5.812
 2263SOL    HW2 7689   2.867   6.093   5.898
 2264SOL     OW 7690   3.554   3.169   1.224
 2264SOL    HW1 7691   3.619   3.168   1.300
 2264SOL    HW2 7692   3.594   3.122   1.145
 2265SOL     OW 7693   0.604   0.352   3.745
 2265SOL    HW1 7694   0.511   0.380   3.767
 2265SOL    HW2 7695   0.662   0.433   3.736
 2266SOL     OW 7696   5.718   1.647   1.341
 2266SOL    HW1 7697   5.776   1.689   1.270
 2266SOL    HW2 7698   5.753   1.670   1.431
 2267SOL     OW 7699   4.975   2.335   5.074
 2267SOL    HW1 7700   4.965   2.431   5.051
 2267SOL    HW2 7701   5.048   2.325   5.142
 2268SOL     OW 7702   6.246   3.710   6.452
 2268SOL    HW1 7703   6.284   3.671   6.368
 2268SOL    HW2 7704   6.289   3.799   6.469
 2269SOL     OW 7705   5.767   5.872   4.962
 2269SOL    HW1 7706   5.686   5.926   4.986
 2269SOL    HW2 7707   5.740   5.794   4.906
 2270SOL     OW 7708   3.189   2.660   6.537
 2270SOL    HW1 7709   3.182   2.758   6.559
 2270SOL    HW2 7710   3.272   2.643   6.485
 2271SOL     OW 7711   6.345   4.007   0.343
 2271SOL    HW1 7712   6.430   3.979   0.298
 2271SOL    HW2 7713   6.288   4.057   0.278
 2272SOL     OW 7714   5.596   1.621   5.118
 2272SOL    HW1 7715   5.609   1.533   5.073
 2272SOL    HW2 7716   5.499   1.646   5.116
 2273SOL     OW 7717   1.318   1.005   2.047
 2273SOL    HW1 7718   1.299   0.915   2.086
 2273SOL    HW2 7719   1.405   1.002   1.997
 2274SOL     OW 7720   1.770   2.534   6.146
 2274SOL    HW1 7721   1.829   2.530   6.227
 2274SOL    HW2 7722   1.728   2.444   6.131
 2275SOL     OW 7723   5.888   0.401   4.682
 2275SOL    HW1 7724   5.985   0.385   4.697
 2275SOL    HW2 7725   5.836   0.321   4.711
 2276SOL     OW 7726   3.367   4.869   1.112
 2276SOL    HW1 7727   3.414   4.810   1.046
 2276SOL    HW2 7728   3.278   4.896   1.076
 2277SOL     OW 7729   3.542   4.162   4.511
 2277SOL    HW1 7730   3.592   4.081   4.541
 2277SOL    HW2 7731   3.564   4.239   4.571
 2278SOL     OW 7732   5.916   6.183   4.248
 2278SOL    HW1 7733   5.845   6.253   4.233
 2278SOL    HW2 7734   6.004   6.228   4.263
 2279SOL     OW 7735   4.725   5.547   4.456
 2279SOL    HW1 7736   4.723   5.618   4.386
 2279SOL    HW2 7737   4.784   5.577   4.532
 2280SOL     OW 7738   0.067   6.409   5.025
 2280SOL    HW1 7739   0.095   6.407   4.929
 2280SOL    HW2 7740   0.079   6.502   5.061
 2281SOL     OW 7741   3.394   0.854   1.848
 2281SOL    HW1 7742   3.345   0.895   1.925
 2281SOL    HW2 7743   3.485   0.893   1.841
 2282SOL     OW 7744   5.752   0.148   5.307
 2282SOL    HW1 7745   5.734   0.200   5.224
 2282SOL    HW2 7746   5.823   0.194   5.360
 2283SOL     OW 7747   6.503   4.407   1.692
 2283SOL    HW1 7748   6.517   4.429   1.595
 2283SOL    HW2 7749   6.580   4.444   1.745
 2284SOL     OW 7750   2.382   1.699   0.513
 2284SOL    HW1 7751   2.406   1.792   0.484
 2284SOL    HW2 7752   2.299   1.702   0.569
 2285SOL     OW 7753   1.444   2.817   0.538
 2285SOL    HW1 7754   1.377   2.846   0.606
 2285SOL    HW2 7755   1.526   2.874   0.547
 2286SOL     OW 7756   0.088   0.047   4.449
 2286SOL    HW1 7757   0.150   0.070   4.374
 2286SOL    HW2 7758   0.011   0.111   4.450
 2287SOL     OW 7759   2.309   2.807   2.076
 2287SOL    HW1 7760   2.372   2.739   2.115
 2287SOL    HW2 7761   2.276   2.774   1.988
 2288SOL     OW 7762   6.817   4.647   4.582
 2288SOL    HW1 7763   6.777   4.560   4.554
 2288SOL    HW2 7764   6.916   4.642   4.572
 2289SOL     OW 7765   6.283   4.511   2.710
 2289SOL    HW1 7766   6.195   4.559   2.709
 2289SOL    HW2 7767   6.273   4.422   2.665
 2290SOL     OW 7768   1.837   3.764   2.142
 2290SOL    HW1 7769   1.913   3.700   2.129
 2290SOL    HW2 7770   1.848   3.842   2.081
 2291SOL     OW 7771   2.050   1.936   0.549
 2291SOL    HW1 7772   1.991   1.977   0.479
 2291SOL    HW2 7773   1.993   1.896   0.621
 2292SOL     OW 7774   5.849   2.105   3.237
 2292SOL    HW1 7775   5.766   2.081   3.288
 2292SOL    HW2 7776   5.851   2.203   3.220
 2293SOL     OW 7777   6.638   0.156   1.225
 2293SOL    HW1 7778   6.692   0.236   1.197
 2293SOL    HW2 7779   6.661   0.078   1.167
 2294SOL     OW 7780   3.031   1.224   6.120
 2294SOL    HW1 7781   2.944   1.213   6.073
 2294SOL    HW2 7782   3.025   1.187   6.213
 2295SOL     OW 7783   0.426   1.516   2.870
 2295SOL    HW1 7784   0.482   1.485   2.947
 2295SOL    HW2 7785   0.336   1.544   2.903
 2296SOL     OW 7786   3.553   5.508   2.311
 2296SOL    HW1 7787   3.520   5.439   2.376
 2296SOL    HW2 7788   3.646   5.536   2.336
 2297SOL     OW 7789   4.856   4.616   5.647
 2297SOL    HW1 7790   4.885   4.531   5.605
 2297SOL    HW2 7791   4.922   4.688   5.626
 2298SOL     OW 7792   3.585   3.701   2.595
 2298SOL    HW1 7793   3.611   3.760   2.519
 2298SOL    HW2 7794   3.580   3.755   2.679
 2299SOL     OW 7795   4.729   4.547   5.109
 2299SOL    HW1 7796   4.657   4.484   5.080
 2299SOL    HW2 7797   4.716   4.569   5.206
 2300SOL     OW 7798   2.748   6.041   3.362
 2300SOL    HW1 7799   2.802   5.957   3.370
 2300SOL    HW2 7800   2.798   6.108   3.307
 2301SOL     OW 7801   3.922   3.013   3.507
 2301SOL    HW1 7802   3.995   3.082   3.515
 2301SOL    HW2 7803   3.889   2.989   3.598
 2302SOL     OW 7804   3.980   0.333   0.948
 2302SOL    HW1 7805   3.983   0.239   0.981
 2302SOL    HW2 7806   3.939   0.392   1.018
 2303SOL     OW 7807   2.889   3.242   0.924
 2303SOL    HW1 7808   2.906   3.149   0.892
 2303SOL    HW2 7809   2.794   3.266   0.908
 2304SOL     OW 7810   5.590   6.293   4.491
 2304SOL    HW1 7811   5.540   6.380   4.490
 2304SOL    HW2 7812   5.635   6.282   4.579
 2305SOL     OW 7813   2.265   0.311   3.152
 2305SOL    HW1 7814   2.292   0.302   3.248
 2305SOL    HW2 7815   2.318   0.248   3.095
 2306SOL     OW 7816   2.455   5.234   1.656
 2306SOL    HW1 7817   2.427   5.273   1.744
 2306SOL    HW2 7818   2.529   5.289   1.618
 2307SOL     OW 7819   0.284   3.067   4.875
 2307SOL    HW1 7820   0.244   3.153   4.907
 2307SOL    HW2 7821   0.312   3.076   4.780
 2308SOL     OW 7822   2.859   4.669   1.027
 2308SOL    HW1 7823   2.795   4.614   0.973
 2308SOL    HW2 7824   2.951   4.661   0.988
 2309SOL     OW 7825   2.003   0.724   5.583
 2309SOL    HW1 7826   1.943   0.785   5.530
 2309SOL    HW2 7827   2.036   0.772   5.664
 2310SOL     OW 7828   5.571   5.262   1.436
 2310SOL    HW1 7829   5.574   5.186   1.371
 2310SOL    HW2 7830   5.654   5.262   1.492
 2311SOL     OW 7831   2.005   6.849   1.217
 2311SOL    HW1 7832   2.075   6.912   1.182
 2311SOL    HW2 7833   2.029   6.755   1.192
 2312SOL     OW 7834   4.752   5.519   3.265
 2312SOL    HW1 7835   4.808   5.471   3.198
 2312SOL    HW2 7836   4.805   5.537   3.347
 2313SOL     OW 7837   4.798   5.811   2.480
 2313SOL    HW1 7838   4.893   5.836   2.460
 2313SOL    HW2 7839   4.736   5.878   2.440
 2314SOL     OW 7840   4.965   6.103   3.180
 2314SOL    HW1 7841   4.996   6.160   3.256
 2314SOL    HW2 7842   4.868   6.081   3.192
 2315SOL     OW 7843   5.208   3.113   6.386
 2315SOL    HW1 7844   5.161   3.165   6.457
 2315SOL    HW2 7845   5.201   3.015   6.406
 2316SOL     OW 7846   4.042   1.623   3.970
 2316SOL    HW1 7847   4.129   1.672   3.961
 2316SOL    HW2 7848   4.022   1.575   3.884
 2317SOL     OW 7849   0.410   6.001   2.899
 2317SOL    HW1 7850   0.352   6.034   2.974
 2317SOL    HW2 7851   0.356   5.944   2.838
 2318SOL     OW 7852   0.619   2.790   3.356
 2318SOL    HW1 7853   0.601   2.712   3.296
 2318SOL    HW2 7854   0.546   2.798   3.424
 2319SOL     OW 7855   1.712   5.043   3.847
 2319SOL    HW1 7856   1.685   5.023   3.941
 2319SOL    HW2 7857   1.692   5.138   3.826
 2320SOL     OW 7858   0.765   2.338   3.789
 2320SOL    HW1 7859   0.679   2.288   3.780
 2320SOL    HW2 7860   0.791   2.375   3.700
 2321SOL     OW 7861   3.753   0.583   5.428
 2321SOL    HW1 7862   3.744   0.596   5.329
 2321SOL    HW2 7863   3.788   0.667   5.469
 2322SOL     OW 7864   2.341   1.757   5.325
 2322SOL    HW1 7865   2.370   1.852   5.326
 2322SOL    HW2 7866   2.420   1.698   5.311
 2323SOL     OW 7867   3.257   4.838   2.090
 2323SOL    HW1 7868   3.269   4.835   1.991
 2323SOL    HW2 7869   3.161   4.827   2.113
 2324SOL     OW 7870   0.330   6.314   2.616
 2324SOL    HW1 7871   0.376   6.258   2.685
 2324SOL    HW2 7872   0.332   6.410   2.643
 2325SOL     OW 7873   0.531   4.217   1.007
 2325SOL    HW1 7874   0.555   4.299   1.059
 2325SOL    HW2 7875   0.446   4.178   1.044
 2326SOL     OW 7876   3.374   4.748   5.674
 2326SOL    HW1 7877   3.325   4.682   5.730
 2326SOL    HW2 7878   3.426   4.700   5.604
 2327SOL     OW 7879   5.888   3.273   4.501
 2327SOL    HW1 7880   5.833   3.195   4.531
 2327SOL    HW2 7881   5.830   3.353   4.491
 2328SOL     OW 7882   4.018   1.868   3.560
 2328SOL    HW1 7883   4.112   1.836   3.571
 2328SOL    HW2 7884   3.955   1.792   3.573
 2329SOL     OW 7885   1.733   5.208   5.071
 2329SOL    HW1 7886   1.755   5.241   4.979
 2329SOL    HW2 7887   1.733   5.285   5.135
 2330SOL     OW 7888   6.995   4.140   2.322
 2330SOL    HW1 7889   6.969   4.053   2.365
 2330SOL    HW2 7890   0.057   4.170   2.359
 2331SOL     OW 7891   6.552   4.390   0.101
 2331SOL    HW1 7892   6.577   4.301   0.063
 2331SOL    HW2 7893   6.604   4.406   0.185
 2332SOL     OW 7894   3.871   1.894   5.108
 2332SOL    HW1 7895   3.933   1.962   5.148
 2332SOL    HW2 7896   3.797   1.941   5.060
 2333SOL     OW 7897   6.916   4.790   2.875
 2333SOL    HW1 7898   6.910   4.874   2.929
 2333SOL    HW2 7899   6.862   4.799   2.792
 2334SOL     OW 7900   2.667   0.432   0.448
 2334SOL    HW1 7901   2.739   0.500   0.463
 2334SOL    HW2 7902   2.624   0.410   0.535
 2335SOL     OW 7903   5.572   1.203   3.433
 2335SOL    HW1 7904   5.570   1.105   3.456
 2335SOL    HW2 7905   5.631   1.251   3.497
 2336SOL     OW 7906   4.514   1.971   5.570
 2336SOL    HW1 7907   4.490   1.939   5.661
 2336SOL    HW2 7908   4.456   2.049   5.546
 2337SOL     OW 7909   4.631   1.259   3.616
 2337SOL    HW1 7910   4.669   1.211   3.696
 2337SOL    HW2 7911   4.564   1.201   3.571
 2338SOL     OW 7912   0.989   0.391   0.075
 2338SOL    HW1 7913   0.987   0.421   0.170
 2338SOL    HW2 7914   0.993   0.470   0.015
 2339SOL     OW 7915   3.784   3.414   4.697
 2339SOL    HW1 7916   3.720   3.491   4.687
 2339SOL    HW2 7917   3.735   3.328   4.679
 2340SOL     OW 7918   5.265   6.310   5.987
 2340SOL    HW1 7919   5.292   6.283   6.079
 2340SOL    HW2 7920   5.167   6.293   5.974
 2341SOL     OW 7921   4.777   3.474   0.799
 2341SOL    HW1 7922   4.805   3.535   0.725
 2341SOL    HW2 7923   4.841   3.398   0.806
 2342SOL     OW 7924   0.796   5.943   6.015
 2342SOL    HW1 7925   0.806   6.012   5.944
 2342SOL    HW2 7926   0.701   5.943   6.047
 2343SOL     OW 7927   1.795   6.629   1.347
 2343SOL    HW1 7928   1.808   6.671   1.437
 2343SOL    HW2 7929   1.830   6.690   1.276
 2344SOL     OW 7930   1.222   1.279   1.113
 2344SOL    HW1 7931   1.317   1.256   1.134
 2344SOL    HW2 7932   1.207   1.376   1.133
 2345SOL     OW 7933   2.159   6.122   5.197
 2345SOL    HW1 7934   2.207   6.068   5.266
 2345SOL    HW2 7935   2.225   6.174   5.144
 2346SOL     OW 7936   4.940   3.330   4.717
 2346SOL    HW1 7937   4.923   3.318   4.814
 2346SOL    HW2 7938   4.893   3.259   4.665
 2347SOL     OW 7939   1.952   4.197   1.471
 2347SOL    HW1 7940   2.051   4.191   1.458
 2347SOL    HW2 7941   1.908   4.210   1.382
 2348SOL     OW 7942   3.073   5.602   3.345
 2348SOL    HW1 7943   2.993   5.662   3.343
 2348SOL    HW2 7944   3.064   5.537   3.420
 2349SOL     OW 7945   0.808   6.287   6.936
 2349SOL    HW1 7946   0.724   6.283   6.882
 2349SOL    HW2 7947   0.887   6.285   6.874
 2350SOL     OW 7948   4.548   7.016   6.081
 2350SOL    HW1 7949   4.630   0.003   6.026
 2350SOL    HW2 7950   4.575   6.987   6.173
 2351SOL     OW 7951   3.474   5.263   3.118
 2351SOL    HW1 7952   3.385   5.292   3.083
 2351SOL    HW2 7953   3.470   5.165   3.140
 2352SOL     OW 7954   0.243   4.724   2.295
 2352SOL    HW1 7955   0.265   4.790   2.223
 2352SOL    HW2 7956   0.326   4.697   2.343
 2353SOL     OW 7957   2.704   4.707   4.339
 2353SOL    HW1 7958   2.793   4.733   4.377
 2353SOL    HW2 7959   2.649   4.663   4.409
 2354SOL     OW 7960   3.333   2.361   6.105
 2354SOL    HW1 7961   3.331   2.428   6.031
 2354SOL    HW2 7962   3.297   2.403   6.189
 2355SOL     OW 7963   0.484   5.382   0.403
 2355SOL    HW1 7964   0.456   5.361   0.309
 2355SOL    HW2 7965   0.451   5.309   0.464
 2356SOL     OW 7966   2.644   4.069   1.166
 2356SOL    HW1 7967   2.642   4.153   1.113
 2356SOL    HW2 7968   2.691   4.085   1.253
 2357SOL     OW 7969   3.651   5.226   3.973
 2357SOL    HW1 7970   3.616   5.318   3.991
 2357SOL    HW2 7971   3.750   5.229   3.959
 2358SOL     OW 7972   2.824   5.433   4.617
 2358SOL    HW1 7973   2.847   5.348   4.570
 2358SOL    HW2 7974   2.798   5.502   4.549
 2359SOL     OW 7975   1.599   1.296   5.822
 2359SOL    HW1 7976   1.617   1.337   5.733
 2359SOL    HW2 7977   1.556   1.364   5.882
 2360SOL     OW 7978   4.788   6.074   5.400
 2360SOL    HW1 7979   4.739   6.051   5.484
 2360SOL    HW2 7980   4.870   6.128   5.422
 2361SOL     OW 7981   2.722   0.234   4.217
 2361SOL    HW1 7982   2.640   0.179   4.235
 2361SOL    HW2 7983   2.699   0.305   4.150
 2362SOL     OW 7984   4.454   6.792   5.303
 2362SOL    HW1 7985   4.374   6.824   5.354
 2362SOL    HW2 7986   4.471   6.853   5.226
 2363SOL     OW 7987   4.955   2.402   5.461
 2363SOL    HW1 7988   5.017   2.420   5.385
 2363SOL    HW2 7989   4.934   2.304   5.464
 2364SOL     OW 7990   6.020   1.835   2.343
 2364SOL    HW1 7991   6.067   1.773   2.406
 2364SOL    HW2 7992   6.077   1.849   2.262
 2365SOL     OW 7993   5.690   4.028   5.101
 2365SOL    HW1 7994   5.757   3.958   5.127
 2365SOL    HW2 7995   5.676   4.090   5.179
 2366SOL     OW 7996   1.280   4.011   5.617
 2366SOL    HW1 7997   1.374   3.983   5.601
 2366SOL    HW2 7998   1.218   3.941   5.581
 2367SOL     OW 7999   2.007   4.004   6.536
 2367SOL    HW1 8000   1.979   4.082   6.479
 2367SOL    HW2 8001   2.056   3.937   6.479
 2368SOL     OW 8002   5.209   1.329   4.616
 2368SOL    HW1 8003   5.158   1.244   4.604
 2368SOL    HW2 8004   5.159   1.404   4.572
 2369SOL     OW 8005   2.469   2.552   3.915
 2369SOL    HW1 8006   2.489   2.544   3.817
 2369SOL    HW2 8007   2.380   2.597   3.927
 2370SOL     OW 8008   4.250   4.358   0.021
 2370SOL    HW1 8009   4.338   4.327   7.011
 2370SOL    HW2 8010   4.225   4.445   7.006
 2371SOL     OW 8011   1.685   5.609   1.969
 2371SOL    HW1 8012   1.748   5.532   1.966
 2371SOL    HW2 8013   1.688   5.651   2.060
 2372SOL     OW 8014   0.532   2.136   0.232
 2372SOL    HW1 8015   0.632   2.139   0.222
 2372SOL    HW2 8016   0.494   2.068   0.170
 2373SOL     OW 8017   6.237   1.295   6.582
 2373SOL    HW1 8018   6.204   1.232   6.512
 2373SOL    HW2 8019   6.240   1.388   6.545
 2374SOL     OW 8020   6.359   5.494   3.513
 2374SOL    HW1 8021   6.423   5.540   3.451
 2374SOL    HW2 8022   6.410   5.443   3.582
 2375SOL     OW 8023   0.812   6.756   4.711
 2375SOL    HW1 8024   0.747   6.821   4.751
 2375SOL    HW2 8025   0.820   6.676   4.771
 2376SOL     OW 8026   5.835   2.730   3.296
 2376SOL    HW1 8027   5.879   2.763   3.380
 2376SOL    HW2 8028   5.888   2.653   3.260
 2377SOL     OW 8029   3.186   3.277   4.325
 2377SOL    HW1 8030   3.241   3.332   4.389
 2377SOL    HW2 8031   3.203   3.309   4.231
 2378SOL     OW 8032   5.114   1.975   7.011
 2378SOL    HW1 8033   5.134   2.004   6.918
 2378SOL    HW2 8034   5.162   2.035   0.049
 2379SOL     OW 8035   6.913   2.624   0.114
 2379SOL    HW1 8036   6.844   2.553   0.107
 2379SOL    HW2 8037   6.875   2.711   0.083
 2380SOL     OW 8038   6.986   0.867   5.525
 2380SOL    HW1 8039   6.916   0.933   5.495
 2380SOL    HW2 8040   6.949   0.775   5.518
 2381SOL     OW 8041   1.795   4.203   4.570
 2381SOL    HW1 8042   1.711   4.205   4.624
 2381SOL    HW2 8043   1.872   4.232   4.627
 2382SOL     OW 8044   2.007   5.419   2.684
 2382SOL    HW1 8045   2.088   5.474   2.661
 2382SOL    HW2 8046   1.942   5.422   2.608
 2383SOL     OW 8047   5.601   6.282   6.662
 2383SOL    HW1 8048   5.650   6.218   6.602
 2383SOL    HW2 8049   5.631   6.269   6.756
 2384SOL     OW 8050   1.299   1.565   1.856
 2384SOL    HW1 8051   1.330   1.658   1.875
 2384SOL    HW2 8052   1.379   1.507   1.835
 2385SOL     OW 8053   6.970   0.210   1.303
 2385SOL    HW1 8054   0.041   0.197   1.282
 2385SOL    HW2 8055   6.955   0.195   1.401
 2386SOL     OW 8056   3.495   5.182   4.694
 2386SOL    HW1 8057   3.428   5.240   4.739
 2386SOL    HW2 8058   3.568   5.240   4.655
 2387SOL     OW 8059   6.376   2.733   4.729
 2387SOL    HW1 8060   6.315   2.742   4.808
 2387SOL    HW2 8061   6.363   2.811   4.668
 2388SOL     OW 8062   1.571   1.808   5.808
 2388SOL    HW1 8063   1.584   1.849   5.899
 2388SOL    HW2 8064   1.484   1.760   5.805
 2389SOL     OW 8065   4.557   4.505   4.026
 2389SOL    HW1 8066   4.503   4.529   4.107
 2389SOL    HW2 8067   4.653   4.493   4.052
 2390SOL     OW 8068   3.884   3.971   4.836
 2390SOL    HW1 8069   3.928   3.956   4.748
 2390SOL    HW2 8070   3.874   3.883   4.883
 2391SOL     OW 8071   3.348   4.652   6.050
 2391SOL    HW1 8072   3.294   4.606   6.121
 2391SOL    HW2 8073   3.319   4.621   5.960
 2392SOL     OW 8074   2.788   5.076   6.104
 2392SOL    HW1 8075   2.867   5.054   6.047
 2392SOL    HW2 8076   2.791   5.173   6.128
 2393SOL     OW 8077   4.091   5.295   1.253
 2393SOL    HW1 8078   4.137   5.365   1.308
 2393SOL    HW2 8079   4.017   5.337   1.201
 2394SOL     OW 8080   1.385   3.772   3.897
 2394SOL    HW1 8081   1.356   3.683   3.933
 2394SOL    HW2 8082   1.390   3.767   3.797
 2395SOL     OW 8083   0.086   2.667   6.622
 2395SOL    HW1 8084   0.141   2.684   6.704
 2395SOL    HW2 8085   0.096   2.571   6.595
 2396SOL     OW 8086   5.772   6.295   0.744
 2396SOL    HW1 8087   5.786   6.392   0.722
 2396SOL    HW2 8088   5.734   6.287   0.837
 2397SOL     OW 8089   6.323   5.057   0.293
 2397SOL    HW1 8090   6.330   5.103   0.382
 2397SOL    HW2 8091   6.361   5.115   0.222
 2398SOL     OW 8092   2.324   5.076   4.945
 2398SOL    HW1 8093   2.400   5.076   4.880
 2398SOL    HW2 8094   2.359   5.091   5.037
 2399SOL     OW 8095   4.159   1.942   3.001
 2399SOL    HW1 8096   4.121   1.853   2.977
 2399SOL    HW2 8097   4.230   1.967   2.935
 2400SOL     OW 8098   3.164   3.961   0.309
 2400SOL    HW1 8099   3.071   3.941   0.280
 2400SOL    HW2 8100   3.185   3.909   0.391
 2401SOL     OW 8101   3.292   0.452   5.168
 2401SOL    HW1 8102   3.350   0.514   5.221
 2401SOL    HW2 8103   3.217   0.504   5.126
 2402SOL     OW 8104   0.085   2.477   4.268
 2402SOL    HW1 8105   0.006   2.507   4.216
 2402SOL    HW2 8106   0.167   2.522   4.232
 2403SOL     OW 8107   3.232   3.142   0.430
 2403SOL    HW1 8108   3.144   3.172   0.466
 2403SOL    HW2 8109   3.286   3.101   0.504
 2404SOL     OW 8110   5.415   1.483   2.161
 2404SOL    HW1 8111   5.428   1.491   2.260
 2404SOL    HW2 8112   5.348   1.412   2.142
 2405SOL     OW 8113   3.607   3.691   4.961
 2405SOL    HW1 8114   3.590   3.649   4.872
 2405SOL    HW2 8115   3.705   3.705   4.974
 2406SOL     OW 8116   2.049   1.042   3.257
 2406SOL    HW1 8117   2.022   1.086   3.171
 2406SOL    HW2 8118   2.104   1.106   3.311
 2407SOL     OW 8119   4.739   2.056   2.803
 2407SOL    HW1 8120   4.741   1.999   2.885
 2407SOL    HW2 8121   4.666   2.024   2.742
 2408SOL     OW 8122   3.567   5.203   2.730
 2408SOL    HW1 8123   3.631   5.221   2.805
 2408SOL    HW2 8124   3.503   5.280   2.722
 2409SOL     OW 8125   1.785   2.579   1.698
 2409SOL    HW1 8126   1.799   2.669   1.739
 2409SOL    HW2 8127   1.735   2.589   1.612
 2410SOL     OW 8128   6.509   3.268   5.497
 2410SOL    HW1 8129   6.449   3.259   5.577
 2410SOL    HW2 8130   6.578   3.196   5.498
 2411SOL     OW 8131   3.374   4.542   5.324
 2411SOL    HW1 8132   3.275   4.537   5.316
 2411SOL    HW2 8133   3.405   4.474   5.391
 2412SOL     OW 8134   2.707   3.675   0.313
 2412SOL    HW1 8135   2.733   3.642   0.404
 2412SOL    HW2 8136   2.608   3.687   0.309
 2413SOL     OW 8137   6.366   3.368   6.509
 2413SOL    HW1 8138   6.424   3.447   6.531
 2413SOL    HW2 8139   6.279   3.400   6.472
 2414SOL     OW 8140   5.689   3.542   2.752
 2414SOL    HW1 8141   5.664   3.572   2.844
 2414SOL    HW2 8142   5.608   3.513   2.703
 2415SOL     OW 8143   1.969   0.336   1.371
 2415SOL    HW1 8144   1.903   0.343   1.444
 2415SOL    HW2 8145   2.060   0.360   1.405
 2416SOL     OW 8146   2.131   1.255   4.804
 2416SOL    HW1 8147   2.189   1.214   4.733
 2416SOL    HW2 8148   2.182   1.327   4.852
 2417SOL     OW 8149   5.289   2.100   0.152
 2417SOL    HW1 8150   5.296   2.039   0.231
 2417SOL    HW2 8151   5.355   2.175   0.163
 2418SOL     OW 8152   3.300   3.579   4.681
 2418SOL    HW1 8153   3.260   3.624   4.602
 2418SOL    HW2 8154   3.342   3.647   4.741
 2419SOL     OW 8155   0.736   6.915   4.970
 2419SOL    HW1 8156   0.675   6.907   4.892
 2419SOL    HW2 8157   0.735   6.830   5.022
 2420SOL     OW 8158   3.899   6.970   2.520
 2420SOL    HW1 8159   3.951   6.892   2.487
 2420SOL    HW2 8160   3.804   6.963   2.489
 2421SOL     OW 8161   3.053   0.868   4.818
 2421SOL    HW1 8162   2.956   0.878   4.798
 2421SOL    HW2 8163   3.082   0.774   4.797
 2422SOL     OW 8164   5.186   0.673   0.932
 2422SOL    HW1 8165   5.275   0.681   0.888
 2422SOL    HW2 8166   5.118   0.723   0.878
 2423SOL     OW 8167   1.789   5.967   2.366
 2423SOL    HW1 8168   1.886   5.969   2.343
 2423SOL    HW2 8169   1.735   5.958   2.282
 2424SOL     OW 8170   5.176   6.199   6.662
 2424SOL    HW1 8171   5.141   6.158   6.578
 2424SOL    HW2 8172   5.182   6.130   6.733
 2425SOL     OW 8173   6.600   6.659   4.665
 2425SOL    HW1 8174   6.628   6.755   4.669
 2425SOL    HW2 8175   6.681   6.600   4.671
 2426SOL     OW 8176   1.011   5.375   4.741
 2426SOL    HW1 8177   0.943   5.327   4.686
 2426SOL    HW2 8178   1.031   5.464   4.699
 2427SOL     OW 8179   5.942   5.393   6.726
 2427SOL    HW1 8180   6.002   5.313   6.719
 2427SOL    HW2 8181   5.918   5.425   6.635
 2428SOL     OW 8182   0.796   0.550   4.207
 2428SOL    HW1 8183   0.754   0.637   4.233
 2428SOL    HW2 8184   0.731   0.476   4.223
 2429SOL     OW 8185   5.859   5.088   3.062
 2429SOL    HW1 8186   5.805   5.148   3.121
 2429SOL    HW2 8187   5.897   5.013   3.116
 2430SOL     OW 8188   5.611   2.926   0.887
 2430SOL    HW1 8189   5.580   2.994   0.821
 2430SOL    HW2 8190   5.617   2.837   0.843
 2431SOL     OW 8191   4.128   0.499   1.621
 2431SOL    HW1 8192   4.191   0.447   1.564
 2431SOL    HW2 8193   4.177   0.535   1.700
 2432SOL     OW 8194   4.139   6.520   2.887
 2432SOL    HW1 8195   4.149   6.537   2.985
 2432SOL    HW2 8196   4.098   6.600   2.843
 2433SOL     OW 8197   2.251   0.448   0.215
 2433SOL    HW1 8198   2.193   0.529   0.226
 2433SOL    HW2 8199   2.194   0.366   0.217
 2434SOL     OW 8200   4.463   1.484   3.321
 2434SOL    HW1 8201   4.538   1.546   3.299
 2434SOL    HW2 8202   4.483   1.394   3.284
 2435SOL     OW 8203   4.905   4.925   0.295
 2435SOL    HW1 8204   4.934   4.990   0.366
 2435SOL    HW2 8205   4.805   4.917   0.297
 2436SOL     OW 8206   1.775   6.861   1.086
 2436SOL    HW1 8207   1.870   6.860   1.115
 2436SOL    HW2 8208   1.733   6.949   1.109
 2437SOL     OW 8209   5.034   5.732   1.184
 2437SOL    HW1 8210   5.028   5.758   1.087
 2437SOL    HW2 8211   4.945   5.748   1.227
 2438SOL     OW 8212   4.029   0.974   4.799
 2438SOL    HW1 8213   4.098   1.000   4.868
 2438SOL    HW2 8214   4.075   0.954   4.713
 2439SOL     OW 8215   0.943   4.058   0.359
 2439SOL    HW1 8216   1.020   4.097   0.308
 2439SOL    HW2 8217   0.857   4.094   0.322
 2440SOL     OW 8218   3.794   6.666   5.319
 2440SOL    HW1 8219   3.827   6.605   5.247
 2440SOL    HW2 8220   3.825   6.759   5.301
 2441SOL     OW 8221   5.692   0.798   0.186
 2441SOL    HW1 8222   5.781   0.751   0.185
 2441SOL    HW2 8223   5.632   0.755   0.119
 2442SOL     OW 8224   6.030   5.517   3.174
 2442SOL    HW1 8225   6.014   5.484   3.081
 2442SOL    HW2 8226   6.070   5.609   3.170
 2443SOL     OW 8227   2.989   0.560   6.589
 2443SOL    HW1 8228   3.072   0.509   6.568
 2443SOL    HW2 8229   2.913   0.496   6.603
 2444SOL     OW 8230   3.659   4.197   6.953
 2444SOL    HW1 8231   3.668   4.100   6.927
 2444SOL    HW2 8232   3.593   4.241   6.892
 2445SOL     OW 8233   6.722   1.168   2.129
 2445SOL    HW1 8234   6.672   1.171   2.042
 2445SOL    HW2 8235   6.674   1.106   2.192
 2446SOL     OW 8236   0.479   2.856   4.293
 2446SOL    HW1 8237   0.565   2.827   4.335
 2446SOL    HW2 8238   0.497   2.901   4.206
 2447SOL     OW 8239   2.431   1.202   0.805
 2447SOL    HW1 8240   2.428   1.102   0.808
 2447SOL    HW2 8241   2.514   1.234   0.850
 2448SOL     OW 8242   6.657   1.278   4.164
 2448SOL    HW1 8243   6.621   1.188   4.189
 2448SOL    HW2 8244   6.699   1.273   4.074
 2449SOL     OW 8245   0.199   3.768   2.854
 2449SOL    HW1 8246   0.127   3.828   2.821
 2449SOL    HW2 8247   0.264   3.822   2.908
 2450SOL     OW 8248   3.094   5.578   5.853
 2450SOL    HW1 8249   3.004   5.537   5.836
 2450SOL    HW2 8250   3.089   5.677   5.840
 2451SOL     OW 8251   1.434   0.192   3.332
 2451SOL    HW1 8252   1.442   0.284   3.293
 2451SOL    HW2 8253   1.435   0.198   3.432
 2452SOL     OW 8254   2.967   2.037   3.327
 2452SOL    HW1 8255   2.905   1.977   3.377
 2452SOL    HW2 8256   3.054   2.043   3.375
 2453SOL     OW 8257   6.860   3.416   0.736
 2453SOL    HW1 8258   6.900   3.352   0.802
 2453SOL    HW2 8259   6.870   3.378   0.644
 2454SOL     OW 8260   3.858   0.417   6.363
 2454SOL    HW1 8261   3.782   0.481   6.350
 2454SOL    HW2 8262   3.824   0.334   6.407
 2455SOL     OW 8263   4.235   0.785   0.842
 2455SOL    HW1 8264   4.236   0.692   0.877
 2455SOL    HW2 8265   4.285   0.790   0.755
 2456SOL     OW 8266   5.837   2.372   0.282
 2456SOL    HW1 8267   5.871   2.466   0.283
 2456SOL    HW2 8268   5.851   2.331   0.372
 2457SOL     OW 8269   6.535   0.199   6.636
 2457SOL    HW1 8270   6.501   0.255   6.560
 2457SOL    HW2 8271   6.496   0.107   6.630
 2458SOL     OW 8272   1.895   5.922   3.917
 2458SOL    HW1 8273   1.839   5.958   3.992
 2458SOL    HW2 8274   1.845   5.928   3.831
 2459SOL     OW 8275   2.564   6.213   5.851
 2459SOL    HW1 8276   2.512   6.213   5.937
 2459SOL    HW2 8277   2.657   6.182   5.869
 2460SOL     OW 8278   1.547   1.418   1.327
 2460SOL    HW1 8279   1.532   1.356   1.404
 2460SOL    HW2 8280   1.466   1.418   1.268
 2461SOL     OW 8281   4.551   1.240   3.249
 2461SOL    HW1 8282   4.519   1.170   3.312
 2461SOL    HW2 8283   4.593   1.197   3.169
 2462SOL     OW 8284   1.602   5.458   6.938
 2462SOL    HW1 8285   1.692   5.420   6.958
 2462SOL    HW2 8286   1.562   5.411   6.860
 2463SOL     OW 8287   6.241   1.674   5.948
 2463SOL    HW1 8288   6.313   1.629   5.896
 2463SOL    HW2 8289   6.261   1.668   6.045
 2464SOL     OW 8290   2.242   4.111   2.492
 2464SOL    HW1 8291   2.245   4.015   2.518
 2464SOL    HW2 8292   2.290   4.165   2.561
 2465SOL     OW 8293   0.775   0.163   0.704
 2465SOL    HW1 8294   0.742   0.135   0.614
 2465SOL    HW2 8295   0.870   0.191   0.698
 2466SOL     OW 8296   2.431   1.536   3.050
 2466SOL    HW1 8297   2.479   1.592   3.118
 2466SOL    HW2 8298   2.371   1.595   2.996
 2467SOL     OW 8299   4.804   1.213   5.207
 2467SOL    HW1 8300   4.877   1.280   5.197
 2467SOL    HW2 8301   4.804   1.178   5.301
 2468SOL     OW 8302   4.591   6.305   1.865
 2468SOL    HW1 8303   4.666   6.357   1.905
 2468SOL    HW2 8304   4.509   6.318   1.921
 2469SOL     OW 8305   4.079   3.979   5.673
 2469SOL    HW1 8306   4.069   3.888   5.633
 2469SOL    HW2 8307   4.070   3.973   5.772
 2470SOL     OW 8308   4.062   4.258   6.225
 2470SOL    HW1 8309   4.068   4.357   6.227
 2470SOL    HW2 8310   4.154   4.219   6.212
 2471SOL     OW 8311   2.589   6.191   0.777
 2471SOL    HW1 8312   2.610   6.234   0.865
 2471SOL    HW2 8313   2.501   6.144   0.783
 2472SOL     OW 8314   4.889   2.440   4.187
 2472SOL    HW1 8315   4.836   2.356   4.202
 2472SOL    HW2 8316   4.833   2.506   4.138
 2473SOL     OW 8317   1.997   4.211   4.984
 2473SOL    HW1 8318   2.048   4.173   4.907
 2473SOL    HW2 8319   2.061   4.248   5.051
 2474SOL     OW 8320   0.209   5.863   1.098
 2474SOL    HW1 8321   0.280   5.827   1.038
 2474SOL    HW2 8322   0.120   5.831   1.067
 2475SOL     OW 8323   4.524   0.844   2.526
 2475SOL    HW1 8324   4.557   0.880   2.439
 2475SOL    HW2 8325   4.588   0.870   2.599
 2476SOL     OW 8326   6.968   1.495   2.828
 2476SOL    HW1 8327   6.957   1.469   2.924
 2476SOL    HW2 8328   0.032   1.535   2.814
 2477SOL     OW 8329   4.682   1.412   2.190
 2477SOL    HW1 8330   4.741   1.332   2.200
 2477SOL    HW2 8331   4.597   1.385   2.145
 2478SOL     OW 8332   6.407   1.123   2.057
 2478SOL    HW1 8333   6.458   1.173   1.987
 2478SOL    HW2 8334   6.344   1.059   2.013
 2479SOL     OW 8335   1.482   3.911   1.304
 2479SOL    HW1 8336   1.460   3.999   1.263
 2479SOL    HW2 8337   1.550   3.864   1.248
 2480SOL     OW 8338   4.731   4.486   0.687
 2480SOL    HW1 8339   4.694   4.563   0.740
 2480SOL    HW2 8340   4.817   4.514   0.644
 2481SOL     OW 8341   2.229   0.807   0.296
 2481SOL    HW1 8342   2.313   0.858   0.274
 2481SOL    HW2 8343   2.176   0.859   0.363
 2482SOL     OW 8344   5.137   3.643   5.627
 2482SOL    HW1 8345   5.167   3.616   5.719
 2482SOL    HW2 8346   5.060   3.587   5.598
 2483SOL     OW 8347   2.055   1.672   0.031
 2483SOL    HW1 8348   2.143   1.708   7.025
 2483SOL    HW2 8349   2.071   1.614   0.111
 2484SOL     OW 8350   3.553   0.685   0.060
 2484SOL    HW1 8351   3.471   0.650   0.014
 2484SOL    HW2 8352   3.554   0.785   0.054
 2485SOL     OW 8353   5.889   4.219   1.140
 2485SOL    HW1 8354   5.961   4.174   1.088
 2485SOL    HW2 8355   5.878   4.174   1.228
 2486SOL     OW 8356   1.786   4.592   4.323
 2486SOL    HW1 8357   1.818   4.639   4.240
 2486SOL    HW2 8358   1.787   4.493   4.307
 2487SOL     OW 8359   4.168   5.905   0.286
 2487SOL    HW1 8360   4.135   5.993   0.318
 2487SOL    HW2 8361   4.124   5.882   0.199
 2488SOL     OW 8362   2.057   4.427   2.482
 2488SOL    HW1 8363   2.128   4.460   2.545
 2488SOL    HW2 8364   1.967   4.450   2.519
 2489SOL     OW 8365   1.235   5.612   2.530
 2489SOL    HW1 8366   1.178   5.587   2.451
 2489SOL    HW2 8367   1.329   5.584   2.513
 2490SOL     OW 8368   6.636   4.849   1.682
 2490SOL    HW1 8369   6.696   4.899   1.619
 2490SOL    HW2 8370   6.549   4.829   1.636
 2491SOL     OW 8371   2.894   5.450   1.059
 2491SOL    HW1 8372   2.902   5.546   1.087
 2491SOL    HW2 8373   2.799   5.421   1.069
 2492SOL     OW 8374   4.213   2.177   0.960
 2492SOL    HW1 8375   4.264   2.104   1.005
 2492SOL    HW2 8376   4.115   2.159   0.969
 2493SOL     OW 8377   6.091   0.787   2.327
 2493SOL    HW1 8378   6.188   0.798   2.305
 2493SOL    HW2 8379   6.049   0.723   2.263
 2494SOL     OW 8380   5.713   3.485   1.932
 2494SOL    HW1 8381   5.641   3.428   1.892
 2494SOL    HW2 8382   5.702   3.487   2.031
 2495SOL     OW 8383   5.230   0.064   4.297
 2495SOL    HW1 8384   5.209   0.161   4.286
 2495SOL    HW2 8385   5.322   0.045   4.264
 2496SOL     OW 8386   0.430   3.807   5.753
 2496SOL    HW1 8387   0.345   3.853   5.777
 2496SOL    HW2 8388   0.495   3.814   5.829
 2497SOL     OW 8389   0.487   0.563   1.187
 2497SOL    HW1 8390   0.562   0.517   1.234
 2497SOL    HW2 8391   0.523   0.631   1.124
 2498SOL     OW 8392   3.027   1.156   4.788
 2498SOL    HW1 8393   3.114   1.187   4.750
 2498SOL    HW2 8394   3.032   1.058   4.808
 2499SOL     OW 8395   5.665   2.087   4.125
 2499SOL    HW1 8396   5.669   2.119   4.031
 2499SOL    HW2 8397   5.697   1.992   4.131
 2500SOL     OW 8398   4.400   3.051   6.938
 2500SOL    HW1 8399   4.436   2.965   6.974
 2500SOL    HW2 8400   4.301   3.053   6.948
 2501SOL     OW 8401   5.669   5.322   0.192
 2501SOL    HW1 8402   5.662   5.235   0.241
 2501SOL    HW2 8403   5.716   5.307   0.105
 2502SOL     OW 8404   1.839   5.533   3.211
 2502SOL    HW1 8405   1.899   5.466   3.168
 2502SOL    HW2 8406   1.881   5.565   3.297
 2503SOL     OW 8407   3.312   5.401   4.491
 2503SOL    HW1 8408   3.291   5.373   4.585
 2503SOL    HW2 8409   3.299   5.499   4.481
 2504SOL     OW 8410   3.160   5.056   4.838
 2504SOL    HW1 8411   3.161   4.960   4.864
 2504SOL    HW2 8412   3.254   5.091   4.837
 2505SOL     OW 8413   1.099   5.903   3.921
 2505SOL    HW1 8414   1.041   5.917   3.841
 2505SOL    HW2 8415   1.193   5.929   3.899
 2506SOL     OW 8416   6.564   3.530   5.478
 2506SOL    HW1 8417   6.662   3.541   5.493
 2506SOL    HW2 8418   6.540   3.433   5.484
 2507SOL     OW 8419   1.099   4.707   0.939
 2507SOL    HW1 8420   1.170   4.696   0.870
 2507SOL    HW2 8421   1.071   4.617   0.972
 2508SOL     OW 8422   2.540   1.389   2.081
 2508SOL    HW1 8423   2.490   1.475   2.077
 2508SOL    HW2 8424   2.638   1.406   2.081
 2509SOL     OW 8425   6.655   2.488   2.417
 2509SOL    HW1 8426   6.596   2.415   2.383
 2509SOL    HW2 8427   6.745   2.450   2.438
 2510SOL     OW 8428   3.261   4.229   1.432
 2510SOL    HW1 8429   3.349   4.208   1.389
 2510SOL    HW2 8430   3.212   4.144   1.450
 2511SOL     OW 8431   2.672   1.261   4.050
 2511SOL    HW1 8432   2.681   1.162   4.038
 2511SOL    HW2 8433   2.677   1.306   3.961
 2512SOL     OW 8434   4.989   4.582   5.066
 2512SOL    HW1 8435   5.056   4.511   5.085
 2512SOL    HW2 8436   4.897   4.543   5.068
 2513SOL     OW 8437   1.376   3.745   4.202
 2513SOL    HW1 8438   1.435   3.748   4.121
 2513SOL    HW2 8439   1.408   3.674   4.264
 2514SOL     OW 8440   6.481   3.282   3.884
 2514SOL    HW1 8441   6.456   3.377   3.901
 2514SOL    HW2 8442   6.415   3.221   3.927
 2515SOL     OW 8443   1.497   6.207   0.528
 2515SOL    HW1 8444   1.468   6.115   0.556
 2515SOL    HW2 8445   1.421   6.253   0.482
 2516SOL     OW 8446   5.986   0.673   3.228
 2516SOL    HW1 8447   5.908   0.635   3.277
 2516SOL    HW2 8448   5.955   0.742   3.163
 2517SOL     OW 8449   0.451   5.487   5.981
 2517SOL    HW1 8450   0.416   5.417   6.043
 2517SOL    HW2 8451   0.475   5.444   5.893
 2518SOL     OW 8452   0.992   4.020   6.878
 2518SOL    HW1 8453   0.932   4.083   6.928
 2518SOL    HW2 8454   1.010   3.939   6.935
 2519SOL     OW 8455   5.515   6.518   4.015
 2519SOL    HW1 8456   5.560   6.432   3.991
 2519SOL    HW2 8457   5.512   6.578   3.935
 2520SOL     OW 8458   2.025   2.501   6.887
 2520SOL    HW1 8459   2.049   2.579   6.945
 2520SOL    HW2 8460   2.020   2.418   6.942
 2521SOL     OW 8461   0.858   0.197   5.232
 2521SOL    HW1 8462   0.844   0.109   5.278
 2521SOL    HW2 8463   0.902   0.181   5.143
 2522SOL     OW 8464   0.384   3.563   5.583
 2522SOL    HW1 8465   0.409   3.631   5.651
 2522SOL    HW2 8466   0.465   3.511   5.556
 2523SOL     OW 8467   0.164   3.052   2.073
 2523SOL    HW1 8468   0.132   3.017   1.985
 2523SOL    HW2 8469   0.262   3.033   2.083
 2524SOL     OW 8470   0.497   5.668   5.658
 2524SOL    HW1 8471   0.470   5.671   5.755
 2524SOL    HW2 8472   0.488   5.759   5.618
 2525SOL     OW 8473   1.097   2.532   4.376
 2525SOL    HW1 8474   1.013   2.500   4.332
 2525SOL    HW2 8475   1.076   2.613   4.431
 2526SOL     OW 8476   1.468   4.791   5.484
 2526SOL    HW1 8477   1.465   4.755   5.577
 2526SOL    HW2 8478   1.402   4.865   5.474
 2527SOL     OW 8479   5.270   6.019   4.919
 2527SOL    HW1 8480   5.349   5.983   4.869
 2527SOL    HW2 8481   5.201   5.948   4.928
 2528SOL     OW 8482   5.525   4.654   1.278
 2528SOL    HW1 8483   5.586   4.636   1.201
 2528SOL    HW2 8484   5.577   4.651   1.364
 2529SOL     OW 8485   6.828   6.704   6.580
 2529SOL    HW1 8486   6.848   6.791   6.535
 2529SOL    HW2 8487   6.747   6.715   6.638
 2530SOL     OW 8488   2.096   7.006   4.754
 2530SOL    HW1 8489   2.081   6.924   4.698
 2530SOL    HW2 8490   2.024   0.046   4.733
 2531SOL     OW 8491   4.858   5.978   4.497
 2531SOL    HW1 8492   4.921   5.907   4.466
 2531SOL    HW2 8493   4.766   5.957   4.465
 2532SOL     OW 8494   0.711   6.327   0.400
 2532SOL    HW1 8495   0.788   6.384   0.371
 2532SOL    HW2 8496   0.668   6.285   0.320
 2533SOL     OW 8497   2.781   0.039   3.047
 2533SOL    HW1 8498   2.865   0.041   2.992
 2533SOL    HW2 8499   2.725   0.119   3.025
 2534SOL     OW 8500   3.237   1.024   2.840
 2534SOL    HW1 8501   3.263   0.957   2.909
 2534SOL    HW2 8502   3.206   1.108   2.885
 2535SOL     OW 8503   3.440   2.768   6.070
 2535SOL    HW1 8504   3.461   2.696   6.004
 2535SOL    HW2 8505   3.522   2.791   6.122
 2536SOL     OW 8506   6.851   1.968   4.469
 2536SOL    HW1 8507   6.801   2.045   4.508
 2536SOL    HW2 8508   6.866   1.984   4.371
 2537SOL     OW 8509   4.598   6.625   6.541
 2537SOL    HW1 8510   4.658   6.660   6.613
 2537SOL    HW2 8511   4.580   6.528   6.557
 2538SOL     OW 8512   1.152   4.789   4.631
 2538SOL    HW1 8513   1.147   4.839   4.545
 2538SOL    HW2 8514   1.236   4.734   4.633
 2539SOL     OW 8515   5.068   0.834   6.154
 2539SOL    HW1 8516   5.020   0.901   6.211
 2539SOL    HW2 8517   5.052   0.855   6.057
 2540SOL     OW 8518   3.837   1.059   2.470
 2540SOL    HW1 8519   3.763   1.121   2.442
 2540SOL    HW2 8520   3.925   1.105   2.456
 2541SOL     OW 8521   1.837   6.575   5.363
 2541SOL    HW1 8522   1.922   6.535   5.329
 2541SOL    HW2 8523   1.842   6.584   5.462
 2542SOL     OW 8524   4.424   1.405   6.266
 2542SOL    HW1 8525   4.407   1.474   6.196
 2542SOL    HW2 8526   4.520   1.378   6.263
 2543SOL     OW 8527   1.918   2.078   2.910
 2543SOL    HW1 8528   1.881   2.168   2.930
 2543SOL    HW2 8529   2.017   2.077   2.927
 2544SOL     OW 8530   0.198   5.428   1.262
 2544SOL    HW1 8531   0.234   5.347   1.309
 2544SOL    HW2 8532   0.253   5.447   1.181
 2545SOL     OW 8533   2.012   0.792   1.521
 2545SOL    HW1 8534   1.946   0.796   1.446
 2545SOL    HW2 8535   2.064   0.877   1.524
 2546SOL     OW 8536   0.281   2.120   1.432
 2546SOL    HW1 8537   0.232   2.189   1.485
 2546SOL    HW2 8538   0.369   2.101   1.476
 2547SOL     OW 8539   5.794   3.733   6.993
 2547SOL    HW1 8540   5.703   3.757   6.958
 2547SOL    HW2 8541   5.784   3.676   0.048
 2548SOL     OW 8542   2.881   6.718   5.724
 2548SOL    HW1 8543   2.955   6.722   5.792
 2548SOL    HW2 8544   2.814   6.790   5.744
 2549SOL     OW 8545   1.659   0.649   1.531
 2549SOL    HW1 8546   1.725   0.622   1.460
 2549SOL    HW2 8547   1.568   0.616   1.506
 2550SOL     OW 8548   6.810   0.716   6.407
 2550SOL    HW1 8549   6.849   0.624   6.400
 2550SOL    HW2 8550   6.867   0.780   6.356
 2551SOL     OW 8551   3.450   5.473   0.327
 2551SOL    HW1 8552   3.529   5.531   0.305
 2551SOL    HW2 8553   3.452   5.392   0.268
 2552SOL     OW 8554   1.769   5.614   6.165
 2552SOL    HW1 8555   1.831   5.665   6.106
 2552SOL    HW2 8556   1.801   5.519   6.172
 2553SOL     OW 8557   3.912   3.353   6.813
 2553SOL    HW1 8558   3.959   3.266   6.799
 2553SOL    HW2 8559   3.855   3.373   6.733
 2554SOL     OW 8560   1.779   6.314   6.447
 2554SOL    HW1 8561   1.749   6.367   6.368
 2554SOL    HW2 8562   1.755   6.362   6.531
 2555SOL     OW 8563   6.237   6.481   6.602
 2555SOL    HW1 8564   6.336   6.487   6.613
 2555SOL    HW2 8565   6.215   6.445   6.512
 2556SOL     OW 8566   4.689   5.240   0.152
 2556SOL    HW1 8567   4.667   5.228   0.249
 2556SOL    HW2 8568   4.666   5.156   0.103
 2557SOL     OW 8569   2.896   2.692   6.478
 2557SOL    HW1 8570   2.982   2.704   6.528
 2557SOL    HW2 8571   2.862   2.782   6.450
 2558SOL     OW 8572   4.296   3.230   5.614
 2558SOL    HW1 8573   4.300   3.329   5.601
 2558SOL    HW2 8574   4.359   3.185   5.551
 2559SOL     OW 8575   6.433   3.342   4.556
 2559SOL    HW1 8576   6.384   3.263   4.519
 2559SOL    HW2 8577   6.498   3.312   4.625
 2560SOL     OW 8578   5.806   3.138   3.999
 2560SOL    HW1 8579   5.835   3.168   3.908
 2560SOL    HW2 8580   5.785   3.218   4.055
 2561SOL     OW 8581   3.187   0.054   3.871
 2561SOL    HW1 8582   3.120   7.006   3.876
 2561SOL    HW2 8583   3.167   0.112   3.792
 2562SOL     OW 8584   1.471   5.536   2.411
 2562SOL    HW1 8585   1.440   5.477   2.337
 2562SOL    HW2 8586   1.547   5.592   2.380
 2563SOL     OW 8587   4.194   1.999   6.947
 2563SOL    HW1 8588   4.129   2.075   6.951
 2563SOL    HW2 8589   4.241   1.991   0.009
 2564SOL     OW 8590   1.174   6.995   6.325
 2564SOL    HW1 8591   1.210   6.914   6.280
 2564SOL    HW2 8592   1.102   0.010   6.268
 2565SOL     OW 8593   6.792   0.795   0.480
 2565SOL    HW1 8594   6.768   0.731   0.552
 2565SOL    HW2 8595   6.784   0.889   0.515
 2566SOL     OW 8596   1.620   0.062   1.171
 2566SOL    HW1 8597   1.629   0.083   1.268
 2566SOL    HW2 8598   1.524   0.047   1.148
 2567SOL     OW 8599   1.180   1.200   1.796
 2567SOL    HW1 8600   1.211   1.273   1.735
 2567SOL    HW2 8601   1.214   1.112   1.763
 2568SOL     OW 8602   3.575   6.971   6.940
 2568SOL    HW1 8603   3.605   6.909   7.013
 2568SOL    HW2 8604   3.478   6.955   6.920
 2569SOL     OW 8605   2.929   0.992   1.875
 2569SOL    HW1 8606   2.851   1.049   1.900
 2569SOL    HW2 8607   2.950   1.004   1.778
 2570SOL     OW 8608   6.050   0.697   6.613
 2570SOL    HW1 8609   6.048   0.649   6.525
 2570SOL    HW2 8610   6.049   0.631   6.688
 2571SOL     OW 8611   2.196   4.159   5.401
 2571SOL    HW1 8612   2.218   4.251   5.369
 2571SOL    HW2 8613   2.228   4.092   5.335
 2572SOL     OW 8614   2.348   6.077   0.747
 2572SOL    HW1 8615   2.294   6.131   0.682
 2572SOL    HW2 8616   2.370   5.989   0.705
 2573SOL     OW 8617   6.273   1.958   1.883
 2573SOL    HW1 8618   6.255   1.880   1.943
 2573SOL    HW2 8619   6.188   1.983   1.834
 2574SOL     OW 8620   6.331   3.297   0.365
 2574SOL    HW1 8621   6.375   3.343   0.442
 2574SOL    HW2 8622   6.356   3.342   0.280
 2575SOL     OW 8623   4.500   5.266   6.955
 2575SOL    HW1 8624   4.533   5.265   0.023
 2575SOL    HW2 8625   4.489   5.172   6.923
 2576SOL     OW 8626   4.188   6.783   4.685
 2576SOL    HW1 8627   4.245   6.742   4.614
 2576SOL    HW2 8628   4.198   6.732   4.770
 2577SOL     OW 8629   3.617   6.683   1.930
 2577SOL    HW1 8630   3.666   6.758   1.885
 2577SOL    HW2 8631   3.647   6.596   1.891
 2578SOL     OW 8632   4.763   2.194   4.233
 2578SOL    HW1 8633   4.670   2.162   4.213
 2578SOL    HW2 8634   4.829   2.131   4.193
 2579SOL     OW 8635   1.378   6.648   2.967
 2579SOL    HW1 8636   1.307   6.594   2.920
 2579SOL    HW2 8637   1.418   6.713   2.903
 2580SOL     OW 8638   2.858   2.908   6.764
 2580SOL    HW1 8639   2.786   2.864   6.710
 2580SOL    HW2 8640   2.817   2.968   6.832
 2581SOL     OW 8641   6.958   4.190   1.203
 2581SOL    HW1 8642   0.020   4.182   1.157
 2581SOL    HW2 8643   6.888   4.141   1.150
 2582SOL     OW 8644   0.790   4.068   2.047
 2582SOL    HW1 8645   0.857   4.133   2.011
 2582SOL    HW2 8646   0.837   3.989   2.085
 2583SOL     OW 8647   0.575   1.323   1.050
 2583SOL    HW1 8648   0.666   1.292   1.079
 2583SOL    HW2 8649   0.524   1.353   1.131
 2584SOL     OW 8650   4.205   5.434   0.264
 2584SOL    HW1 8651   4.225   5.528   0.294
 2584SOL    HW2 8652   4.190   5.376   0.343
 2585SOL     OW 8653   4.847   2.505   0.903
 2585SOL    HW1 8654   4.851   2.562   0.820
 2585SOL    HW2 8655   4.795   2.422   0.884
 2586SOL     OW 8656   3.344   1.509   3.601
 2586SOL    HW1 8657   3.418   1.443   3.609
 2586SOL    HW2 8658   3.343   1.547   3.508
 2587SOL     OW 8659   0.513   0.648   3.199
 2587SOL    HW1 8660   0.603   0.609   3.180
 2587SOL    HW2 8661   0.485   0.625   3.292
 2588SOL     OW 8662   4.786   0.542   6.666
 2588SOL    HW1 8663   4.747   0.505   6.582
 2588SOL    HW2 8664   4.714   0.550   6.735
 2589SOL     OW 8665   0.011   6.064   6.585
 2589SOL    HW1 8666   7.002   5.971   6.574
 2589SOL    HW2 8667   0.038   6.101   6.496
 2590SOL     OW 8668   3.332   6.333   1.730
 2590SOL    HW1 8669   3.328   6.424   1.689
 2590SOL    HW2 8670   3.320   6.341   1.829
 2591SOL     OW 8671   6.961   5.765   2.217
 2591SOL    HW1 8672   6.911   5.687   2.256
 2591SOL    HW2 8673   0.009   5.731   2.159
 2592SOL     OW 8674   3.553   6.453   1.145
 2592SOL    HW1 8675   3.633   6.395   1.130
 2592SOL    HW2 8676   3.473   6.410   1.103
 2593SOL     OW 8677   2.866   5.725   0.882
 2593SOL    HW1 8678   2.819   5.687   0.803
 2593SOL    HW2 8679   2.811   5.711   0.964
 2594SOL     OW 8680   0.442   5.507   6.296
 2594SOL    HW1 8681   0.531   5.466   6.277
 2594SOL    HW2 8682   0.399   5.462   6.374
 2595SOL     OW 8683   6.536   1.912   3.876
 2595SOL    HW1 8684   6.612   1.914   3.941
 2595SOL    HW2 8685   6.560   1.855   3.798
 2596SOL     OW 8686   4.056   2.238   1.970
 2596SOL    HW1 8687   4.034   2.315   1.910
 2596SOL    HW2 8688   3.986   2.166   1.960
 2597SOL     OW 8689   1.722   4.160   5.621
 2597SOL    HW1 8690   1.745   4.121   5.532
 2597SOL    HW2 8691   1.679   4.249   5.608
 2598SOL     OW 8692   6.101   1.172   3.940
 2598SOL    HW1 8693   6.073   1.234   4.013
 2598SOL    HW2 8694   6.139   1.088   3.980
 2599SOL     OW 8695   2.221   7.016   1.125
 2599SOL    HW1 8696   2.204   0.054   1.050
 2599SOL    HW2 8697   2.201   0.034   1.212
 2600SOL     OW 8698   4.856   3.320   4.157
 2600SOL    HW1 8699   4.788   3.299   4.227
 2600SOL    HW2 8700   4.947   3.318   4.198
 2601SOL     OW 8701   1.845   1.832   0.711
 2601SOL    HW1 8702   1.794   1.758   0.666
 2601SOL    HW2 8703   1.781   1.903   0.739
 2602SOL     OW 8704   0.192   3.925   4.412
 2602SOL    HW1 8705   0.139   3.859   4.359
 2602SOL    HW2 8706   0.146   3.942   4.499
 2603SOL     OW 8707   2.711   1.412   1.821
 2603SOL    HW1 8708   2.625   1.458   1.843
 2603SOL    HW2 8709   2.787   1.477   1.832
 2604SOL     OW 8710   4.663   1.124   3.048
 2604SOL    HW1 8711   4.591   1.068   3.006
 2604SOL    HW2 8712   4.742   1.129   2.987
 2605SOL     OW 8713   2.018   4.192   2.695
 2605SOL    HW1 8714   2.009   4.169   2.598
 2605SOL    HW2 8715   2.025   4.291   2.705
 2606SOL     OW 8716   6.353   4.185   1.553
 2606SOL    HW1 8717   6.425   4.173   1.485
 2606SOL    HW2 8718   6.385   4.249   1.623
 2607SOL     OW 8719   0.793   0.923   0.596
 2607SOL    HW1 8720   0.875   0.954   0.644
 2607SOL    HW2 8721   0.800   0.946   0.499
 2608SOL     OW 8722   4.702   4.841   1.377
 2608SOL    HW1 8723   4.614   4.850   1.423
 2608SOL    HW2 8724   4.760   4.777   1.427
 2609SOL     OW 8725   6.555   1.800   1.396
 2609SOL    HW1 8726   6.614   1.719   1.404
 2609SOL    HW2 8727   6.463   1.771   1.368
 2610SOL     OW 8728   0.486   4.793   4.279
 2610SOL    HW1 8729   0.480   4.893   4.278
 2610SOL    HW2 8730   0.499   4.761   4.373
 2611SOL     OW 8731   4.441   6.389   1.044
 2611SOL    HW1 8732   4.346   6.399   1.073
 2611SOL    HW2 8733   4.501   6.442   1.105
 2612SOL     OW 8734   6.788   6.981   6.097
 2612SOL    HW1 8735   6.863   6.935   6.144
 2612SOL    HW2 8736   6.801   6.973   5.998
 2613SOL     OW 8737   2.824   6.429   6.780
 2613SOL    HW1 8738   2.792   6.479   6.861
 2613SOL    HW2 8739   2.761   6.443   6.704
 2614SOL     OW 8740   6.957   1.014   5.919
 2614SOL    HW1 8741   6.945   1.018   6.019
 2614SOL    HW2 8742   7.024   0.944   5.896
 2615SOL     OW 8743   0.085   2.357   3.449
 2615SOL    HW1 8744   0.085   2.320   3.356
 2615SOL    HW2 8745   0.073   2.456   3.445
 2616SOL     OW 8746   3.556   3.453   5.267
 2616SOL    HW1 8747   3.540   3.549   5.244
 2616SOL    HW2 8748   3.626   3.415   5.207
 2617SOL     OW 8749   3.737   6.473   0.409
 2617SOL    HW1 8750   3.689   6.435   0.488
 2617SOL    HW2 8751   3.747   6.402   0.340
 2618SOL     OW 8752   0.087   0.622   4.217
 2618SOL    HW1 8753   0.066   0.716   4.243
 2618SOL    HW2 8754   0.093   0.615   4.118
 2619SOL     OW 8755   4.336   1.872   3.391
 2619SOL    HW1 8756   4.304   1.853   3.484
 2619SOL    HW2 8757   4.436   1.874   3.391
 2620SOL     OW 8758   0.127   0.350   3.092
 2620SOL    HW1 8759   0.187   0.277   3.125
 2620SOL    HW2 8760   0.183   0.420   3.046
 2621SOL     OW 8761   1.375   5.784   3.232
 2621SOL    HW1 8762   1.448   5.716   3.217
 2621SOL    HW2 8763   1.313   5.784   3.154
 2622SOL     OW 8764   1.796   3.315   5.467
 2622SOL    HW1 8765   1.783   3.233   5.412
 2622SOL    HW2 8766   1.882   3.359   5.443
 2623SOL     OW 8767   1.832   1.307   5.470
 2623SOL    HW1 8768   1.882   1.393   5.483
 2623SOL    HW2 8769   1.759   1.300   5.538
 2624SOL     OW 8770   6.836   1.501   5.719
 2624SOL    HW1 8771   6.742   1.521   5.690
 2624SOL    HW2 8772   6.887   1.587   5.729
 2625SOL     OW 8773   2.067   2.931   5.251
 2625SOL    HW1 8774   2.029   2.950   5.161
 2625SOL    HW2 8775   2.040   2.840   5.281
 2626SOL     OW 8776   0.436   0.408   5.764
 2626SOL    HW1 8777   0.498   0.336   5.732
 2626SOL    HW2 8778   0.397   0.456   5.685
 2627SOL     OW 8779   1.660   0.862   5.822
 2627SOL    HW1 8780   1.642   0.901   5.732
 2627SOL    HW2 8781   1.580   0.809   5.851
 2628SOL     OW 8782   1.716   4.608   5.888
 2628SOL    HW1 8783   1.805   4.580   5.850
 2628SOL    HW2 8784   1.681   4.535   5.946
 2629SOL     OW 8785   3.049   3.013   1.359
 2629SOL    HW1 8786   2.997   2.992   1.442
 2629SOL    HW2 8787   3.085   2.928   1.319
 2630SOL     OW 8788   3.208   2.135   2.599
 2630SOL    HW1 8789   3.261   2.126   2.684
 2630SOL    HW2 8790   3.141   2.208   2.609
 2631SOL     OW 8791   5.266   1.200   5.574
 2631SOL    HW1 8792   5.325   1.132   5.619
 2631SOL    HW2 8793   5.238   1.165   5.485
 2632SOL     OW 8794   4.610   2.939   6.369
 2632SOL    HW1 8795   4.610   2.851   6.321
 2632SOL    HW2 8796   4.628   2.924   6.466
 2633SOL     OW 8797   0.365   1.415   4.390
 2633SOL    HW1 8798   0.393   1.503   4.428
 2633SOL    HW2 8799   0.443   1.353   4.386
 2634SOL     OW 8800   0.603   4.893   3.303
 2634SOL    HW1 8801   0.658   4.855   3.377
 2634SOL    HW2 8802   0.507   4.871   3.318
 2635SOL     OW 8803   6.876   5.543   5.207
 2635SOL    HW1 8804   6.884   5.445   5.187
 2635SOL    HW2 8805   6.792   5.578   5.166
 2636SOL     OW 8806   4.594   0.934   5.347
 2636SOL    HW1 8807   4.545   0.947   5.260
 2636SOL    HW2 8808   4.584   0.839   5.376
 2637SOL     OW 8809   5.035   1.896   3.798
 2637SOL    HW1 8810   4.998   1.815   3.842
 2637SOL    HW2 8811   5.133   1.902   3.816
 2638SOL     OW 8812   0.064   0.083   3.789
 2638SOL    HW1 8813   0.093   7.019   3.821
 2638SOL    HW2 8814   7.024   0.072   3.714
 2639SOL     OW 8815   0.021   5.883   0.866
 2639SOL    HW1 8816   0.095   5.861   0.803
 2639SOL    HW2 8817   6.996   5.962   0.832
 2640SOL     OW 8818   0.562   6.071   5.236
 2640SOL    HW1 8819   0.642   6.015   5.216
 2640SOL    HW2 8820   0.559   6.091   5.334
 2641SOL     OW 8821   5.293   3.313   2.946
 2641SOL    HW1 8822   5.209   3.263   2.925
 2641SOL    HW2 8823   5.371   3.263   2.908
 2642SOL     OW 8824   4.665   6.519   4.042
 2642SOL    HW1 8825   4.738   6.493   3.978
 2642SOL    HW2 8826   4.577   6.486   4.007
 2643SOL     OW 8827   0.354   3.732   3.678
 2643SOL    HW1 8828   0.321   3.806   3.737
 2643SOL    HW2 8829   0.305   3.735   3.590
 2644SOL     OW 8830   5.679   6.485   5.540
 2644SOL    HW1 8831   5.652   6.407   5.597
 2644SOL    HW2 8832   5.764   6.524   5.576
 2645SOL     OW 8833   4.297   5.769   4.557
 2645SOL    HW1 8834   4.317   5.738   4.464
 2645SOL    HW2 8835   4.280   5.868   4.556
 2646SOL     OW 8836   6.191   0.922   6.675
 2646SOL    HW1 8837   6.139   0.839   6.660
 2646SOL    HW2 8838   6.129   0.996   6.703
 2647SOL     OW 8839   6.428   0.022   2.289
 2647SOL    HW1 8840   6.493   0.064   2.353
 2647SOL    HW2 8841   6.396   6.961   2.328
 2648SOL     OW 8842   0.201   0.393   4.286
 2648SOL    HW1 8843   0.175   0.489   4.278
 2648SOL    HW2 8844   0.296   0.386   4.316
 2649SOL     OW 8845   5.619   2.749   6.881
 2649SOL    HW1 8846   5.618   2.684   6.805
 2649SOL    HW2 8847   5.649   2.839   6.847
 2650SOL     OW 8848   1.317   4.235   4.124
 2650SOL    HW1 8849   1.278   4.315   4.079
 2650SOL    HW2 8850   1.293   4.152   4.073
 2651SOL     OW 8851   0.927   1.205   0.681
 2651SOL    HW1 8852   0.839   1.241   0.710
 2651SOL    HW2 8853   1.001   1.257   0.725
 2652SOL     OW 8854   4.181   3.413   4.512
 2652SOL    HW1 8855   4.144   3.424   4.420
 2652SOL    HW2 8856   4.273   3.451   4.516
 2653SOL     OW 8857   5.250   6.916   4.948
 2653SOL    HW1 8858   5.150   6.922   4.952
 2653SOL    HW2 8859   5.288   6.925   5.040
 2654SOL     OW 8860   4.375   6.094   2.454
 2654SOL    HW1 8861   4.363   6.165   2.524
 2654SOL    HW2 8862   4.345   6.129   2.366
 2655SOL     OW 8863   4.567   5.924   4.442
 2655SOL    HW1 8864   4.468   5.937   4.446
 2655SOL    HW2 8865   4.588   5.839   4.393
 2656SOL     OW 8866   3.655   5.253   4.925
 2656SOL    HW1 8867   3.695   5.207   4.845
 2656SOL    HW2 8868   3.588   5.192   4.968
 2657SOL     OW 8869   0.762   3.796   6.261
 2657SOL    HW1 8870   0.743   3.872   6.199
 2657SOL    HW2 8871   0.855   3.764   6.246
 2658SOL     OW 8872   4.953   4.418   0.988
 2658SOL    HW1 8873   4.869   4.417   1.041
 2658SOL    HW2 8874   4.956   4.501   0.932
 2659SOL     OW 8875   5.198   3.132   4.404
 2659SOL    HW1 8876   5.282   3.085   4.379
 2659SOL    HW2 8877   5.119   3.078   4.374
 2660SOL     OW 8878   1.879   0.135   1.768
 2660SOL    HW1 8879   1.878   0.044   1.810
 2660SOL    HW2 8880   1.821   0.135   1.687
 2661SOL     OW 8881   2.595   0.214   1.203
 2661SOL    HW1 8882   2.523   0.284   1.201
 2661SOL    HW2 8883   2.645   0.216   1.117
 2662SOL     OW 8884   5.284   6.438   4.362
 2662SOL    HW1 8885   5.257   6.379   4.286
 2662SOL    HW2 8886   5.221   6.515   4.369
 2663SOL     OW 8887   2.787   4.122   6.795
 2663SOL    HW1 8888   2.880   4.149   6.819
 2663SOL    HW2 8889   2.760   4.042   6.849
 2664SOL     OW 8890   4.533   3.792   5.536
 2664SOL    HW1 8891   4.524   3.832   5.627
 2664SOL    HW2 8892   4.627   3.759   5.524
 2665SOL     OW 8893   2.358   2.783   5.237
 2665SOL    HW1 8894   2.410   2.699   5.255
 2665SOL    HW2 8895   2.420   2.861   5.239
 2666SOL     OW 8896   5.672   5.044   1.263
 2666SOL    HW1 8897   5.616   4.989   1.325
 2666SOL    HW2 8898   5.710   4.986   1.191
 2667SOL     OW 8899   0.400   5.995   4.027
 2667SOL    HW1 8900   0.331   5.923   4.021
 2667SOL    HW2 8901   0.486   5.958   4.060
 2668SOL     OW 8902   0.188   3.331   4.842
 2668SOL    HW1 8903   0.234   3.363   4.759
 2668SOL    HW2 8904   0.107   3.278   4.816
 2669SOL     OW 8905   2.778   4.592   5.330
 2669SOL    HW1 8906   2.834   4.612   5.250
 2669SOL    HW2 8907   2.836   4.586   5.411
 2670SOL     OW 8908   5.754   3.278   6.252
 2670SOL    HW1 8909   5.668   3.322   6.227
 2670SOL    HW2 8910   5.776   3.297   6.348
 2671SOL     OW 8911   4.375   5.331   6.112
 2671SOL    HW1 8912   4.439   5.404   6.138
 2671SOL    HW2 8913   4.417   5.242   6.130
 2672SOL     OW 8914   1.886   5.054   0.505
 2672SOL    HW1 8915   1.942   5.004   0.572
 2672SOL    HW2 8916   1.799   5.081   0.548
 2673SOL     OW 8917   5.679   1.067   2.778
 2673SOL    HW1 8918   5.620   1.111   2.845
 2673SOL    HW2 8919   5.714   1.136   2.714
 2674SOL     OW 8920   1.149   4.402   3.712
 2674SOL    HW1 8921   1.218   4.334   3.687
 2674SOL    HW2 8922   1.161   4.484   3.656
 2675SOL     OW 8923   6.295   5.102   3.932
 2675SOL    HW1 8924   6.323   5.034   3.865
 2675SOL    HW2 8925   6.342   5.086   4.019
 2676SOL     OW 8926   3.530   2.694   0.979
 2676SOL    HW1 8927   3.621   2.675   1.016
 2676SOL    HW2 8928   3.510   2.631   0.904
 2677SOL     OW 8929   3.163   3.657   0.709
 2677SOL    HW1 8930   3.232   3.710   0.660
 2677SOL    HW2 8931   3.191   3.561   0.712
 2678SOL     OW 8932   0.199   2.808   1.414
 2678SOL    HW1 8933   0.223   2.821   1.318
 2678SOL    HW2 8934   0.103   2.779   1.420
 2679SOL     OW 8935   2.929   4.329   1.050
 2679SOL    HW1 8936   2.974   4.343   0.962
 2679SOL    HW2 8937   2.992   4.282   1.112
 2680SOL     OW 8938   1.124   1.897   0.345
 2680SOL    HW1 8939   1.150   1.935   0.256
 2680SOL    HW2 8940   1.051   1.952   0.385
 2681SOL     OW 8941   1.250   2.876   4.277
 2681SOL    HW1 8942   1.313   2.807   4.240
 2681SOL    HW2 8943   1.273   2.892   4.373
 2682SOL     OW 8944   4.804   4.144   2.469
 2682SOL    HW1 8945   4.824   4.049   2.446
 2682SOL    HW2 8946   4.883   4.185   2.513
 2683SOL     OW 8947   2.691   5.003   1.337
 2683SOL    HW1 8948   2.740   4.915   1.342
 2683SOL    HW2 8949   2.599   4.992   1.375
 2684SOL     OW 8950   4.214   5.305   2.043
 2684SOL    HW1 8951   4.194   5.242   2.118
 2684SOL    HW2 8952   4.218   5.398   2.078
 2685SOL     OW 8953   5.779   6.489   6.574
 2685SOL    HW1 8954   5.840   6.445   6.640
 2685SOL    HW2 8955   5.687   6.451   6.583
 2686SOL     OW 8956   1.859   2.428   5.887
 2686SOL    HW1 8957   1.904   2.415   5.976
 2686SOL    HW2 8958   1.770   2.471   5.901
 2687SOL     OW 8959   5.006   4.763   1.407
 2687SOL    HW1 8960   5.018   4.859   1.432
 2687SOL    HW2 8961   4.980   4.757   1.310
 2688SOL     OW 8962   3.570   3.896   0.012
 2688SOL    HW1 8963   3.619   3.823   6.989
 2688SOL    HW2 8964   3.472   3.886   7.022
 2689SOL     OW 8965   1.250   3.947   3.614
 2689SOL    HW1 8966   1.152   3.949   3.632
 2689SOL    HW2 8967   1.269   3.992   3.527
 2690SOL     OW 8968   4.021   3.116   4.354
 2690SOL    HW1 8969   4.072   3.042   4.398
 2690SOL    HW2 8970   4.074   3.201   4.361
 2691SOL     OW 8971   1.793   5.616   2.910
 2691SOL    HW1 8972   1.785   5.626   3.009
 2691SOL    HW2 8973   1.855   5.540   2.889
 2692SOL     OW 8974   3.236   5.376   2.994
 2692SOL    HW1 8975   3.218   5.475   2.996
 2692SOL    HW2 8976   3.150   5.328   2.976
 2693SOL     OW 8977   1.993   5.277   3.355
 2693SOL    HW1 8978   1.929   5.201   3.346
 2693SOL    HW2 8979   1.954   5.347   3.414
 2694SOL     OW 8980   3.637   5.815   2.981
 2694SOL    HW1 8981   3.563   5.770   2.931
 2694SOL    HW2 8982   3.660   5.902   2.936
 2695SOL     OW 8983   5.777   0.077   2.296
 2695SOL    HW1 8984   5.758   0.068   2.394
 2695SOL    HW2 8985   5.829   7.024   2.265
 2696SOL     OW 8986   4.004   3.151   5.540
 2696SOL    HW1 8987   4.078   3.203   5.583
 2696SOL    HW2 8988   4.043   3.086   5.475
 2697SOL     OW 8989   3.209   1.369   2.596
 2697SOL    HW1 8990   3.252   1.279   2.584
 2697SOL    HW2 8991   3.217   1.396   2.692
 2698SOL     OW 8992   2.062   6.393   0.239
 2698SOL    HW1 8993   2.006   6.351   0.311
 2698SOL    HW2 8994   2.102   6.478   0.274
 2699SOL     OW 8995   2.399   6.679   0.670
 2699SOL    HW1 8996   2.441   6.769   0.664
 2699SOL    HW2 8997   2.386   6.642   0.578
 2700SOL     OW 8998   2.493   3.591   0.001
 2700SOL    HW1 8999   2.452   3.520   0.058
 2700SOL    HW2 9000   2.556   3.549   6.962
 2701SOL     OW 9001   5.347   1.647   5.659
 2701SOL    HW1 9002   5.403   1.636   5.741
 2701SOL    HW2 9003   5.285   1.724   5.670
 2702SOL     OW 9004   0.512   2.440   3.618
 2702SOL    HW1 9005   0.454   2.520   3.625
 2702SOL    HW2 9006   0.460   2.358   3.641
 2703SOL     OW 9007   0.952   6.760   1.372
 2703SOL    HW1 9008   0.993   6.711   1.449
 2703SOL    HW2 9009   0.953   6.701   1.291
 2704SOL     OW 9010   0.087   5.584   1.516
 2704SOL    HW1 9011   0.027   5.559   1.591
 2704SOL    HW2 9012   0.082   5.514   1.444
 2705SOL     OW 9013   6.941   5.596   4.601
 2705SOL    HW1 9014   6.915   5.560   4.691
 2705SOL    HW2 9015   6.967   5.520   4.541
 2706SOL     OW 9016   6.848   5.588   1.954
 2706SOL    HW1 9017   6.876   5.558   2.045
 2706SOL    HW2 9018   6.756   5.553   1.935
 2707SOL     OW 9019   3.672   0.284   4.147
 2707SOL    HW1 9020   3.702   0.284   4.243
 2707SOL    HW2 9021   3.689   0.193   4.107
 2708SOL     OW 9022   0.418   2.574   0.047
 2708SOL    HW1 9023   0.424   2.562   6.974
 2708SOL    HW2 9024   0.508   2.562   0.087
 2709SOL     OW 9025   5.253   0.376   0.057
 2709SOL    HW1 9026   5.190   0.454   0.058
 2709SOL    HW2 9027   5.216   0.304   0.116
 2710SOL     OW 9028   0.643   3.985   3.680
 2710SOL    HW1 9029   0.693   3.943   3.604
 2710SOL    HW2 9030   0.571   3.922   3.712
 2711SOL     OW 9031   2.681   0.567   3.772
 2711SOL    HW1 9032   2.723   0.599   3.857
 2711SOL    HW2 9033   2.598   0.516   3.794
 2712SOL     OW 9034   3.164   4.518   1.180
 2712SOL    HW1 9035   3.264   4.517   1.181
 2712SOL    HW2 9036   3.129   4.476   1.263
 2713SOL     OW 9037   2.431   2.596   4.771
 2713SOL    HW1 9038   2.426   2.647   4.857
 2713SOL    HW2 9039   2.478   2.509   4.786
 2714SOL     OW 9040   3.643   2.687   0.268
 2714SOL    HW1 9041   3.676   2.726   0.354
 2714SOL    HW2 9042   3.685   2.597   0.255
 2715SOL     OW 9043   5.150   1.516   0.976
 2715SOL    HW1 9044   5.102   1.526   0.889
 2715SOL    HW2 9045   5.092   1.467   1.041
 2716SOL     OW 9046   5.193   3.719   2.192
 2716SOL    HW1 9047   5.109   3.665   2.180
 2716SOL    HW2 9048   5.199   3.750   2.287
 2717SOL     OW 9049   0.800   6.501   2.324
 2717SOL    HW1 9050   0.888   6.546   2.307
 2717SOL    HW2 9051   0.810   6.437   2.401
 2718SOL     OW 9052   1.442   1.906   4.904
 2718SOL    HW1 9053   1.459   1.885   4.808
 2718SOL    HW2 9054   1.525   1.940   4.947
 2719SOL     OW 9055   0.328   5.196   1.431
 2719SOL    HW1 9056   0.369   5.115   1.388
 2719SOL    HW2 9057   0.399   5.262   1.452
 2720SOL     OW 9058   2.085   5.636   2.075
 2720SOL    HW1 9059   2.042   5.671   1.993
 2720SOL    HW2 9060   2.084   5.707   2.146
 2721SOL     OW 9061   2.841   0.107   3.310
 2721SOL    HW1 9062   2.889   0.192   3.287
 2721SOL    HW2 9063   2.802   0.068   3.227
 2722SOL     OW 9064   6.638   5.401   0.732
 2722SOL    HW1 9065   6.651   5.412   0.634
 2722SOL    HW2 9066   6.630   5.491   0.775
 2723SOL     OW 9067   0.435   0.299   6.639
 2723SOL    HW1 9068   0.518   0.244   6.650
 2723SOL    HW2 9069   0.385   0.301   6.725
 2724SOL     OW 9070   1.933   6.920   6.985
 2724SOL    HW1 9071   1.938   6.824   7.013
 2724SOL    HW2 9072   1.884   6.927   6.898
 2725SOL     OW 9073   5.330   4.789   4.388
 2725SOL    HW1 9074   5.246   4.798   4.442
 2725SOL    HW2 9075   5.408   4.819   4.443
 2726SOL     OW 9076   0.243   2.680   0.793
 2726SOL    HW1 9077   0.267   2.650   0.700
 2726SOL    HW2 9078   0.296   2.627   0.859
 2727SOL     OW 9079   0.312   5.136   2.982
 2727SOL    HW1 9080   0.341   5.231   2.967
 2727SOL    HW2 9081   0.259   5.130   3.066
 2728SOL     OW 9082   4.983   6.811   5.329
 2728SOL    HW1 9083   4.978   6.713   5.347
 2728SOL    HW2 9084   4.962   6.829   5.233
 2729SOL     OW 9085   6.647   6.162   0.658
 2729SOL    HW1 9086   6.571   6.142   0.596
 2729SOL    HW2 9087   6.611   6.190   0.747
 2730SOL     OW 9088   1.900   5.727   1.577
 2730SOL    HW1 9089   1.967   5.776   1.632
 2730SOL    HW2 9090   1.868   5.646   1.627
 2731SOL     OW 9091   3.363   4.130   3.009
 2731SOL    HW1 9092   3.350   4.229   3.006
 2731SOL    HW2 9093   3.341   4.091   2.919
 2732SOL     OW 9094   5.486   2.189   1.658
 2732SOL    HW1 9095   5.475   2.116   1.726
 2732SOL    HW2 9096   5.410   2.254   1.667
 2733SOL     OW 9097   6.679   1.550   4.673
 2733SOL    HW1 9098   6.626   1.562   4.589
 2733SOL    HW2 9099   6.740   1.628   4.684
 2734SOL     OW 9100   3.127   6.206   1.256
 2734SOL    HW1 9101   3.111   6.109   1.236
 2734SOL    HW2 9102   3.139   6.219   1.354
 2735SOL     OW 9103   1.366   3.493   1.859
 2735SOL    HW1 9104   1.372   3.563   1.788
 2735SOL    HW2 9105   1.282   3.507   1.912
 2736SOL     OW 9106   5.934   6.880   5.021
 2736SOL    HW1 9107   5.984   6.954   5.065
 2736SOL    HW2 9108   5.999   6.809   4.991
 2737SOL     OW 9109   3.286   3.604   5.959
 2737SOL    HW1 9110   3.239   3.652   6.033
 2737SOL    HW2 9111   3.247   3.512   5.949
 2738SOL     OW 9112   5.037   6.380   1.668
 2738SOL    HW1 9113   5.037   6.305   1.734
 2738SOL    HW2 9114   5.051   6.467   1.716
 2739SOL     OW 9115   0.782   4.425   1.548
 2739SOL    HW1 9116   0.755   4.341   1.596
 2739SOL    HW2 9117   0.731   4.503   1.586
 2740SOL     OW 9118   0.409   3.833   2.461
 2740SOL    HW1 9119   0.360   3.799   2.381
 2740SOL    HW2 9120   0.367   3.918   2.493
 2741SOL     OW 9121   6.257   0.518   4.970
 2741SOL    HW1 9122   6.209   0.583   4.912
 2741SOL    HW2 9123   6.252   0.548   5.065
 2742SOL     OW 9124   1.930   5.688   6.842
 2742SOL    HW1 9125   1.968   5.772   6.803
 2742SOL    HW2 9126   1.987   5.657   6.917
 2743SOL     OW 9127   6.186   4.775   2.154
 2743SOL    HW1 9128   6.237   4.781   2.068
 2743SOL    HW2 9129   6.116   4.846   2.157
 2744SOL     OW 9130   5.142   2.208   6.528
 2744SOL    HW1 9131   5.059   2.249   6.489
 2744SOL    HW2 9132   5.198   2.171   6.455
 2745SOL     OW 9133   6.729   0.390   6.051
 2745SOL    HW1 9134   6.760   0.417   6.141
 2745SOL    HW2 9135   6.805   0.350   5.999
 2746SOL     OW 9136   2.855   1.570   4.329
 2746SOL    HW1 9137   2.790   1.498   4.353
 2746SOL    HW2 9138   2.923   1.579   4.402
 2747SOL     OW 9139   6.107   3.492   6.536
 2747SOL    HW1 9140   6.124   3.584   6.502
 2747SOL    HW2 9141   6.116   3.490   6.636
 2748SOL     OW 9142   4.616   1.498   1.662
 2748SOL    HW1 9143   4.538   1.512   1.724
 2748SOL    HW2 9144   4.682   1.572   1.674
 2749SOL     OW 9145   7.022   4.828   2.242
 2749SOL    HW1 9146   6.964   4.814   2.322
 2749SOL    HW2 9147   0.090   4.803   2.264
 2750SOL     OW 9148   0.518   5.250   0.811
 2750SOL    HW1 9149   0.577   5.194   0.753
 2750SOL    HW2 9150   0.557   5.342   0.819
 2751SOL     OW 9151   0.936   5.081   1.142
 2751SOL    HW1 9152   1.002   5.006   1.149
 2751SOL    HW2 9153   0.843   5.044   1.142
 2752SOL     OW 9154   4.208   5.707   5.812
 2752SOL    HW1 9155   4.164   5.634   5.760
 2752SOL    HW2 9156   4.209   5.790   5.757
 2753SOL     OW 9157   0.460   6.441   5.478
 2753SOL    HW1 9158   0.472   6.343   5.492
 2753SOL    HW2 9159   0.424   6.458   5.386
 2754SOL     OW 9160   0.369   0.260   2.144
 2754SOL    HW1 9161   0.293   0.271   2.209
 2754SOL    HW2 9162   0.454   0.288   2.188
 2755SOL     OW 9163   2.119   0.081   2.758
 2755SOL    HW1 9164   2.196   0.124   2.710
 2755SOL    HW2 9165   2.117   7.010   2.736
 2756SOL     OW 9166   5.991   4.556   6.894
 2756SOL    HW1 9167   5.940   4.470   6.893
 2756SOL    HW2 9168   5.953   4.619   6.826
 2757SOL     OW 9169   2.857   0.187   0.040
 2757SOL    HW1 9170   2.785   0.181   0.109
 2757SOL    HW2 9171   2.946   0.199   0.085
 2758SOL     OW 9172   3.961   6.147   4.054
 2758SOL    HW1 9173   3.916   6.065   4.091
 2758SOL    HW2 9174   3.910   6.178   3.974
 2759SOL     OW 9175   5.935   6.279   5.287
 2759SOL    HW1 9176   5.850   6.248   5.245
 2759SOL    HW2 9177   6.000   6.304   5.216
 2760SOL     OW 9178   1.216   5.678   2.077
 2760SOL    HW1 9179   1.231   5.668   1.979
 2760SOL    HW2 9180   1.296   5.646   2.127
 2761SOL     OW 9181   2.191   5.180   5.313
 2761SOL    HW1 9182   2.121   5.142   5.373
 2761SOL    HW2 9183   2.148   5.218   5.231
 2762SOL     OW 9184   1.649   0.765   5.183
 2762SOL    HW1 9185   1.713   0.841   5.195
 2762SOL    HW2 9186   1.571   0.778   5.243
 2763SOL     OW 9187   4.622   1.848   3.828
 2763SOL    HW1 9188   4.530   1.886   3.814
 2763SOL    HW2 9189   4.668   1.838   3.740
 2764SOL     OW 9190   6.511   0.812   1.637
 2764SOL    HW1 9191   6.610   0.827   1.637
 2764SOL    HW2 9192   6.470   0.859   1.559
 2765SOL     OW 9193   6.481   6.858   0.695
 2765SOL    HW1 9194   6.500   6.761   0.680
 2765SOL    HW2 9195   6.415   6.890   0.626
 2766SOL     OW 9196   5.132   2.834   0.683
 2766SOL    HW1 9197   5.128   2.877   0.773
 2766SOL    HW2 9198   5.224   2.846   0.644
 2767SOL     OW 9199   6.349   5.452   6.954
 2767SOL    HW1 9200   6.399   5.447   6.867
 2767SOL    HW2 9201   6.406   5.497   7.023
 2768SOL     OW 9202   4.509   0.505   1.289
 2768SOL    HW1 9203   4.550   0.449   1.217
 2768SOL    HW2 9204   4.433   0.455   1.330
 2769SOL     OW 9205   1.860   4.954   5.117
 2769SOL    HW1 9206   1.847   4.886   5.045
 2769SOL    HW2 9207   1.806   5.035   5.097
 2770SOL     OW 9208   3.889   5.768   6.115
 2770SOL    HW1 9209   3.963   5.757   6.181
 2770SOL    HW2 9210   3.924   5.814   6.033
 2771SOL     OW 9211   6.251   0.988   3.721
 2771SOL    HW1 9212   6.349   0.991   3.705
 2771SOL    HW2 9213   6.233   0.986   3.820
 2772SOL     OW 9214   3.695   1.919   0.837
 2772SOL    HW1 9215   3.600   1.937   0.813
 2772SOL    HW2 9216   3.708   1.937   0.935
 2773SOL     OW 9217   6.497   2.058   4.670
 2773SOL    HW1 9218   6.456   2.125   4.732
 2773SOL    HW2 9219   6.498   2.096   4.577
 2774SOL     OW 9220   5.618   2.593   2.831
 2774SOL    HW1 9221   5.708   2.626   2.860
 2774SOL    HW2 9222   5.603   2.614   2.735
 2775SOL     OW 9223   6.545   4.701   5.859
 2775SOL    HW1 9224   6.477   4.706   5.787
 2775SOL    HW2 9225   6.637   4.703   5.819
 2776SOL     OW 9226   4.604   4.692   5.690
 2776SOL    HW1 9227   4.692   4.644   5.687
 2776SOL    HW2 9228   4.545   4.657   5.617
 2777SOL     OW 9229   3.016   1.744   1.576
 2777SOL    HW1 9230   3.088   1.713   1.513
 2777SOL    HW2 9231   2.992   1.838   1.554
 2778SOL     OW 9232   1.690   0.006   5.495
 2778SOL    HW1 9233   1.776   6.981   5.485
 2778SOL    HW2 9234   1.707   0.090   5.547
 2779SOL     OW 9235   5.056   6.619   1.823
 2779SOL    HW1 9236   5.118   6.620   1.901
 2779SOL    HW2 9237   5.025   6.713   1.804
 2780SOL     OW 9238   0.332   6.556   0.007
 2780SOL    HW1 9239   0.370   6.474   6.990
 2780SOL    HW2 9240   0.279   6.607   6.966
 2781SOL     OW 9241   5.364   6.902   1.818
 2781SOL    HW1 9242   5.305   6.983   1.827
 2781SOL    HW2 9243   5.400   6.899   1.725
 2782SOL     OW 9244   4.988   2.111   5.922
 2782SOL    HW1 9245   5.080   2.120   5.958
 2782SOL    HW2 9246   4.948   2.202   5.908
 2783SOL     OW 9247   5.334   4.100   2.944
 2783SOL    HW1 9248   5.407   4.106   2.876
 2783SOL    HW2 9249   5.268   4.173   2.929
 2784SOL     OW 9250   3.323   1.395   2.326
 2784SOL    HW1 9251   3.259   1.391   2.249
 2784SOL    HW2 9252   3.272   1.400   2.412
 2785SOL     OW 9253   5.295   2.755   0.968
 2785SOL    HW1 9254   5.256   2.847   0.954
 2785SOL    HW2 9255   5.332   2.749   1.060
 2786SOL     OW 9256   4.967   0.079   2.665
 2786SOL    HW1 9257   5.003   0.067   2.573
 2786SOL    HW2 9258   4.871   0.105   2.661
 2787SOL     OW 9259   5.299   0.710   6.226
 2787SOL    HW1 9260   5.204   0.735   6.205
 2787SOL    HW2 9261   5.353   0.709   6.142
 2788SOL     OW 9262   1.901   5.680   5.922
 2788SOL    HW1 9263   1.947   5.764   5.894
 2788SOL    HW2 9264   1.852   5.641   5.844
 2789SOL     OW 9265   1.803   2.454   3.548
 2789SOL    HW1 9266   1.814   2.493   3.457
 2789SOL    HW2 9267   1.705   2.442   3.568
 2790SOL     OW 9268   4.072   5.774   2.282
 2790SOL    HW1 9269   4.010   5.716   2.230
 2790SOL    HW2 9270   4.022   5.855   2.314
 2791SOL     OW 9271   0.181   2.665   3.047
 2791SOL    HW1 9272   0.254   2.601   3.069
 2791SOL    HW2 9273   0.177   2.736   3.117
 2792SOL     OW 9274   1.481   6.800   4.102
 2792SOL    HW1 9275   1.504   6.798   4.005
 2792SOL    HW2 9276   1.565   6.812   4.155
 2793SOL     OW 9277   5.829   4.054   1.638
 2793SOL    HW1 9278   5.881   3.971   1.619
 2793SOL    HW2 9279   5.854   4.089   1.729
 2794SOL     OW 9280   0.185   2.427   6.598
 2794SOL    HW1 9281   0.261   2.485   6.568
 2794SOL    HW2 9282   0.195   2.336   6.558
 2795SOL     OW 9283   0.842   2.844   0.884
 2795SOL    HW1 9284   0.777   2.910   0.923
 2795SOL    HW2 9285   0.795   2.787   0.818
 2796SOL     OW 9286   0.281   6.273   3.497
 2796SOL    HW1 9287   0.275   6.224   3.584
 2796SOL    HW2 9288   0.293   6.371   3.515
 2797SOL     OW 9289   4.713   5.477   5.040
 2797SOL    HW1 9290   4.749   5.464   4.948
 2797SOL    HW2 9291   4.613   5.469   5.038
 2798SOL     OW 9292   0.541   5.384   2.022
 2798SOL    HW1 9293   0.604   5.316   2.059
 2798SOL    HW2 9294   0.502   5.351   1.936
 2799SOL     OW 9295   5.882   5.365   6.272
 2799SOL    HW1 9296   5.955   5.403   6.214
 2799SOL    HW2 9297   5.922   5.317   6.349
 2800SOL     OW 9298   4.593   6.346   6.936
 2800SOL    HW1 9299   4.547   6.286   7.002
 2800SOL    HW2 9300   4.527   6.410   6.896
 2801SOL     OW 9301   6.824   5.918   6.027
 2801SOL    HW1 9302   6.912   5.942   5.986
 2801SOL    HW2 9303   6.812   5.818   6.025
 2802SOL     OW 9304   5.660   6.520   5.251
 2802SOL    HW1 9305   5.712   6.606   5.254
 2802SOL    HW2 9306   5.608   6.510   5.336
 2803SOL     OW 9307   4.094   5.711   6.296
 2803SOL    HW1 9308   4.171   5.723   6.234
 2803SOL    HW2 9309   4.121   5.741   6.388
 2804SOL     OW 9310   0.288   4.442   5.590
 2804SOL    HW1 9311   0.242   4.460   5.503
 2804SOL    HW2 9312   0.306   4.344   5.600
 2805SOL     OW 9313   6.060   3.545   2.179
 2805SOL    HW1 9314   6.053   3.600   2.096
 2805SOL    HW2 9315   6.139   3.485   2.173
 2806SOL     OW 9316   0.113   3.979   5.971
 2806SOL    HW1 9317   0.086   3.945   5.881
 2806SOL    HW2 9318   0.170   4.060   5.961
 2807SOL     OW 9319   3.548   6.644   3.930
 2807SOL    HW1 9320   3.592   6.599   3.852
 2807SOL    HW2 9321   3.459   6.680   3.901
 2808SOL     OW 9322   6.383   4.776   1.963
 2808SOL    HW1 9323   6.449   4.702   1.974
 2808SOL    HW2 9324   6.430   4.858   1.930
 2809SOL     OW 9325   5.730   2.808   1.270
 2809SOL    HW1 9326   5.759   2.794   1.175
 2809SOL    HW2 9327   5.653   2.748   1.290
 2810SOL     OW 9328   2.911   5.320   3.242
 2810SOL    HW1 9329   2.986   5.268   3.283
 2810SOL    HW2 9330   2.856   5.260   3.184
 2811SOL     OW 9331   1.519   2.116   3.744
 2811SOL    HW1 9332   1.477   2.042   3.691
 2811SOL    HW2 9333   1.586   2.078   3.808
 2812SOL     OW 9334   5.361   2.750   6.966
 2812SOL    HW1 9335   5.454   2.771   6.936
 2812SOL    HW2 9336   5.357   2.656   6.997
 2813SOL     OW 9337   0.730   0.562   6.754
 2813SOL    HW1 9338   0.643   0.576   6.707
 2813SOL    HW2 9339   0.757   0.466   6.748
 2814SOL     OW 9340   4.147   3.712   5.537
 2814SOL    HW1 9341   4.202   3.773   5.480
 2814SOL    HW2 9342   4.068   3.678   5.485
 2815SOL     OW 9343   6.500   6.406   6.562
 2815SOL    HW1 9344   6.516   6.311   6.591
 2815SOL    HW2 9345   6.579   6.439   6.510
 2816SOL     OW 9346   6.252   5.170   3.529
 2816SOL    HW1 9347   6.167   5.194   3.576
 2816SOL    HW2 9348   6.253   5.213   3.439
 2817SOL     OW 9349   3.052   6.759   1.714
 2817SOL    HW1 9350   2.982   6.830   1.725
 2817SOL    HW2 9351   3.017   6.688   1.653
 2818SOL     OW 9352   0.428   0.204   1.876
 2818SOL    HW1 9353   0.519   0.216   1.917
 2818SOL    HW2 9354   0.358   0.232   1.942
 2819SOL     OW 9355   1.932   0.656   2.297
 2819SOL    HW1 9356   2.007   0.631   2.236
 2819SOL    HW2 9357   1.882   0.733   2.258
 2820SOL     OW 9358   0.749   2.417   3.218
 2820SOL    HW1 9359   0.817   2.347   3.196
 2820SOL    HW2 9360   0.747   2.486   3.145
 2821SOL     OW 9361   3.742   4.160   6.039
 2821SOL    HW1 9362   3.673   4.088   6.048
 2821SOL    HW2 9363   3.815   4.146   6.105
 2822SOL     OW 9364   4.005   2.488   0.633
 2822SOL    HW1 9365   4.009   2.588   0.627
 2822SOL    HW2 9366   4.093   2.449   0.606
 2823SOL     OW 9367   4.936   0.812   0.894
 2823SOL    HW1 9368   4.842   0.824   0.926
 2823SOL    HW2 9369   4.938   0.819   0.794
 2824SOL     OW 9370   2.009   1.543   3.875
 2824SOL    HW1 9371   2.080   1.514   3.812
 2824SOL    HW2 9372   1.966   1.463   3.917
 2825SOL     OW 9373   5.010   6.551   6.572
 2825SOL    HW1 9374   5.000   6.505   6.660
 2825SOL    HW2 9375   4.969   6.495   6.500
 2826SOL     OW 9376   4.832   1.153   6.826
 2826SOL    HW1 9377   4.753   1.114   6.874
 2826SOL    HW2 9378   4.911   1.093   6.840
 2827SOL     OW 9379   1.172   1.505   6.567
 2827SOL    HW1 9380   1.078   1.474   6.584
 2827SOL    HW2 9381   1.237   1.442   6.610
 2828SOL     OW 9382   2.578   1.525   0.457
 2828SOL    HW1 9383   2.492   1.576   0.456
 2828SOL    HW2 9384   2.636   1.557   0.382
 2829SOL     OW 9385   2.941   3.677   4.449
 2829SOL    HW1 9386   2.911   3.582   4.436
 2829SOL    HW2 9387   2.913   3.708   4.540
 2830SOL     OW 9388   2.532   3.725   5.810
 2830SOL    HW1 9389   2.463   3.759   5.746
 2830SOL    HW2 9390   2.612   3.785   5.806
 2831SOL     OW 9391   1.121   4.367   3.407
 2831SOL    HW1 9392   1.138   4.377   3.309
 2831SOL    HW2 9393   1.193   4.412   3.458
 2832SOL     OW 9394   0.988   3.159   1.986
 2832SOL    HW1 9395   1.071   3.194   1.943
 2832SOL    HW2 9396   0.945   3.092   1.925
 2833SOL     OW 9397   2.782   1.984   2.313
 2833SOL    HW1 9398   2.715   2.031   2.370
 2833SOL    HW2 9399   2.862   1.961   2.369
 2834SOL     OW 9400   4.515   6.274   6.020
 2834SOL    HW1 9401   4.460   6.207   5.970
 2834SOL    HW2 9402   4.598   6.295   5.969
 2835SOL     OW 9403   0.487   6.262   1.268
 2835SOL    HW1 9404   0.400   6.277   1.315
 2835SOL    HW2 9405   0.528   6.351   1.245
 2836SOL     OW 9406   0.261   6.054   2.318
 2836SOL    HW1 9407   0.320   6.005   2.382
 2836SOL    HW2 9408   0.311   6.132   2.280
 2837SOL     OW 9409   4.522   4.730   2.246
 2837SOL    HW1 9410   4.510   4.658   2.178
 2837SOL    HW2 9411   4.607   4.780   2.228
 2838SOL     OW 9412   3.648   3.756   0.579
 2838SOL    HW1 9413   3.719   3.824   0.560
 2838SOL    HW2 9414   3.687   3.664   0.568
 2839SOL     OW 9415   6.577   1.979   2.797
 2839SOL    HW1 9416   6.560   2.058   2.739
 2839SOL    HW2 9417   6.527   1.899   2.762
 2840SOL     OW 9418   1.599   6.978   2.340
 2840SOL    HW1 9419   1.517   6.922   2.342
 2840SOL    HW2 9420   1.606   7.024   2.252
 2841SOL     OW 9421   0.313   1.669   6.411
 2841SOL    HW1 9422   0.297   1.576   6.376
 2841SOL    HW2 9423   0.229   1.722   6.406
 2842SOL     OW 9424   0.186   4.344   3.738
 2842SOL    HW1 9425   0.113   4.279   3.764
 2842SOL    HW2 9426   0.188   4.418   3.805
 2843SOL     OW 9427   2.037   1.915   3.282
 2843SOL    HW1 9428   2.062   1.903   3.378
 2843SOL    HW2 9429   2.021   2.012   3.264
 2844SOL     OW 9430   6.124   5.164   6.663
 2844SOL    HW1 9431   6.180   5.188   6.584
 2844SOL    HW2 9432   6.107   5.066   6.663
 2845SOL     OW 9433   5.568   3.180   2.103
 2845SOL    HW1 9434   5.482   3.182   2.052
 2845SOL    HW2 9435   5.555   3.126   2.187
 2846SOL     OW 9436   4.379   1.082   0.454
 2846SOL    HW1 9437   4.393   1.024   0.373
 2846SOL    HW2 9438   4.293   1.133   0.444
 2847SOL     OW 9439   5.402   3.978   3.329
 2847SOL    HW1 9440   5.412   4.067   3.284
 2847SOL    HW2 9441   5.489   3.929   3.326
 2848SOL     OW 9442   2.016   3.003   5.556
 2848SOL    HW1 9443   1.956   2.923   5.561
 2848SOL    HW2 9444   2.043   3.018   5.460
 2849SOL     OW 9445   4.779   0.254   0.816
 2849SOL    HW1 9446   4.840   0.181   0.786
 2849SOL    HW2 9447   4.770   0.323   0.744
 2850SOL     OW 9448   1.926   6.849   2.487
 2850SOL    HW1 9449   1.925   6.805   2.577
 2850SOL    HW2 9450   1.906   6.781   2.417
 2851SOL     OW 9451   5.802   1.854   5.737
 2851SOL    HW1 9452   5.813   1.868   5.639
 2851SOL    HW2 9453   5.767   1.762   5.754
 2852SOL     OW 9454   6.602   4.070   6.676
 2852SOL    HW1 9455   6.560   3.980   6.682
 2852SOL    HW2 9456   6.673   4.069   6.606
 2853SOL     OW 9457   2.169   1.656   6.387
 2853SOL    HW1 9458   2.096   1.626   6.326
 2853SOL    HW2 9459   2.133   1.721   6.454
 2854SOL     OW 9460   4.848   0.824   5.195
 2854SOL    HW1 9461   4.763   0.852   5.239
 2854SOL    HW2 9462   4.878   0.896   5.132
 2855SOL     OW 9463   2.094   2.372   6.113
 2855SOL    HW1 9464   2.120   2.386   6.208
 2855SOL    HW2 9465   2.176   2.372   6.056
 2856SOL     OW 9466   0.323   3.742   5.379
 2856SOL    HW1 9467   0.325   3.660   5.436
 2856SOL    HW2 9468   0.417   3.767   5.355
 2857SOL     OW 9469   2.200   3.051   1.941
 2857SOL    HW1 9470   2.283   2.995   1.954
 2857SOL    HW2 9471   2.175   3.094   2.028
 2858SOL     OW 9472   4.680   4.484   1.860
 2858SOL    HW1 9473   4.655   4.388   1.873
 2858SOL    HW2 9474   4.601   4.535   1.825
 2859SOL     OW 9475   5.002   0.674   6.791
 2859SOL    HW1 9476   5.061   0.715   6.722
 2859SOL    HW2 9477   4.932   0.618   6.746
 2860SOL     OW 9478   2.286   2.282   1.611
 2860SOL    HW1 9479   2.270   2.349   1.539
 2860SOL    HW2 9480   2.279   2.190   1.573
 2861SOL     OW 9481   3.461   5.177   5.687
 2861SOL    HW1 9482   3.558   5.178   5.663
 2861SOL    HW2 9483   3.447   5.118   5.766
 2862SOL     OW 9484   4.866   2.187   2.467
 2862SOL    HW1 9485   4.956   2.163   2.430
 2862SOL    HW2 9486   4.816   2.105   2.491
 2863SOL     OW 9487   4.531   1.743   6.670
 2863SOL    HW1 9488   4.623   1.741   6.710
 2863SOL    HW2 9489   4.517   1.661   6.615
 2864SOL     OW 9490   4.207   1.705   2.153
 2864SOL    HW1 9491   4.167   1.795   2.167
 2864SOL    HW2 9492   4.150   1.652   2.091
 2865SOL     OW 9493   4.252   6.416   5.739
 2865SOL    HW1 9494   4.267   6.411   5.640
 2865SOL    HW2 9495   4.166   6.465   5.757
 2866SOL     OW 9496   6.117   5.419   6.423
 2866SOL    HW1 9497   6.117   5.518   6.435
 2866SOL    HW2 9498   6.192   5.378   6.475
 2867SOL     OW 9499   6.816   6.173   3.387
 2867SOL    HW1 9500   6.756   6.243   3.425
 2867SOL    HW2 9501   6.766   6.086   3.383
 2868SOL     OW 9502   2.088   1.438   5.162
 2868SOL    HW1 9503   2.045   1.520   5.199
 2868SOL    HW2 9504   2.021   1.385   5.110
 2869SOL     OW 9505   7.011   1.089   3.363
 2869SOL    HW1 9506   6.925   1.058   3.404
 2869SOL    HW2 9507   0.024   1.015   3.309
 2870SOL     OW 9508   0.618   1.626   5.582
 2870SOL    HW1 9509   0.560   1.653   5.505
 2870SOL    HW2 9510   0.681   1.554   5.552
 2871SOL     OW 9511   0.200   1.396   6.852
 2871SOL    HW1 9512   0.166   1.487   6.877
 2871SOL    HW2 9513   0.152   1.326   6.905
 2872SOL     OW 9514   2.741   2.195   2.153
 2872SOL    HW1 9515   2.774   2.115   2.204
 2872SOL    HW2 9516   2.819   2.244   2.114
 2873SOL     OW 9517   7.025   5.681   3.083
 2873SOL    HW1 9518   6.957   5.712   3.017
 2873SOL    HW2 9519   6.999   5.711   3.175
 2874SOL     OW 9520   5.292   0.004   3.340
 2874SOL    HW1 9521   5.222   0.056   3.388
 2874SOL    HW2 9522   5.338   0.062   3.273
 2875SOL     OW 9523   5.144   0.244   1.555
 2875SOL    HW1 9524   5.064   0.235   1.496
 2875SOL    HW2 9525   5.214   0.298   1.508
 2876SOL     OW 9526   2.046   6.886   2.157
 2876SOL    HW1 9527   1.953   6.857   2.177
 2876SOL    HW2 9528   2.102   6.878   2.240
 2877SOL     OW 9529   2.216   1.893   5.641
 2877SOL    HW1 9530   2.271   1.944   5.707
 2877SOL    HW2 9531   2.218   1.939   5.553
 2878SOL     OW 9532   3.993   4.283   5.230
 2878SOL    HW1 9533   3.956   4.233   5.153
 2878SOL    HW2 9534   4.086   4.250   5.251
 2879SOL     OW 9535   5.189   4.630   0.063
 2879SOL    HW1 9536   5.126   4.638   7.011
 2879SOL    HW2 9537   5.281   4.654   0.034
 2880SOL     OW 9538   0.293   1.321   2.759
 2880SOL    HW1 9539   0.283   1.315   2.660
 2880SOL    HW2 9540   0.358   1.392   2.782
 2881SOL     OW 9541   4.356   5.762   6.550
 2881SOL    HW1 9542   4.417   5.827   6.505
 2881SOL    HW2 9543   4.285   5.812   6.600
 2882SOL     OW 9544   0.178   5.322   2.227
 2882SOL    HW1 9545   0.235   5.244   2.198
 2882SOL    HW2 9546   0.235   5.404   2.230
 2883SOL     OW 9547   6.193   0.728   3.638
 2883SOL    HW1 9548   6.218   0.825   3.647
 2883SOL    HW2 9549   6.274   0.671   3.648
 2884SOL     OW 9550   1.056   6.947   3.042
 2884SOL    HW1 9551   0.975   6.921   2.990
 2884SOL    HW2 9552   1.078   0.017   3.022
 2885SOL     OW 9553   1.798   3.794   3.565
 2885SOL    HW1 9554   1.763   3.825   3.653
 2885SOL    HW2 9555   1.845   3.870   3.519
 2886SOL     OW 9556   0.643   3.559   6.256
 2886SOL    HW1 9557   0.586   3.542   6.337
 2886SOL    HW2 9558   0.698   3.641   6.272
 2887SOL     OW 9559   0.806   1.056   5.725
 2887SOL    HW1 9560   0.817   1.020   5.817
 2887SOL    HW2 9561   0.751   0.993   5.670
 2888SOL     OW 9562   6.899   4.554   6.684
 2888SOL    HW1 9563   6.908   4.455   6.677
 2888SOL    HW2 9564   6.806   4.581   6.658
 2889SOL     OW 9565   2.656   6.237   2.336
 2889SOL    HW1 9566   2.631   6.307   2.403
 2889SOL    HW2 9567   2.741   6.193   2.364
 2890SOL     OW 9568   1.323   6.312   0.338
 2890SOL    HW1 9569   1.339   6.230   0.283
 2890SOL    HW2 9570   1.227   6.317   0.364
 2891SOL     OW 9571   0.968   4.646   3.072
 2891SOL    HW1 9572   1.020   4.564   3.097
 2891SOL    HW2 9573   0.871   4.631   3.093
 2892SOL     OW 9574   6.476   3.445   0.555
 2892SOL    HW1 9575   6.529   3.522   0.590
 2892SOL    HW2 9576   6.490   3.365   0.613
 2893SOL     OW 9577   6.830   5.369   3.982
 2893SOL    HW1 9578   6.781   5.455   4.000
 2893SOL    HW2 9579   6.764   5.295   3.971
 2894SOL     OW 9580   0.621   3.467   2.166
 2894SOL    HW1 9581   0.574   3.553   2.148
 2894SOL    HW2 9582   0.675   3.441   2.086
 2895SOL     OW 9583   5.178   2.190   5.597
 2895SOL    HW1 9584   5.154   2.162   5.504
 2895SOL    HW2 9585   5.105   2.247   5.634
 2896SOL     OW 9586   4.706   6.153   5.150
 2896SOL    HW1 9587   4.734   6.150   5.246
 2896SOL    HW2 9588   4.750   6.079   5.100
 2897SOL     OW 9589   3.925   4.989   3.343
 2897SOL    HW1 9590   3.837   4.950   3.317
 2897SOL    HW2 9591   3.975   4.924   3.400
 2898SOL     OW 9592   4.453   4.569   4.258
 2898SOL    HW1 9593   4.495   4.586   4.347
 2898SOL    HW2 9594   4.372   4.627   4.248
 2899SOL     OW 9595   0.825   2.186   0.208
 2899SOL    HW1 9596   0.857   2.121   0.277
 2899SOL    HW2 9597   0.839   2.279   0.241
 2900SOL     OW 9598   2.096   4.008   5.624
 2900SOL    HW1 9599   2.095   4.071   5.546
 2900SOL    HW2 9600   2.175   3.947   5.616
 2901SOL     OW 9601   2.703   4.875   3.288
 2901SOL    HW1 9602   2.771   4.818   3.240
 2901SOL    HW2 9603   2.667   4.825   3.366
 2902SOL     OW 9604   5.768   5.432   3.332
 2902SOL    HW1 9605   5.850   5.446   3.277
 2902SOL    HW2 9606   5.723   5.520   3.348
 2903SOL     OW 9607   3.376   0.164   0.501
 2903SOL    HW1 9608   3.380   0.081   0.556
 2903SOL    HW2 9609   3.409   0.241   0.555
 2904SOL     OW 9610   2.315   4.713   4.488
 2904SOL    HW1 9611   2.405   4.669   4.484
 2904SOL    HW2 9612   2.244   4.643   4.478
 2905SOL     OW 9613   1.345   2.427   4.710
 2905SOL    HW1 9614   1.337   2.515   4.664
 2905SOL    HW2 9615   1.280   2.362   4.671
 2906SOL     OW 9616   4.697   4.910   2.149
 2906SOL    HW1 9617   4.650   4.998   2.152
 2906SOL    HW2 9618   4.785   4.917   2.196
 2907SOL     OW 9619   0.815   1.014   3.243
 2907SOL    HW1 9620   0.857   1.104   3.245
 2907SOL    HW2 9621   0.869   0.950   3.298
 2908SOL     OW 9622   5.461   6.532   3.396
 2908SOL    HW1 9623   5.449   6.440   3.360
 2908SOL    HW2 9624   5.558   6.549   3.412
 2909SOL     OW 9625   1.696   5.558   4.001
 2909SOL    HW1 9626   1.782   5.518   3.970
 2909SOL    HW2 9627   1.676   5.527   4.094
 2910SOL     OW 9628   4.747   0.864   4.534
 2910SOL    HW1 9629   4.821   0.803   4.504
 2910SOL    HW2 9630   4.729   0.849   4.631
 2911SOL     OW 9631   0.933   5.429   3.834
 2911SOL    HW1 9632   0.867   5.473   3.773
 2911SOL    HW2 9633   1.014   5.488   3.843
 2912SOL     OW 9634   5.381   0.466   6.741
 2912SOL    HW1 9635   5.429   0.396   6.689
 2912SOL    HW2 9636   5.398   0.454   6.839
 2913SOL     OW 9637   3.301   5.137   1.670
 2913SOL    HW1 9638   3.213   5.091   1.658
 2913SOL    HW2 9639   3.336   5.119   1.762
 2914SOL     OW 9640   6.445   6.445   6.127
 2914SOL    HW1 9641   6.461   6.535   6.168
 2914SOL    HW2 9642   6.462   6.450   6.029
 2915SOL     OW 9643   3.734   2.136   3.853
 2915SOL    HW1 9644   3.671   2.137   3.930
 2915SOL    HW2 9645   3.797   2.060   3.861
 2916SOL     OW 9646   0.583   5.798   0.563
 2916SOL    HW1 9647   0.562   5.890   0.596
 2916SOL    HW2 9648   0.593   5.799   0.464
 2917SOL     OW 9649   2.521   0.901   3.532
 2917SOL    HW1 9650   2.611   0.930   3.565
 2917SOL    HW2 9651   2.493   0.957   3.454
 2918SOL     OW 9652   5.966   4.744   5.112
 2918SOL    HW1 9653   5.900   4.729   5.186
 2918SOL    HW2 9654   6.027   4.665   5.106
 2919SOL     OW 9655   5.380   0.721   2.677
 2919SOL    HW1 9656   5.409   0.740   2.583
 2919SOL    HW2 9657   5.461   0.713   2.735
 2920SOL     OW 9658   3.208   1.279   1.673
 2920SOL    HW1 9659   3.236   1.304   1.580
 2920SOL    HW2 9660   3.283   1.230   1.718
 2921SOL     OW 9661   0.910   0.158   4.681
 2921SOL    HW1 9662   0.812   0.144   4.666
 2921SOL    HW2 9663   0.953   0.072   4.709
 2922SOL     OW 9664   4.706   0.384   1.496
 2922SOL    HW1 9665   4.645   0.436   1.438
 2922SOL    HW2 9666   4.655   0.345   1.572
 2923SOL     OW 9667   6.256   4.905   2.629
 2923SOL    HW1 9668   6.344   4.940   2.595
 2923SOL    HW2 9669   6.260   4.894   2.728
 2924SOL     OW 9670   6.352   2.056   5.883
 2924SOL    HW1 9671   6.315   2.148   5.890
 2924SOL    HW2 9672   6.308   1.998   5.952
 2925SOL     OW 9673   4.836   0.973   2.482
 2925SOL    HW1 9674   4.770   0.978   2.557
 2925SOL    HW2 9675   4.925   1.006   2.513
 2926SOL     OW 9676   6.556   1.616   4.449
 2926SOL    HW1 9677   6.496   1.555   4.398
 2926SOL    HW2 9678   6.613   1.668   4.385
 2927SOL     OW 9679   1.633   4.346   1.377
 2927SOL    HW1 9680   1.672   4.437   1.390
 2927SOL    HW2 9681   1.626   4.326   1.279
 2928SOL     OW 9682   0.044   0.558   6.827
 2928SOL    HW1 9683   0.135   0.552   6.868
 2928SOL    HW2 9684   7.002   0.525   6.892
 2929SOL     OW 9685   1.161   2.024   0.079
 2929SOL    HW1 9686   1.072   2.035   0.034
 2929SOL    HW2 9687   1.194   2.114   0.108
 2930SOL     OW 9688   5.464   0.418   5.361
 2930SOL    HW1 9689   5.541   0.439   5.300
 2930SOL    HW2 9690   5.401   0.356   5.315
 2931SOL     OW 9691   5.738   4.472   6.655
 2931SOL    HW1 9692   5.811   4.540   6.668
 2931SOL    HW2 9693   5.697   4.449   6.743
 2932SOL     OW 9694   1.235   5.402   1.817
 2932SOL    HW1 9695   1.264   5.497   1.811
 2932SOL    HW2 9696   1.136   5.398   1.831
 2933SOL     OW 9697   0.374   5.392   2.879
 2933SOL    HW1 9698   0.474   5.393   2.872
 2933SOL    HW2 9699   0.343   5.483   2.908
 2934SOL     OW 9700   4.765   1.821   0.588
 2934SOL    HW1 9701   4.730   1.758   0.657
 2934SOL    HW2 9702   4.706   1.901   0.583
 2935SOL     OW 9703   0.034   2.953   6.768
 2935SOL    HW1 9704   7.016   3.006   6.841
 2935SOL    HW2 9705   0.024   3.001   6.681
 2936SOL     OW 9706   4.336   6.716   0.241
 2936SOL    HW1 9707   4.417   6.670   0.276
 2936SOL    HW2 9708   4.257   6.655   0.247
 2937SOL     OW 9709   4.941   4.691   1.128
 2937SOL    HW1 9710   4.849   4.721   1.102
 2937SOL    HW2 9711   4.936   4.603   1.174
 2938SOL     OW 9712   4.690   5.037   6.651
 2938SOL    HW1 9713   4.758   5.056   6.722
 2938SOL    HW2 9714   4.733   4.985   6.577
 2939SOL     OW 9715   2.011   0.677   2.719
 2939SOL    HW1 9716   2.029   0.619   2.798
 2939SOL    HW2 9717   1.939   0.635   2.663
 2940SOL     OW 9718   5.903   4.837   5.841
 2940SOL    HW1 9719   5.904   4.935   5.820
 2940SOL    HW2 9720   5.874   4.823   5.935
 2941SOL     OW 9721   2.145   2.220   4.084
 2941SOL    HW1 9722   2.243   2.203   4.094
 2941SOL    HW2 9723   2.098   2.202   4.170
 2942SOL     OW 9724   3.007   2.267   0.472
 2942SOL    HW1 9725   3.024   2.273   0.374
 2942SOL    HW2 9726   2.915   2.301   0.492
 2943SOL     OW 9727   4.942   4.424   3.340
 2943SOL    HW1 9728   4.955   4.438   3.438
 2943SOL    HW2 9729   4.895   4.338   3.324
 2944SOL     OW 9730   2.872   6.095   4.266
 2944SOL    HW1 9731   2.954   6.043   4.291
 2944SOL    HW2 9732   2.848   6.157   4.340
 2945SOL     OW 9733   3.017   3.816   3.384
 2945SOL    HW1 9734   3.051   3.891   3.440
 2945SOL    HW2 9735   3.030   3.729   3.432
 2946SOL     OW 9736   1.165   4.699   5.785
 2946SOL    HW1 9737   1.094   4.759   5.821
 2946SOL    HW2 9738   1.136   4.604   5.793
 2947SOL     OW 9739   0.395   3.459   0.978
 2947SOL    HW1 9740   0.456   3.400   0.926
 2947SOL    HW2 9741   0.325   3.497   0.917
 2948SOL     OW 9742   0.886   3.565   5.140
 2948SOL    HW1 9743   0.969   3.556   5.085
 2948SOL    HW2 9744   0.816   3.503   5.104
 2949SOL     OW 9745   2.744   5.786   0.597
 2949SOL    HW1 9746   2.704   5.857   0.540
 2949SOL    HW2 9747   2.843   5.782   0.580
 2950SOL     OW 9748   5.434   4.669   4.157
 2950SOL    HW1 9749   5.398   4.705   4.243
 2950SOL    HW2 9750   5.493   4.590   4.176
 2951SOL     OW 9751   5.427   1.161   1.484
 2951SOL    HW1 9752   5.330   1.178   1.501
 2951SOL    HW2 9753   5.440   1.132   1.390
 2952SOL     OW 9754   0.192   4.375   4.852
 2952SOL    HW1 9755   0.142   4.301   4.808
 2952SOL    HW2 9756   0.290   4.358   4.842
 2953SOL     OW 9757   4.877   3.379   2.671
 2953SOL    HW1 9758   4.847   3.431   2.751
 2953SOL    HW2 9759   4.932   3.438   2.612
 2954SOL     OW 9760   0.946   5.360   1.846
 2954SOL    HW1 9761   0.888   5.279   1.857
 2954SOL    HW2 9762   0.891   5.443   1.857
 2955SOL     OW 9763   0.859   3.660   2.245
 2955SOL    HW1 9764   0.893   3.566   2.242
 2955SOL    HW2 9765   0.769   3.662   2.289
 2956SOL     OW 9766   5.568   5.821   2.756
 2956SOL    HW1 9767   5.600   5.910   2.788
 2956SOL    HW2 9768   5.468   5.823   2.750
 2957SOL     OW 9769   6.115   3.867   2.390
 2957SOL    HW1 9770   6.092   3.784   2.441
 2957SOL    HW2 9771   6.180   3.845   2.317
 2958SOL     OW 9772   2.734   4.675   3.481
 2958SOL    HW1 9773   2.807   4.734   3.515
 2958SOL    HW2 9774   2.683   4.638   3.559
 2959SOL     OW 9775   5.362   3.870   0.505
 2959SOL    HW1 9776   5.349   3.801   0.433
 2959SOL    HW2 9777   5.415   3.946   0.468
 2960SOL     OW 9778   3.193   1.370   0.316
 2960SOL    HW1 9779   3.267   1.336   0.373
 2960SOL    HW2 9780   3.109   1.319   0.337
 2961SOL     OW 9781   5.155   3.552   2.945
 2961SOL    HW1 9782   5.203   3.637   2.969
 2961SOL    HW2 9783   5.208   3.474   2.977
 2962SOL     OW 9784   4.707   6.809   3.032
 2962SOL    HW1 9785   4.800   6.772   3.038
 2962SOL    HW2 9786   4.658   6.789   3.116
 2963SOL     OW 9787   1.996   1.328   6.340
 2963SOL    HW1 9788   1.977   1.416   6.295
 2963SOL    HW2 9789   2.085   1.294   6.310
 2964SOL     OW 9790   0.716   0.599   3.605
 2964SOL    HW1 9791   0.673   0.689   3.599
 2964SOL    HW2 9792   0.786   0.601   3.677
 2965SOL     OW 9793   0.212   1.101   4.044
 2965SOL    HW1 9794   0.146   1.040   4.002
 2965SOL    HW2 9795   0.165   1.164   4.106
 2966SOL     OW 9796   4.867   5.791   3.365
 2966SOL    HW1 9797   4.840   5.862   3.430
 2966SOL    HW2 9798   4.799   5.786   3.291
 2967SOL     OW 9799   0.113   0.990   4.817
 2967SOL    HW1 9800   0.191   0.928   4.803
 2967SOL    HW2 9801   0.092   1.038   4.732
 2968SOL     OW 9802   1.074   2.506   0.119
 2968SOL    HW1 9803   0.991   2.531   0.168
 2968SOL    HW2 9804   1.133   2.587   0.111
 2969SOL     OW 9805   5.247   1.794   4.320
 2969SOL    HW1 9806   5.279   1.834   4.235
 2969SOL    HW2 9807   5.222   1.866   4.384
 2970SOL     OW 9808   1.982   4.307   5.539
 2970SOL    HW1 9809   2.051   4.279   5.472
 2970SOL    HW2 9810   1.916   4.234   5.551
 2971SOL     OW 9811   5.110   4.269   0.352
 2971SOL    HW1 9812   5.097   4.306   0.444
 2971SOL    HW2 9813   5.204   4.236   0.342
 2972SOL     OW 9814   6.332   4.675   6.379
 2972SOL    HW1 9815   6.376   4.699   6.466
 2972SOL    HW2 9816   6.257   4.612   6.397
 2973SOL     OW 9817   5.587   6.200   2.427
 2973SOL    HW1 9818   5.656   6.169   2.492
 2973SOL    HW2 9819   5.621   6.280   2.378
 2974SOL     OW 9820   1.058   4.708   3.356
 2974SOL    HW1 9821   1.010   4.791   3.326
 2974SOL    HW2 9822   0.992   4.635   3.371
 2975SOL     OW 9823   5.650   3.308   4.154
 2975SOL    HW1 9824   5.656   3.298   4.253
 2975SOL    HW2 9825   5.562   3.271   4.122
 2976SOL     OW 9826   4.419   1.785   2.936
 2976SOL    HW1 9827   4.362   1.718   2.984
 2976SOL    HW2 9828   4.360   1.846   2.882
 2977SOL     OW 9829   2.323   6.586   2.383
 2977SOL    HW1 9830   2.280   6.548   2.301
 2977SOL    HW2 9831   2.390   6.521   2.419
 2978SOL     OW 9832   4.857   4.401   0.260
 2978SOL    HW1 9833   4.927   4.330   0.259
 2978SOL    HW2 9834   4.901   4.491   0.263
 2979SOL     OW 9835   3.424   0.709   4.254
 2979SOL    HW1 9836   3.367   0.633   4.223
 2979SOL    HW2 9837   3.517   0.676   4.272
 2980SOL     OW 9838   1.320   5.775   4.901
 2980SOL    HW1 9839   1.229   5.777   4.859
 2980SOL    HW2 9840   1.328   5.851   4.965
 2981SOL     OW 9841   2.655   1.192   5.554
 2981SOL    HW1 9842   2.728   1.164   5.616
 2981SOL    HW2 9843   2.570   1.207   5.605
 2982SOL     OW 9844   3.412   4.989   2.768
 2982SOL    HW1 9845   3.379   4.964   2.677
 2982SOL    HW2 9846   3.473   5.068   2.762
 2983SOL     OW 9847   0.719   0.990   2.538
 2983SOL    HW1 9848   0.660   1.068   2.517
 2983SOL    HW2 9849   0.813   1.022   2.548
 2984SOL     OW 9850   5.128   4.826   0.515
 2984SOL    HW1 9851   5.175   4.783   0.592
 2984SOL    HW2 9852   5.194   4.850   0.445
 2985SOL     OW 9853   1.606   3.009   5.462
 2985SOL    HW1 9854   1.643   3.016   5.369
 2985SOL    HW2 9855   1.614   2.915   5.494
 2986SOL     OW 9856   3.583   4.020   3.376
 2986SOL    HW1 9857   3.652   3.959   3.415
 2986SOL    HW2 9858   3.564   4.094   3.441
 2987SOL     OW 9859   0.303   1.488   4.102
 2987SOL    HW1 9860   0.229   1.426   4.128
 2987SOL    HW2 9861   0.341   1.531   4.184
 2988SOL     OW 9862   1.477   5.598   2.841
 2988SOL    HW1 9863   1.557   5.544   2.818
 2988SOL    HW2 9864   1.451   5.655   2.763
 2989SOL     OW 9865   5.547   6.081   5.906
 2989SOL    HW1 9866   5.560   6.008   5.840
 2989SOL    HW2 9867   5.597   6.059   5.990
 2990SOL     OW 9868   3.449   1.972   4.974
 2990SOL    HW1 9869   3.423   2.016   4.888
 2990SOL    HW2 9870   3.401   2.015   5.050
 2991SOL     OW 9871   6.700   4.001   5.127
 2991SOL    HW1 9872   6.788   4.027   5.086
 2991SOL    HW2 9873   6.657   4.082   5.166
 2992SOL     OW 9874   2.664   6.431   4.640
 2992SOL    HW1 9875   2.689   6.526   4.623
 2992SOL    HW2 9876   2.624   6.392   4.557
 2993SOL     OW 9877   0.269   4.834   1.294
 2993SOL    HW1 9878   0.262   4.747   1.342
 2993SOL    HW2 9879   0.307   4.819   1.203
 2994SOL     OW 9880   4.015   6.322   6.804
 2994SOL    HW1 9881   3.993   6.405   6.752
 2994SOL    HW2 9882   4.030   6.246   6.742
 2995SOL     OW 9883   2.897   1.728   5.880
 2995SOL    HW1 9884   2.818   1.782   5.852
 2995SOL    HW2 9885   2.973   1.789   5.903
 2996SOL     OW 9886   1.500   1.487   4.084
 2996SOL    HW1 9887   1.486   1.438   3.998
 2996SOL    HW2 9888   1.450   1.441   4.157
 2997SOL     OW 9889   6.066   0.146   3.170
 2997SOL    HW1 9890   6.101   0.094   3.091
 2997SOL    HW2 9891   6.004   0.217   3.138
 2998SOL     OW 9892   4.621   7.012   3.878
 2998SOL    HW1 9893   4.667   0.000   3.790
 2998SOL    HW2 9894   4.585   6.920   3.882
 2999SOL     OW 9895   2.290   5.437   5.033
 2999SOL    HW1 9896   2.330   5.527   5.012
 2999SOL    HW2 9897   2.344   5.393   5.105
 3000SOL     OW 9898   2.873   3.925   6.245
 3000SOL    HW1 9899   2.895   4.022   6.241
 3000SOL    HW2 9900   2.855   3.898   6.340
 3001SOL     OW 9901   6.454   0.534   5.927
 3001SOL    HW1 9902   6.405   0.621   5.918
 3001SOL    HW2 9903   6.550   0.546   5.902
 3002SOL     OW 9904   3.416   1.469   7.013
 3002SOL    HW1 9905   3.447   1.470   6.918
 3002SOL    HW2 9906   3.360   1.550   0.004
 3003SOL     OW 9907   1.725   6.860   0.657
 3003SOL    HW1 9908   1.821   6.853   0.681
 3003SOL    HW2 9909   1.700   6.785   0.595
 3004SOL     OW 9910   0.827   4.342   3.139
 3004SOL    HW1 9911   0.871   4.386   3.217
 3004SOL    HW2 9912   0.741   4.388   3.120
 3005SOL     OW 9913   2.079   1.836   0.946
 3005SOL    HW1 9914   1.991   1.801   0.914
 3005SOL    HW2 9915   2.072   1.861   1.043
 3006SOL     OW 9916   5.786   1.791   5.029
 3006SOL    HW1 9917   5.717   1.724   5.056
 3006SOL    HW2 9918   5.827   1.764   4.941
 3007SOL     OW 9919   5.266   4.361   0.999
 3007SOL    HW1 9920   5.311   4.335   1.084
 3007SOL    HW2 9921   5.167   4.351   1.009
 3008SOL     OW 9922   3.836   2.004   6.174
 3008SOL    HW1 9923   3.739   2.007   6.148
 3008SOL    HW2 9924   3.866   1.909   6.179
 3009SOL     OW 9925   6.834   1.788   3.052
 3009SOL    HW1 9926   6.819   1.879   3.014
 3009SOL    HW2 9927   6.769   1.724   3.011
 3010SOL     OW 9928   3.611   5.913   3.327
 3010SOL    HW1 9929   3.661   5.868   3.253
 3010SOL    HW2 9930   3.513   5.897   3.315
 3011SOL     OW 9931   5.607   1.187   2.443
 3011SOL    HW1 9932   5.623   1.195   2.345
 3011SOL    HW2 9933   5.632   1.095   2.473
 3012SOL     OW 9934   1.839   3.409   5.998
 3012SOL    HW1 9935   1.858   3.339   5.929
 3012SOL    HW2 9936   1.747   3.445   5.985
 3013SOL     OW 9937   5.241   5.515   4.240
 3013SOL    HW1 9938   5.307   5.472   4.178
 3013SOL    HW2 9939   5.262   5.613   4.248
 3014SOL     OW 9940   4.379   2.237   4.660
 3014SOL    HW1 9941   4.434   2.315   4.690
 3014SOL    HW2 9942   4.413   2.204   4.572
 3015SOL     OW 9943   3.252   2.110   0.351
 3015SOL    HW1 9944   3.283   2.039   0.414
 3015SOL    HW2 9945   3.332   2.150   0.304
 3016SOL     OW 9946   1.902   6.561   3.799
 3016SOL    HW1 9947   1.943   6.563   3.708
 3016SOL    HW2 9948   1.938   6.636   3.854
 3017SOL     OW 9949   6.428   4.752   2.274
 3017SOL    HW1 9950   6.335   4.780   2.252
 3017SOL    HW2 9951   6.476   4.727   2.189
 3018SOL     OW 9952   3.107   6.681   5.891
 3018SOL    HW1 9953   3.153   6.593   5.896
 3018SOL    HW2 9954   3.151   6.746   5.953
 3019SOL     OW 9955   1.150   6.770   0.399
 3019SOL    HW1 9956   1.094   6.853   0.401
 3019SOL    HW2 9957   1.098   6.696   0.359
 3020SOL     OW 9958   3.890   2.717   1.465
 3020SOL    HW1 9959   3.813   2.655   1.449
 3020SOL    HW2 9960   3.924   2.705   1.558
 3021SOL     OW 9961   2.915   0.165   6.081
 3021SOL    HW1 9962   2.862   0.244   6.109
 3021SOL    HW2 9963   2.901   0.090   6.146
 3022SOL     OW 9964   3.778   5.244   4.685
 3022SOL    HW1 9965   3.780   5.165   4.624
 3022SOL    HW2 9966   3.807   5.326   4.635
 3023SOL     OW 9967   3.841   6.593   2.897
 3023SOL    HW1 9968   3.823   6.614   2.993
 3023SOL    HW2 9969   3.755   6.566   2.853
 3024SOL     OW 9970   4.838   0.411   4.678
 3024SOL    HW1 9971   4.812   0.404   4.774
 3024SOL    HW2 9972   4.893   0.331   4.653
 3025SOL     OW 9973   3.027   0.167   0.682
 3025SOL    HW1 9974   2.991   0.215   0.602
 3025SOL    HW2 9975   3.094   0.225   0.729
 3026SOL     OW 9976   1.331   0.724   6.825
 3026SOL    HW1 9977   1.407   0.788   6.831
 3026SOL    HW2 9978   1.363   0.632   6.848
 3027SOL     OW 9979   4.046   0.863   3.086
 3027SOL    HW1 9980   4.116   0.915   3.037
 3027SOL    HW2 9981   3.957   0.906   3.073
 3028SOL     OW 9982   1.238   3.604   5.819
 3028SOL    HW1 9983   1.153   3.552   5.804
 3028SOL    HW2 9984   1.312   3.563   5.766
 3029SOL     OW 9985   0.038   2.700   5.154
 3029SOL    HW1 9986   0.038   2.754   5.239
 3029SOL    HW2 9987   0.076   2.754   5.080
 3030SOL     OW 9988   7.003   3.324   0.178
 3030SOL    HW1 9989   6.909   3.291   0.176
 3030SOL    HW2 9990   7.004   3.423   0.165
 3031SOL     OW 9991   0.382   3.942   1.060
 3031SOL    HW1 9992   0.327   3.858   1.065
 3031SOL    HW2 9993   0.469   3.921   1.016
 3032SOL     OW 9994   2.791   6.450   0.794
 3032SOL    HW1 9995   2.748   6.403   0.717
 3032SOL    HW2 9996   2.857   6.389   0.838
 3033SOL     OW 9997   5.967   2.121   1.177
 3033SOL    HW1 9998   6.003   2.107   1.084
 3033SOL    HW2 9999   6.026   2.184   1.227
 3034SOL     OW10000   1.754   5.627   2.644
 3034SOL    HW110001   1.803   5.595   2.725
 3034SOL    HW210002   1.699   5.707   2.667
 3035SOL     OW10003   0.483   3.006   6.565
 3035SOL    HW110004   0.401   2.949   6.555
 3035SOL    HW210005   0.489   3.070   6.489
 3036SOL     OW10006   1.877   2.026   6.389
 3036SOL    HW110007   1.922   1.948   6.433
 3036SOL    HW210008   1.918   2.043   6.300
 3037SOL     OW10009   6.163   5.730   5.594
 3037SOL    HW110010   6.209   5.818   5.604
 3037SOL    HW210011   6.224   5.657   5.625
 3038SOL     OW10012   5.298   6.116   5.781
 3038SOL    HW110013   5.254   6.205   5.793
 3038SOL    HW210014   5.391   6.120   5.817
 3039SOL     OW10015   6.632   2.995   0.209
 3039SOL    HW110016   6.698   2.960   0.275
 3039SOL    HW210017   6.539   2.983   0.244
 3040SOL     OW10018   3.888   3.754   5.829
 3040SOL    HW110019   3.790   3.776   5.831
 3040SOL    HW210020   3.940   3.829   5.870
 3041SOL     OW10021   2.085   3.146   4.610
 3041SOL    HW110022   2.075   3.120   4.514
 3041SOL    HW210023   2.000   3.126   4.658
 3042SOL     OW10024   5.033   5.563   1.942
 3042SOL    HW110025   5.132   5.572   1.954
 3042SOL    HW210026   5.011   5.471   1.912
 3043SOL     OW10027   2.205   3.986   1.930
 3043SOL    HW110028   2.213   4.057   1.859
 3043SOL    HW210029   2.254   3.904   1.901
 3044SOL     OW10030   3.858   4.506   5.521
 3044SOL    HW110031   3.809   4.420   5.540
 3044SOL    HW210032   3.849   4.567   5.600
 3045SOL     OW10033   4.675   0.272   3.138
 3045SOL    HW110034   4.645   0.366   3.155
 3045SOL    HW210035   4.756   0.272   3.081
 3046SOL     OW10036   2.074   0.772   6.067
 3046SOL    HW110037   2.009   0.795   6.140
 3046SOL    HW210038   2.072   0.674   6.050
 3047SOL     OW10039   5.758   0.079   1.820
 3047SOL    HW110040   5.856   0.098   1.827
 3047SOL    HW210041   5.728   0.097   1.727
 3048SOL     OW10042   3.957   2.418   1.748
 3048SOL    HW110043   3.865   2.412   1.785
 3048SOL    HW210044   3.956   2.392   1.652
 3049SOL     OW10045   1.746   6.947   2.875
 3049SOL    HW110046   1.795   7.023   2.917
 3049SOL    HW210047   1.683   6.907   2.941
 3050SOL     OW10048   3.347   1.208   1.939
 3050SOL    HW110049   3.317   1.303   1.933
 3050SOL    HW210050   3.446   1.203   1.926
 3051SOL     OW10051   1.518   4.969   6.281
 3051SOL    HW110052   1.553   4.937   6.369
 3051SOL    HW210053   1.577   4.935   6.208
 3052SOL     OW10054   5.127   5.940   1.950
 3052SOL    HW110055   5.214   5.903   1.918
 3052SOL    HW210056   5.052   5.882   1.920
 3053SOL     OW10057   6.999   2.168   0.240
 3053SOL    HW110058   0.050   2.110   0.267
 3053SOL    HW210059   0.006   2.243   0.183
 3054SOL     OW10060   6.786   2.513   0.935
 3054SOL    HW110061   6.746   2.559   1.014
 3054SOL    HW210062   6.788   2.576   0.857
 3055SOL     OW10063   5.209   0.741   5.067
 3055SOL    HW110064   5.159   0.683   5.132
 3055SOL    HW210065   5.288   0.692   5.032
 3056SOL     OW10066   6.859   0.168   5.261
 3056SOL    HW110067   6.941   0.221   5.282
 3056SOL    HW210068   6.802   0.219   5.197
 3057SOL     OW10069   4.313   6.290   2.668
 3057SOL    HW110070   4.365   6.252   2.744
 3057SOL    HW210071   4.224   6.322   2.702
 3058SOL     OW10072   6.812   5.026   1.559
 3058SOL    HW110073   6.897   4.973   1.564
 3058SOL    HW210074   6.783   5.033   1.463
 3059SOL     OW10075   2.529   2.345   4.346
 3059SOL    HW110076   2.595   2.275   4.372
 3059SOL    HW210077   2.529   2.419   4.414
 3060SOL     OW10078   1.449   5.311   0.137
 3060SOL    HW110079   1.541   5.302   0.174
 3060SOL    HW210080   1.437   5.403   0.099
 3061SOL     OW10081   0.208   6.804   5.240
 3061SOL    HW110082   0.225   6.818   5.142
 3061SOL    HW210083   0.123   6.753   5.252
 3062SOL     OW10084   2.266   0.428   0.665
 3062SOL    HW110085   2.278   0.330   0.684
 3062SOL    HW210086   2.206   0.469   0.733
 3063SOL     OW10087   2.524   4.801   1.666
 3063SOL    HW110088   2.624   4.812   1.671
 3063SOL    HW210089   2.488   4.787   1.758
 3064SOL     OW10090   5.057   3.924   1.770
 3064SOL    HW110091   5.020   4.015   1.789
 3064SOL    HW210092   5.073   3.915   1.671
 3065SOL     OW10093   1.959   1.352   0.297
 3065SOL    HW110094   2.014   1.294   0.357
 3065SOL    HW210095   1.898   1.295   0.242
 3066SOL     OW10096   4.593   5.578   0.783
 3066SOL    HW110097   4.561   5.665   0.820
 3066SOL    HW210098   4.691   5.585   0.762
 3067SOL     OW10099   3.514   1.353   5.341
 3067SOL    HW110100   3.595   1.410   5.356
 3067SOL    HW210101   3.442   1.380   5.405
 3068SOL     OW10102   6.271   0.374   0.487
 3068SOL    HW110103   6.177   0.376   0.454
 3068SOL    HW210104   6.305   0.468   0.498
 3069SOL     OW10105   7.008   5.798   1.917
 3069SOL    HW110106   6.938   5.727   1.928
 3069SOL    HW210107   6.965   5.885   1.895
 3070SOL     OW10108   2.767   1.270   7.020
 3070SOL    HW110109   2.766   1.210   6.940
 3070SOL    HW210110   2.847   1.330   7.015
 3071SOL     OW10111   6.240   5.829   3.486
 3071SOL    HW110112   6.172   5.798   3.553
 3071SOL    HW210113   6.326   5.850   3.533
 3072SOL     OW10114   2.509   6.003   6.607
 3072SOL    HW110115   2.475   6.012   6.701
 3072SOL    HW210116   2.550   5.913   6.596
 3073SOL     OW10117   5.655   2.707   4.410
 3073SOL    HW110118   5.707   2.764   4.347
 3073SOL    HW210119   5.563   2.744   4.421
 3074SOL     OW10120   6.039   4.014   0.547
 3074SOL    HW110121   5.977   3.935   0.545
 3074SOL    HW210122   6.126   3.986   0.587
 3075SOL     OW10123   2.755   5.604   1.715
 3075SOL    HW110124   2.750   5.505   1.727
 3075SOL    HW210125   2.784   5.646   1.801
 3076SOL     OW10126   6.630   0.424   4.126
 3076SOL    HW110127   6.602   0.335   4.090
 3076SOL    HW210128   6.725   0.418   4.158
 3077SOL     OW10129   5.324   5.105   1.233
 3077SOL    HW110130   5.310   5.007   1.249
 3077SOL    HW210131   5.309   5.154   1.319
 3078SOL     OW10132   0.004   2.596   2.821
 3078SOL    HW110133   0.062   2.571   2.743
 3078SOL    HW210134   0.061   2.632   2.894
 3079SOL     OW10135   2.553   2.453   2.897
 3079SOL    HW110136   2.526   2.389   2.825
 3079SOL    HW210137   2.533   2.546   2.869
 3080SOL     OW10138   4.918   4.940   2.299
 3080SOL    HW110139   4.977   5.019   2.315
 3080SOL    HW210140   4.937   4.870   2.368
 3081SOL     OW10141   0.631   2.922   5.173
 3081SOL    HW110142   0.571   2.869   5.113
 3081SOL    HW210143   0.695   2.861   5.220
 3082SOL     OW10144   2.617   5.933   3.821
 3082SOL    HW110145   2.695   5.899   3.768
 3082SOL    HW210146   2.559   5.856   3.848
 3083SOL     OW10147   2.858   6.283   4.065
 3083SOL    HW110148   2.906   6.369   4.080
 3083SOL    HW210149   2.863   6.227   4.148
 3084SOL     OW10150   6.475   3.695   4.187
 3084SOL    HW110151   6.545   3.753   4.146
 3084SOL    HW210152   6.416   3.750   4.246
 3085SOL     OW10153   6.026   4.693   0.385
 3085SOL    HW110154   5.981   4.766   0.333
 3085SOL    HW210155   6.115   4.725   0.417
 3086SOL     OW10156   4.683   1.780   1.264
 3086SOL    HW110157   4.651   1.696   1.220
 3086SOL    HW210158   4.734   1.835   1.197
 3087SOL     OW10159   1.398   5.390   3.855
 3087SOL    HW110160   1.372   5.323   3.925
 3087SOL    HW210161   1.359   5.364   3.767
 3088SOL     OW10162   2.118   4.752   4.813
 3088SOL    HW110163   2.092   4.827   4.752
 3088SOL    HW210164   2.116   4.785   4.908
 3089SOL     OW10165   1.906   3.277   5.738
 3089SOL    HW110166   1.898   3.297   5.640
 3089SOL    HW210167   1.989   3.223   5.754
 3090SOL     OW10168   2.431   2.509   1.731
 3090SOL    HW110169   2.367   2.444   1.690
 3090SOL    HW210170   2.523   2.472   1.729
 3091SOL     OW10171   1.536   6.748   1.434
 3091SOL    HW110172   1.556   6.673   1.372
 3091SOL    HW210173   1.448   6.789   1.411
 3092SOL     OW10174   4.933   1.487   0.797
 3092SOL    HW110175   4.925   1.391   0.824
 3092SOL    HW210176   4.841   1.525   0.785
 3093SOL     OW10177   5.291   6.420   6.509
 3093SOL    HW110178   5.280   6.491   6.578
 3093SOL    HW210179   5.268   6.331   6.548
 3094SOL     OW10180   2.313   6.915   4.249
 3094SOL    HW110181   2.229   6.967   4.267
 3094SOL    HW210182   2.289   6.823   4.218
 3095SOL     OW10183   2.457   5.195   5.180
 3095SOL    HW110184   2.400   5.152   5.250
 3095SOL    HW210185   2.540   5.141   5.167
 3096SOL     OW10186   0.942   5.653   5.442
 3096SOL    HW110187   0.850   5.614   5.445
 3096SOL    HW210188   0.938   5.747   5.409
 3097SOL     OW10189   5.520   2.410   0.383
 3097SOL    HW110190   5.460   2.470   0.435
 3097SOL    HW210191   5.615   2.426   0.409
 3098SOL     OW10192   2.184   2.822   1.762
 3098SOL    HW110193   2.244   2.810   1.683
 3098SOL    HW210194   2.175   2.920   1.782
 3099SOL     OW10195   1.130   0.039   3.527
 3099SOL    HW110196   1.069   6.995   3.563
 3099SOL    HW210197   1.222   0.002   3.517
 3100SOL     OW10198   0.036   5.701   3.475
 3100SOL    HW110199   0.126   5.733   3.444
 3100SOL    HW210200   0.049   5.627   3.541
 3101SOL     OW10201   5.672   6.236   6.916
 3101SOL    HW110202   5.758   6.189   6.893
 3101SOL    HW210203   5.625   6.185   6.988
 3102SOL     OW10204   6.462   5.209   2.668
 3102SOL    HW110205   6.469   5.199   2.767
 3102SOL    HW210206   6.487   5.123   2.624
 3103SOL     OW10207   4.371   0.529   2.130
 3103SOL    HW110208   4.303   0.600   2.145
 3103SOL    HW210209   4.455   0.571   2.095
 3104SOL     OW10210   4.977   1.354   4.905
 3104SOL    HW110211   4.889   1.336   4.949
 3104SOL    HW210212   4.965   1.357   4.806
 3105SOL     OW10213   5.665   4.404   1.160
 3105SOL    HW110214   5.752   4.363   1.187
 3105SOL    HW210215   5.593   4.334   1.162
 3106SOL     OW10216   5.282   1.016   3.757
 3106SOL    HW110217   5.273   1.089   3.689
 3106SOL    HW210218   5.258   1.051   3.847
 3107SOL     OW10219   4.600   1.767   5.057
 3107SOL    HW110220   4.664   1.704   5.014
 3107SOL    HW210221   4.531   1.795   4.990
 3108SOL     OW10222   1.655   6.032   4.152
 3108SOL    HW110223   1.605   5.958   4.106
 3108SOL    HW210224   1.700   5.996   4.233
 3109SOL     OW10225   5.549   6.299   3.771
 3109SOL    HW110226   5.565   6.257   3.682
 3109SOL    HW210227   5.529   6.396   3.759
 3110SOL     OW10228   1.118   2.699   2.616
 3110SOL    HW110229   1.195   2.636   2.609
 3110SOL    HW210230   1.152   2.793   2.607
 3111SOL     OW10231   0.124   5.188   3.201
 3111SOL    HW110232   0.024   5.195   3.195
 3111SOL    HW210233   0.148   5.113   3.264
 3112SOL     OW10234   4.025   3.307   6.526
 3112SOL    HW110235   4.054   3.262   6.611
 3112SOL    HW210236   4.085   3.386   6.508
 3113SOL     OW10237   2.684   5.233   4.003
 3113SOL    HW110238   2.700   5.287   4.085
 3113SOL    HW210239   2.770   5.193   3.972
 3114SOL     OW10240   4.586   2.140   1.027
 3114SOL    HW110241   4.563   2.231   1.061
 3114SOL    HW210242   4.514   2.076   1.052
 3115SOL     OW10243   3.533   4.443   6.326
 3115SOL    HW110244   3.466   4.385   6.372
 3115SOL    HW210245   3.606   4.467   6.390
 3116SOL     OW10246   6.986   3.094   6.985
 3116SOL    HW110247   0.003   3.032   0.024
 3116SOL    HW210248   7.011   3.188   7.008
 3117SOL     OW10249   4.458   3.595   5.324
 3117SOL    HW110250   4.528   3.573   5.256
 3117SOL    HW210251   4.480   3.682   5.368
 3118SOL     OW10252   1.017   5.562   2.378
 3118SOL    HW110253   0.986   5.652   2.408
 3118SOL    HW210254   0.993   5.550   2.281
 3119SOL     OW10255   2.487   3.639   6.499
 3119SOL    HW110256   2.567   3.641   6.559
 3119SOL    HW210257   2.485   3.554   6.447
 3120SOL     OW10258   3.776   0.572   5.141
 3120SOL    HW110259   3.872   0.591   5.125
 3120SOL    HW210260   3.725   0.584   5.056
 3121SOL     OW10261   0.608   0.844   3.592
 3121SOL    HW110262   0.627   0.880   3.501
 3121SOL    HW210263   0.634   0.912   3.661
 3122SOL     OW10264   4.542   5.961   6.370
 3122SOL    HW110265   4.602   6.021   6.317
 3122SOL    HW210266   4.594   5.882   6.402
 3123SOL     OW10267   2.206   1.516   3.309
 3123SOL    HW110268   2.291   1.531   3.258
 3123SOL    HW210269   2.208   1.571   3.393
 3124SOL     OW10270   5.119   0.190   4.572
 3124SOL    HW110271   5.189   0.137   4.620
 3124SOL    HW210272   5.033   0.139   4.569
 3125SOL     OW10273   0.609   2.823   4.755
 3125SOL    HW110274   0.600   2.884   4.834
 3125SOL    HW210275   0.535   2.755   4.757
 3126SOL     OW10276   5.422   4.265   5.293
 3126SOL    HW110277   5.513   4.224   5.287
 3126SOL    HW210278   5.361   4.221   5.228
 3127SOL     OW10279   0.968   3.436   5.426
 3127SOL    HW110280   0.975   3.373   5.349
 3127SOL    HW210281   0.918   3.518   5.399
 3128SOL     OW10282   2.723   0.365   6.115
 3128SOL    HW110283   2.810   0.413   6.121
 3128SOL    HW210284   2.648   0.429   6.134
 3129SOL     OW10285   6.602   3.771   6.704
 3129SOL    HW110286   6.527   3.755   6.768
 3129SOL    HW210287   6.609   3.695   6.640
 3130SOL     OW10288   1.859   4.195   1.200
 3130SOL    HW110289   1.781   4.238   1.155
 3130SOL    HW210290   1.938   4.196   1.139
 3131SOL     OW10291   0.470   3.194   1.732
 3131SOL    HW110292   0.465   3.099   1.762
 3131SOL    HW210293   0.385   3.220   1.686
 3132SOL     OW10294   3.471   5.961   6.407
 3132SOL    HW110295   3.377   5.951   6.376
 3132SOL    HW210296   3.533   5.929   6.335
 3133SOL     OW10297   3.166   1.551   3.794
 3133SOL    HW110298   3.217   1.501   3.724
 3133SOL    HW210299   3.151   1.491   3.873
 3134SOL     OW10300   4.713   4.130   1.691
 3134SOL    HW110301   4.634   4.147   1.751
 3134SOL    HW210302   4.797   4.130   1.746
 3135SOL     OW10303   4.835   1.323   4.616
 3135SOL    HW110304   4.879   1.290   4.532
 3135SOL    HW210305   4.838   1.423   4.618
 3136SOL     OW10306   5.503   0.500   1.882
 3136SOL    HW110307   5.475   0.559   1.807
 3136SOL    HW210308   5.450   0.523   1.964
 3137SOL     OW10309   6.533   0.761   2.474
 3137SOL    HW110310   6.572   0.849   2.447
 3137SOL    HW210311   6.600   0.688   2.458
 3138SOL     OW10312   6.278   4.742   3.711
 3138SOL    HW110313   6.317   4.832   3.689
 3138SOL    HW210314   6.229   4.707   3.631
 3139SOL     OW10315   4.611   6.271   0.834
 3139SOL    HW110316   4.710   6.268   0.843
 3139SOL    HW210317   4.571   6.311   0.916
 3140SOL     OW10318   6.316   0.021   0.149
 3140SOL    HW110319   6.361   6.958   0.139
 3140SOL    HW210320   6.385   0.091   0.165
 3141SOL     OW10321   0.347   6.815   6.723
 3141SOL    HW110322   0.304   6.869   6.651
 3141SOL    HW210323   0.441   6.794   6.697
 3142SOL     OW10324   3.957   0.187   2.070
 3142SOL    HW110325   4.016   0.194   2.151
 3142SOL    HW210326   3.887   0.118   2.086
 3143SOL     OW10327   6.649   2.219   6.848
 3143SOL    HW110328   6.701   2.297   6.812
 3143SOL    HW210329   6.639   2.150   6.777
 3144SOL     OW10330   3.654   3.926   1.525
 3144SOL    HW110331   3.716   3.924   1.603
 3144SOL    HW210332   3.706   3.909   1.441
 3145SOL     OW10333   2.172   6.140   1.271
 3145SOL    HW110334   2.271   6.147   1.268
 3145SOL    HW210335   2.133   6.229   1.294
 3146SOL     OW10336   1.579   0.649   3.574
 3146SOL    HW110337   1.643   0.577   3.545
 3146SOL    HW210338   1.627   0.736   3.578
 3147SOL     OW10339   3.105   6.211   1.783
 3147SOL    HW110340   3.192   6.245   1.748
 3147SOL    HW210341   3.106   6.111   1.783
 3148SOL     OW10342   5.819   6.092   4.490
 3148SOL    HW110343   5.886   6.102   4.417
 3148SOL    HW210344   5.737   6.145   4.467
 3149SOL     OW10345   2.719   1.134   5.307
 3149SOL    HW110346   2.699   1.211   5.246
 3149SOL    HW210347   2.686   1.155   5.399
 3150SOL     OW10348   5.898   5.428   3.940
 3150SOL    HW110349   5.873   5.524   3.956
 3150SOL    HW210350   5.997   5.421   3.926
 3151SOL     OW10351   6.367   1.314   5.309
 3151SOL    HW110352   6.404   1.278   5.395
 3151SOL    HW210353   6.280   1.268   5.288
 3152SOL     OW10354   1.029   5.533   0.652
 3152SOL    HW110355   0.946   5.518   0.706
 3152SOL    HW210356   1.110   5.525   0.710
 3153SOL     OW10357   6.287   4.586   0.954
 3153SOL    HW110358   6.285   4.684   0.938
 3153SOL    HW210359   6.196   4.548   0.937
 3154SOL     OW10360   6.818   1.598   6.542
 3154SOL    HW110361   6.744   1.582   6.607
 3154SOL    HW210362   6.901   1.553   6.575
 3155SOL     OW10363   6.537   4.625   0.520
 3155SOL    HW110364   6.504   4.539   0.482
 3155SOL    HW210365   6.567   4.610   0.615
 3156SOL     OW10366   3.328   2.919   3.590
 3156SOL    HW110367   3.406   2.872   3.631
 3156SOL    HW210368   3.248   2.908   3.649
 3157SOL     OW10369   2.520   2.012   5.049
 3157SOL    HW110370   2.495   1.953   4.972
 3157SOL    HW210371   2.617   2.033   5.044
 3158SOL     OW10372   3.926   1.167   3.489
 3158SOL    HW110373   4.014   1.164   3.442
 3158SOL    HW210374   3.868   1.094   3.455
 3159SOL     OW10375   6.248   1.953   6.968
 3159SOL    HW110376   6.182   2.025   6.948
 3159SOL    HW210377   6.254   1.939   0.041
 3160SOL     OW10378   0.494   6.176   5.506
 3160SOL    HW110379   0.509   6.169   5.605
 3160SOL    HW210380   0.412   6.124   5.481
 3161SOL     OW10381   2.006   2.785   3.679
 3161SOL    HW110382   1.974   2.698   3.644
 3161SOL    HW210383   1.943   2.858   3.652
 3162SOL     OW10384   1.436   6.378   2.286
 3162SOL    HW110385   1.377   6.335   2.218
 3162SOL    HW210386   1.500   6.440   2.241
 3163SOL     OW10387   4.922   2.709   5.915
 3163SOL    HW110388   4.842   2.715   5.856
 3163SOL    HW210389   5.003   2.694   5.859
 3164SOL     OW10390   4.014   4.925   1.107
 3164SOL    HW110391   3.919   4.900   1.093
 3164SOL    HW210392   4.037   5.003   1.048
 3165SOL     OW10393   0.216   6.324   1.286
 3165SOL    HW110394   0.204   6.268   1.204
 3165SOL    HW210395   0.141   6.390   1.293
 3166SOL     OW10396   4.326   1.849   4.351
 3166SOL    HW110397   4.341   1.936   4.305
 3166SOL    HW210398   4.250   1.858   4.415
 3167SOL     OW10399   6.734   4.586   0.725
 3167SOL    HW110400   6.767   4.498   0.689
 3167SOL    HW210401   6.680   4.569   0.808
 3168SOL     OW10402   4.492   2.409   6.454
 3168SOL    HW110403   4.508   2.414   6.553
 3168SOL    HW210404   4.538   2.329   6.417
 3169SOL     OW10405   2.070   3.577   4.269
 3169SOL    HW110406   1.975   3.577   4.302
 3169SOL    HW210407   2.131   3.601   4.344
 3170SOL     OW10408   4.283   6.834   1.755
 3170SOL    HW110409   4.370   6.866   1.793
 3170SOL    HW210410   4.265   6.882   1.668
 3171SOL     OW10411   0.235   0.708   1.477
 3171SOL    HW110412   0.154   0.741   1.427
 3171SOL    HW210413   0.205   0.660   1.559
 3172SOL     OW10414   6.782   5.381   0.279
 3172SOL    HW110415   6.758   5.436   0.359
 3172SOL    HW210416   6.841   5.305   0.306
 3173SOL     OW10417   3.061   2.050   0.665
 3173SOL    HW110418   3.071   2.106   0.584
 3173SOL    HW210419   3.098   1.958   0.648
 3174SOL     OW10420   2.695   2.087   0.301
 3174SOL    HW110421   2.761   2.108   0.374
 3174SOL    HW210422   2.741   2.095   0.213
 3175SOL     OW10423   6.790   0.755   1.056
 3175SOL    HW110424   6.784   0.694   1.135
 3175SOL    HW210425   6.790   0.700   0.972
 3176SOL     OW10426   1.584   4.280   4.725
 3176SOL    HW110427   1.499   4.328   4.748
 3176SOL    HW210428   1.661   4.321   4.774
 3177SOL     OW10429   4.845   3.746   4.239
 3177SOL    HW110430   4.826   3.832   4.285
 3177SOL    HW210431   4.840   3.671   4.305
 3178SOL     OW10432   6.370   2.093   0.536
 3178SOL    HW110433   6.310   2.037   0.478
 3178SOL    HW210434   6.447   2.038   0.568
 3179SOL     OW10435   0.997   3.001   2.207
 3179SOL    HW110436   1.005   3.057   2.124
 3179SOL    HW210437   0.906   2.960   2.210
 3180SOL     OW10438   4.389   1.271   0.089
 3180SOL    HW110439   4.488   1.273   0.101
 3180SOL    HW210440   4.365   1.314   0.002
 3181SOL     OW10441   6.727   1.326   2.935
 3181SOL    HW110442   6.670   1.388   2.882
 3181SOL    HW210443   6.802   1.377   2.977
 3182SOL     OW10444   3.315   0.366   5.543
 3182SOL    HW110445   3.400   0.412   5.518
 3182SOL    HW210446   3.237   0.424   5.516
 3183SOL     OW10447   4.086   4.254   1.614
 3183SOL    HW110448   4.029   4.197   1.673
 3183SOL    HW210449   4.182   4.245   1.640
 3184SOL     OW10450   0.964   2.570   2.971
 3184SOL    HW110451   0.950   2.651   2.914
 3184SOL    HW210452   0.881   2.551   3.024
 3185SOL     OW10453   5.916   5.936   0.250
 3185SOL    HW110454   5.864   5.884   0.181
 3185SOL    HW210455   5.882   5.912   0.341
 3186SOL     OW10456   3.775   1.284   2.147
 3186SOL    HW110457   3.732   1.343   2.215
 3186SOL    HW210458   3.872   1.273   2.169
 3187SOL     OW10459   4.521   4.262   0.034
 3187SOL    HW110460   4.547   4.352   0.068
 3187SOL    HW210461   4.459   4.219   0.099
 3188SOL     OW10462   2.128   0.365   4.356
 3188SOL    HW110463   2.052   0.427   4.370
 3188SOL    HW210464   2.192   0.372   4.433
 3189SOL     OW10465   1.530   1.250   1.543
 3189SOL    HW110466   1.522   1.153   1.520
 3189SOL    HW210467   1.587   1.261   1.624
 3190SOL     OW10468   6.721   6.431   0.601
 3190SOL    HW110469   6.699   6.333   0.607
 3190SOL    HW210470   6.819   6.442   0.588
 3191SOL     OW10471   5.489   6.859   1.074
 3191SOL    HW110472   5.446   6.867   0.984
 3191SOL    HW210473   5.535   6.771   1.081
 3192SOL     OW10474   0.125   2.570   2.031
 3192SOL    HW110475   0.077   2.656   2.048
 3192SOL    HW210476   0.159   2.569   1.937
 3193SOL     OW10477   3.714   1.455   6.647
 3193SOL    HW110478   3.726   1.458   6.548
 3193SOL    HW210479   3.802   1.436   6.691
 3194SOL     OW10480   1.128   2.805   6.523
 3194SOL    HW110481   1.158   2.897   6.500
 3194SOL    HW210482   1.184   2.738   6.474
 3195SOL     OW10483   2.554   2.451   3.384
 3195SOL    HW110484   2.514   2.444   3.292
 3195SOL    HW210485   2.621   2.377   3.397
 3196SOL     OW10486   0.765   1.555   6.091
 3196SOL    HW110487   0.838   1.524   6.151
 3196SOL    HW210488   0.728   1.478   6.039
 3197SOL     OW10489   2.121   6.520   3.089
 3197SOL    HW110490   2.023   6.505   3.102
 3197SOL    HW210491   2.168   6.509   3.176
 3198SOL     OW10492   5.619   2.498   5.102
 3198SOL    HW110493   5.585   2.572   5.160
 3198SOL    HW210494   5.626   2.414   5.155
 3199SOL     OW10495   4.910   3.126   2.635
 3199SOL    HW110496   4.906   3.106   2.537
 3199SOL    HW210497   4.894   3.223   2.650
 3200SOL     OW10498   6.469   2.820   2.052
 3200SOL    HW110499   6.416   2.750   2.004
 3200SOL    HW210500   6.559   2.783   2.076
 3201SOL     OW10501   5.557   4.829   4.591
 3201SOL    HW110502   5.625   4.762   4.560
 3201SOL    HW210503   5.602   4.899   4.646
 3202SOL     OW10504   7.011   4.854   1.598
 3202SOL    HW110505   7.003   4.762   1.560
 3202SOL    HW210506   0.026   4.849   1.689
 3203SOL     OW10507   6.307   2.336   6.707
 3203SOL    HW110508   6.355   2.303   6.625
 3203SOL    HW210509   6.359   2.312   6.788
 3204SOL     OW10510   5.037   6.199   1.869
 3204SOL    HW110511   5.074   6.106   1.877
 3204SOL    HW210512   4.953   6.206   1.921
 3205SOL     OW10513   6.825   3.339   5.982
 3205SOL    HW110514   6.805   3.434   6.003
 3205SOL    HW210515   6.897   3.306   6.043
 3206SOL     OW10516   0.574   6.645   5.773
 3206SOL    HW110517   0.550   6.643   5.676
 3206SOL    HW210518   0.491   6.650   5.828
 3207SOL     OW10519   0.728   0.539   5.403
 3207SOL    HW110520   0.803   0.555   5.339
 3207SOL    HW210521   0.751   0.460   5.461
 3208SOL     OW10522   5.576   6.952   5.660
 3208SOL    HW110523   5.522   6.916   5.736
 3208SOL    HW210524   5.590   6.880   5.592
 3209SOL     OW10525   4.207   5.766   2.950
 3209SOL    HW110526   4.164   5.825   3.019
 3209SOL    HW210527   4.140   5.701   2.915
 3210SOL     OW10528   1.000   4.209   1.097
 3210SOL    HW110529   0.931   4.189   1.027
 3210SOL    HW210530   0.956   4.248   1.178
 3211SOL     OW10531   1.582   3.902   0.981
 3211SOL    HW110532   1.522   3.982   0.976
 3211SOL    HW210533   1.654   3.909   0.912
 3212SOL     OW10534   2.997   0.747   0.924
 3212SOL    HW110535   3.064   0.740   0.850
 3212SOL    HW210536   3.044   0.747   1.012
 3213SOL     OW10537   0.529   6.037   1.914
 3213SOL    HW110538   0.501   6.056   2.008
 3213SOL    HW210539   0.464   6.079   1.851
 3214SOL     OW10540   4.875   5.562   0.849
 3214SOL    HW110541   4.915   5.644   0.890
 3214SOL    HW210542   4.914   5.548   0.758
 3215SOL     OW10543   0.049   2.822   0.987
 3215SOL    HW110544   6.981   2.809   1.015
 3215SOL    HW210545   0.066   2.772   0.902
 3216SOL     OW10546   5.597   5.322   1.018
 3216SOL    HW110547   5.666   5.364   0.958
 3216SOL    HW210548   5.613   5.351   1.112
 3217SOL     OW10549   0.049   6.126   2.664
 3217SOL    HW110550   0.139   6.166   2.648
 3217SOL    HW210551   0.023   6.071   2.585
 3218SOL     OW10552   4.028   0.709   3.651
 3218SOL    HW110553   3.949   0.738   3.703
 3218SOL    HW210554   4.088   0.653   3.709
 3219SOL     OW10555   0.269   1.551   3.130
 3219SOL    HW110556   0.189   1.611   3.137
 3219SOL    HW210557   0.316   1.549   3.219
 3220SOL     OW10558   6.460   6.119   5.755
 3220SOL    HW110559   6.532   6.186   5.739
 3220SOL    HW210560   6.493   6.050   5.820
 3221SOL     OW10561   3.457   0.102   1.162
 3221SOL    HW110562   3.396   0.057   1.096
 3221SOL    HW210563   3.404   0.131   1.241
 3222SOL     OW10564   4.395   1.781   2.505
 3222SOL    HW110565   4.440   1.724   2.436
 3222SOL    HW210566   4.335   1.847   2.460
 3223SOL     OW10567   1.804   5.136   6.638
 3223SOL    HW110568   1.720   5.137   6.692
 3223SOL    HW210569   1.798   5.205   6.566
 3224SOL     OW10570   4.378   3.688   7.004
 3224SOL    HW110571   4.366   3.591   7.024
 3224SOL    HW210572   4.443   3.728   0.043
 3225SOL     OW10573   4.822   3.425   6.266
 3225SOL    HW110574   4.766   3.343   6.255
 3225SOL    HW210575   4.766   3.506   6.255
 3226SOL     OW10576   2.163   1.467   4.485
 3226SOL    HW110577   2.230   1.512   4.426
 3226SOL    HW210578   2.076   1.517   4.481
 3227SOL     OW10579   4.171   2.274   0.522
 3227SOL    HW110580   4.178   2.216   0.603
 3227SOL    HW210581   4.123   2.224   0.449
 3228SOL     OW10582   6.358   4.104   2.778
 3228SOL    HW110583   6.411   4.121   2.694
 3228SOL    HW210584   6.269   4.065   2.753
 3229SOL     OW10585   4.128   0.711   5.583
 3229SOL    HW110586   4.168   0.726   5.492
 3229SOL    HW210587   4.135   0.614   5.607
 3230SOL     OW10588   1.542   3.140   4.446
 3230SOL    HW110589   1.597   3.194   4.509
 3230SOL    HW210590   1.532   3.189   4.360
 3231SOL     OW10591   2.472   1.054   1.757
 3231SOL    HW110592   2.387   1.004   1.769
 3231SOL    HW210593   2.543   0.993   1.722
 3232SOL     OW10594   4.554   5.466   5.519
 3232SOL    HW110595   4.554   5.433   5.424
 3232SOL    HW210596   4.628   5.533   5.530
 3233SOL     OW10597   0.932   2.730   1.967
 3233SOL    HW110598   0.975   2.647   1.932
 3233SOL    HW210599   0.906   2.716   2.063
 3234SOL     OW10600   0.317   1.954   0.096
 3234SOL    HW110601   0.253   1.973   0.021
 3234SOL    HW210602   0.380   1.881   0.069
 3235SOL     OW10603   5.504   0.639   1.247
 3235SOL    HW110604   5.561   0.631   1.329
 3235SOL    HW210605   5.411   0.610   1.269
 3236SOL     OW10606   0.944   3.678   1.020
 3236SOL    HW110607   1.010   3.750   1.039
 3236SOL    HW210608   0.953   3.605   1.088
 3237SOL     OW10609   5.048   1.367   4.251
 3237SOL    HW110610   5.061   1.268   4.257
 3237SOL    HW210611   4.961   1.392   4.293
 3238SOL     OW10612   0.267   4.916   0.978
 3238SOL    HW110613   0.357   4.959   0.984
 3238SOL    HW210614   0.202   4.969   1.033
 3239SOL     OW10615   6.248   1.546   1.811
 3239SOL    HW110616   6.313   1.572   1.740
 3239SOL    HW210617   6.297   1.512   1.891
 3240SOL     OW10618   1.132   0.306   6.309
 3240SOL    HW110619   1.122   0.256   6.223
 3240SOL    HW210620   1.205   0.264   6.364
 3241SOL     OW10621   4.483   1.686   5.480
 3241SOL    HW110622   4.473   1.781   5.507
 3241SOL    HW210623   4.392   1.646   5.468
 3242SOL     OW10624   3.320   4.695   0.177
 3242SOL    HW110625   3.364   4.615   0.135
 3242SOL    HW210626   3.327   4.687   0.276
 3243SOL     OW10627   4.981   4.634   0.279
 3243SOL    HW110628   4.957   4.727   0.307
 3243SOL    HW210629   5.067   4.636   0.228
 3244SOL     OW10630   4.983   5.826   6.914
 3244SOL    HW110631   4.918   5.791   6.847
 3244SOL    HW210632   4.953   5.800   7.006
 3245SOL     OW10633   4.797   3.088   5.170
 3245SOL    HW110634   4.750   3.003   5.148
 3245SOL    HW210635   4.766   3.121   5.259
 3246SOL     OW10636   4.893   0.559   2.815
 3246SOL    HW110637   4.983   0.520   2.835
 3246SOL    HW210638   4.902   0.628   2.743
 3247SOL     OW10639   5.669   4.809   2.571
 3247SOL    HW110640   5.648   4.818   2.669
 3247SOL    HW210641   5.735   4.734   2.558
 3248SOL     OW10642   6.698   3.595   1.404
 3248SOL    HW110643   6.744   3.522   1.454
 3248SOL    HW210644   6.606   3.608   1.441
 3249SOL     OW10645   3.744   3.042   4.438
 3249SOL    HW110646   3.825   3.076   4.485
 3249SOL    HW210647   3.694   2.979   4.498
 3250SOL     OW10648   6.306   6.454   2.118
 3250SOL    HW110649   6.234   6.523   2.113
 3250SOL    HW210650   6.274   6.377   2.173
 3251SOL     OW10651   3.123   0.785   2.420
 3251SOL    HW110652   3.200   0.756   2.476
 3251SOL    HW210653   3.053   0.714   2.421
 3252SOL     OW10654   2.486   1.974   2.426
 3252SOL    HW110655   2.400   1.969   2.477
 3252SOL    HW210656   2.506   1.885   2.385
 3253SOL     OW10657   5.719   2.912   2.021
 3253SOL    HW110658   5.682   2.942   2.109
 3253SOL    HW210659   5.730   2.992   1.962
 3254SOL     OW10660   5.015   5.152   5.350
 3254SOL    HW110661   4.973   5.241   5.335
 3254SOL    HW210662   5.003   5.124   5.445
 3255SOL     OW10663   5.343   5.457   1.047
 3255SOL    HW110664   5.424   5.399   1.034
 3255SOL    HW210665   5.294   5.427   1.129
 3256SOL     OW10666   4.357   0.470   0.210
 3256SOL    HW110667   4.270   0.477   0.161
 3256SOL    HW210668   4.342   0.425   0.299
 3257SOL     OW10669   1.308   1.513   1.268
 3257SOL    HW110670   1.340   1.604   1.243
 3257SOL    HW210671   1.237   1.521   1.338
 3258SOL     OW10672   4.072   4.689   1.858
 3258SOL    HW110673   4.058   4.676   1.956
 3258SOL    HW210674   4.014   4.625   1.808
 3259SOL     OW10675   4.529   5.072   3.677
 3259SOL    HW110676   4.465   5.021   3.618
 3259SOL    HW210677   4.583   5.007   3.730
 3260SOL     OW10678   1.556   1.927   0.853
 3260SOL    HW110679   1.628   1.865   0.885
 3260SOL    HW210680   1.467   1.880   0.856
 3261SOL     OW10681   4.870   6.609   0.589
 3261SOL    HW110682   4.891   6.547   0.514
 3261SOL    HW210683   4.776   6.643   0.579
 3262SOL     OW10684   3.387   2.092   2.830
 3262SOL    HW110685   3.480   2.101   2.865
 3262SOL    HW210686   3.322   2.096   2.906
 3263SOL     OW10687   2.968   1.196   3.556
 3263SOL    HW110688   3.038   1.189   3.486
 3263SOL    HW210689   2.952   1.292   3.579
 3264SOL     OW10690   1.543   4.532   0.905
 3264SOL    HW110691   1.496   4.444   0.902
 3264SOL    HW210692   1.520   4.580   0.990
 3265SOL     OW10693   4.653   1.040   6.238
 3265SOL    HW110694   4.710   0.995   6.169
 3265SOL    HW210695   4.615   0.971   6.300
 3266SOL     OW10696   0.522   3.333   0.258
 3266SOL    HW110697   0.576   3.264   0.307
 3266SOL    HW210698   0.497   3.407   0.320
 3267SOL     OW10699   3.361   1.223   0.125
 3267SOL    HW110700   3.314   1.272   0.198
 3267SOL    HW210701   3.396   1.288   0.058
 3268SOL     OW10702   1.193   4.106   0.246
 3268SOL    HW110703   1.284   4.122   0.286
 3268SOL    HW210704   1.202   4.046   0.167
 3269SOL     OW10705   4.275   4.621   2.323
 3269SOL    HW110706   4.325   4.561   2.386
 3269SOL    HW210707   4.335   4.697   2.296
 3270SOL     OW10708   0.840   4.402   4.440
 3270SOL    HW110709   0.775   4.357   4.502
 3270SOL    HW210710   0.933   4.380   4.468
 3271SOL     OW10711   5.479   3.556   2.355
 3271SOL    HW110712   5.527   3.633   2.396
 3271SOL    HW210713   5.544   3.499   2.305
 3272SOL     OW10714   3.162   4.451   6.593
 3272SOL    HW110715   3.243   4.406   6.555
 3272SOL    HW210716   3.099   4.474   6.519
 3273SOL     OW10717   0.808   6.284   1.623
 3273SOL    HW110718   0.821   6.322   1.532
 3273SOL    HW210719   0.733   6.333   1.669
 3274SOL     OW10720   4.484   1.198   1.834
 3274SOL    HW110721   4.581   1.198   1.858
 3274SOL    HW210722   4.474   1.231   1.740
 3275SOL     OW10723   0.289   1.128   6.562
 3275SOL    HW110724   0.260   1.086   6.648
 3275SOL    HW210725   0.340   1.212   6.581
 3276SOL     OW10726   3.229   6.039   0.195
 3276SOL    HW110727   3.220   5.992   0.107
 3276SOL    HW210728   3.140   6.043   0.240
 3277SOL     OW10729   4.745   6.959   0.598
 3277SOL    HW110730   4.689   6.884   0.631
 3277SOL    HW210731   4.789   6.933   0.511
 3278SOL     OW10732   0.174   1.164   6.056
 3278SOL    HW110733   0.093   1.210   6.019
 3278SOL    HW210734   0.250   1.229   6.060
 3279SOL     OW10735   5.923   1.359   0.441
 3279SOL    HW110736   5.903   1.315   0.528
 3279SOL    HW210737   5.955   1.290   0.376
 3280SOL     OW10738   3.963   5.224   4.971
 3280SOL    HW110739   3.892   5.227   4.900
 3280SOL    HW210740   4.052   5.245   4.930
 3281SOL     OW10741   2.188   5.173   1.566
 3281SOL    HW110742   2.284   5.184   1.591
 3281SOL    HW210743   2.171   5.219   1.479
 3282SOL     OW10744   0.814   5.005   5.251
 3282SOL    HW110745   0.892   5.067   5.263
 3282SOL    HW210746   0.739   5.034   5.310
 3283SOL     OW10747   4.284   1.432   0.733
 3283SOL    HW110748   4.295   1.332   0.730
 3283SOL    HW210749   4.270   1.460   0.828
 3284SOL     OW10750   5.918   5.577   6.945
 3284SOL    HW110751   6.009   5.579   6.986
 3284SOL    HW210752   5.920   5.520   6.862
 3285SOL     OW10753   4.634   2.684   3.912
 3285SOL    HW110754   4.625   2.742   3.993
 3285SOL    HW210755   4.659   2.591   3.941
 3286SOL     OW10756   4.157   3.547   2.463
 3286SOL    HW110757   4.254   3.567   2.473
 3286SOL    HW210758   4.141   3.449   2.478
 3287SOL     OW10759   1.549   6.815   6.723
 3287SOL    HW110760   1.491   6.887   6.684
 3287SOL    HW210761   1.645   6.843   6.716
 3288SOL     OW10762   0.704   5.414   6.314
 3288SOL    HW110763   0.748   5.331   6.348
 3288SOL    HW210764   0.768   5.462   6.253
 3289SOL     OW10765   3.005   6.789   5.448
 3289SOL    HW110766   3.047   6.880   5.447
 3289SOL    HW210767   2.906   6.798   5.446
 3290SOL     OW10768   0.352   6.879   1.762
 3290SOL    HW110769   0.351   6.942   1.840
 3290SOL    HW210770   0.377   6.788   1.793
 3291SOL     OW10771   1.146   5.822   0.873
 3291SOL    HW110772   1.124   5.822   0.970
 3291SOL    HW210773   1.226   5.880   0.857
 3292SOL     OW10774   0.720   0.757   0.934
 3292SOL    HW110775   0.739   0.751   1.032
 3292SOL    HW210776   0.707   0.853   0.908
 3293SOL     OW10777   0.447   3.847   3.348
 3293SOL    HW110778   0.459   3.845   3.249
 3293SOL    HW210779   0.537   3.847   3.392
 3294SOL     OW10780   6.998   1.439   5.955
 3294SOL    HW110781   6.953   1.425   6.043
 3294SOL    HW210782   6.931   1.468   5.887
 3295SOL     OW10783   1.577   3.346   1.778
 3295SOL    HW110784   1.498   3.402   1.803
 3295SOL    HW210785   1.660   3.401   1.784
 3296SOL     OW10786   1.670   6.187   2.192
 3296SOL    HW110787   1.693   6.272   2.238
 3296SOL    HW210788   1.612   6.131   2.251
 3297SOL     OW10789   3.223   0.582   4.602
 3297SOL    HW110790   3.311   0.605   4.561
 3297SOL    HW210791   3.157   0.655   4.584
 3298SOL     OW10792   5.737   1.559   4.411
 3298SOL    HW110793   5.774   1.651   4.396
 3298SOL    HW210794   5.788   1.513   4.484
 3299SOL     OW10795   2.438   5.754   3.912
 3299SOL    HW110796   2.434   5.713   4.003
 3299SOL    HW210797   2.346   5.783   3.885
 3300SOL     OW10798   0.713   0.840   5.578
 3300SOL    HW110799   0.777   0.765   5.596
 3300SOL    HW210800   0.632   0.804   5.531
 3301SOL     OW10801   2.096   3.167   3.410
 3301SOL    HW110802   2.113   3.073   3.379
 3301SOL    HW210803   2.037   3.213   3.343
 3302SOL     OW10804   0.641   5.288   5.682
 3302SOL    HW110805   0.672   5.299   5.588
 3302SOL    HW210806   0.703   5.336   5.743
 3303SOL     OW10807   3.242   3.059   1.935
 3303SOL    HW110808   3.339   3.069   1.958
 3303SOL    HW210809   3.227   2.970   1.893
 3304SOL     OW10810   1.479   5.384   4.241
 3304SOL    HW110811   1.463   5.315   4.170
 3304SOL    HW210812   1.424   5.362   4.321
 3305SOL     OW10813   2.186   1.235   3.374
 3305SOL    HW110814   2.179   1.330   3.343
 3305SOL    HW210815   2.220   1.233   3.467
 3306SOL     OW10816   2.081   5.631   4.746
 3306SOL    HW110817   2.000   5.589   4.789
 3306SOL    HW210818   2.086   5.603   4.650
 3307SOL     OW10819   6.747   5.699   6.854
 3307SOL    HW110820   6.715   5.723   6.945
 3307SOL    HW210821   6.729   5.774   6.790
 3308SOL     OW10822   4.242   5.915   6.920
 3308SOL    HW110823   4.192   5.860   6.987
 3308SOL    HW210824   4.336   5.926   6.951
 3309SOL     OW10825   0.165   5.577   2.578
 3309SOL    HW110826   0.074   5.536   2.576
 3309SOL    HW210827   0.229   5.515   2.623
 3310SOL     OW10828   0.399   3.998   5.040
 3310SOL    HW110829   0.302   3.992   5.061
 3310SOL    HW210830   0.418   4.085   4.993
 3311SOL     OW10831   2.136   3.956   1.586
 3311SOL    HW110832   2.172   4.032   1.532
 3311SOL    HW210833   2.049   3.982   1.628
 3312SOL     OW10834   4.163   4.421   5.914
 3312SOL    HW110835   4.144   4.448   5.819
 3312SOL    HW210836   4.186   4.502   5.968
 3313SOL     OW10837   0.311   5.408   3.195
 3313SOL    HW110838   0.324   5.446   3.286
 3313SOL    HW210839   0.238   5.340   3.198
 3314SOL     OW10840   2.652   1.635   4.105
 3314SOL    HW110841   2.708   1.625   4.022
 3314SOL    HW210842   2.711   1.627   4.186
 3315SOL     OW10843   5.810   2.945   4.293
 3315SOL    HW110844   5.807   2.999   4.208
 3315SOL    HW210845   5.904   2.916   4.310
 3316SOL     OW10846   4.707   1.700   6.361
 3316SOL    HW110847   4.783   1.764   6.372
 3316SOL    HW210848   4.699   1.673   6.265
 3317SOL     OW10849   4.716   3.492   1.758
 3317SOL    HW110850   4.684   3.398   1.744
 3317SOL    HW210851   4.806   3.490   1.801
 3318SOL     OW10852   3.368   0.524   0.383
 3318SOL    HW110853   3.451   0.490   0.338
 3318SOL    HW210854   3.368   0.624   0.380
 3319SOL     OW10855   6.248   0.336   3.988
 3319SOL    HW110856   6.328   0.277   4.006
 3319SOL    HW210857   6.274   0.431   4.001
 3320SOL     OW10858   5.744   1.090   5.578
 3320SOL    HW110859   5.800   1.169   5.605
 3320SOL    HW210860   5.799   1.007   5.584
 3321SOL     OW10861   3.782   1.987   1.090
 3321SOL    HW110862   3.837   2.063   1.054
 3321SOL    HW210863   3.736   2.016   1.174
 3322SOL     OW10864   5.371   3.465   1.170
 3322SOL    HW110865   5.334   3.470   1.077
 3322SOL    HW210866   5.318   3.524   1.230
 3323SOL     OW10867   2.880   3.634   6.472
 3323SOL    HW110868   2.805   3.605   6.531
 3323SOL    HW210869   2.910   3.726   6.499
 3324SOL     OW10870   1.575   3.865   6.373
 3324SOL    HW110871   1.544   3.866   6.277
 3324SOL    HW210872   1.604   3.957   6.399
 3325SOL     OW10873   2.099   3.152   6.520
 3325SOL    HW110874   2.196   3.140   6.496
 3325SOL    HW210875   2.091   3.182   6.614
 3326SOL     OW10876   5.388   2.114   2.255
 3326SOL    HW110877   5.397   2.015   2.243
 3326SOL    HW210878   5.402   2.160   2.168
 3327SOL     OW10879   3.089   5.934   1.770
 3327SOL    HW110880   3.013   5.936   1.704
 3327SOL    HW210881   3.083   5.851   1.825
 3328SOL     OW10882   4.349   1.841   1.595
 3328SOL    HW110883   4.394   1.800   1.515
 3328SOL    HW210884   4.250   1.826   1.588
 3329SOL     OW10885   5.542   0.498   4.937
 3329SOL    HW110886   5.538   0.586   4.984
 3329SOL    HW210887   5.558   0.513   4.839
 3330SOL     OW10888   6.137   6.075   1.481
 3330SOL    HW110889   6.228   6.093   1.518
 3330SOL    HW210890   6.080   6.156   1.492
 3331SOL     OW10891   0.930   4.009   1.418
 3331SOL    HW110892   0.972   3.932   1.467
 3331SOL    HW210893   0.998   4.081   1.404
 3332SOL     OW10894   7.009   4.722   0.360
 3332SOL    HW110895   6.913   4.730   0.387
 3332SOL    HW210896   0.022   4.813   0.348
 3333SOL     OW10897   2.979   4.473   6.393
 3333SOL    HW110898   2.888   4.509   6.375
 3333SOL    HW210899   2.977   4.373   6.389
 3334SOL     OW10900   2.216   4.194   1.403
 3334SOL    HW110901   2.224   4.290   1.377
 3334SOL    HW210902   2.295   4.168   1.459
 3335SOL     OW10903   4.762   0.036   5.649
 3335SOL    HW110904   4.772   0.024   5.748
 3335SOL    HW210905   4.665   0.051   5.627
 3336SOL     OW10906   1.868   6.460   4.506
 3336SOL    HW110907   1.842   6.474   4.410
 3336SOL    HW210908   1.904   6.367   4.517
 3337SOL     OW10909   3.150   3.974   1.463
 3337SOL    HW110910   3.061   3.959   1.504
 3337SOL    HW210911   3.164   3.908   1.389
 3338SOL     OW10912   6.795   2.534   1.889
 3338SOL    HW110913   6.867   2.590   1.847
 3338SOL    HW210914   6.746   2.485   1.817
 3339SOL     OW10915   0.806   6.971   6.511
 3339SOL    HW110916   0.897   6.932   6.525
 3339SOL    HW210917   0.804   7.021   6.425
 3340SOL     OW10918   3.614   2.040   3.208
 3340SOL    HW110919   3.714   2.032   3.217
 3340SOL    HW210920   3.577   2.083   3.289
 3341SOL     OW10921   1.245   4.038   3.953
 3341SOL    HW110922   1.276   4.081   3.868
 3341SOL    HW210923   1.259   3.939   3.947
 3342SOL     OW10924   1.004   6.576   3.604
 3342SOL    HW110925   0.916   6.573   3.557
 3342SOL    HW210926   1.077   6.546   3.543
 3343SOL     OW10927   5.243   3.741   0.073
 3343SOL    HW110928   5.232   3.642   0.086
 3343SOL    HW210929   5.185   3.771   7.024
 3344SOL     OW10930   5.488   3.761   3.569
 3344SOL    HW110931   5.531   3.671   3.560
 3344SOL    HW210932   5.559   3.831   3.577
 3345SOL     OW10933   1.219   3.359   6.060
 3345SOL    HW110934   1.195   3.308   5.977
 3345SOL    HW210935   1.154   3.434   6.073
 3346SOL     OW10936   0.899   0.965   0.190
 3346SOL    HW110937   0.913   1.025   0.268
 3346SOL    HW210938   0.932   0.873   0.211
 3347SOL     OW10939   1.356   2.525   4.970
 3347SOL    HW110940   1.363   2.466   4.889
 3347SOL    HW210941   1.367   2.620   4.943
 3348SOL     OW10942   4.164   3.447   4.197
 3348SOL    HW110943   4.179   3.543   4.171
 3348SOL    HW210944   4.124   3.398   4.120
 3349SOL     OW10945   2.046   5.074   3.064
 3349SOL    HW110946   1.979   5.086   3.137
 3349SOL    HW210947   2.019   5.131   2.986
 3350SOL     OW10948   6.825   2.119   5.840
 3350SOL    HW110949   6.750   2.111   5.905
 3350SOL    HW210950   6.800   2.074   5.754
 3351SOL     OW10951   5.023   0.934   3.107
 3351SOL    HW110952   4.961   0.997   3.061
 3351SOL    HW210953   5.046   0.970   3.198
 3352SOL     OW10954   6.791   3.195   1.285
 3352SOL    HW110955   6.740   3.110   1.272
 3352SOL    HW210956   6.883   3.185   1.246
 3353SOL     OW10957   2.892   5.698   1.207
 3353SOL    HW110958   2.896   5.702   1.307
 3353SOL    HW210959   2.918   5.786   1.169
 3354SOL     OW10960   4.438   2.741   5.589
 3354SOL    HW110961   4.365   2.719   5.653
 3354SOL    HW210962   4.451   2.840   5.584
 3355SOL     OW10963   1.929   1.601   6.236
 3355SOL    HW110964   1.941   1.672   6.167
 3355SOL    HW210965   1.843   1.552   6.219
 3356SOL     OW10966   0.856   5.657   6.190
 3356SOL    HW110967   0.818   5.740   6.148
 3356SOL    HW210968   0.929   5.682   6.253
 3357SOL     OW10969   2.138   3.569   1.709
 3357SOL    HW110970   2.054   3.534   1.751
 3357SOL    HW210971   2.217   3.520   1.745
 3358SOL     OW10972   4.439   1.542   1.872
 3358SOL    HW110973   4.357   1.600   1.876
 3358SOL    HW210974   4.428   1.465   1.934
 3359SOL     OW10975   0.810   6.416   2.948
 3359SOL    HW110976   0.742   6.465   3.003
 3359SOL    HW210977   0.803   6.446   2.852
 3360SOL     OW10978   1.614   0.861   0.224
 3360SOL    HW110979   1.630   0.818   0.135
 3360SOL    HW210980   1.617   0.791   0.296
 3361SOL     OW10981   6.757   5.161   4.297
 3361SOL    HW110982   6.817   5.144   4.218
 3361SOL    HW210983   6.812   5.190   4.375
 3362SOL     OW10984   3.264   1.411   2.889
 3362SOL    HW110985   3.274   1.493   2.946
 3362SOL    HW210986   3.202   1.347   2.933
 3363SOL     OW10987   0.042   1.428   2.220
 3363SOL    HW110988   0.090   1.503   2.174
 3363SOL    HW210989   0.077   1.341   2.187
 3364SOL     OW10990   1.793   5.018   3.581
 3364SOL    HW110991   1.747   5.021   3.670
 3364SOL    HW210992   1.891   5.007   3.595
 3365SOL     OW10993   0.355   2.415   4.764
 3365SOL    HW110994   0.404   2.500   4.746
 3365SOL    HW210995   0.355   2.359   4.682
 3366SOL     OW10996   5.353   5.040   4.124
 3366SOL    HW110997   5.305   5.128   4.130
 3366SOL    HW210998   5.349   4.994   4.213
 3367SOL     OW10999   3.833   3.019   2.555
 3367SOL    HW111000   3.749   2.973   2.583
 3367SOL    HW211001   3.866   3.076   2.630
 3368SOL     OW11002   0.448   5.782   6.775
 3368SOL    HW111003   0.364   5.834   6.789
 3368SOL    HW211004   0.433   5.686   6.798
 3369SOL     OW11005   3.746   1.783   0.247
 3369SOL    HW111006   3.674   1.727   0.206
 3369SOL    HW211007   3.835   1.746   0.222
 3370SOL     OW11008   0.018   6.496   1.316
 3370SOL    HW111009   6.975   6.483   1.245
 3370SOL    HW211010   6.999   6.514   1.403
 3371SOL     OW11011   1.982   3.212   1.560
 3371SOL    HW111012   2.080   3.230   1.558
 3371SOL    HW211013   1.966   3.114   1.553
 3372SOL     OW11014   6.699   2.069   0.070
 3372SOL    HW111015   6.685   2.118   7.010
 3372SOL    HW211016   6.764   1.995   0.056
 3373SOL     OW11017   0.661   1.570   3.650
 3373SOL    HW111018   0.681   1.619   3.565
 3373SOL    HW211019   0.692   1.625   3.727
 3374SOL     OW11020   1.226   6.568   4.413
 3374SOL    HW111021   1.131   6.587   4.438
 3374SOL    HW211022   1.271   6.519   4.487
 3375SOL     OW11023   0.296   4.718   0.223
 3375SOL    HW111024   0.375   4.754   0.173
 3375SOL    HW211025   0.228   4.790   0.235
 3376SOL     OW11026   3.900   3.121   4.665
 3376SOL    HW111027   3.955   3.160   4.739
 3376SOL    HW211028   3.836   3.054   4.703
 3377SOL     OW11029   6.424   5.723   5.958
 3377SOL    HW111030   6.359   5.778   6.010
 3377SOL    HW211031   6.431   5.632   5.999
 3378SOL     OW11032   1.100   0.056   0.730
 3378SOL    HW111033   1.037   0.081   0.804
 3378SOL    HW211034   1.193   0.055   0.765
 3379SOL     OW11035   1.165   1.779   5.207
 3379SOL    HW111036   1.198   1.686   5.226
 3379SOL    HW211037   1.075   1.774   5.164
 3380SOL     OW11038   5.863   6.371   4.631
 3380SOL    HW111039   5.833   6.423   4.551
 3380SOL    HW211040   5.920   6.294   4.601
 3381SOL     OW11041   0.878   3.001   1.581
 3381SOL    HW111042   0.931   3.042   1.507
 3381SOL    HW211043   0.858   2.905   1.558
 3382SOL     OW11044   0.495   2.858   0.062
 3382SOL    HW111045   0.434   2.780   0.079
 3382SOL    HW211046   0.487   2.886   6.993
 3383SOL     OW11047   3.863   5.708   1.311
 3383SOL    HW111048   3.943   5.689   1.254
 3383SOL    HW211049   3.866   5.802   1.344
 3384SOL     OW11050   2.435   3.393   0.636
 3384SOL    HW111051   2.433   3.425   0.731
 3384SOL    HW211052   2.354   3.337   0.618
 3385SOL     OW11053   6.728   3.095   4.899
 3385SOL    HW111054   6.761   3.005   4.928
 3385SOL    HW211055   6.691   3.144   4.978
 3386SOL     OW11056   5.399   4.297   0.432
 3386SOL    HW111057   5.446   4.221   0.477
 3386SOL    HW211058   5.404   4.378   0.490
 3387SOL     OW11059   3.673   0.725   3.052
 3387SOL    HW111060   3.741   0.793   3.026
 3387SOL    HW211061   3.611   0.708   2.976
 3388SOL     OW11062   5.206   3.295   2.563
 3388SOL    HW111063   5.152   3.335   2.636
 3388SOL    HW211064   5.202   3.195   2.568
 3389SOL     OW11065   5.968   5.868   6.151
 3389SOL    HW111066   5.940   5.860   6.246
 3389SOL    HW211067   5.946   5.959   6.116
 3390SOL     OW11068   5.813   6.848   6.650
 3390SOL    HW111069   5.713   6.840   6.658
 3390SOL    HW211070   5.843   6.810   6.563
 3391SOL     OW11071   4.884   2.036   4.422
 3391SOL    HW111072   4.830   2.113   4.389
 3391SOL    HW211073   4.951   2.010   4.352
 3392SOL     OW11074   2.784   0.008   3.754
 3392SOL    HW111075   2.738   0.033   3.840
 3392SOL    HW211076   2.717   0.006   3.680
 3393SOL     OW11077   6.358   5.836   1.075
 3393SOL    HW111078   6.447   5.791   1.065
 3393SOL    HW211079   6.351   5.878   1.165
 3394SOL     OW11080   5.190   3.566   0.808
 3394SOL    HW111081   5.194   3.641   0.874
 3394SOL    HW211082   5.184   3.479   0.857
 3395SOL     OW11083   5.458   2.858   3.831
 3395SOL    HW111084   5.455   2.767   3.789
 3395SOL    HW211085   5.538   2.908   3.796
 3396SOL     OW11086   5.217   1.183   3.972
 3396SOL    HW111087   5.285   1.186   4.045
 3396SOL    HW211088   5.129   1.154   4.010
 3397SOL     OW11089   3.243   6.080   6.555
 3397SOL    HW111090   3.296   6.100   6.637
 3397SOL    HW211091   3.180   6.004   6.574
 3398SOL     OW11092   0.783   0.455   4.722
 3398SOL    HW111093   0.871   0.427   4.683
 3398SOL    HW211094   0.748   0.382   4.781
 3399SOL     OW11095   5.528   5.255   3.700
 3399SOL    HW111096   5.430   5.236   3.702
 3399SOL    HW211097   5.567   5.233   3.790
 3400SOL     OW11098   5.223   3.132   6.786
 3400SOL    HW111099   5.168   3.198   6.837
 3400SOL    HW211100   5.231   3.162   6.691
 3401SOL     OW11101   6.960   3.588   6.473
 3401SOL    HW111102   6.887   3.557   6.412
 3401SOL    HW211103   6.976   3.520   6.544
 3402SOL     OW11104   4.321   5.284   6.415
 3402SOL    HW111105   4.417   5.258   6.419
 3402SOL    HW211106   4.312   5.369   6.362
 3403SOL     OW11107   3.654   5.689   6.489
 3403SOL    HW111108   3.661   5.612   6.426
 3403SOL    HW211109   3.574   5.677   6.548
 3404SOL     OW11110   5.483   2.405   0.740
 3404SOL    HW111111   5.480   2.367   0.832
 3404SOL    HW211112   5.565   2.462   0.730
 3405SOL     OW11113   6.591   3.844   5.835
 3405SOL    HW111114   6.616   3.856   5.931
 3405SOL    HW211115   6.494   3.863   5.823
 3406SOL     OW11116   0.961   3.389   2.202
 3406SOL    HW111117   0.883   3.337   2.236
 3406SOL    HW211118   1.020   3.329   2.148
 3407SOL     OW11119   1.314   4.111   6.460
 3407SOL    HW111120   1.293   4.110   6.362
 3407SOL    HW211121   1.235   4.077   6.511
 3408SOL     OW11122   5.259   3.147   4.846
 3408SOL    HW111123   5.199   3.068   4.856
 3408SOL    HW211124   5.204   3.231   4.845
 3409SOL     OW11125   3.755   6.009   0.134
 3409SOL    HW111126   3.663   5.982   0.104
 3409SOL    HW211127   3.808   6.038   0.054
 3410SOL     OW11128   6.495   0.006   1.691
 3410SOL    HW111129   6.445   0.058   1.760
 3410SOL    HW211130   6.527   0.069   1.620
 3411SOL     OW11131   0.264   2.778   1.150
 3411SOL    HW111132   0.355   2.795   1.112
 3411SOL    HW211133   0.195   2.788   1.079
 3412SOL     OW11134   5.017   3.124   1.103
 3412SOL    HW111135   4.993   3.173   1.187
 3412SOL    HW211136   5.042   3.030   1.124
 3413SOL     OW11137   6.339   1.565   0.703
 3413SOL    HW111138   6.430   1.592   0.734
 3413SOL    HW211139   6.307   1.487   0.758
 3414SOL     OW11140   3.302   1.712   5.780
 3414SOL    HW111141   3.250   1.630   5.755
 3414SOL    HW211142   3.350   1.747   5.700
 3415SOL     OW11143   2.063   3.155   4.326
 3415SOL    HW111144   2.080   3.251   4.304
 3415SOL    HW211145   1.966   3.134   4.314
 3416SOL     OW11146   5.812   6.588   0.722
 3416SOL    HW111147   5.907   6.608   0.745
 3416SOL    HW211148   5.804   6.575   0.623
 3417SOL     OW11149   0.244   5.904   3.694
 3417SOL    HW111150   0.323   5.964   3.688
 3417SOL    HW211151   0.253   5.845   3.775
 3418SOL     OW11152   2.792   5.853   3.634
 3418SOL    HW111153   2.846   5.932   3.664
 3418SOL    HW211154   2.706   5.884   3.595
 3419SOL     OW11155   2.905   5.809   6.078
 3419SOL    HW111156   2.986   5.828   6.023
 3419SOL    HW211157   2.823   5.817   6.022
 3420SOL     OW11158   5.780   2.873   3.035
 3420SOL    HW111159   5.744   2.835   3.120
 3420SOL    HW211160   5.793   2.799   2.969
 3421SOL     OW11161   4.989   2.036   4.163
 3421SOL    HW111162   4.927   1.970   4.120
 3421SOL    HW211163   5.042   2.083   4.092
 3422SOL     OW11164   2.926   0.328   0.449
 3422SOL    HW111165   2.984   0.289   0.378
 3422SOL    HW211166   2.833   0.336   0.415
 3423SOL     OW11167   0.137   4.669   6.710
 3423SOL    HW111168   0.042   4.646   6.691
 3423SOL    HW211169   0.194   4.641   6.633
 3424SOL     OW11170   2.199   6.646   1.084
 3424SOL    HW111171   2.260   6.705   1.135
 3424SOL    HW211172   2.222   6.550   1.101
 3425SOL     OW11173   4.906   4.862   1.925
 3425SOL    HW111174   4.819   4.894   1.962
 3425SOL    HW211175   4.900   4.765   1.903
 3426SOL     OW11176   4.122   2.426   0.893
 3426SOL    HW111177   4.079   2.429   0.803
 3426SOL    HW211178   4.149   2.332   0.913
 3427SOL     OW11179   0.864   1.482   0.878
 3427SOL    HW111180   0.944   1.473   0.937
 3427SOL    HW211181   0.886   1.539   0.799
 3428SOL     OW11182   2.636   5.145   6.959
 3428SOL    HW111183   2.730   5.110   6.956
 3428SOL    HW211184   2.581   5.088   7.019
 3429SOL     OW11185   0.204   2.050   1.173
 3429SOL    HW111186   0.113   2.058   1.133
 3429SOL    HW211187   0.204   2.094   1.263
 3430SOL     OW11188   1.488   6.391   5.614
 3430SOL    HW111189   1.456   6.319   5.552
 3430SOL    HW211190   1.513   6.472   5.562
 3431SOL     OW11191   1.246   6.583   1.831
 3431SOL    HW111192   1.336   6.539   1.832
 3431SOL    HW211193   1.175   6.513   1.834
 3432SOL     OW11194   1.695   3.873   5.079
 3432SOL    HW111195   1.776   3.839   5.126
 3432SOL    HW211196   1.699   3.973   5.072
 3433SOL     OW11197   1.521   0.141   4.931
 3433SOL    HW111198   1.514   0.239   4.947
 3433SOL    HW211199   1.534   0.094   5.019
 3434SOL     OW11200   4.200   0.965   2.112
 3434SOL    HW111201   4.117   1.000   2.069
 3434SOL    HW211202   4.265   0.939   2.041
 3435SOL     OW11203   1.471   1.191   1.125
 3435SOL    HW111204   1.455   1.139   1.041
 3435SOL    HW211205   1.565   1.177   1.156
 3436SOL     OW11206   3.978   6.077   0.328
 3436SOL    HW111207   3.896   6.049   0.277
 3436SOL    HW211208   3.955   6.153   0.388
 3437SOL     OW11209   3.120   0.082   5.561
 3437SOL    HW111210   3.109   0.167   5.510
 3437SOL    HW211211   3.032   0.055   5.600
 3438SOL     OW11212   1.018   3.115   0.968
 3438SOL    HW111213   0.934   3.064   0.986
 3438SOL    HW211214   0.995   3.205   0.930
 3439SOL     OW11215   2.742   6.102   4.677
 3439SOL    HW111216   2.735   6.195   4.713
 3439SOL    HW211217   2.675   6.089   4.604
 3440SOL     OW11218   2.893   3.201   1.916
 3440SOL    HW111219   2.950   3.274   1.954
 3440SOL    HW211220   2.935   3.166   1.832
 3441SOL     OW11221   6.632   5.684   6.267
 3441SOL    HW111222   6.589   5.771   6.291
 3441SOL    HW211223   6.702   5.661   6.335
 3442SOL     OW11224   1.968   4.353   1.698
 3442SOL    HW111225   1.965   4.452   1.686
 3442SOL    HW211226   1.914   4.309   1.626
 3443SOL     OW11227   3.491   6.219   2.238
 3443SOL    HW111228   3.529   6.308   2.215
 3443SOL    HW211229   3.453   6.222   2.330
 3444SOL     OW11230   5.004   5.335   6.916
 3444SOL    HW111231   5.035   5.424   6.883
 3444SOL    HW211232   4.987   5.340   7.015
 3445SOL     OW11233   5.785   5.187   2.724
 3445SOL    HW111234   5.752   5.196   2.818
 3445SOL    HW211235   5.877   5.149   2.724
 3446SOL     OW11236   6.044   1.047   1.725
 3446SOL    HW111237   5.990   1.003   1.653
 3446SOL    HW211238   6.016   1.012   1.814
 3447SOL     OW11239   4.675   5.857   0.943
 3447SOL    HW111240   4.645   5.868   1.038
 3447SOL    HW211241   4.773   5.878   0.936
 3448SOL     OW11242   4.063   0.185   6.543
 3448SOL    HW111243   3.963   0.188   6.534
 3448SOL    HW211244   4.105   0.212   6.456
 3449SOL     OW11245   6.210   5.241   4.673
 3449SOL    HW111246   6.133   5.276   4.619
 3449SOL    HW211247   6.294   5.287   4.645
 3450SOL     OW11248   0.632   2.059   6.847
 3450SOL    HW111249   0.707   2.088   6.906
 3450SOL    HW211250   0.641   1.962   6.826
 3451SOL     OW11251   2.557   6.312   6.983
 3451SOL    HW111252   2.505   6.362   6.913
 3451SOL    HW211253   2.576   6.220   6.950
 3452SOL     OW11254   5.461   0.889   6.824
 3452SOL    HW111255   5.399   0.931   6.890
 3452SOL    HW211256   5.515   0.961   6.780
 3453SOL     OW11257   6.152   5.684   6.431
 3453SOL    HW111258   6.168   5.709   6.526
 3453SOL    HW211259   6.239   5.664   6.386
 3454SOL     OW11260   0.983   3.192   5.189
 3454SOL    HW111261   1.066   3.207   5.134
 3454SOL    HW211262   0.903   3.219   5.136
 3455SOL     OW11263   2.550   1.880   4.567
 3455SOL    HW111264   2.561   1.917   4.474
 3455SOL    HW211265   2.464   1.830   4.572
 3456SOL     OW11266   5.585   5.067   1.675
 3456SOL    HW111267   5.683   5.083   1.680
 3456SOL    HW211268   5.536   5.150   1.701
 3457SOL     OW11269   3.054   5.441   3.542
 3457SOL    HW111270   2.987   5.368   3.561
 3457SOL    HW211271   3.128   5.436   3.608
 3458SOL     OW11272   4.702   0.921   2.067
 3458SOL    HW111273   4.618   0.961   2.029
 3458SOL    HW211274   4.763   0.895   1.993
 3459SOL     OW11275   5.316   2.839   2.882
 3459SOL    HW111276   5.269   2.794   2.806
 3459SOL    HW211277   5.250   2.889   2.938
 3460SOL     OW11278   2.406   2.051   6.959
 3460SOL    HW111279   2.380   2.035   6.864
 3460SOL    HW211280   2.481   2.117   6.962
 3461SOL     OW11281   4.752   3.953   6.327
 3461SOL    HW111282   4.747   3.893   6.407
 3461SOL    HW211283   4.847   3.981   6.313
 3462SOL     OW11284   0.634   3.488   4.985
 3462SOL    HW111285   0.647   3.394   5.017
 3462SOL    HW211286   0.555   3.528   5.032
 3463SOL     OW11287   1.200   4.472   2.102
 3463SOL    HW111288   1.145   4.531   2.043
 3463SOL    HW211289   1.214   4.383   2.059
 3464SOL     OW11290   0.033   4.835   5.665
 3464SOL    HW111291   0.042   4.934   5.663
 3464SOL    HW211292   0.122   4.794   5.684
 3465SOL     OW11293   1.627   2.176   2.395
 3465SOL    HW111294   1.570   2.136   2.467
 3465SOL    HW211295   1.718   2.135   2.398
 3466SOL     OW11296   6.329   5.214   6.445
 3466SOL    HW111297   6.420   5.234   6.480
 3466SOL    HW211298   6.334   5.196   6.347
 3467SOL     OW11299   1.978   2.894   6.861
 3467SOL    HW111300   2.005   2.828   6.931
 3467SOL    HW211301   1.970   2.985   6.902
 3468SOL     OW11302   4.258   6.728   3.076
 3468SOL    HW111303   4.289   6.757   2.985
 3468SOL    HW211304   4.338   6.718   3.136
 3469SOL     OW11305   5.397   0.418   3.445
 3469SOL    HW111306   5.305   0.440   3.412
 3469SOL    HW211307   5.436   0.498   3.490
 3470SOL     OW11308   6.455   3.554   0.839
 3470SOL    HW111309   6.375   3.548   0.779
 3470SOL    HW211310   6.467   3.648   0.871
 3471SOL     OW11311   3.568   5.041   4.147
 3471SOL    HW111312   3.598   5.118   4.091
 3471SOL    HW211313   3.529   4.970   4.088
 3472SOL     OW11314   2.468   0.829   2.301
 3472SOL    HW111315   2.502   0.886   2.226
 3472SOL    HW211316   2.478   0.733   2.276
 3473SOL     OW11317   0.568   2.370   0.469
 3473SOL    HW111318   0.610   2.295   0.417
 3473SOL    HW211319   0.595   2.362   0.565
 3474SOL     OW11320   2.455   5.014   1.500
 3474SOL    HW111321   2.434   5.081   1.571
 3474SOL    HW211322   2.487   4.929   1.542
 3475SOL     OW11323   1.178   5.347   5.102
 3475SOL    HW111324   1.265   5.377   5.064
 3475SOL    HW211325   1.159   5.398   5.187
 3476SOL     OW11326   3.425   1.877   3.136
 3476SOL    HW111327   3.340   1.916   3.169
 3476SOL    HW211328   3.497   1.947   3.138
 3477SOL     OW11329   3.396   4.983   0.791
 3477SOL    HW111330   3.357   5.067   0.827
 3477SOL    HW211331   3.471   4.953   0.850
 3478SOL     OW11332   2.212   6.138   4.697
 3478SOL    HW111333   2.248   6.045   4.702
 3478SOL    HW211334   2.282   6.198   4.658
 3479SOL     OW11335   1.550   0.507   2.464
 3479SOL    HW111336   1.469   0.565   2.458
 3479SOL    HW211337   1.522   0.413   2.484
 3480SOL     OW11338   0.175   0.129   5.360
 3480SOL    HW111339   0.215   0.049   5.404
 3480SOL    HW211340   0.145   0.106   5.267
 3481SOL     OW11341   5.116   0.230   0.250
 3481SOL    HW111342   5.181   0.174   0.302
 3481SOL    HW211343   5.043   0.172   0.215
 3482SOL     OW11344   5.865   1.759   1.158
 3482SOL    HW111345   5.812   1.829   1.111
 3482SOL    HW211346   5.891   1.687   1.094
 3483SOL     OW11347   4.730   1.114   1.532
 3483SOL    HW111348   4.761   1.174   1.606
 3483SOL    HW211349   4.630   1.114   1.531
 3484SOL     OW11350   2.970   3.682   1.552
 3484SOL    HW111351   2.964   3.582   1.558
 3484SOL    HW211352   2.969   3.709   1.455
 3485SOL     OW11353   1.173   0.260   4.072
 3485SOL    HW111354   1.120   0.276   4.156
 3485SOL    HW211355   1.178   0.161   4.054
 3486SOL     OW11356   2.985   1.473   2.454
 3486SOL    HW111357   3.046   1.402   2.488
 3486SOL    HW211358   2.957   1.532   2.529
 3487SOL     OW11359   5.961   2.416   5.305
 3487SOL    HW111360   6.011   2.496   5.271
 3487SOL    HW211361   5.997   2.390   5.394
 3488SOL     OW11362   6.098   2.242   4.226
 3488SOL    HW111363   6.001   2.227   4.244
 3488SOL    HW211364   6.109   2.280   4.134
 3489SOL     OW11365   2.851   6.712   0.542
 3489SOL    HW111366   2.830   6.778   0.471
 3489SOL    HW211367   2.804   6.736   0.626
 3490SOL     OW11368   4.430   5.038   6.776
 3490SOL    HW111369   4.366   4.962   6.769
 3490SOL    HW211370   4.508   5.021   6.715
 3491SOL     OW11371   6.064   2.310   4.794
 3491SOL    HW111372   6.085   2.260   4.878
 3491SOL    HW211373   6.140   2.301   4.730
 3492SOL     OW11374   0.873   5.749   1.289
 3492SOL    HW111375   0.836   5.839   1.313
 3492SOL    HW211376   0.967   5.759   1.256
 3493SOL     OW11377   6.156   4.890   6.765
 3493SOL    HW111378   6.233   4.926   6.818
 3493SOL    HW211379   6.174   4.795   6.740
 3494SOL     OW11380   3.680   0.952   1.862
 3494SOL    HW111381   3.775   0.975   1.840
 3494SOL    HW211382   3.674   0.856   1.891
 3495SOL     OW11383   4.559   5.137   2.195
 3495SOL    HW111384   4.512   5.166   2.112
 3495SOL    HW211385   4.493   5.093   2.257
 3496SOL     OW11386   0.174   3.860   0.818
 3496SOL    HW111387   0.261   3.820   0.788
 3496SOL    HW211388   0.102   3.790   0.814
 3497SOL     OW11389   4.020   6.707   3.846
 3497SOL    HW111390   3.963   6.656   3.781
 3497SOL    HW211391   3.964   6.774   3.894
 3498SOL     OW11392   1.960   2.732   0.469
 3498SOL    HW111393   2.026   2.656   0.468
 3498SOL    HW211394   1.909   2.732   0.383
 3499SOL     OW11395   4.749   2.857   4.713
 3499SOL    HW111396   4.681   2.799   4.757
 3499SOL    HW211397   4.828   2.867   4.773
 3500SOL     OW11398   1.022   3.980   4.866
 3500SOL    HW111399   1.006   3.894   4.817
 3500SOL    HW211400   1.090   4.035   4.817
 3501SOL     OW11401   1.397   5.183   4.059
 3501SOL    HW111402   1.305   5.144   4.051
 3501SOL    HW211403   1.464   5.109   4.068
 3502SOL     OW11404   6.729   2.168   2.252
 3502SOL    HW111405   6.636   2.199   2.271
 3502SOL    HW211406   6.794   2.241   2.274
 3503SOL     OW11407   6.328   5.776   5.086
 3503SOL    HW111408   6.294   5.744   5.175
 3503SOL    HW211409   6.258   5.761   5.016
 3504SOL     OW11410   1.811   1.899   1.184
 3504SOL    HW111411   1.802   1.986   1.137
 3504SOL    HW211412   1.734   1.886   1.247
 3505SOL     OW11413   5.533   4.871   5.044
 3505SOL    HW111414   5.453   4.820   5.013
 3505SOL    HW211415   5.527   4.966   5.012
 3506SOL     OW11416   4.998   6.508   5.279
 3506SOL    HW111417   5.067   6.481   5.346
 3506SOL    HW211418   4.965   6.427   5.230
 3507SOL     OW11419   2.469   0.944   0.254
 3507SOL    HW111420   2.495   1.038   0.232
 3507SOL    HW211421   2.522   0.881   0.198
 3508SOL     OW11422   2.968   2.582   6.104
 3508SOL    HW111423   2.953   2.627   6.016
 3508SOL    HW211424   2.907   2.502   6.112
 3509SOL     OW11425   5.259   0.154   6.491
 3509SOL    HW111426   5.237   0.140   6.394
 3509SOL    HW211427   5.350   0.195   6.499
 3510SOL     OW11428   2.001   2.228   1.459
 3510SOL    HW111429   2.065   2.151   1.454
 3510SOL    HW211430   1.964   2.236   1.552
 3511SOL     OW11431   2.073   4.597   0.464
 3511SOL    HW111432   2.024   4.537   0.528
 3511SOL    HW211433   2.150   4.641   0.511
 3512SOL     OW11434   6.740   4.085   1.040
 3512SOL    HW111435   6.664   4.059   1.100
 3512SOL    HW211436   6.727   4.044   0.950
 3513SOL     OW11437   6.186   4.092   0.136
 3513SOL    HW111438   6.097   4.055   0.110
 3513SOL    HW211439   6.202   4.177   0.085
 3514SOL     OW11440   7.004   1.102   2.075
 3514SOL    HW111441   6.916   1.102   2.123
 3514SOL    HW211442   7.025   1.010   2.043
 3515SOL     OW11443   4.637   6.275   3.056
 3515SOL    HW111444   4.652   6.334   3.135
 3515SOL    HW211445   4.652   6.180   3.082
 3516SOL     OW11446   4.394   6.980   1.054
 3516SOL    HW111447   4.405   7.018   0.963
 3516SOL    HW211448   4.446   6.895   1.062
 3517SOL     OW11449   1.272   2.347   0.553
 3517SOL    HW111450   1.297   2.256   0.584
 3517SOL    HW211451   1.352   2.393   0.516
 3518SOL     OW11452   5.666   4.108   4.710
 3518SOL    HW111453   5.661   4.185   4.774
 3518SOL    HW211454   5.750   4.115   4.656
 3519SOL     OW11455   1.754   0.399   6.444
 3519SOL    HW111456   1.726   0.469   6.510
 3519SOL    HW211457   1.746   0.434   6.351
 3520SOL     OW11458   3.342   4.819   6.729
 3520SOL    HW111459   3.409   4.756   6.692
 3520SOL    HW211460   3.370   4.913   6.710
 3521SOL     OW11461   5.540   3.066   1.204
 3521SOL    HW111462   5.586   2.979   1.185
 3521SOL    HW211463   5.455   3.048   1.254
 3522SOL     OW11464   4.715   5.345   1.831
 3522SOL    HW111465   4.796   5.370   1.778
 3522SOL    HW211466   4.710   5.403   1.912
 3523SOL     OW11467   2.688   4.779   5.678
 3523SOL    HW111468   2.663   4.869   5.712
 3523SOL    HW211469   2.637   4.709   5.729
 3524SOL     OW11470   2.475   1.408   1.066
 3524SOL    HW111471   2.396   1.353   1.096
 3524SOL    HW211472   2.542   1.412   1.140
 3525SOL     OW11473   0.394   4.166   2.234
 3525SOL    HW111474   0.349   4.085   2.197
 3525SOL    HW211475   0.493   4.152   2.234
 3526SOL     OW11476   2.297   5.704   3.637
 3526SOL    HW111477   2.306   5.802   3.650
 3526SOL    HW211478   2.385   5.660   3.655
 3527SOL     OW11479   6.209   3.796   5.896
 3527SOL    HW111480   6.142   3.722   5.894
 3527SOL    HW211481   6.209   3.844   5.809
 3528SOL     OW11482   1.121   5.372   3.437
 3528SOL    HW111483   1.156   5.351   3.528
 3528SOL    HW211484   1.095   5.286   3.391
 3529SOL     OW11485   5.152   0.525   5.234
 3529SOL    HW111486   5.146   0.506   5.332
 3529SOL    HW211487   5.188   0.445   5.186
 3530SOL     OW11488   2.606   4.547   3.286
 3530SOL    HW111489   2.518   4.502   3.301
 3530SOL    HW211490   2.640   4.581   3.373
 3531SOL     OW11491   4.873   4.466   1.267
 3531SOL    HW111492   4.818   4.439   1.347
 3531SOL    HW211493   4.966   4.432   1.278
 3532SOL     OW11494   2.431   0.166   0.450
 3532SOL    HW111495   2.416   0.184   0.547
 3532SOL    HW211496   2.360   0.104   0.417
 3533SOL     OW11497   1.199   2.140   2.476
 3533SOL    HW111498   1.118   2.088   2.502
 3533SOL    HW211499   1.204   2.148   2.377
 3534SOL     OW11500   6.835   1.025   5.088
 3534SOL    HW111501   6.796   1.116   5.097
 3534SOL    HW211502   6.761   0.957   5.086
 3535SOL     OW11503   6.562   5.691   0.372
 3535SOL    HW111504   6.601   5.777   0.403
 3535SOL    HW211505   6.485   5.666   0.431
 3536SOL     OW11506   2.389   2.715   3.337
 3536SOL    HW111507   2.477   2.668   3.325
 3536SOL    HW211508   2.368   2.721   3.434
 3537SOL     OW11509   2.583   4.856   0.327
 3537SOL    HW111510   2.624   4.766   0.314
 3537SOL    HW211511   2.637   4.908   0.393
 3538SOL     OW11512   3.050   0.380   4.597
 3538SOL    HW111513   3.130   0.440   4.602
 3538SOL    HW211514   2.970   0.428   4.631
 3539SOL     OW11515   5.949   3.274   6.515
 3539SOL    HW111516   6.021   3.342   6.525
 3539SOL    HW211517   5.988   3.189   6.480
 3540SOL     OW11518   1.968   1.700   5.249
 3540SOL    HW111519   1.879   1.738   5.270
 3540SOL    HW211520   2.020   1.686   5.333
 3541SOL     OW11521   3.124   2.907   6.609
 3541SOL    HW111522   3.187   2.958   6.668
 3541SOL    HW211523   3.030   2.927   6.636
 3542SOL     OW11524   0.343   3.173   1.267
 3542SOL    HW111525   0.382   3.149   1.178
 3542SOL    HW211526   0.332   3.273   1.273
 3543SOL     OW11527   1.568   3.642   5.213
 3543SOL    HW111528   1.502   3.700   5.261
 3543SOL    HW211529   1.640   3.699   5.174
 3544SOL     OW11530   1.867   4.628   6.368
 3544SOL    HW111531   1.901   4.648   6.276
 3544SOL    HW211532   1.767   4.630   6.368
 3545SOL     OW11533   3.404   5.372   6.542
 3545SOL    HW111534   3.323   5.347   6.595
 3545SOL    HW211535   3.383   5.363   6.444
 3546SOL     OW11536   6.512   4.858   3.283
 3546SOL    HW111537   6.583   4.791   3.308
 3546SOL    HW211538   6.556   4.942   3.251
 3547SOL     OW11539   6.726   3.951   4.570
 3547SOL    HW111540   6.660   4.015   4.608
 3547SOL    HW211541   6.678   3.869   4.538
 3548SOL     OW11542   5.489   0.219   6.099
 3548SOL    HW111543   5.466   0.316   6.097
 3548SOL    HW211544   5.470   0.178   6.010
 3549SOL     OW11545   1.472   4.324   6.291
 3549SOL    HW111546   1.393   4.292   6.239
 3549SOL    HW211547   1.441   4.371   6.374
 3550SOL     OW11548   6.379   2.243   4.804
 3550SOL    HW111549   6.406   2.268   4.897
 3550SOL    HW211550   6.388   2.323   4.744
 3551SOL     OW11551   3.994   1.188   4.019
 3551SOL    HW111552   4.057   1.252   4.063
 3551SOL    HW211553   3.900   1.219   4.034
 3552SOL     OW11554   6.459   6.788   1.997
 3552SOL    HW111555   6.383   6.805   2.060
 3552SOL    HW211556   6.453   6.695   1.962
 3553SOL     OW11557   3.710   5.596   0.322
 3553SOL    HW111558   3.688   5.679   0.373
 3553SOL    HW211559   3.783   5.616   0.257
 3554SOL     OW11560   4.205   2.916   0.718
 3554SOL    HW111561   4.194   3.014   0.737
 3554SOL    HW211562   4.249   2.904   0.629
 3555SOL     OW11563   0.692   3.197   3.918
 3555SOL    HW111564   0.736   3.166   3.833
 3555SOL    HW211565   0.746   3.271   3.958
 3556SOL     OW11566   3.999   0.877   4.272
 3556SOL    HW111567   3.924   0.939   4.297
 3556SOL    HW211568   3.982   0.787   4.312
 3557SOL     OW11569   1.506   0.048   4.383
 3557SOL    HW111570   1.605   0.042   4.376
 3557SOL    HW211571   1.471   7.002   4.442
 3558SOL     OW11572   1.665   4.720   1.677
 3558SOL    HW111573   1.680   4.819   1.675
 3558SOL    HW211574   1.689   4.685   1.768
 3559SOL     OW11575   1.013   6.224   5.207
 3559SOL    HW111576   1.009   6.132   5.170
 3559SOL    HW211577   0.995   6.221   5.306
 3560SOL     OW11578   2.214   4.850   2.492
 3560SOL    HW111579   2.167   4.936   2.467
 3560SOL    HW211580   2.202   4.784   2.418
 3561SOL     OW11581   5.037   4.047   5.405
 3561SOL    HW111582   5.037   3.965   5.347
 3561SOL    HW211583   4.944   4.082   5.413
 3562SOL     OW11584   2.951   1.460   3.617
 3562SOL    HW111585   2.948   1.488   3.521
 3562SOL    HW211586   3.014   1.520   3.667
 3563SOL     OW11587   6.560   2.035   6.682
 3563SOL    HW111588   6.640   1.977   6.694
 3563SOL    HW211589   6.505   2.034   6.766
 3564SOL     OW11590   0.479   4.669   2.656
 3564SOL    HW111591   0.429   4.633   2.577
 3564SOL    HW211592   0.532   4.595   2.698
 3565SOL     OW11593   3.340   5.877   4.039
 3565SOL    HW111594   3.425   5.827   4.022
 3565SOL    HW211595   3.361   5.967   4.078
 3566SOL     OW11596   6.375   2.321   6.458
 3566SOL    HW111597   6.445   2.392   6.446
 3566SOL    HW211598   6.305   2.332   6.388
 3567SOL     OW11599   0.679   2.530   0.191
 3567SOL    HW111600   0.732   2.599   0.241
 3567SOL    HW211601   0.705   2.532   0.095
 3568SOL     OW11602   5.062   4.390   4.628
 3568SOL    HW111603   5.116   4.322   4.678
 3568SOL    HW211604   5.112   4.420   4.547
 3569SOL     OW11605   2.781   2.920   6.395
 3569SOL    HW111606   2.757   2.862   6.317
 3569SOL    HW211607   2.809   3.010   6.362
 3570SOL     OW11608   5.301   0.688   6.582
 3570SOL    HW111609   5.337   0.621   6.646
 3570SOL    HW211610   5.304   0.652   6.489
 3571SOL     OW11611   0.567   5.300   6.561
 3571SOL    HW111612   0.472   5.278   6.585
 3571SOL    HW211613   0.577   5.302   6.462
 3572SOL     OW11614   5.589   4.265   3.111
 3572SOL    HW111615   5.491   4.268   3.129
 3572SOL    HW211616   5.604   4.233   3.017
 3573SOL     OW11617   0.485   4.545   3.704
 3573SOL    HW111618   0.499   4.495   3.789
 3573SOL    HW211619   0.490   4.481   3.627
 3574SOL     OW11620   0.373   4.401   0.716
 3574SOL    HW111621   0.280   4.380   0.747
 3574SOL    HW211622   0.368   4.452   0.630
 3575SOL     OW11623   5.104   4.683   3.005
 3575SOL    HW111624   5.107   4.694   2.906
 3575SOL    HW211625   5.050   4.758   3.045
 3576SOL     OW11626   1.291   1.525   5.614
 3576SOL    HW111627   1.282   1.618   5.650
 3576SOL    HW211628   1.259   1.523   5.519
 3577SOL     OW11629   1.205   2.991   6.028
 3577SOL    HW111630   1.165   3.073   5.988
 3577SOL    HW211631   1.301   3.008   6.051
 3578SOL     OW11632   2.911   2.532   0.845
 3578SOL    HW111633   2.900   2.473   0.925
 3578SOL    HW211634   2.875   2.484   0.764
 3579SOL     OW11635   5.960   3.605   5.191
 3579SOL    HW111636   5.905   3.523   5.209
 3579SOL    HW211637   6.055   3.579   5.176
 3580SOL     OW11638   5.982   2.898   1.331
 3580SOL    HW111639   6.046   2.863   1.399
 3580SOL    HW211640   5.898   2.844   1.332
 3581SOL     OW11641   0.674   6.069   3.504
 3581SOL    HW111642   0.662   5.997   3.435
 3581SOL    HW211643   0.684   6.157   3.459
 3582SOL     OW11644   0.852   2.103   5.604
 3582SOL    HW111645   0.864   2.159   5.686
 3582SOL    HW211646   0.908   2.139   5.530
 3583SOL     OW11647   1.427   3.289   6.238
 3583SOL    HW111648   1.486   3.357   6.282
 3583SOL    HW211649   1.352   3.336   6.191
 3584SOL     OW11650   5.635   5.216   6.662
 3584SOL    HW111651   5.701   5.157   6.617
 3584SOL    HW211652   5.614   5.179   6.753
 3585SOL     OW11653   4.408   6.530   5.217
 3585SOL    HW111654   4.407   6.615   5.269
 3585SOL    HW211655   4.502   6.508   5.192
 3586SOL     OW11656   0.587   2.210   5.569
 3586SOL    HW111657   0.608   2.304   5.542
 3586SOL    HW211658   0.673   2.161   5.587
 3587SOL     OW11659   2.968   5.433   6.721
 3587SOL    HW111660   2.892   5.368   6.722
 3587SOL    HW211661   3.002   5.443   6.627
 3588SOL     OW11662   0.803   2.774   5.306
 3588SOL    HW111663   0.858   2.853   5.332
 3588SOL    HW211664   0.799   2.710   5.383
 3589SOL     OW11665   3.706   2.037   4.923
 3589SOL    HW111666   3.613   2.016   4.954
 3589SOL    HW211667   3.709   2.031   4.823
 3590SOL     OW11668   1.495   2.903   6.781
 3590SOL    HW111669   1.573   2.862   6.828
 3590SOL    HW211670   1.524   2.989   6.739
 3591SOL     OW11671   5.171   3.532   6.687
 3591SOL    HW111672   5.169   3.620   6.733
 3591SOL    HW211673   5.130   3.541   6.596
 3592SOL     OW11674   6.583   4.098   1.850
 3592SOL    HW111675   6.662   4.151   1.882
 3592SOL    HW211676   6.524   4.155   1.794
 3593SOL     OW11677   1.738   6.090   4.736
 3593SOL    HW111678   1.831   6.113   4.765
 3593SOL    HW211679   1.688   6.050   4.814
 3594SOL     OW11680   4.643   0.512   3.252
 3594SOL    HW111681   4.705   0.579   3.211
 3594SOL    HW211682   4.552   0.553   3.262
 3595SOL     OW11683   2.440   6.054   0.173
 3595SOL    HW111684   2.465   6.007   0.089
 3595SOL    HW211685   2.361   6.113   0.156
 3596SOL     OW11686   6.733   1.796   3.299
 3596SOL    HW111687   6.761   1.797   3.203
 3596SOL    HW211688   6.735   1.703   3.334
 3597SOL     OW11689   2.123   1.231   4.340
 3597SOL    HW111690   2.105   1.299   4.412
 3597SOL    HW211691   2.131   1.140   4.381
 3598SOL     OW11692   1.412   6.040   6.224
 3598SOL    HW111693   1.475   5.965   6.244
 3598SOL    HW211694   1.387   6.036   6.127
 3599SOL     OW11695   0.731   2.058   5.945
 3599SOL    HW111696   0.773   2.145   5.920
 3599SOL    HW211697   0.774   1.984   5.893
 3600SOL     OW11698   0.638   3.743   0.329
 3600SOL    HW111699   0.576   3.676   0.370
 3600SOL    HW211700   0.732   3.711   0.337
 3601SOL     OW11701   5.424   4.503   6.144
 3601SOL    HW111702   5.363   4.429   6.115
 3601SOL    HW211703   5.444   4.562   6.065
 3602SOL     OW11704   1.538   3.104   0.758
 3602SOL    HW111705   1.468   3.087   0.827
 3602SOL    HW211706   1.628   3.101   0.801
 3603SOL     OW11707   3.506   0.066   3.843
 3603SOL    HW111708   3.492   7.002   3.885
 3603SOL    HW211709   3.419   0.103   3.812
 3604SOL     OW11710   6.872   4.441   2.651
 3604SOL    HW111711   6.941   4.511   2.668
 3604SOL    HW211712   6.874   4.415   2.554
 3605SOL     OW11713   5.684   4.202   5.295
 3605SOL    HW111714   5.741   4.271   5.250
 3605SOL    HW211715   5.725   4.176   5.382
 3606SOL     OW11716   6.964   6.598   5.703
 3606SOL    HW111717   6.909   6.635   5.627
 3606SOL    HW211718   6.989   6.504   5.682
 3607SOL     OW11719   5.550   5.952   1.204
 3607SOL    HW111720   5.580   5.872   1.151
 3607SOL    HW211721   5.539   6.030   1.142
 3608SOL     OW11722   5.725   1.369   3.607
 3608SOL    HW111723   5.658   1.380   3.681
 3608SOL    HW211724   5.775   1.455   3.595
 3609SOL     OW11725   0.695   0.282   4.279
 3609SOL    HW111726   0.750   0.217   4.331
 3609SOL    HW211727   0.691   0.254   4.183
 3610SOL     OW11728   1.566   6.828   5.851
 3610SOL    HW111729   1.505   6.769   5.903
 3610SOL    HW211730   1.580   6.790   5.760
 3611SOL     OW11731   4.880   5.869   5.986
 3611SOL    HW111732   4.903   5.916   5.901
 3611SOL    HW211733   4.956   5.809   6.012
 3612SOL     OW11734   6.121   0.041   6.967
 3612SOL    HW111735   6.203   0.029   7.024
 3612SOL    HW211736   6.120   6.998   6.895
 3613SOL     OW11737   4.542   5.685   1.855
 3613SOL    HW111738   4.572   5.683   1.950
 3613SOL    HW211739   4.614   5.648   1.797
 3614SOL     OW11740   4.091   3.524   1.779
 3614SOL    HW111741   4.089   3.563   1.871
 3614SOL    HW211742   4.053   3.591   1.714
 3615SOL     OW11743   4.946   5.354   0.151
 3615SOL    HW111744   4.947   5.440   0.201
 3615SOL    HW211745   4.852   5.322   0.143
 3616SOL     OW11746   0.886   2.785   6.704
 3616SOL    HW111747   0.896   2.858   6.771
 3616SOL    HW211748   0.964   2.785   6.642
 3617SOL     OW11749   3.923   1.708   6.313
 3617SOL    HW111750   3.938   1.771   6.388
 3617SOL    HW211751   3.824   1.699   6.296
 3618SOL     OW11752   2.169   2.209   5.661
 3618SOL    HW111753   2.198   2.305   5.650
 3618SOL    HW211754   2.158   2.167   5.571
 3619SOL     OW11755   5.493   2.410   4.392
 3619SOL    HW111756   5.422   2.479   4.409
 3619SOL    HW211757   5.464   2.351   4.317
 3620SOL     OW11758   6.208   6.104   5.793
 3620SOL    HW111759   6.181   6.158   5.873
 3620SOL    HW211760   6.295   6.137   5.758
 3621SOL     OW11761   3.460   3.081   5.629
 3621SOL    HW111762   3.493   3.115   5.717
 3621SOL    HW211763   3.473   3.151   5.559
 3622SOL     OW11764   1.926   1.349   4.957
 3622SOL    HW111765   1.892   1.428   4.907
 3622SOL    HW211766   2.004   1.310   4.908
 3623SOL     OW11767   5.936   5.863   4.246
 3623SOL    HW111768   6.028   5.896   4.222
 3623SOL    HW211769   5.887   5.839   4.162
 3624SOL     OW11770   2.012   6.451   1.784
 3624SOL    HW111771   2.037   6.394   1.706
 3624SOL    HW211772   2.041   6.406   1.869
 3625SOL     OW11773   6.062   3.195   6.891
 3625SOL    HW111774   6.016   3.113   6.925
 3625SOL    HW211775   6.001   3.245   6.830
 3626SOL     OW11776   0.961   3.137   6.200
 3626SOL    HW111777   0.894   3.115   6.270
 3626SOL    HW211778   0.988   3.054   6.152
 3627SOL     OW11779   3.562   2.898   3.363
 3627SOL    HW111780   3.481   2.839   3.357
 3627SOL    HW211781   3.588   2.910   3.458
 3628SOL     OW11782   1.264   1.337   1.543
 3628SOL    HW111783   1.261   1.436   1.556
 3628SOL    HW211784   1.356   1.304   1.564
 3629SOL     OW11785   6.731   1.892   5.285
 3629SOL    HW111786   6.688   1.950   5.215
 3629SOL    HW211787   6.808   1.842   5.245
 3630SOL     OW11788   5.252   3.013   3.963
 3630SOL    HW111789   5.324   2.960   3.918
 3630SOL    HW211790   5.224   2.966   4.047
 3631SOL     OW11791   1.767   6.872   3.735
 3631SOL    HW111792   1.816   6.888   3.650
 3631SOL    HW211793   1.734   6.959   3.772
 3632SOL     OW11794   4.930   5.988   1.573
 3632SOL    HW111795   4.900   5.948   1.486
 3632SOL    HW211796   4.976   6.075   1.556
 3633SOL     OW11797   3.825   1.711   5.445
 3633SOL    HW111798   3.803   1.614   5.429
 3633SOL    HW211799   3.855   1.724   5.539
 3634SOL     OW11800   0.735   5.227   4.748
 3634SOL    HW111801   0.801   5.208   4.821
 3634SOL    HW211802   0.646   5.189   4.773
 3635SOL     OW11803   3.176   6.885   6.065
 3635SOL    HW111804   3.148   6.958   6.003
 3635SOL    HW211805   3.095   6.838   6.099
 3636SOL     OW11806   0.145   5.493   0.295
 3636SOL    HW111807   0.216   5.551   0.333
 3636SOL    HW211808   0.058   5.542   0.294
 3637SOL     OW11809   6.650   1.545   1.851
 3637SOL    HW111810   6.596   1.619   1.811
 3637SOL    HW211811   6.688   1.575   1.939
 3638SOL     OW11812   0.391   4.020   3.824
 3638SOL    HW111813   0.318   4.078   3.788
 3638SOL    HW211814   0.436   4.068   3.900
 3639SOL     OW11815   3.466   4.000   0.239
 3639SOL    HW111816   3.374   3.971   0.265
 3639SOL    HW211817   3.484   3.972   0.145
 3640SOL     OW11818   4.068   1.073   0.668
 3640SOL    HW111819   4.088   1.113   0.578
 3640SOL    HW211820   4.049   0.975   0.657
 3641SOL     OW11821   5.191   3.213   3.554
 3641SOL    HW111822   5.219   3.226   3.459
 3641SOL    HW211823   5.248   3.269   3.614
 3642SOL     OW11824   5.232   1.303   6.937
 3642SOL    HW111825   5.218   1.242   6.858
 3642SOL    HW211826   5.290   1.380   6.910
 3643SOL     OW11827   2.713   6.119   5.193
 3643SOL    HW111828   2.795   6.160   5.235
 3643SOL    HW211829   2.735   6.027   5.162
 3644SOL     OW11830   6.756   1.001   1.786
 3644SOL    HW111831   6.852   0.983   1.767
 3644SOL    HW211832   6.728   1.086   1.742
 3645SOL     OW11833   0.239   2.870   3.237
 3645SOL    HW111834   0.277   2.880   3.329
 3645SOL    HW211835   0.140   2.883   3.241
 3646SOL     OW11836   0.515   4.088   6.834
 3646SOL    HW111837   0.530   4.005   6.782
 3646SOL    HW211838   0.569   4.086   6.918
 3647SOL     OW11839   2.646   4.865   6.185
 3647SOL    HW111840   2.572   4.900   6.242
 3647SOL    HW211841   2.693   4.941   6.140
 3648SOL     OW11842   3.899   4.926   1.771
 3648SOL    HW111843   3.889   4.970   1.861
 3648SOL    HW211844   3.838   4.848   1.765
 3649SOL     OW11845   4.569   2.620   1.780
 3649SOL    HW111846   4.640   2.552   1.798
 3649SOL    HW211847   4.611   2.711   1.772
 3650SOL     OW11848   6.947   5.439   1.203
 3650SOL    HW111849   0.006   5.409   1.247
 3650SOL    HW211850   6.882   5.363   1.200
 3651SOL     OW11851   0.347   6.580   4.771
 3651SOL    HW111852   0.256   6.540   4.780
 3651SOL    HW211853   0.366   6.637   4.851
 3652SOL     OW11854   5.685   6.239   3.524
 3652SOL    HW111855   5.692   6.266   3.428
 3652SOL    HW211856   5.673   6.140   3.530
 3653SOL     OW11857   0.513   1.204   4.171
 3653SOL    HW111858   0.501   1.256   4.086
 3653SOL    HW211859   0.435   1.142   4.183
 3654SOL     OW11860   2.711   4.293   0.722
 3654SOL    HW111861   2.637   4.266   0.661
 3654SOL    HW211862   2.790   4.233   0.707
 3655SOL     OW11863   1.609   6.284   4.271
 3655SOL    HW111864   1.509   6.290   4.278
 3655SOL    HW211865   1.634   6.199   4.224
 3656SOL     OW11866   1.020   4.206   1.709
 3656SOL    HW111867   0.971   4.121   1.692
 3656SOL    HW211868   0.973   4.258   1.780
 3657SOL     OW11869   5.168   5.059   5.788
 3657SOL    HW111870   5.097   5.065   5.718
 3657SOL    HW211871   5.257   5.080   5.747
 3658SOL     OW11872   1.718   5.102   5.410
 3658SOL    HW111873   1.717   5.197   5.378
 3658SOL    HW211874   1.803   5.058   5.381
 3659SOL     OW11875   1.493   3.577   4.897
 3659SOL    HW111876   1.535   3.652   4.845
 3659SOL    HW211877   1.518   3.584   4.993
 3660SOL     OW11878   5.749   6.600   3.805
 3660SOL    HW111879   5.727   6.694   3.834
 3660SOL    HW211880   5.821   6.564   3.864
 3661SOL     OW11881   5.454   1.461   5.534
 3661SOL    HW111882   5.383   1.391   5.529
 3661SOL    HW211883   5.417   1.542   5.579
 3662SOL     OW11884   4.135   6.498   3.974
 3662SOL    HW111885   4.129   6.593   3.945
 3662SOL    HW211886   4.062   6.478   4.040
 3663SOL     OW11887   1.958   1.539   0.586
 3663SOL    HW111888   2.026   1.597   0.630
 3663SOL    HW211889   2.004   1.464   0.537
 3664SOL     OW11890   5.102   2.953   1.548
 3664SOL    HW111891   5.102   2.908   1.638
 3664SOL    HW211892   5.012   2.945   1.506
 3665SOL     OW11893   1.901   6.063   5.301
 3665SOL    HW111894   1.897   6.043   5.398
 3665SOL    HW211895   1.991   6.101   5.278
 3666SOL     OW11896   1.089   4.135   2.793
 3666SOL    HW111897   1.067   4.038   2.795
 3666SOL    HW211898   1.161   4.155   2.860
 3667SOL     OW11899   0.880   0.716   2.411
 3667SOL    HW111900   0.923   0.746   2.496
 3667SOL    HW211901   0.944   0.728   2.335
 3668SOL     OW11902   1.623   0.891   1.674
 3668SOL    HW111903   1.562   0.925   1.602
 3668SOL    HW211904   1.645   0.795   1.656
 3669SOL     OW11905   4.522   0.766   3.607
 3669SOL    HW111906   4.450   0.709   3.567
 3669SOL    HW211907   4.609   0.744   3.563
 3670SOL     OW11908   2.191   5.294   0.265
 3670SOL    HW111909   2.191   5.266   0.169
 3670SOL    HW211910   2.259   5.366   0.279
 3671SOL     OW11911   6.437   0.868   4.347
 3671SOL    HW111912   6.359   0.891   4.405
 3671SOL    HW211913   6.466   0.774   4.366
 3672SOL     OW11914   5.469   1.806   1.376
 3672SOL    HW111915   5.553   1.754   1.357
 3672SOL    HW211916   5.410   1.804   1.295
 3673SOL     OW11917   4.591   6.361   6.613
 3673SOL    HW111918   4.514   6.298   6.604
 3673SOL    HW211919   4.676   6.310   6.599
 3674SOL     OW11920   1.013   6.358   5.545
 3674SOL    HW111921   1.087   6.409   5.499
 3674SOL    HW211922   0.926   6.405   5.529
 3675SOL     OW11923   2.205   3.180   4.105
 3675SOL    HW111924   2.218   3.109   4.036
 3675SOL    HW211925   2.176   3.138   4.191
 3676SOL     OW11926   5.105   4.240   2.926
 3676SOL    HW111927   5.022   4.208   2.972
 3676SOL    HW211928   5.145   4.315   2.979
 3677SOL     OW11929   2.188   5.710   3.388
 3677SOL    HW111930   2.241   5.679   3.466
 3677SOL    HW211931   2.091   5.717   3.414
 3678SOL     OW11932   0.842   2.458   4.866
 3678SOL    HW111933   0.792   2.520   4.926
 3678SOL    HW211934   0.810   2.364   4.881
 3679SOL     OW11935   1.144   0.370   3.175
 3679SOL    HW111936   1.112   0.346   3.267
 3679SOL    HW211937   1.164   0.468   3.171
 3680SOL     OW11938   5.816   2.817   3.962
 3680SOL    HW111939   5.900   2.772   3.994
 3680SOL    HW211940   5.824   2.915   3.975
 3681SOL     OW11941   0.691   0.111   0.033
 3681SOL    HW111942   0.758   0.048   7.020
 3681SOL    HW211943   0.603   0.065   0.042
 3682SOL     OW11944   5.417   1.855   0.281
 3682SOL    HW111945   5.433   1.800   0.199
 3682SOL    HW211946   5.466   1.813   0.358
 3683SOL     OW11947   6.473   0.412   2.826
 3683SOL    HW111948   6.431   0.503   2.834
 3683SOL    HW211949   6.518   0.389   2.912
 3684SOL     OW11950   1.933   5.209   0.298
 3684SOL    HW111951   1.940   5.142   0.372
 3684SOL    HW211952   2.018   5.262   0.293
 3685SOL     OW11953   0.352   6.359   6.797
 3685SOL    HW111954   0.296   6.349   6.715
 3685SOL    HW211955   0.328   6.287   6.862
 3686SOL     OW11956   5.326   5.627   3.898
 3686SOL    HW111957   5.362   5.542   3.937
 3686SOL    HW211958   5.324   5.619   3.798
 3687SOL     OW11959   3.503   6.022   4.845
 3687SOL    HW111960   3.488   6.095   4.912
 3687SOL    HW211961   3.534   6.061   4.759
 3688SOL     OW11962   6.753   4.138   6.468
 3688SOL    HW111963   6.667   4.172   6.429
 3688SOL    HW211964   6.778   4.052   6.423
 3689SOL     OW11965   2.278   0.165   5.917
 3689SOL    HW111966   2.270   0.071   5.952
 3689SOL    HW211967   2.333   0.164   5.833
 3690SOL     OW11968   4.439   5.955   0.245
 3690SOL    HW111969   4.453   5.933   0.149
 3690SOL    HW211970   4.341   5.953   0.266
 3691SOL     OW11971   2.843   1.857   6.754
 3691SOL    HW111972   2.821   1.790   6.824
 3691SOL    HW211973   2.936   1.841   6.721
 3692SOL     OW11974   6.626   5.506   5.483
 3692SOL    HW111975   6.654   5.418   5.444
 3692SOL    HW211976   6.705   5.566   5.492
 3693SOL     OW11977   2.161   3.882   2.919
 3693SOL    HW111978   2.175   3.979   2.903
 3693SOL    HW211979   2.208   3.854   3.003
 3694SOL     OW11980   1.723   6.047   3.009
 3694SOL    HW111981   1.689   6.104   3.083
 3694SOL    HW211982   1.647   6.001   2.964
 3695SOL     OW11983   6.473   3.216   1.609
 3695SOL    HW111984   6.448   3.174   1.522
 3695SOL    HW211985   6.391   3.255   1.652
 3696SOL     OW11986   3.712   6.004   5.262
 3696SOL    HW111987   3.754   6.060   5.190
 3696SOL    HW211988   3.689   5.914   5.224
 3697SOL     OW11989   0.444   6.609   3.259
 3697SOL    HW111990   0.468   6.686   3.317
 3697SOL    HW211991   0.357   6.570   3.288
 3698SOL     OW11992   2.129   0.377   3.998
 3698SOL    HW111993   2.133   0.303   3.930
 3698SOL    HW211994   2.035   0.386   4.031
 3699SOL     OW11995   1.053   2.026   3.645
 3699SOL    HW111996   1.083   2.118   3.669
 3699SOL    HW211997   1.097   1.998   3.560
 3700SOL     OW11998   0.761   6.153   4.696
 3700SOL    HW111999   0.847   6.177   4.651
 3700SOL    HW212000   0.770   6.167   4.795
 3701SOL     OW12001   1.581   0.440   3.268
 3701SOL    HW112002   1.631   0.446   3.181
 3701SOL    HW212003   1.647   0.441   3.343
 3702SOL     OW12004   6.382   6.499   3.392
 3702SOL    HW112005   6.321   6.481   3.470
 3702SOL    HW212006   6.335   6.557   3.326
 3703SOL     OW12007   5.635   1.596   5.379
 3703SOL    HW112008   5.643   1.607   5.280
 3703SOL    HW212009   5.561   1.532   5.399
 3704SOL     OW12010   4.029   2.039   1.506
 3704SOL    HW112011   3.968   2.092   1.565
 3704SOL    HW212012   4.046   2.090   1.421
 3705SOL     OW12013   3.921   4.972   3.989
 3705SOL    HW112014   3.909   5.070   4.002
 3705SOL    HW212015   3.942   4.929   4.077
 3706SOL     OW12016   1.864   3.367   6.689
 3706SOL    HW112017   1.945   3.419   6.717
 3706SOL    HW212018   1.782   3.418   6.710
 3707SOL     OW12019   5.595   4.453   4.216
 3707SOL    HW112020   5.545   4.371   4.243
 3707SOL    HW212021   5.663   4.476   4.286
 3708SOL     OW12022   0.144   0.650   6.590
 3708SOL    HW112023   0.091   0.610   6.665
 3708SOL    HW212024   0.195   0.578   6.543
 3709SOL     OW12025   3.222   0.706   0.744
 3709SOL    HW112026   3.320   0.683   0.741
 3709SOL    HW212027   3.203   0.777   0.677
 3710SOL     OW12028   6.004   5.535   5.721
 3710SOL    HW112029   6.034   5.625   5.690
 3710SOL    HW212030   6.038   5.465   5.659
 3711SOL     OW12031   0.750   0.012   4.389
 3711SOL    HW112032   0.840   0.019   4.346
 3711SOL    HW212033   0.722   6.943   4.394
 3712SOL     OW12034   6.984   5.478   6.798
 3712SOL    HW112035   6.968   5.511   6.890
 3712SOL    HW212036   6.918   5.406   6.776
 3713SOL     OW12037   1.142   6.503   5.930
 3713SOL    HW112038   1.213   6.438   5.901
 3713SOL    HW212039   1.181   6.594   5.938
 3714SOL     OW12040   5.186   6.445   5.458
 3714SOL    HW112041   5.193   6.464   5.556
 3714SOL    HW212042   5.278   6.439   5.419
 3715SOL     OW12043   0.531   4.306   2.546
 3715SOL    HW112044   0.495   4.324   2.637
 3715SOL    HW212045   0.526   4.208   2.527
 3716SOL     OW12046   6.455   6.858   4.931
 3716SOL    HW112047   6.389   6.868   5.006
 3716SOL    HW212048   6.412   6.807   4.856
 3717SOL     OW12049   6.201   6.519   6.878
 3717SOL    HW112050   6.197   6.524   6.778
 3717SOL    HW212051   6.188   6.610   6.916
 3718SOL     OW12052   1.705   0.565   6.740
 3718SOL    HW112053   1.658   0.525   6.819
 3718SOL    HW212054   1.638   0.606   6.678
 3719SOL     OW12055   5.410   4.439   1.518
 3719SOL    HW112056   5.405   4.442   1.618
 3719SOL    HW212057   5.435   4.347   1.488
 3720SOL     OW12058   5.921   2.433   6.529
 3720SOL    HW112059   5.965   2.356   6.574
 3720SOL    HW212060   5.858   2.399   6.459
 3721SOL     OW12061   6.256   4.549   1.676
 3721SOL    HW112062   6.190   4.474   1.666
 3721SOL    HW212063   6.346   4.511   1.698
 3722SOL     OW12064   6.334   5.977   0.823
 3722SOL    HW112065   6.355   5.920   0.903
 3722SOL    HW212066   6.248   6.027   0.839
 3723SOL     OW12067   6.098   5.144   1.625
 3723SOL    HW112068   6.196   5.125   1.613
 3723SOL    HW212069   6.067   5.103   1.711
 3724SOL     OW12070   1.812   4.516   4.592
 3724SOL    HW112071   1.729   4.562   4.623
 3724SOL    HW212072   1.818   4.521   4.493
 3725SOL     OW12073   6.050   5.432   0.664
 3725SOL    HW112074   6.059   5.380   0.579
 3725SOL    HW212075   5.955   5.427   0.697
 3726SOL     OW12076   5.547   3.891   0.735
 3726SOL    HW112077   5.460   3.842   0.729
 3726SOL    HW212078   5.568   3.909   0.831
 3727SOL     OW12079   0.134   1.988   4.783
 3727SOL    HW112080   0.229   1.996   4.814
 3727SOL    HW212081   0.116   1.893   4.756
 3728SOL     OW12082   1.739   3.653   6.476
 3728SOL    HW112083   1.710   3.747   6.457
 3728SOL    HW212084   1.836   3.643   6.452
 3729SOL     OW12085   0.630   2.533   3.965
 3729SOL    HW112086   0.676   2.489   3.889
 3729SOL    HW212087   0.539   2.494   3.977
 3730SOL     OW12088   2.122   5.164   6.116
 3730SOL    HW112089   2.073   5.208   6.040
 3730SOL    HW212090   2.085   5.073   6.132
 3731SOL     OW12091   6.618   2.060   0.797
 3731SOL    HW112092   6.602   2.146   0.844
 3731SOL    HW212093   6.530   2.020   0.770
 3732SOL     OW12094   2.986   1.477   0.577
 3732SOL    HW112095   3.011   1.384   0.549
 3732SOL    HW212096   3.067   1.535   0.572
 3733SOL     OW12097   1.625   3.716   2.464
 3733SOL    HW112098   1.599   3.725   2.368
 3733SOL    HW212099   1.638   3.619   2.486
 3734SOL     OW12100   5.012   0.625   2.291
 3734SOL    HW112101   5.036   0.659   2.200
 3734SOL    HW212102   5.033   0.527   2.297
 3735SOL     OW12103   1.940   0.906   3.812
 3735SOL    HW112104   1.910   0.811   3.823
 3735SOL    HW212105   1.990   0.914   3.726
 3736SOL     OW12106   0.303   2.424   1.264
 3736SOL    HW112107   0.326   2.477   1.182
 3736SOL    HW212108   0.270   2.334   1.237
 3737SOL     OW12109   4.771   0.726   3.512
 3737SOL    HW112110   4.826   0.647   3.483
 3737SOL    HW212111   4.770   0.794   3.439
 3738SOL     OW12112   0.057   0.180   2.696
 3738SOL    HW112113   0.107   0.100   2.728
 3738SOL    HW212114   0.108   0.263   2.720
 3739SOL     OW12115   2.520   4.634   1.435
 3739SOL    HW112116   2.611   4.628   1.395
 3739SOL    HW212117   2.528   4.661   1.531
 3740SOL     OW12118   5.755   1.017   0.842
 3740SOL    HW112119   5.744   0.985   0.936
 3740SOL    HW212120   5.711   0.952   0.779
 3741SOL     OW12121   5.305   2.747   0.260
 3741SOL    HW112122   5.215   2.784   0.281
 3741SOL    HW212123   5.343   2.795   0.181
 3742SOL     OW12124   2.739   1.768   7.008
 3742SOL    HW112125   2.653   1.724   6.984
 3742SOL    HW212126   2.724   1.835   0.054
 3743SOL     OW12127   5.677   3.595   0.596
 3743SOL    HW112128   5.633   3.655   0.663
 3743SOL    HW212129   5.607   3.541   0.549
 3744SOL     OW12130   1.391   6.082   2.252
 3744SOL    HW112131   1.303   6.036   2.240
 3744SOL    HW212132   1.407   6.100   2.349
 3745SOL     OW12133   4.141   4.860   1.560
 3745SOL    HW112134   4.173   4.782   1.507
 3745SOL    HW212135   4.123   4.938   1.499
 3746SOL     OW12136   5.287   0.863   3.062
 3746SOL    HW112137   5.272   0.902   3.153
 3746SOL    HW212138   5.211   0.888   3.003
 3747SOL     OW12139   2.498   6.460   4.881
 3747SOL    HW112140   2.558   6.465   4.961
 3747SOL    HW212141   2.544   6.411   4.807
 3748SOL     OW12142   5.118   1.182   1.215
 3748SOL    HW112143   5.077   1.272   1.200
 3748SOL    HW212144   5.091   1.120   1.141
 3749SOL     OW12145   1.513   5.487   3.540
 3749SOL    HW112146   1.415   5.505   3.538
 3749SOL    HW212147   1.561   5.570   3.568
 3750SOL     OW12148   0.788   4.215   0.903
 3750SOL    HW112149   0.774   4.224   0.804
 3750SOL    HW212150   0.700   4.214   0.949
 3751SOL     OW12151   6.985   3.222   1.642
 3751SOL    HW112152   0.001   3.302   1.685
 3751SOL    HW212153   6.905   3.250   1.590
 3752SOL     OW12154   5.041   0.398   0.473
 3752SOL    HW112155   5.120   0.459   0.480
 3752SOL    HW212156   5.064   0.321   0.413
 3753SOL     OW12157   6.275   6.727   4.738
 3753SOL    HW112158   6.319   6.760   4.655
 3753SOL    HW212159   6.177   6.750   4.735
 3754SOL     OW12160   2.580   0.928   1.357
 3754SOL    HW112161   2.618   0.836   1.347
 3754SOL    HW212162   2.604   0.964   1.447
 3755SOL     OW12163   4.981   4.625   4.352
 3755SOL    HW112164   5.066   4.571   4.350
 3755SOL    HW212165   4.947   4.629   4.446
 3756SOL     OW12166   3.003   5.054   6.521
 3756SOL    HW112167   3.063   5.094   6.590
 3756SOL    HW212168   3.042   4.967   6.489
 3757SOL     OW12169   5.402   5.938   0.077
 3757SOL    HW112170   5.408   5.839   0.087
 3757SOL    HW212171   5.494   5.977   0.074
 3758SOL     OW12172   2.532   1.560   4.949
 3758SOL    HW112173   2.571   1.590   5.036
 3758SOL    HW212174   2.480   1.635   4.909
 3759SOL     OW12175   3.998   6.838   6.588
 3759SOL    HW112176   3.899   6.821   6.583
 3759SOL    HW212177   4.035   6.850   6.496
 3760SOL     OW12178   1.802   1.561   4.832
 3760SOL    HW112179   1.705   1.548   4.817
 3760SOL    HW212180   1.821   1.659   4.846
 3761SOL     OW12181   1.076   1.303   5.134
 3761SOL    HW112182   1.093   1.392   5.093
 3761SOL    HW212183   1.163   1.264   5.166
 3762SOL     OW12184   1.424   4.760   1.068
 3762SOL    HW112185   1.471   4.794   1.150
 3762SOL    HW212186   1.356   4.692   1.094
 3763SOL     OW12187   6.786   3.736   0.948
 3763SOL    HW112188   6.744   3.665   1.005
 3763SOL    HW212189   6.886   3.725   0.948
 3764SOL     OW12190   1.802   0.249   2.622
 3764SOL    HW112191   1.850   0.225   2.537
 3764SOL    HW212192   1.779   0.347   2.621
 3765SOL     OW12193   5.138   1.570   1.390
 3765SOL    HW112194   5.099   1.611   1.472
 3765SOL    HW212195   5.235   1.549   1.406
 3766SOL     OW12196   2.300   1.691   4.366
 3766SOL    HW112197   2.314   1.662   4.271
 3766SOL    HW212198   2.290   1.791   4.369
 3767SOL     OW12199   2.051   4.619   6.738
 3767SOL    HW112200   2.126   4.681   6.715
 3767SOL    HW212201   2.006   4.652   6.821
 3768SOL     OW12202   0.879   6.496   4.206
 3768SOL    HW112203   0.971   6.518   4.175
 3768SOL    HW212204   0.872   6.397   4.222
 3769SOL     OW12205   6.022   5.857   4.501
 3769SOL    HW112206   5.987   5.898   4.585
 3769SOL    HW212207   5.954   5.867   4.428
 3770SOL     OW12208   1.280   0.817   6.301
 3770SOL    HW112209   1.200   0.761   6.280
 3770SOL    HW212210   1.274   0.851   6.394
 3771SOL     OW12211   5.088   2.897   0.325
 3771SOL    HW112212   4.999   2.918   0.365
 3771SOL    HW212213   5.149   2.976   0.335
 3772SOL     OW12214   0.289   1.165   0.360
 3772SOL    HW112215   0.263   1.209   0.446
 3772SOL    HW212216   0.331   1.077   0.379
 3773SOL     OW12217   5.862   3.362   5.550
 3773SOL    HW112218   5.825   3.321   5.467
 3773SOL    HW212219   5.855   3.461   5.545
 3774SOL     OW12220   6.042   5.815   1.472
 3774SOL    HW112221   6.077   5.909   1.468
 3774SOL    HW212222   6.115   5.754   1.503
 3775SOL     OW12223   4.619   4.768   2.867
 3775SOL    HW112224   4.617   4.668   2.866
 3775SOL    HW212225   4.613   4.802   2.773
 3776SOL     OW12226   4.405   1.958   6.768
 3776SOL    HW112227   4.432   1.867   6.737
 3776SOL    HW212228   4.340   1.950   6.844
 3777SOL     OW12229   3.395   5.549   3.637
 3777SOL    HW112230   3.344   5.624   3.679
 3777SOL    HW212231   3.373   5.545   3.539
 3778SOL     OW12232   2.935   5.134   2.467
 3778SOL    HW112233   2.961   5.206   2.403
 3778SOL    HW212234   2.970   5.047   2.435
 3779SOL     OW12235   1.062   4.871   0.385
 3779SOL    HW112236   1.105   4.960   0.397
 3779SOL    HW212237   1.000   4.874   0.307
 3780SOL     OW12238   5.747   5.042   4.450
 3780SOL    HW112239   5.755   5.017   4.547
 3780SOL    HW212240   5.800   4.978   4.395
 3781SOL     OW12241   0.316   6.402   4.438
 3781SOL    HW112242   0.293   6.321   4.384
 3781SOL    HW212243   0.374   6.375   4.515
 3782SOL     OW12244   2.308   6.952   3.019
 3782SOL    HW112245   2.361   0.005   2.989
 3782SOL    HW212246   2.243   6.980   3.090
 3783SOL     OW12247   5.654   5.433   4.170
 3783SOL    HW112248   5.699   5.464   4.086
 3783SOL    HW212249   5.680   5.492   4.245
 3784SOL     OW12250   4.843   2.334   3.162
 3784SOL    HW112251   4.747   2.319   3.138
 3784SOL    HW212252   4.859   2.432   3.173
 3785SOL     OW12253   1.878   3.730   5.236
 3785SOL    HW112254   1.891   3.685   5.324
 3785SOL    HW212255   1.944   3.805   5.227
 3786SOL     OW12256   2.318   5.100   3.174
 3786SOL    HW112257   2.235   5.118   3.122
 3786SOL    HW212258   2.320   5.158   3.256
 3787SOL     OW12259   6.234   1.546   3.103
 3787SOL    HW112260   6.150   1.503   3.071
 3787SOL    HW212261   6.216   1.642   3.123
 3788SOL     OW12262   0.025   4.633   4.797
 3788SOL    HW112263   0.041   4.542   4.836
 3788SOL    HW212264   0.062   4.636   4.705
 3789SOL     OW12265   0.158   2.815   4.600
 3789SOL    HW112266   0.099   2.893   4.578
 3789SOL    HW212267   0.112   2.730   4.575
 3790SOL     OW12268   1.476   4.113   5.927
 3790SOL    HW112269   1.502   4.196   5.878
 3790SOL    HW212270   1.380   4.091   5.906
 3791SOL     OW12271   4.658   1.306   6.304
 3791SOL    HW112272   4.671   1.225   6.247
 3791SOL    HW212273   4.746   1.333   6.344
 3792SOL     OW12274   1.297   2.248   3.987
 3792SOL    HW112275   1.304   2.163   4.039
 3792SOL    HW212276   1.388   2.284   3.968
 3793SOL     OW12277   4.978   6.092   2.195
 3793SOL    HW112278   4.902   6.109   2.132
 3793SOL    HW212279   5.041   6.027   2.154
 3794SOL     OW12280   2.196   2.637   1.221
 3794SOL    HW112281   2.274   2.628   1.160
 3794SOL    HW212282   2.120   2.681   1.171
 3795SOL     OW12283   4.278   6.116   0.982
 3795SOL    HW112284   4.346   6.078   0.919
 3795SOL    HW212285   4.315   6.199   1.024
 3796SOL     OW12286   3.287   2.104   2.304
 3796SOL    HW112287   3.218   2.140   2.241
 3796SOL    HW212288   3.304   2.170   2.376
 3797SOL     OW12289   0.371   3.477   2.319
 3797SOL    HW112290   0.411   3.495   2.409
 3797SOL    HW212291   0.443   3.446   2.257
 3798SOL     OW12292   2.644   5.143   3.602
 3798SOL    HW112293   2.585   5.185   3.670
 3798SOL    HW212294   2.623   5.181   3.512
 3799SOL     OW12295   6.162   2.331   3.515
 3799SOL    HW112296   6.074   2.325   3.562
 3799SOL    HW212297   6.186   2.242   3.476
 3800SOL     OW12298   5.469   2.724   4.061
 3800SOL    HW112299   5.442   2.786   4.134
 3800SOL    HW212300   5.481   2.776   3.976
 3801SOL     OW12301   6.060   6.610   2.081
 3801SOL    HW112302   5.990   6.681   2.093
 3801SOL    HW212303   6.015   6.521   2.066
 3802SOL     OW12304   1.441   2.271   1.567
 3802SOL    HW112305   1.532   2.277   1.609
 3802SOL    HW212306   1.437   2.332   1.488
 3803SOL     OW12307   4.039   3.227   2.314
 3803SOL    HW112308   4.045   3.298   2.244
 3803SOL    HW212309   4.042   3.137   2.271
 3804SOL     OW12310   4.701   1.297   4.080
 3804SOL    HW112311   4.604   1.302   4.056
 3804SOL    HW212312   4.749   1.375   4.040
 3805SOL     OW12313   2.145   2.729   1.473
 3805SOL    HW112314   2.119   2.643   1.517
 3805SOL    HW212315   2.164   2.713   1.376
 3806SOL     OW12316   3.801   3.555   5.580
 3806SOL    HW112317   3.877   3.568   5.643
 3806SOL    HW212318   3.718   3.533   5.631
 3807SOL     OW12319   1.520   5.817   2.638
 3807SOL    HW112320   1.460   5.888   2.674
 3807SOL    HW212321   1.468   5.757   2.576
 3808SOL     OW12322   4.766   1.205   0.744
 3808SOL    HW112323   4.864   1.196   0.761
 3808SOL    HW212324   4.715   1.147   0.808
 3809SOL     OW12325   5.785   2.551   1.694
 3809SOL    HW112326   5.804   2.610   1.772
 3809SOL    HW212327   5.700   2.581   1.649
 3810SOL     OW12328   4.595   2.596   3.565
 3810SOL    HW112329   4.637   2.682   3.593
 3810SOL    HW212330   4.532   2.564   3.636
 3811SOL     OW12331   0.897   5.313   5.019
 3811SOL    HW112332   0.966   5.350   4.957
 3811SOL    HW212333   0.941   5.258   5.090
 3812SOL     OW12334   4.555   5.310   5.291
 3812SOL    HW112335   4.473   5.308   5.233
 3812SOL    HW212336   4.623   5.245   5.256
 3813SOL     OW12337   4.130   3.066   0.286
 3813SOL    HW112338   4.055   3.132   0.290
 3813SOL    HW212339   4.118   2.996   0.356
 3814SOL     OW12340   6.935   6.814   6.274
 3814SOL    HW112341   6.960   6.718   6.292
 3814SOL    HW212342   6.941   6.866   6.359
 3815SOL     OW12343   3.807   2.325   0.732
 3815SOL    HW112344   3.874   2.387   0.691
 3815SOL    HW212345   3.725   2.324   0.675
 3816SOL     OW12346   1.049   5.652   6.381
 3816SOL    HW112347   0.982   5.696   6.441
 3816SOL    HW212348   1.141   5.671   6.415
 3817SOL     OW12349   4.905   3.415   2.967
 3817SOL    HW112350   4.973   3.487   2.982
 3817SOL    HW212351   4.877   3.376   3.054
 3818SOL     OW12352   6.373   1.005   6.865
 3818SOL    HW112353   6.306   0.962   6.804
 3818SOL    HW212354   6.347   1.100   6.882
 3819SOL     OW12355   4.931   5.412   1.682
 3819SOL    HW112356   5.025   5.433   1.657
 3819SOL    HW212357   4.885   5.367   1.605
 3820SOL     OW12358   5.433   6.810   3.874
 3820SOL    HW112359   5.386   6.723   3.860
 3820SOL    HW212360   5.397   6.878   3.809
 3821SOL     OW12361   2.370   1.546   1.491
 3821SOL    HW112362   2.359   1.573   1.587
 3821SOL    HW212363   2.464   1.561   1.463
 3822SOL     OW12364   2.451   0.445   1.287
 3822SOL    HW112365   2.358   0.482   1.287
 3822SOL    HW212366   2.516   0.519   1.303
 3823SOL     OW12367   3.531   3.609   5.885
 3823SOL    HW112368   3.441   3.622   5.927
 3823SOL    HW212369   3.578   3.697   5.880
 3824SOL     OW12370   0.228   3.298   0.297
 3824SOL    HW112371   0.130   3.296   0.278
 3824SOL    HW212372   0.269   3.211   0.269
 3825SOL     OW12373   0.232   5.691   0.790
 3825SOL    HW112374   0.223   5.599   0.753
 3825SOL    HW212375   0.297   5.690   0.866
 3826SOL     OW12376   1.024   3.030   6.820
 3826SOL    HW112377   1.045   3.074   6.733
 3826SOL    HW212378   1.106   3.027   6.877
 3827SOL     OW12379   1.561   1.213   1.945
 3827SOL    HW112380   1.563   1.113   1.956
 3827SOL    HW212381   1.633   1.240   1.882
 3828SOL     OW12382   3.356   3.507   2.505
 3828SOL    HW112383   3.410   3.590   2.517
 3828SOL    HW212384   3.408   3.440   2.453
 3829SOL     OW12385   1.587   5.219   3.100
 3829SOL    HW112386   1.504   5.273   3.089
 3829SOL    HW212387   1.638   5.219   3.014
 3830SOL     OW12388   0.859   1.175   5.253
 3830SOL    HW112389   0.857   1.177   5.353
 3830SOL    HW212390   0.933   1.235   5.220
 3831SOL     OW12391   4.649   2.631   2.380
 3831SOL    HW112392   4.745   2.616   2.357
 3831SOL    HW212393   4.613   2.707   2.327
 3832SOL     OW12394   5.851   0.735   3.002
 3832SOL    HW112395   5.768   0.770   3.044
 3832SOL    HW212396   5.857   0.768   2.908
 3833SOL     OW12397   0.384   6.642   6.221
 3833SOL    HW112398   0.335   6.573   6.168
 3833SOL    HW212399   0.425   6.599   6.301
 3834SOL     OW12400   4.308   4.387   1.387
 3834SOL    HW112401   4.322   4.295   1.350
 3834SOL    HW212402   4.338   4.389   1.483
 3835SOL     OW12403   3.697   5.649   4.728
 3835SOL    HW112404   3.637   5.590   4.781
 3835SOL    HW212405   3.765   5.691   4.789
 3836SOL     OW12406   1.516   3.844   6.123
 3836SOL    HW112407   1.524   3.881   6.030
 3836SOL    HW212408   1.439   3.781   6.127
 3837SOL     OW12409   4.613   4.720   6.067
 3837SOL    HW112410   4.607   4.733   6.166
 3837SOL    HW212411   4.555   4.788   6.021
 3838SOL     OW12412   0.657   3.895   4.361
 3838SOL    HW112413   0.669   3.797   4.379
 3838SOL    HW212414   0.746   3.940   4.361
 3839SOL     OW12415   5.352   0.919   4.104
 3839SOL    HW112416   5.410   0.838   4.109
 3839SOL    HW212417   5.256   0.892   4.103
 3840SOL     OW12418   2.559   0.905   6.123
 3840SOL    HW112419   2.560   0.950   6.213
 3840SOL    HW212420   2.465   0.893   6.093
 3841SOL     OW12421   6.895   3.255   4.223
 3841SOL    HW112422   6.974   3.314   4.209
 3841SOL    HW212423   6.832   3.264   4.145
 3842SOL     OW12424   2.187   3.181   1.155
 3842SOL    HW112425   2.284   3.206   1.156
 3842SOL    HW212426   2.135   3.252   1.108
 3843SOL     OW12427   5.734   4.727   2.173
 3843SOL    HW112428   5.733   4.627   2.175
 3843SOL    HW212429   5.641   4.761   2.186
 3844SOL     OW12430   0.643   2.997   6.130
 3844SOL    HW112431   0.730   2.951   6.151
 3844SOL    HW212432   0.648   3.039   6.040
 3845SOL     OW12433   2.987   3.458   5.331
 3845SOL    HW112434   2.928   3.402   5.272
 3845SOL    HW212435   2.946   3.549   5.342
 3846SOL     OW12436   0.556   5.350   3.732
 3846SOL    HW112437   0.624   5.401   3.679
 3846SOL    HW212438   0.482   5.412   3.759
 3847SOL     OW12439   5.659   1.173   4.527
 3847SOL    HW112440   5.568   1.208   4.510
 3847SOL    HW212441   5.722   1.249   4.544
 3848SOL     OW12442   4.555   5.178   3.015
 3848SOL    HW112443   4.459   5.175   2.984
 3848SOL    HW212444   4.558   5.198   3.113
 3849SOL     OW12445   1.794   1.094   5.914
 3849SOL    HW112446   1.746   1.007   5.907
 3849SOL    HW212447   1.728   1.169   5.914
 3850SOL     OW12448   2.394   3.626   1.154
 3850SOL    HW112449   2.404   3.725   1.145
 3850SOL    HW212450   2.463   3.591   1.217
 3851SOL     OW12451   0.804   4.606   1.924
 3851SOL    HW112452   0.713   4.638   1.953
 3851SOL    HW212453   0.872   4.633   1.992
 3852SOL     OW12454   4.463   6.452   3.883
 3852SOL    HW112455   4.368   6.474   3.907
 3852SOL    HW212456   4.467   6.361   3.844
 3853SOL     OW12457   1.059   4.177   3.087
 3853SOL    HW112458   0.973   4.225   3.105
 3853SOL    HW212459   1.053   4.127   3.001
 3854SOL     OW12460   1.782   3.225   2.467
 3854SOL    HW112461   1.859   3.182   2.514
 3854SOL    HW212462   1.804   3.236   2.370
 3855SOL     OW12463   5.329   6.573   6.110
 3855SOL    HW112464   5.319   6.500   6.177
 3855SOL    HW212465   5.251   6.570   6.046
 3856SOL     OW12466   0.435   0.885   6.138
 3856SOL    HW112467   0.436   0.800   6.191
 3856SOL    HW212468   0.354   0.939   6.163
 3857SOL     OW12469   0.193   6.122   6.900
 3857SOL    HW112470   0.098   6.129   6.931
 3857SOL    HW212471   0.197   6.067   6.817
 3858SOL     OW12472   1.674   0.287   5.547
 3858SOL    HW112473   1.742   0.344   5.594
 3858SOL    HW212474   1.632   0.340   5.473
 3859SOL     OW12475   6.030   1.237   2.751
 3859SOL    HW112476   5.939   1.256   2.714
 3859SOL    HW212477   6.091   1.211   2.677
 3860SOL     OW12478   3.035   0.307   5.871
 3860SOL    HW112479   3.022   0.290   5.969
 3860SOL    HW212480   2.947   0.327   5.828
 3861SOL     OW12481   4.919   4.730   3.353
 3861SOL    HW112482   4.908   4.631   3.348
 3861SOL    HW212483   4.908   4.770   3.261
 3862SOL     OW12484   1.323   0.275   5.450
 3862SOL    HW112485   1.402   0.298   5.393
 3862SOL    HW212486   1.295   0.357   5.500
 3863SOL     OW12487   4.717   2.922   6.627
 3863SOL    HW112488   4.794   2.955   6.573
 3863SOL    HW212489   4.712   2.973   6.713
 3864SOL     OW12490   2.548   0.396   5.453
 3864SOL    HW112491   2.561   0.349   5.365
 3864SOL    HW212492   2.637   0.411   5.496
 3865SOL     OW12493   3.350   0.312   0.077
 3865SOL    HW112494   3.318   0.240   0.139
 3865SOL    HW212495   3.430   0.357   0.118
 3866SOL     OW12496   4.078   1.034   1.271
 3866SOL    HW112497   4.137   1.030   1.190
 3866SOL    HW212498   4.134   1.057   1.351
 3867SOL     OW12499   1.537   3.995   3.249
 3867SOL    HW112500   1.473   3.971   3.176
 3867SOL    HW212501   1.490   4.050   3.317
 3868SOL     OW12502   3.290   7.004   0.176
 3868SOL    HW112503   3.298   6.904   0.173
 3868SOL    HW212504   3.352   0.014   0.246
 3869SOL     OW12505   5.883   4.402   5.258
 3869SOL    HW112506   5.959   4.447   5.211
 3869SOL    HW212507   5.847   4.462   5.330
 3870SOL     OW12508   4.831   5.127   6.859
 3870SOL    HW112509   4.813   5.079   6.945
 3870SOL    HW212510   4.885   5.209   6.878
 3871SOL     OW12511   3.420   0.353   2.630
 3871SOL    HW112512   3.427   0.401   2.542
 3871SOL    HW212513   3.512   0.341   2.668
 3872SOL     OW12514   3.800   3.045   3.259
 3872SOL    HW112515   3.716   2.997   3.286
 3872SOL    HW212516   3.861   3.053   3.338
 3873SOL     OW12517   6.041   3.028   2.074
 3873SOL    HW112518   5.969   2.990   2.132
 3873SOL    HW212519   6.015   3.120   2.045
 3874SOL     OW12520   4.137   5.898   6.685
 3874SOL    HW112521   4.172   5.907   6.778
 3874SOL    HW212522   4.062   5.831   6.684
 3875SOL     OW12523   1.798   2.875   1.768
 3875SOL    HW112524   1.742   2.845   1.845
 3875SOL    HW212525   1.767   2.965   1.736
 3876SOL     OW12526   4.607   4.844   0.295
 3876SOL    HW112527   4.568   4.908   0.229
 3876SOL    HW212528   4.558   4.757   0.291
 3877SOL     OW12529   6.758   2.835   0.417
 3877SOL    HW112530   6.820   2.757   0.412
 3877SOL    HW212531   6.693   2.820   0.491
 3878SOL     OW12532   3.197   6.712   4.373
 3878SOL    HW112533   3.280   6.699   4.318
 3878SOL    HW212534   3.217   6.775   4.448
 3879SOL     OW12535   4.951   6.224   1.178
 3879SOL    HW112536   4.957   6.238   1.277
 3879SOL    HW212537   4.925   6.310   1.134
 3880SOL     OW12538   6.409   5.002   3.680
 3880SOL    HW112539   6.499   5.037   3.654
 3880SOL    HW212540   6.338   5.050   3.628
 3881SOL     OW12541   1.073   4.483   1.074
 3881SOL    HW112542   1.105   4.490   1.169
 3881SOL    HW212543   1.041   4.390   1.056
 3882SOL     OW12544   0.957   1.685   5.458
 3882SOL    HW112545   1.039   1.639   5.426
 3882SOL    HW212546   0.878   1.624   5.450
 3883SOL     OW12547   4.233   0.821   3.878
 3883SOL    HW112548   4.206   0.729   3.850
 3883SOL    HW212549   4.154   0.868   3.918
 3884SOL     OW12550   0.564   5.315   3.154
 3884SOL    HW112551   0.594   5.408   3.177
 3884SOL    HW212552   0.464   5.313   3.144
 3885SOL     OW12553   6.081   0.515   2.548
 3885SOL    HW112554   6.164   0.565   2.571
 3885SOL    HW212555   6.061   0.526   2.451
 3886SOL     OW12556   6.404   5.618   4.604
 3886SOL    HW112557   6.356   5.604   4.690
 3886SOL    HW212558   6.503   5.624   4.622
 3887SOL     OW12559   0.221   1.034   6.312
 3887SOL    HW112560   0.213   1.088   6.228
 3887SOL    HW212561   0.221   1.096   6.391
 3888SOL     OW12562   0.689   0.235   6.713
 3888SOL    HW112563   0.704   0.251   6.615
 3888SOL    HW212564   0.746   0.158   6.742
 3889SOL     OW12565   6.891   3.673   5.737
 3889SOL    HW112566   6.815   3.732   5.710
 3889SOL    HW212567   6.875   3.640   5.830
 3890SOL     OW12568   5.799   5.747   2.597
 3890SOL    HW112569   5.705   5.751   2.631
 3890SOL    HW212570   5.820   5.653   2.571
 3891SOL     OW12571   5.765   4.459   3.986
 3891SOL    HW112572   5.812   4.377   3.953
 3891SOL    HW212573   5.704   4.434   4.061
 3892SOL     OW12574   0.290   2.472   1.524
 3892SOL    HW112575   0.278   2.464   1.425
 3892SOL    HW212576   0.223   2.414   1.570
 3893SOL     OW12577   3.301   5.483   0.857
 3893SOL    HW112578   3.341   5.552   0.917
 3893SOL    HW212579   3.369   5.456   0.788
 3894SOL     OW12580   2.970   2.170   0.878
 3894SOL    HW112581   3.022   2.142   0.797
 3894SOL    HW212582   2.872   2.170   0.857
 3895SOL     OW12583   1.773   0.411   5.225
 3895SOL    HW112584   1.850   0.406   5.289
 3895SOL    HW212585   1.766   0.324   5.175
 3896SOL     OW12586   0.362   1.615   6.676
 3896SOL    HW112587   0.337   1.522   6.651
 3896SOL    HW212588   0.363   1.673   6.594
 3897SOL     OW12589   3.565   6.501   2.140
 3897SOL    HW112590   3.658   6.468   2.150
 3897SOL    HW212591   3.561   6.570   2.068
 3898SOL     OW12592   3.619   3.484   4.033
 3898SOL    HW112593   3.577   3.398   4.004
 3898SOL    HW212594   3.609   3.494   4.132
 3899SOL     OW12595   5.032   0.972   4.781
 3899SOL    HW112596   5.001   0.877   4.776
 3899SOL    HW212597   5.125   0.974   4.819
 3900SOL     OW12598   4.983   2.633   3.844
 3900SOL    HW112599   5.058   2.597   3.899
 3900SOL    HW212600   4.939   2.558   3.795
 3901SOL     OW12601   3.195   6.281   5.243
 3901SOL    HW112602   3.194   6.374   5.205
 3901SOL    HW212603   3.289   6.246   5.244
 3902SOL     OW12604   5.983   3.702   1.270
 3902SOL    HW112605   6.048   3.628   1.254
 3902SOL    HW212606   5.890   3.667   1.258
 3903SOL     OW12607   5.029   4.453   6.734
 3903SOL    HW112608   5.016   4.462   6.635
 3903SOL    HW212609   5.011   4.540   6.779
 3904SOL     OW12610   2.238   6.767   5.585
 3904SOL    HW112611   2.182   6.730   5.659
 3904SOL    HW212612   2.334   6.746   5.602
 3905SOL     OW12613   6.040   6.992   5.851
 3905SOL    HW112614   6.111   6.922   5.864
 3905SOL    HW212615   6.034   0.023   5.933
 3906SOL     OW12616   2.254   5.702   5.361
 3906SOL    HW112617   2.202   5.726   5.443
 3906SOL    HW212618   2.246   5.604   5.344
 3907SOL     OW12619   6.787   6.714   4.997
 3907SOL    HW112620   6.756   6.807   4.979
 3907SOL    HW212621   6.708   6.654   5.011
 3908SOL     OW12622   1.555   0.898   6.872
 3908SOL    HW112623   1.560   0.925   6.776
 3908SOL    HW212624   1.513   0.971   6.925
 3909SOL     OW12625   0.164   4.894   6.441
 3909SOL    HW112626   0.194   4.949   6.519
 3909SOL    HW212627   0.130   4.806   6.475
 3910SOL     OW12628   3.611   4.183   1.905
 3910SOL    HW112629   3.558   4.100   1.894
 3910SOL    HW212630   3.574   4.237   1.980
 3911SOL     OW12631   4.511   1.841   0.053
 3911SOL    HW112632   4.515   1.750   0.094
 3911SOL    HW212633   4.447   1.898   0.105
 3912SOL     OW12634   3.631   1.703   6.319
 3912SOL    HW112635   3.599   1.610   6.339
 3912SOL    HW212636   3.593   1.766   6.386
 3913SOL     OW12637   2.836   6.142   6.724
 3913SOL    HW112638   2.833   6.241   6.736
 3913SOL    HW212639   2.852   6.121   6.627
 3914SOL     OW12640   5.236   0.704   1.203
 3914SOL    HW112641   5.215   0.693   1.106
 3914SOL    HW212642   5.152   0.722   1.253
 3915SOL     OW12643   4.057   6.237   0.843
 3915SOL    HW112644   4.071   6.190   0.756
 3915SOL    HW212645   4.119   6.200   0.912
 3916SOL     OW12646   1.917   6.548   2.480
 3916SOL    HW112647   1.825   6.558   2.519
 3916SOL    HW212648   1.985   6.574   2.548
 3917SOL     OW12649   1.232   4.534   0.640
 3917SOL    HW112650   1.318   4.503   0.600
 3917SOL    HW212651   1.184   4.456   0.681
 3918SOL     OW12652   4.357   6.413   2.023
 3918SOL    HW112653   4.348   6.452   1.932
 3918SOL    HW212654   4.355   6.487   2.091
 3919SOL     OW12655   3.270   6.990   6.563
 3919SOL    HW112656   3.240   6.920   6.628
 3919SOL    HW212657   3.198   0.032   6.551
 3920SOL     OW12658   2.518   2.225   6.320
 3920SOL    HW112659   2.546   2.290   6.250
 3920SOL    HW212660   2.599   2.181   6.359
 3921SOL     OW12661   0.502   3.153   0.029
 3921SOL    HW112662   0.488   3.223   0.099
 3921SOL    HW212663   0.524   3.066   0.073
 3922SOL     OW12664   4.617   5.128   0.411
 3922SOL    HW112665   4.551   5.059   0.442
 3922SOL    HW212666   4.684   5.145   0.483
 3923SOL     OW12667   6.287   1.924   0.210
 3923SOL    HW112668   6.216   1.930   0.280
 3923SOL    HW212669   6.360   1.989   0.230
 3924SOL     OW12670   0.476   4.942   2.905
 3924SOL    HW112671   0.447   5.036   2.921
 3924SOL    HW212672   0.417   4.880   2.956
 3925SOL     OW12673   4.150   4.275   0.778
 3925SOL    HW112674   4.137   4.281   0.877
 3925SOL    HW212675   4.197   4.190   0.756
 3926SOL     OW12676   6.895   6.776   4.047
 3926SOL    HW112677   6.990   6.786   4.077
 3926SOL    HW212678   6.859   6.689   4.080
 3927SOL     OW12679   6.980   3.009   4.528
 3927SOL    HW112680   6.891   3.027   4.486
 3927SOL    HW212681   0.026   3.040   4.466
 3928SOL     OW12682   4.149   5.585   4.947
 3928SOL    HW112683   4.170   5.560   5.041
 3928SOL    HW212684   4.169   5.508   4.886
 3929SOL     OW12685   0.336   1.862   6.831
 3929SOL    HW112686   0.338   1.930   6.758
 3929SOL    HW212687   0.347   1.771   6.792
 3930SOL     OW12688   1.576   2.172   3.367
 3930SOL    HW112689   1.598   2.165   3.270
 3930SOL    HW212690   1.647   2.128   3.421
 3931SOL     OW12691   2.115   1.691   1.978
 3931SOL    HW112692   2.017   1.688   1.998
 3931SOL    HW212693   2.160   1.758   2.038
 3932SOL     OW12694   1.883   4.256   3.670
 3932SOL    HW112695   1.945   4.321   3.626
 3932SOL    HW212696   1.799   4.303   3.697
 3933SOL     OW12697   1.816   0.033   0.212
 3933SOL    HW112698   1.721   0.054   0.236
 3933SOL    HW212699   1.821   0.010   0.115
 3934SOL     OW12700   0.426   0.898   2.123
 3934SOL    HW112701   0.510   0.881   2.174
 3934SOL    HW212702   0.355   0.932   2.184
 3935SOL     OW12703   1.842   0.986   5.465
 3935SOL    HW112704   1.856   1.071   5.516
 3935SOL    HW212705   1.747   0.955   5.476
 3936SOL     OW12706   6.706   6.298   5.327
 3936SOL    HW112707   6.783   6.263   5.274
 3936SOL    HW212708   6.627   6.312   5.267
 3937SOL     OW12709   0.107   6.611   2.867
 3937SOL    HW112710   0.047   6.573   2.796
 3937SOL    HW212711   0.113   6.546   2.943
 3938SOL     OW12712   5.944   2.844   3.526
 3938SOL    HW112713   5.881   2.922   3.529
 3938SOL    HW212714   6.027   2.867   3.576
 3939SOL     OW12715   2.895   2.069   3.064
 3939SOL    HW112716   2.814   2.121   3.035
 3939SOL    HW212717   2.893   2.057   3.163
 3940SOL     OW12718   3.770   4.974   2.039
 3940SOL    HW112719   3.674   4.947   2.047
 3940SOL    HW212720   3.829   4.894   2.054
 3941SOL     OW12721   6.322   0.271   5.009
 3941SOL    HW112722   6.288   0.365   5.009
 3941SOL    HW212723   6.281   0.220   4.934
 3942SOL     OW12724   1.071   6.173   5.702
 3942SOL    HW112725   1.139   6.208   5.766
 3942SOL    HW212726   1.035   6.247   5.646
 3943SOL     OW12727   0.473   3.495   2.594
 3943SOL    HW112728   0.501   3.399   2.596
 3943SOL    HW212729   0.386   3.505   2.642
 3944SOL     OW12730   5.746   3.598   5.440
 3944SOL    HW112731   5.735   3.634   5.533
 3944SOL    HW212732   5.776   3.671   5.379
 3945SOL     OW12733   1.187   2.394   2.704
 3945SOL    HW112734   1.104   2.450   2.710
 3945SOL    HW212735   1.165   2.305   2.664
 3946SOL     OW12736   6.565   4.241   6.124
 3946SOL    HW112737   6.527   4.259   6.033
 3946SOL    HW212738   6.647   4.297   6.138
 3947SOL     OW12739   5.399   5.511   1.378
 3947SOL    HW112740   5.480   5.568   1.370
 3947SOL    HW212741   5.423   5.423   1.420
 3948SOL     OW12742   0.626   5.056   0.423
 3948SOL    HW112743   0.528   5.053   0.401
 3948SOL    HW212744   0.638   5.054   0.523
 3949SOL     OW12745   6.226   6.658   3.221
 3949SOL    HW112746   6.218   6.645   3.122
 3949SOL    HW212747   6.148   6.712   3.254
 3950SOL     OW12748   3.468   4.144   1.286
 3950SOL    HW112749   3.544   4.156   1.350
 3950SOL    HW212750   3.490   4.072   1.220
 3951SOL     OW12751   0.271   0.532   6.959
 3951SOL    HW112752   0.254   0.549   0.031
 3951SOL    HW212753   0.364   0.560   6.936
 3952SOL     OW12754   6.083   3.375   4.654
 3952SOL    HW112755   6.024   3.329   4.588
 3952SOL    HW212756   6.131   3.450   4.609
 3953SOL     OW12757   3.610   4.881   6.917
 3953SOL    HW112758   3.614   4.976   6.886
 3953SOL    HW212759   3.527   4.868   6.972
 3954SOL     OW12760   5.620   5.508   5.524
 3954SOL    HW112761   5.645   5.485   5.618
 3954SOL    HW212762   5.588   5.425   5.477
 3955SOL     OW12763   4.650   6.731   6.799
 3955SOL    HW112764   4.561   6.726   6.844
 3955SOL    HW212765   4.700   6.810   6.834
 3956SOL     OW12766   1.370   1.942   4.374
 3956SOL    HW112767   1.417   1.940   4.463
 3956SOL    HW212768   1.273   1.964   4.388
 3957SOL     OW12769   4.325   0.010   3.521
 3957SOL    HW112770   4.266   0.078   3.477
 3957SOL    HW212771   4.276   6.994   3.597
 3958SOL     OW12772   5.891   0.234   6.373
 3958SOL    HW112773   5.870   0.322   6.414
 3958SOL    HW212774   5.811   0.174   6.381
 3959SOL     OW12775   3.441   6.627   0.565
 3959SOL    HW112776   3.540   6.639   0.576
 3959SOL    HW212777   3.402   6.590   0.649
 3960SOL     OW12778   5.924   1.908   5.988
 3960SOL    HW112779   5.917   1.891   5.890
 3960SOL    HW212780   5.841   1.875   6.034
 3961SOL     OW12781   5.251   3.013   2.582
 3961SOL    HW112782   5.214   2.978   2.496
 3961SOL    HW212783   5.197   2.978   2.658
 3962SOL     OW12784   1.284   5.699   6.499
 3962SOL    HW112785   1.378   5.732   6.487
 3962SOL    HW212786   1.245   5.739   6.582
 3963SOL     OW12787   5.100   4.954   3.797
 3963SOL    HW112788   5.065   4.936   3.705
 3963SOL    HW212789   5.027   4.994   3.852
 3964SOL     OW12790   4.140   4.801   4.932
 3964SOL    HW112791   4.205   4.874   4.914
 3964SOL    HW212792   4.190   4.716   4.953
 3965SOL     OW12793   4.215   3.978   6.398
 3965SOL    HW112794   4.291   3.933   6.445
 3965SOL    HW212795   4.196   4.066   6.442
 3966SOL     OW12796   6.858   5.045   0.127
 3966SOL    HW112797   6.797   4.966   0.123
 3966SOL    HW212798   6.850   5.090   0.216
 3967SOL     OW12799   1.320   4.724   2.546
 3967SOL    HW112800   1.373   4.639   2.552
 3967SOL    HW212801   1.383   4.801   2.544
 3968SOL     OW12802   6.794   0.370   1.130
 3968SOL    HW112803   6.849   0.328   1.202
 3968SOL    HW212804   6.850   0.378   1.047
 3969SOL     OW12805   0.357   3.912   3.015
 3969SOL    HW112806   0.441   3.864   3.040
 3969SOL    HW212807   0.315   3.950   3.097
 3970SOL     OW12808   4.349   5.246   3.791
 3970SOL    HW112809   4.307   5.241   3.701
 3970SOL    HW212810   4.435   5.195   3.791
 3971SOL     OW12811   2.375   4.794   2.186
 3971SOL    HW112812   2.453   4.731   2.179
 3971SOL    HW212813   2.300   4.747   2.232
 3972SOL     OW12814   1.866   5.479   1.716
 3972SOL    HW112815   1.818   5.439   1.794
 3972SOL    HW212816   1.965   5.472   1.732
 3973SOL     OW12817   2.301   4.540   5.585
 3973SOL    HW112818   2.315   4.628   5.540
 3973SOL    HW212819   2.205   4.531   5.611
 3974SOL     OW12820   2.082   0.845   5.801
 3974SOL    HW112821   2.080   0.944   5.789
 3974SOL    HW212822   2.060   0.822   5.896
 3975SOL     OW12823   5.793   0.086   6.721
 3975SOL    HW112824   5.876   0.142   6.725
 3975SOL    HW212825   5.818   7.016   6.717
 3976SOL     OW12826   2.235   4.859   1.087
 3976SOL    HW112827   2.155   4.803   1.106
 3976SOL    HW212828   2.316   4.815   1.125
 3977SOL     OW12829   3.100   4.955   5.382
 3977SOL    HW112830   3.045   4.891   5.435
 3977SOL    HW212831   3.091   4.934   5.285
 3978SOL     OW12832   5.830   0.562   4.455
 3978SOL    HW112833   5.905   0.615   4.418
 3978SOL    HW212834   5.866   0.482   4.504
 3979SOL     OW12835   2.425   6.184   1.493
 3979SOL    HW112836   2.343   6.134   1.520
 3979SOL    HW212837   2.454   6.155   1.402
 3980SOL     OW12838   0.149   4.487   6.316
 3980SOL    HW112839   0.057   4.469   6.350
 3980SOL    HW212840   0.189   4.402   6.282
 3981SOL     OW12841   1.561   1.798   6.745
 3981SOL    HW112842   1.568   1.887   6.789
 3981SOL    HW212843   1.528   1.809   6.652
 3982SOL     OW12844   2.336   0.278   4.161
 3982SOL    HW112845   2.285   0.336   4.224
 3982SOL    HW212846   2.312   0.301   4.067
 3983SOL     OW12847   3.850   5.673   4.222
 3983SOL    HW112848   3.825   5.666   4.319
 3983SOL    HW212849   3.800   5.605   4.170
 3984SOL     OW12850   2.335   0.566   2.345
 3984SOL    HW112851   2.279   0.646   2.324
 3984SOL    HW212852   2.328   0.499   2.271
 3985SOL     OW12853   2.238   4.409   6.800
 3985SOL    HW112854   2.216   4.334   6.739
 3985SOL    HW212855   2.175   4.485   6.784
 3986SOL     OW12856   6.722   1.531   3.388
 3986SOL    HW112857   6.628   1.509   3.366
 3986SOL    HW212858   6.781   1.452   3.367
 3987SOL     OW12859   1.636   5.942   4.954
 3987SOL    HW112860   1.636   5.850   4.915
 3987SOL    HW212861   1.620   5.937   5.052
 3988SOL     OW12862   3.895   2.822   5.574
 3988SOL    HW112863   3.931   2.863   5.490
 3988SOL    HW212864   3.954   2.747   5.603
 3989SOL     OW12865   6.596   1.498   0.114
 3989SOL    HW112866   6.614   1.596   0.111
 3989SOL    HW212867   6.646   1.457   0.190
 3990SOL     OW12868   6.240   1.555   3.906
 3990SOL    HW112869   6.147   1.544   3.869
 3990SOL    HW212870   6.253   1.490   3.981
 3991SOL     OW12871   5.700   1.533   2.165
 3991SOL    HW112872   5.613   1.560   2.124
 3991SOL    HW212873   5.742   1.612   2.209
 3992SOL     OW12874   4.125   1.923   6.641
 3992SOL    HW112875   4.167   1.967   6.720
 3992SOL    HW212876   4.157   1.967   6.557
 3993SOL     OW12877   1.255   2.122   3.416
 3993SOL    HW112878   1.223   2.209   3.454
 3993SOL    HW212879   1.354   2.125   3.408
 3994SOL     OW12880   1.536   2.745   5.596
 3994SOL    HW112881   1.489   2.780   5.677
 3994SOL    HW212882   1.472   2.690   5.542
 3995SOL     OW12883   2.184   3.836   4.476
 3995SOL    HW112884   2.127   3.754   4.474
 3995SOL    HW212885   2.126   3.916   4.495
 3996SOL     OW12886   1.517   0.715   4.629
 3996SOL    HW112887   1.507   0.694   4.532
 3996SOL    HW212888   1.505   0.813   4.644
 3997SOL     OW12889   4.834   2.813   3.059
 3997SOL    HW112890   4.839   2.827   2.960
 3997SOL    HW212891   4.798   2.895   3.103
 3998SOL     OW12892   4.891   1.577   2.477
 3998SOL    HW112893   4.807   1.588   2.531
 3998SOL    HW212894   4.868   1.575   2.380
 3999SOL     OW12895   5.294   3.363   3.753
 3999SOL    HW112896   5.329   3.451   3.721
 3999SOL    HW212897   5.265   3.372   3.849
 4000SOL     OW12898   3.437   5.712   2.783
 4000SOL    HW112899   3.357   5.773   2.788
 4000SOL    HW212900   3.406   5.617   2.784
 4001SOL     OW12901   1.513   2.622   4.411
 4001SOL    HW112902   1.611   2.640   4.410
 4001SOL    HW212903   1.495   2.536   4.459
 4002SOL     OW12904   2.536   3.062   0.199
 4002SOL    HW112905   2.570   3.011   0.120
 4002SOL    HW212906   2.468   3.129   0.168
 4003SOL     OW12907   2.700   6.938   5.747
 4003SOL    HW112908   2.700   6.931   5.847
 4003SOL    HW212909   2.767   7.006   5.719
 4004SOL     OW12910   5.983   2.636   4.119
 4004SOL    HW112911   5.925   2.562   4.152
 4004SOL    HW212912   6.002   2.699   4.194
 4005SOL     OW12913   5.117   5.206   1.045
 4005SOL    HW112914   5.146   5.191   0.950
 4005SOL    HW212915   5.187   5.170   1.107
 4006SOL     OW12916   4.425   4.640   1.797
 4006SOL    HW112917   4.404   4.617   1.892
 4006SOL    HW212918   4.500   4.706   1.794
 4007SOL     OW12919   0.648   3.109   2.027
 4007SOL    HW112920   0.698   3.191   2.055
 4007SOL    HW212921   0.709   3.047   1.979
 4008SOL     OW12922   3.483   1.692   5.063
 4008SOL    HW112923   3.398   1.668   5.110
 4008SOL    HW212924   3.473   1.782   5.020
 4009SOL     OW12925   5.059   2.522   0.644
 4009SOL    HW112926   5.087   2.543   0.738
 4009SOL    HW212927   5.013   2.434   0.642
 4010SOL     OW12928   1.933   3.644   1.203
 4010SOL    HW112929   1.924   3.551   1.167
 4010SOL    HW212930   1.980   3.641   1.291
 4011SOL     OW12931   1.079   6.933   2.002
 4011SOL    HW112932   1.100   6.982   2.087
 4011SOL    HW212933   1.004   6.868   2.020
 4012SOL     OW12934   4.506   4.516   1.207
 4012SOL    HW112935   4.453   4.467   1.277
 4012SOL    HW212936   4.465   4.500   1.117
 4013SOL     OW12937   2.948   0.425   0.985
 4013SOL    HW112938   2.909   0.435   0.894
 4013SOL    HW212939   2.893   0.476   1.051
 4014SOL     OW12940   4.178   5.670   3.541
 4014SOL    HW112941   4.199   5.667   3.443
 4014SOL    HW212942   4.105   5.604   3.561
 4015SOL     OW12943   3.920   4.983   6.045
 4015SOL    HW112944   3.955   5.075   6.024
 4015SOL    HW212945   3.866   4.986   6.129
 4016SOL     OW12946   1.040   5.293   6.580
 4016SOL    HW112947   1.117   5.350   6.549
 4016SOL    HW212948   1.062   5.252   6.668
 4017SOL     OW12949   0.313   6.879   0.438
 4017SOL    HW112950   0.405   6.905   0.408
 4017SOL    HW212951   0.261   6.842   0.361
 4018SOL     OW12952   5.939   6.361   2.076
 4018SOL    HW112953   5.855   6.391   2.122
 4018SOL    HW212954   6.001   6.319   2.142
 4019SOL     OW12955   5.810   3.743   1.895
 4019SOL    HW112956   5.787   3.647   1.882
 4019SOL    HW212957   5.909   3.754   1.895
 4020SOL     OW12958   6.260   2.506   5.771
 4020SOL    HW112959   6.190   2.526   5.703
 4020SOL    HW212960   6.249   2.412   5.805
 4021SOL     OW12961   2.807   4.173   5.768
 4021SOL    HW112962   2.891   4.154   5.718
 4021SOL    HW212963   2.759   4.088   5.788
 4022SOL     OW12964   4.337   0.184   6.743
 4022SOL    HW112965   4.341   0.149   6.649
 4022SOL    HW212966   4.267   0.134   6.794
 4023SOL     OW12967   6.863   0.985   4.003
 4023SOL    HW112968   6.932   0.980   3.931
 4023SOL    HW212969   6.804   1.064   3.986
 4024SOL     OW12970   2.930   5.061   4.254
 4024SOL    HW112971   2.976   5.126   4.315
 4024SOL    HW212972   2.831   5.072   4.261
 4025SOL     OW12973   0.472   5.902   4.895
 4025SOL    HW112974   0.541   5.855   4.950
 4025SOL    HW212975   0.381   5.877   4.928
 4026SOL     OW12976   6.631   6.865   3.364
 4026SOL    HW112977   6.589   6.850   3.274
 4026SOL    HW212978   6.722   6.906   3.352
 4027SOL     OW12979   2.656   2.782   1.011
 4027SOL    HW112980   2.684   2.699   1.061
 4027SOL    HW212981   2.584   2.829   1.063
 4028SOL     OW12982   3.016   2.241   2.844
 4028SOL    HW112983   2.956   2.165   2.866
 4028SOL    HW212984   2.962   2.325   2.831
 4029SOL     OW12985   2.942   4.702   5.854
 4029SOL    HW112986   2.966   4.785   5.904
 4029SOL    HW212987   2.860   4.718   5.800
 4030SOL     OW12988   0.906   2.028   0.421
 4030SOL    HW112989   0.964   2.110   0.418
 4030SOL    HW212990   0.858   2.024   0.508
 4031SOL     OW12991   5.135   6.579   3.488
 4031SOL    HW112992   5.108   6.668   3.451
 4031SOL    HW212993   5.189   6.529   3.419
 4032SOL     OW12994   6.381   0.417   2.245
 4032SOL    HW112995   6.480   0.406   2.237
 4032SOL    HW212996   6.345   0.456   2.161
 4033SOL     OW12997   2.976   3.724   1.988
 4033SOL    HW112998   2.957   3.783   2.066
 4033SOL    HW212999   3.058   3.755   1.941
 4034SOL     OW13000   0.182   1.516   4.641
 4034SOL    HW113001   0.247   1.520   4.565
 4034SOL    HW213002   0.122   1.596   4.638
 4035SOL     OW13003   6.767   2.672   0.708
 4035SOL    HW113004   6.724   2.758   0.735
 4035SOL    HW213005   6.721   2.636   0.627
 4036SOL     OW13006   5.005   6.569   2.445
 4036SOL    HW113007   5.012   6.500   2.373
 4036SOL    HW213008   5.000   6.660   2.404
 4037SOL     OW13009   2.177   1.217   0.865
 4037SOL    HW113010   2.176   1.192   0.962
 4037SOL    HW213011   2.271   1.213   0.832
 4038SOL     OW13012   4.373   4.047   1.647
 4038SOL    HW113013   4.395   4.087   1.558
 4038SOL    HW213014   4.414   4.103   1.719
 4039SOL     OW13015   4.709   4.307   1.480
 4039SOL    HW113016   4.715   4.232   1.546
 4039SOL    HW213017   4.647   4.281   1.406
 4040SOL     OW13018   3.837   0.201   5.755
 4040SOL    HW113019   3.840   0.242   5.663
 4040SOL    HW213020   3.836   0.274   5.824
 4041SOL     OW13021   2.223   5.252   1.298
 4041SOL    HW113022   2.295   5.187   1.273
 4041SOL    HW213023   2.193   5.303   1.217
 4042SOL     OW13024   6.158   5.462   2.693
 4042SOL    HW113025   6.093   5.479   2.767
 4042SOL    HW213026   6.123   5.391   2.632
 4043SOL     OW13027   4.944   2.438   4.520
 4043SOL    HW113028   4.849   2.457   4.495
 4043SOL    HW213029   5.004   2.468   4.446
 4044SOL     OW13030   4.724   0.115   3.479
 4044SOL    HW113031   4.690   0.192   3.533
 4044SOL    HW213032   4.647   0.060   3.448
 4045SOL     OW13033   2.708   5.363   5.883
 4045SOL    HW113034   2.705   5.394   5.979
 4045SOL    HW213035   2.759   5.429   5.829
 4046SOL     OW13036   1.119   1.489   3.619
 4046SOL    HW113037   1.032   1.460   3.657
 4046SOL    HW213038   1.187   1.497   3.693
 4047SOL     OW13039   1.743   2.426   0.627
 4047SOL    HW113040   1.681   2.352   0.604
 4047SOL    HW213041   1.691   2.501   0.668
 4048SOL     OW13042   5.226   2.334   2.189
 4048SOL    HW113043   5.275   2.299   2.109
 4048SOL    HW213044   5.154   2.397   2.160
 4049SOL     OW13045   6.525   5.926   6.342
 4049SOL    HW113046   6.428   5.951   6.342
 4049SOL    HW213047   6.577   5.995   6.290
 4050SOL     OW13048   1.429   6.529   0.634
 4050SOL    HW113049   1.421   6.525   0.734
 4050SOL    HW213050   1.449   6.623   0.606
 4051SOL     OW13051   3.485   2.931   6.990
 4051SOL    HW113052   3.412   2.863   6.983
 4051SOL    HW213053   3.566   2.887   0.003
 4052SOL     OW13054   0.145   0.809   2.355
 4052SOL    HW113055   0.190   0.748   2.421
 4052SOL    HW213056   0.056   0.837   2.392
 4053SOL     OW13057   3.089   5.271   4.075
 4053SOL    HW113058   3.061   5.218   3.995
 4053SOL    HW213059   3.118   5.209   4.148
 4054SOL     OW13060   0.030   3.219   2.219
 4054SOL    HW113061   0.050   3.298   2.161
 4054SOL    HW213062   0.079   3.139   2.184
 4055SOL     OW13063   4.016   3.292   6.201
 4055SOL    HW113064   4.078   3.370   6.190
 4055SOL    HW213065   3.968   3.299   6.288
 4056SOL     OW13066   4.032   3.533   0.796
 4056SOL    HW113067   3.941   3.558   0.828
 4056SOL    HW213068   4.078   3.615   0.761
 4057SOL     OW13069   5.271   2.356   1.721
 4057SOL    HW113070   5.176   2.386   1.718
 4057SOL    HW213071   5.316   2.396   1.801
 4058SOL     OW13072   1.754   0.100   3.894
 4058SOL    HW113073   1.847   0.103   3.933
 4058SOL    HW213074   1.687   0.095   3.968
 4059SOL     OW13075   0.951   2.601   3.624
 4059SOL    HW113076   0.917   2.687   3.587
 4059SOL    HW213077   0.875   2.537   3.634
 4060SOL     OW13078   4.760   5.304   4.592
 4060SOL    HW113079   4.741   5.394   4.554
 4060SOL    HW213080   4.706   5.235   4.542
 4061SOL     OW13081   3.446   5.276   1.498
 4061SOL    HW113082   3.384   5.237   1.566
 4061SOL    HW213083   3.535   5.230   1.504
 4062SOL     OW13084   2.917   1.732   3.171
 4062SOL    HW113085   2.986   1.784   3.121
 4062SOL    HW213086   2.829   1.780   3.166
 4063SOL     OW13087   6.107   6.383   5.115
 4063SOL    HW113088   6.165   6.375   5.034
 4063SOL    HW213089   6.117   6.474   5.155
 4064SOL     OW13090   1.712   6.423   3.580
 4064SOL    HW113091   1.644   6.495   3.592
 4064SOL    HW213092   1.803   6.460   3.595
 4065SOL     OW13093   7.012   6.443   0.706
 4065SOL    HW113094   0.059   6.466   0.641
 4065SOL    HW213095   6.991   6.523   0.762
 4066SOL     OW13096   4.982   5.196   2.637
 4066SOL    HW113097   5.059   5.260   2.645
 4066SOL    HW213098   5.017   5.103   2.628
 4067SOL     OW13099   5.573   3.166   3.145
 4067SOL    HW113100   5.501   3.185   3.078
 4067SOL    HW213101   5.662   3.168   3.100
 4068SOL     OW13102   3.506   0.481   4.534
 4068SOL    HW113103   3.478   0.388   4.508
 4068SOL    HW213104   3.574   0.515   4.469
 4069SOL     OW13105   4.399   4.450   6.258
 4069SOL    HW113106   4.389   4.529   6.318
 4069SOL    HW213107   4.387   4.366   6.310
 4070SOL     OW13108   0.560   3.716   2.082
 4070SOL    HW113109   0.568   3.792   2.147
 4070SOL    HW213110   0.501   3.744   2.006
 4071SOL     OW13111   1.378   0.768   5.691
 4071SOL    HW113112   1.297   0.732   5.645
 4071SOL    HW213113   1.407   0.704   5.762
 4072SOL     OW13114   1.119   5.704   4.113
 4072SOL    HW113115   1.099   5.773   4.043
 4072SOL    HW213116   1.206   5.660   4.093
 4073SOL     OW13117   2.655   5.840   5.973
 4073SOL    HW113118   2.648   5.893   6.057
 4073SOL    HW213119   2.628   5.745   5.991
 4074SOL     OW13120   0.399   2.886   1.769
 4074SOL    HW113121   0.335   2.809   1.763
 4074SOL    HW213122   0.433   2.907   1.677
 4075SOL     OW13123   3.587   1.989   2.625
 4075SOL    HW113124   3.644   2.013   2.704
 4075SOL    HW213125   3.514   2.056   2.615
 4076SOL     OW13126   2.799   3.862   5.536
 4076SOL    HW113127   2.700   3.862   5.526
 4076SOL    HW213128   2.824   3.906   5.623
 4077SOL     OW13129   3.649   0.182   0.064
 4077SOL    HW113130   3.611   0.164   0.155
 4077SOL    HW213131   3.620   0.110   0.001
 4078SOL     OW13132   6.044   5.377   2.089
 4078SOL    HW113133   6.108   5.303   2.110
 4078SOL    HW213134   6.055   5.450   2.157
 4079SOL     OW13135   0.445   1.903   3.546
 4079SOL    HW113136   0.367   1.843   3.564
 4079SOL    HW213137   0.412   1.997   3.533
 4080SOL     OW13138   2.242   3.451   0.384
 4080SOL    HW113139   2.312   3.403   0.437
 4080SOL    HW213140   2.269   3.546   0.370
 4081SOL     OW13141   1.653   2.010   3.946
 4081SOL    HW113142   1.742   1.969   3.927
 4081SOL    HW213143   1.603   1.953   4.011
 4082SOL     OW13144   1.825   2.719   1.265
 4082SOL    HW113145   1.748   2.771   1.300
 4082SOL    HW213146   1.867   2.666   1.339
 4083SOL     OW13147   6.061   4.433   1.982
 4083SOL    HW113148   6.161   4.434   1.974
 4083SOL    HW213149   6.036   4.433   2.079
 4084SOL     OW13150   4.575   2.286   3.232
 4084SOL    HW113151   4.558   2.188   3.216
 4084SOL    HW213152   4.613   2.299   3.323
 4085SOL     OW13153   2.633   5.493   0.967
 4085SOL    HW113154   2.615   5.440   0.884
 4085SOL    HW213155   2.546   5.523   1.006
 4086SOL     OW13156   0.225   4.436   1.174
 4086SOL    HW113157   0.256   4.507   1.111
 4086SOL    HW213158   0.247   4.346   1.136
 4087SOL     OW13159   1.742   1.579   2.933
 4087SOL    HW113160   1.738   1.585   2.834
 4087SOL    HW213161   1.754   1.671   2.972
 4088SOL     OW13162   6.487   1.278   6.559
 4088SOL    HW113163   6.390   1.289   6.581
 4088SOL    HW213164   6.513   1.182   6.568
 4089SOL     OW13165   6.264   4.736   4.154
 4089SOL    HW113166   6.340   4.682   4.119
 4089SOL    HW213167   6.269   4.740   4.254
 4090SOL     OW13168   1.707   5.918   5.480
 4090SOL    HW113169   1.785   5.897   5.538
 4090SOL    HW213170   1.647   5.838   5.474
 4091SOL     OW13171   0.508   6.262   0.160
 4091SOL    HW113172   0.561   6.337   0.120
 4091SOL    HW213173   0.504   6.185   0.096
 4092SOL     OW13174   5.823   2.618   3.770
 4092SOL    HW113175   5.765   2.626   3.689
 4092SOL    HW213176   5.800   2.690   3.835
 4093SOL     OW13177   5.017   6.236   1.445
 4093SOL    HW113178   5.099   6.210   1.394
 4093SOL    HW213179   5.039   6.308   1.510
 4094SOL     OW13180   1.345   4.533   6.083
 4094SOL    HW113181   1.248   4.544   6.103
 4094SOL    HW213182   1.391   4.493   6.163
 4095SOL     OW13183   7.024   3.615   0.166
 4095SOL    HW113184   6.979   3.676   0.100
 4095SOL    HW213185   0.056   3.669   0.227
 4096SOL     OW13186   4.304   0.408   6.540
 4096SOL    HW113187   4.209   0.439   6.536
 4096SOL    HW213188   4.322   0.369   6.630
 4097SOL     OW13189   4.580   4.609   4.490
 4097SOL    HW113190   4.537   4.547   4.557
 4097SOL    HW213191   4.677   4.618   4.511
 4098SOL     OW13192   0.789   2.323   1.774
 4098SOL    HW113193   0.707   2.380   1.780
 4098SOL    HW213194   0.768   2.231   1.806
 4099SOL     OW13195   3.957   5.285   0.785
 4099SOL    HW113196   4.014   5.350   0.835
 4099SOL    HW213197   4.004   5.198   0.777
 4100SOL     OW13198   0.446   6.627   4.330
 4100SOL    HW113199   0.436   6.687   4.410
 4100SOL    HW213200   0.383   6.550   4.339
 4101SOL     OW13201   0.082   1.381   0.317
 4101SOL    HW113202   0.154   1.425   0.370
 4101SOL    HW213203   0.014   1.342   0.378
 4102SOL     OW13204   1.248   0.897   0.985
 4102SOL    HW113205   1.335   0.929   0.948
 4102SOL    HW213206   1.264   0.823   1.050
 4103SOL     OW13207   0.470   6.782   1.093
 4103SOL    HW113208   0.557   6.763   1.139
 4103SOL    HW213209   0.446   6.705   1.034
 4104SOL     OW13210   0.366   4.527   3.191
 4104SOL    HW113211   0.431   4.473   3.137
 4104SOL    HW213212   0.280   4.535   3.141
 4105SOL     OW13213   5.869   0.342   3.088
 4105SOL    HW113214   5.934   0.413   3.061
 4105SOL    HW213215   5.800   0.330   3.016
 4106SOL     OW13216   0.261   3.153   3.393
 4106SOL    HW113217   0.214   3.153   3.305
 4106SOL    HW213218   0.195   3.166   3.466
 4107SOL     OW13219   1.238   5.572   0.797
 4107SOL    HW113220   1.192   5.653   0.832
 4107SOL    HW213221   1.328   5.597   0.761
 4108SOL     OW13222   6.707   4.862   4.431
 4108SOL    HW113223   6.792   4.901   4.393
 4108SOL    HW213224   6.728   4.774   4.474
 4109SOL     OW13225   6.604   0.206   4.575
 4109SOL    HW113226   6.596   0.223   4.673
 4109SOL    HW213227   6.513   0.194   4.536
 4110SOL     OW13228   4.166   3.525   6.118
 4110SOL    HW113229   4.233   3.597   6.137
 4110SOL    HW213230   4.132   3.535   6.024
 4111SOL     OW13231   5.736   4.640   6.399
 4111SOL    HW113232   5.775   4.582   6.328
 4111SOL    HW213233   5.699   4.583   6.473
 4112SOL     OW13234   4.852   6.095   4.775
 4112SOL    HW113235   4.826   6.097   4.678
 4112SOL    HW213236   4.794   6.030   4.824
 4113SOL     OW13237   5.273   5.630   5.121
 4113SOL    HW113238   5.367   5.659   5.135
 4113SOL    HW213239   5.232   5.608   5.210
 4114SOL     OW13240   3.907   1.892   3.931
 4114SOL    HW113241   3.918   1.794   3.945
 4114SOL    HW213242   3.997   1.936   3.930
 4115SOL     OW13243   3.487   4.971   2.114
 4115SOL    HW113244   3.424   4.894   2.105
 4115SOL    HW213245   3.543   4.959   2.196
 4116SOL     OW13246   4.085   1.679   3.002
 4116SOL    HW113247   4.173   1.655   3.044
 4116SOL    HW213248   4.018   1.698   3.073
 4117SOL     OW13249   0.778   3.477   2.673
 4117SOL    HW113250   0.750   3.563   2.630
 4117SOL    HW213251   0.723   3.402   2.638
 4118SOL     OW13252   5.176   6.610   0.549
 4118SOL    HW113253   5.189   6.640   0.454
 4118SOL    HW213254   5.079   6.616   0.572
 4119SOL     OW13255   2.958   1.260   4.112
 4119SOL    HW113256   2.892   1.305   4.052
 4119SOL    HW213257   2.915   1.240   4.200
 4120SOL     OW13258   3.709   0.887   5.324
 4120SOL    HW113259   3.771   0.880   5.245
 4120SOL    HW213260   3.756   0.853   5.406
 4121SOL     OW13261   6.643   0.008   3.739
 4121SOL    HW113262   6.663   6.960   3.674
 4121SOL    HW213263   6.689   0.092   3.709
 4122SOL     OW13264   1.387   6.849   4.518
 4122SOL    HW113265   1.398   6.878   4.613
 4122SOL    HW213266   1.328   6.769   4.513
 4123SOL     OW13267   4.103   4.533   5.336
 4123SOL    HW113268   4.053   4.470   5.277
 4123SOL    HW213269   4.052   4.548   5.420
 4124SOL     OW13270   6.396   6.275   0.483
 4124SOL    HW113271   6.421   6.372   0.473
 4124SOL    HW213272   6.296   6.266   0.479
 4125SOL     OW13273   4.398   2.182   2.959
 4125SOL    HW113274   4.486   2.134   2.953
 4125SOL    HW213275   4.396   2.257   2.893
 4126SOL     OW13276   1.729   2.994   3.377
 4126SOL    HW113277   1.759   3.079   3.420
 4126SOL    HW213278   1.759   2.916   3.432
 4127SOL     OW13279   5.867   3.833   5.062
 4127SOL    HW113280   5.891   3.738   5.082
 4127SOL    HW213281   5.872   3.847   4.963
 4128SOL     OW13282   0.985   3.186   1.361
 4128SOL    HW113283   1.035   3.271   1.380
 4128SOL    HW213284   0.894   3.209   1.326
 4129SOL     OW13285   3.306   0.753   6.646
 4129SOL    HW113286   3.368   0.832   6.646
 4129SOL    HW213287   3.341   0.684   6.582
 4130SOL     OW13288   6.345   2.546   0.857
 4130SOL    HW113289   6.349   2.527   0.759
 4130SOL    HW213290   6.365   2.642   0.874
 4131SOL     OW13291   0.496   1.301   3.182
 4131SOL    HW113292   0.590   1.292   3.216
 4131SOL    HW213293   0.453   1.380   3.225
 4132SOL     OW13294   4.778   4.190   3.553
 4132SOL    HW113295   4.796   4.101   3.596
 4132SOL    HW213296   4.782   4.180   3.454
 4133SOL     OW13297   3.468   6.092   1.664
 4133SOL    HW113298   3.524   6.062   1.742
 4133SOL    HW213299   3.418   6.175   1.690
 4134SOL     OW13300   2.062   3.825   1.036
 4134SOL    HW113301   2.107   3.897   1.087
 4134SOL    HW213302   2.033   3.752   1.098
 4135SOL     OW13303   0.566   2.295   2.364
 4135SOL    HW113304   0.607   2.372   2.412
 4135SOL    HW213305   0.552   2.318   2.268
 4136SOL     OW13306   1.273   3.242   2.922
 4136SOL    HW113307   1.269   3.147   2.953
 4136SOL    HW213308   1.191   3.263   2.869
 4137SOL     OW13309   1.538   3.550   1.189
 4137SOL    HW113310   1.543   3.504   1.278
 4137SOL    HW213311   1.604   3.625   1.187
 4138SOL     OW13312   4.059   5.575   2.519
 4138SOL    HW113313   4.127   5.639   2.482
 4138SOL    HW213314   4.061   5.578   2.619
 4139SOL     OW13315   1.573   1.445   5.563
 4139SOL    HW113316   1.557   1.419   5.468
 4139SOL    HW213317   1.492   1.492   5.599
 4140SOL     OW13318   3.521   0.709   5.245
 4140SOL    HW113319   3.557   0.684   5.155
 4140SOL    HW213320   3.584   0.774   5.288
 4141SOL     OW13321   4.954   6.063   0.965
 4141SOL    HW113322   4.943   6.122   1.045
 4141SOL    HW213323   4.929   6.113   0.883
 4142SOL     OW13324   6.542   4.954   1.158
 4142SOL    HW113325   6.576   4.877   1.104
 4142SOL    HW213326   6.608   4.977   1.229
 4143SOL     OW13327   5.743   2.374   1.024
 4143SOL    HW113328   5.660   2.428   1.011
 4143SOL    HW213329   5.720   2.286   1.065
 4144SOL     OW13330   4.897   1.729   0.198
 4144SOL    HW113331   4.852   1.775   0.122
 4144SOL    HW213332   4.995   1.727   0.184
 4145SOL     OW13333   0.086   6.494   1.825
 4145SOL    HW113334   0.087   6.581   1.874
 4145SOL    HW213335   0.017   6.434   1.866
 4146SOL     OW13336   6.496   0.075   3.451
 4146SOL    HW113337   6.398   0.074   3.430
 4146SOL    HW213338   6.533   7.008   3.440
 4147SOL     OW13339   4.478   4.874   5.882
 4147SOL    HW113340   4.501   4.802   5.816
 4147SOL    HW213341   4.398   4.924   5.851
 4148SOL     OW13342   2.474   0.160   4.510
 4148SOL    HW113343   2.440   0.175   4.417
 4148SOL    HW213344   2.556   0.103   4.506
 4149SOL     OW13345   0.209   3.997   1.617
 4149SOL    HW113346   0.187   4.014   1.521
 4149SOL    HW213347   0.226   4.084   1.663
 4150SOL     OW13348   1.472   0.670   5.944
 4150SOL    HW113349   1.532   0.592   5.964
 4150SOL    HW213350   1.377   0.640   5.943
 4151SOL     OW13351   3.318   6.188   5.635
 4151SOL    HW113352   3.289   6.168   5.728
 4151SOL    HW213353   3.255   6.253   5.593
 4152SOL     OW13354   4.351   5.985   1.309
 4152SOL    HW113355   4.268   6.008   1.260
 4152SOL    HW213356   4.334   5.990   1.408
 4153SOL     OW13357   5.681   5.460   1.228
 4153SOL    HW113358   5.696   5.476   1.326
 4153SOL    HW213359   5.769   5.453   1.182
 4154SOL     OW13360   6.966   5.074   4.129
 4154SOL    HW113361   6.902   5.071   4.052
 4154SOL    HW213362   7.026   5.153   4.120
 4155SOL     OW13363   0.058   0.915   1.281
 4155SOL    HW113364   0.155   0.939   1.286
 4155SOL    HW213365   0.006   0.973   1.344
 4156SOL     OW13366   6.060   5.818   4.925
 4156SOL    HW113367   6.035   5.877   5.002
 4156SOL    HW213368   6.020   5.854   4.841
 4157SOL     OW13369   5.052   5.744   4.472
 4157SOL    HW113370   5.028   5.647   4.478
 4157SOL    HW213371   5.110   5.760   4.392
 4158SOL     OW13372   0.858   2.958   1.853
 4158SOL    HW113373   0.895   2.884   1.909
 4158SOL    HW213374   0.854   2.929   1.758
 4159SOL     OW13375   1.798   3.130   3.058
 4159SOL    HW113376   1.893   3.107   3.036
 4159SOL    HW213377   1.765   3.070   3.131
 4160SOL     OW13378   5.324   0.758   0.302
 4160SOL    HW113379   5.316   0.851   0.265
 4160SOL    HW213380   5.307   0.692   0.229
 4161SOL     OW13381   1.017   2.214   0.914
 4161SOL    HW113382   0.987   2.238   1.007
 4161SOL    HW213383   1.111   2.248   0.901
 4162SOL     OW13384   6.598   5.970   0.162
 4162SOL    HW113385   6.569   6.023   0.082
 4162SOL    HW213386   6.536   5.987   0.238
 4163SOL     OW13387   5.094   0.436   3.324
 4163SOL    HW113388   5.059   0.356   3.277
 4163SOL    HW213389   5.116   0.507   3.257
 4164SOL     OW13390   1.906   6.558   5.643
 4164SOL    HW113391   1.938   6.470   5.609
 4164SOL    HW213392   1.977   6.600   5.700
 4165SOL     OW13393   4.558   0.631   5.961
 4165SOL    HW113394   4.645   0.630   6.011
 4165SOL    HW213395   4.504   0.551   5.986
 4166SOL     OW13396   5.454   1.664   0.524
 4166SOL    HW113397   5.506   1.605   0.586
 4166SOL    HW213398   5.365   1.622   0.505
 4167SOL     OW13399   2.272   4.802   6.741
 4167SOL    HW113400   2.367   4.804   6.707
 4167SOL    HW213401   2.270   4.840   6.834
 4168SOL     OW13402   0.370   4.153   1.249
 4168SOL    HW113403   0.462   4.176   1.280
 4168SOL    HW213404   0.374   4.077   1.185
 4169SOL     OW13405   5.639   5.461   4.659
 4169SOL    HW113406   5.681   5.371   4.645
 4169SOL    HW213407   5.571   5.455   4.732
 4170SOL     OW13408   4.773   3.286   6.572
 4170SOL    HW113409   4.744   3.294   6.476
 4170SOL    HW213410   4.741   3.199   6.609
 4171SOL     OW13411   6.382   5.862   0.567
 4171SOL    HW113412   6.362   5.891   0.661
 4171SOL    HW213413   6.359   5.765   0.557
 4172SOL     OW13414   1.441   2.158   6.422
 4172SOL    HW113415   1.355   2.173   6.372
 4172SOL    HW213416   1.452   2.230   6.490
 4173SOL     OW13417   5.097   4.066   4.406
 4173SOL    HW113418   5.007   4.109   4.399
 4173SOL    HW213419   5.089   3.979   4.455
 4174SOL     OW13420   4.664   1.446   2.585
 4174SOL    HW113421   4.608   1.495   2.653
 4174SOL    HW213422   4.608   1.374   2.543
 4175SOL     OW13423   2.101   5.253   4.577
 4175SOL    HW113424   2.155   5.314   4.634
 4175SOL    HW213425   2.044   5.308   4.515
 4176SOL     OW13426   3.421   6.080   1.991
 4176SOL    HW113427   3.331   6.038   1.983
 4176SOL    HW213428   3.427   6.130   2.077
 4177SOL     OW13429   6.114   5.316   5.537
 4177SOL    HW113430   6.037   5.305   5.475
 4177SOL    HW213431   6.191   5.357   5.489
 4178SOL     OW13432   3.910   6.724   4.352
 4178SOL    HW113433   3.901   6.630   4.320
 4178SOL    HW213434   3.845   6.783   4.304
 4179SOL     OW13435   5.583   3.165   3.424
 4179SOL    HW113436   5.503   3.199   3.474
 4179SOL    HW213437   5.576   3.193   3.328
 4180SOL     OW13438   4.336   3.875   0.490
 4180SOL    HW113439   4.404   3.948   0.486
 4180SOL    HW213440   4.303   3.856   0.397
 4181SOL     OW13441   3.468   0.970   0.148
 4181SOL    HW113442   3.558   0.992   0.111
 4181SOL    HW213443   3.408   1.051   0.142
 4182SOL     OW13444   0.671   6.289   3.355
 4182SOL    HW113445   0.595   6.272   3.292
 4182SOL    HW213446   0.758   6.282   3.307
 4183SOL     OW13447   3.046   1.340   6.952
 4183SOL    HW113448   3.031   1.387   6.865
 4183SOL    HW213449   3.099   1.398   7.013
 4184SOL     OW13450   3.777   6.325   2.257
 4184SOL    HW113451   3.784   6.233   2.219
 4184SOL    HW213452   3.833   6.388   2.203
 4185SOL     OW13453   0.992   4.826   2.875
 4185SOL    HW113454   1.049   4.900   2.911
 4185SOL    HW213455   0.974   4.760   2.947
 4186SOL     OW13456   2.796   4.645   0.347
 4186SOL    HW113457   2.868   4.662   0.280
 4186SOL    HW213458   2.722   4.594   0.303
 4187SOL     OW13459   3.964   3.604   5.334
 4187SOL    HW113460   3.927   3.523   5.382
 4187SOL    HW213461   3.893   3.673   5.326
 4188SOL     OW13462   5.449   0.991   5.174
 4188SOL    HW113463   5.355   1.012   5.202
 4188SOL    HW213464   5.512   1.056   5.217
 4189SOL     OW13465   3.561   4.879   5.437
 4189SOL    HW113466   3.615   4.796   5.418
 4189SOL    HW213467   3.569   4.942   5.360
 4190SOL     OW13468   0.610   0.500   0.616
 4190SOL    HW113469   0.633   0.591   0.581
 4190SOL    HW213470   0.517   0.475   0.589
 4191SOL     OW13471   4.860   4.548   3.775
 4191SOL    HW113472   4.941   4.605   3.792
 4191SOL    HW213473   4.794   4.563   3.848
 4192SOL     OW13474   0.769   1.101   4.173
 4192SOL    HW113475   0.673   1.128   4.178
 4192SOL    HW213476   0.793   1.080   4.079
 4193SOL     OW13477   0.061   1.417   1.450
 4193SOL    HW113478   0.027   1.473   1.525
 4193SOL    HW213479   0.056   1.321   1.475
 4194SOL     OW13480   6.001   0.242   4.292
 4194SOL    HW113481   6.044   0.207   4.209
 4194SOL    HW213482   6.069   0.291   4.347
 4195SOL     OW13483   3.828   6.799   1.477
 4195SOL    HW113484   3.906   6.855   1.506
 4195SOL    HW213485   3.842   6.768   1.383
 4196SOL     OW13486   5.989   2.063   2.510
 4196SOL    HW113487   5.897   2.066   2.549
 4196SOL    HW213488   5.997   1.983   2.450
 4197SOL     OW13489   4.775   5.414   5.908
 4197SOL    HW113490   4.832   5.407   5.990
 4197SOL    HW213491   4.703   5.344   5.912
 4198SOL     OW13492   5.835   2.205   0.020
 4198SOL    HW113493   5.920   2.223   6.997
 4198SOL    HW213494   5.833   2.260   0.103
 4199SOL     OW13495   1.878   2.650   6.381
 4199SOL    HW113496   1.838   2.736   6.414
 4199SOL    HW213497   1.925   2.604   6.456
 4200SOL     OW13498   3.686   0.560   5.802
 4200SOL    HW113499   3.629   0.526   5.877
 4200SOL    HW213500   3.629   0.578   5.722
 4201SOL     OW13501   6.372   0.067   3.790
 4201SOL    HW113502   6.321   0.110   3.715
 4201SOL    HW213503   6.464   0.042   3.759
 4202SOL     OW13504   3.649   5.872   5.006
 4202SOL    HW113505   3.605   5.937   4.944
 4202SOL    HW213506   3.728   5.830   4.962
 4203SOL     OW13507   3.937   5.057   0.046
 4203SOL    HW113508   3.976   5.050   0.139
 4203SOL    HW213509   3.967   4.978   7.018
 4204SOL     OW13510   3.913   3.616   3.223
 4204SOL    HW113511   3.976   3.681   3.183
 4204SOL    HW213512   3.819   3.646   3.206
 4205SOL     OW13513   4.075   5.957   3.322
 4205SOL    HW113514   4.117   5.870   3.347
 4205SOL    HW213515   4.021   5.946   3.239
 4206SOL     OW13516   0.021   0.450   5.704
 4206SOL    HW113517   0.062   0.516   5.641
 4206SOL    HW213518   0.059   0.463   5.796
 4207SOL     OW13519   1.781   2.177   1.274
 4207SOL    HW113520   1.874   2.213   1.284
 4207SOL    HW213521   1.717   2.254   1.265
 4208SOL     OW13522   6.857   2.777   5.698
 4208SOL    HW113523   6.877   2.753   5.603
 4208SOL    HW213524   6.760   2.798   5.707
 4209SOL     OW13525   0.320   0.189   3.802
 4209SOL    HW113526   0.387   0.127   3.762
 4209SOL    HW213527   0.229   0.146   3.801
 4210SOL     OW13528   3.350   3.365   2.211
 4210SOL    HW113529   3.322   3.345   2.117
 4210SOL    HW213530   3.289   3.433   2.251
 4211SOL     OW13531   4.784   6.183   6.505
 4211SOL    HW113532   4.720   6.152   6.435
 4211SOL    HW213533   4.878   6.172   6.471
 4212SOL     OW13534   6.088   1.679   2.567
 4212SOL    HW113535   6.068   1.610   2.497
 4212SOL    HW213536   6.004   1.705   2.613
 4213SOL     OW13537   1.644   0.990   1.240
 4213SOL    HW113538   1.645   0.935   1.156
 4213SOL    HW213539   1.708   0.951   1.306
 4214SOL     OW13540   0.829   4.767   4.972
 4214SOL    HW113541   0.892   4.812   4.908
 4214SOL    HW213542   0.867   4.772   5.064
 4215SOL     OW13543   5.689   7.013   5.925
 4215SOL    HW113544   5.603   6.962   5.926
 4215SOL    HW213545   5.756   6.965   5.981
 4216SOL     OW13546   1.177   1.409   2.620
 4216SOL    HW113547   1.095   1.359   2.590
 4216SOL    HW213548   1.187   1.492   2.566
 4217SOL     OW13549   0.920   0.097   2.409
 4217SOL    HW113550   0.961   0.175   2.455
 4217SOL    HW213551   0.865   0.045   2.475
 4218SOL     OW13552   4.313   0.766   1.284
 4218SOL    HW113553   4.242   0.698   1.299
 4218SOL    HW213554   4.371   0.773   1.365
 4219SOL     OW13555   3.805   5.538   3.857
 4219SOL    HW113556   3.766   5.453   3.822
 4219SOL    HW213557   3.760   5.562   3.943
 4220SOL     OW13558   6.089   2.637   3.840
 4220SOL    HW113559   6.028   2.598   3.770
 4220SOL    HW213560   6.050   2.622   3.930
 4221SOL     OW13561   5.888   4.696   6.640
 4221SOL    HW113562   5.844   4.767   6.695
 4221SOL    HW213563   5.873   4.714   6.543
 4222SOL     OW13564   6.792   2.056   2.973
 4222SOL    HW113565   6.793   2.144   3.020
 4222SOL    HW213566   6.714   2.053   2.911
 4223SOL     OW13567   3.985   3.021   6.170
 4223SOL    HW113568   3.970   3.010   6.268
 4223SOL    HW213569   4.001   3.117   6.149
 4224SOL     OW13570   5.352   3.772   4.154
 4224SOL    HW113571   5.401   3.714   4.219
 4224SOL    HW213572   5.348   3.866   4.189
 4225SOL     OW13573   4.077   1.079   5.651
 4225SOL    HW113574   4.171   1.112   5.657
 4225SOL    HW213575   4.022   1.124   5.722
 4226SOL     OW13576   1.059   0.523   2.243
 4226SOL    HW113577   0.968   0.483   2.253
 4226SOL    HW213578   1.122   0.479   2.306
 4227SOL     OW13579   3.764   4.850   1.069
 4227SOL    HW113580   3.777   4.779   1.000
 4227SOL    HW213581   3.725   4.931   1.027
 4228SOL     OW13582   0.650   4.360   4.705
 4228SOL    HW113583   0.593   4.378   4.625
 4228SOL    HW213584   0.685   4.266   4.701
 4229SOL     OW13585   5.143   5.503   5.722
 4229SOL    HW113586   5.218   5.472   5.664
 4229SOL    HW213587   5.059   5.454   5.698
 4230SOL     OW13588   1.659   6.296   2.670
 4230SOL    HW113589   1.717   6.373   2.695
 4230SOL    HW213590   1.714   6.212   2.664
 4231SOL     OW13591   5.850   6.894   5.663
 4231SOL    HW113592   5.925   6.931   5.718
 4231SOL    HW213593   5.763   6.911   5.709
 4232SOL     OW13594   6.835   4.842   2.458
 4232SOL    HW113595   6.811   4.919   2.399
 4232SOL    HW213596   6.796   4.856   2.549
 4233SOL     OW13597   0.062   0.813   6.385
 4233SOL    HW113598   0.130   0.886   6.394
 4233SOL    HW213599   0.050   0.769   6.474
 4234SOL     OW13600   2.558   6.599   5.396
 4234SOL    HW113601   2.512   6.572   5.480
 4234SOL    HW213602   2.635   6.537   5.379
 4235SOL     OW13603   5.708   3.815   5.614
 4235SOL    HW113604   5.690   3.816   5.713
 4235SOL    HW213605   5.723   3.909   5.583
 4236SOL     OW13606   6.131   3.861   2.855
 4236SOL    HW113607   6.101   3.767   2.873
 4236SOL    HW213608   6.116   3.917   2.937
 4237SOL     OW13609   5.631   5.842   1.850
 4237SOL    HW113610   5.669   5.931   1.827
 4237SOL    HW213611   5.673   5.808   1.934
 4238SOL     OW13612   2.922   5.540   3.056
 4238SOL    HW113613   2.939   5.497   3.145
 4238SOL    HW213614   2.935   5.472   2.984
 4239SOL     OW13615   5.745   1.617   3.238
 4239SOL    HW113616   5.656   1.654   3.214
 4239SOL    HW213617   5.769   1.543   3.174
 4240SOL     OW13618   2.132   6.583   6.881
 4240SOL    HW113619   2.205   6.645   6.852
 4240SOL    HW213620   2.112   6.599   6.977
 4241SOL     OW13621   6.320   1.254   0.269
 4241SOL    HW113622   6.348   1.285   0.178
 4241SOL    HW213623   6.382   1.183   0.301
 4242SOL     OW13624   2.743   0.971   3.975
 4242SOL    HW113625   2.818   0.943   3.915
 4242SOL    HW213626   2.662   0.916   3.956
 4243SOL     OW13627   6.540   3.182   3.204
 4243SOL    HW113628   6.589   3.211   3.122
 4243SOL    HW213629   6.558   3.086   3.221
 4244SOL     OW13630   4.255   4.158   1.215
 4244SOL    HW113631   4.255   4.071   1.164
 4244SOL    HW213632   4.198   4.224   1.168
 4245SOL     OW13633   0.278   1.442   6.275
 4245SOL    HW113634   0.184   1.437   6.309
 4245SOL    HW213635   0.278   1.467   6.178
 4246SOL     OW13636   7.000   3.845   3.040
 4246SOL    HW113637   0.049   3.779   3.042
 4246SOL    HW213638   6.999   3.896   3.125
 4247SOL     OW13639   3.038   5.102   3.342
 4247SOL    HW113640   3.037   5.097   3.242
 4247SOL    HW213641   3.024   5.011   3.380
 4248SOL     OW13642   2.342   1.787   3.835
 4248SOL    HW113643   2.375   1.713   3.776
 4248SOL    HW213644   2.386   1.873   3.808
 4249SOL     OW13645   5.384   2.396   3.817
 4249SOL    HW113646   5.456   2.340   3.857
 4249SOL    HW213647   5.321   2.339   3.765
 4250SOL     OW13648   6.413   5.496   2.851
 4250SOL    HW113649   6.341   5.502   2.783
 4250SOL    HW213650   6.377   5.526   2.940
 4251SOL     OW13651   5.702   4.397   1.770
 4251SOL    HW113652   5.788   4.438   1.799
 4251SOL    HW213653   5.635   4.402   1.844
 4252SOL     OW13654   5.528   0.208   6.544
 4252SOL    HW113655   5.589   0.163   6.479
 4252SOL    HW213656   5.508   0.147   6.620
 4253SOL     OW13657   3.102   6.911   1.156
 4253SOL    HW113658   3.044   6.960   1.091
 4253SOL    HW213659   3.058   6.824   1.180
 4254SOL     OW13660   1.073   3.694   1.844
 4254SOL    HW113661   1.149   3.758   1.835
 4254SOL    HW213662   1.001   3.736   1.900
 4255SOL     OW13663   0.265   4.149   4.213
 4255SOL    HW113664   0.254   4.061   4.259
 4255SOL    HW213665   0.361   4.162   4.188
 4256SOL     OW13666   1.882   6.054   0.661
 4256SOL    HW113667   1.911   5.965   0.626
 4256SOL    HW213668   1.912   6.064   0.756
 4257SOL     OW13669   2.695   0.712   4.291
 4257SOL    HW113670   2.722   0.729   4.386
 4257SOL    HW213671   2.614   0.765   4.269
 4258SOL     OW13672   3.882   5.998   0.868
 4258SOL    HW113673   3.858   5.963   0.777
 4258SOL    HW213674   3.861   6.095   0.873
 4259SOL     OW13675   2.358   0.976   1.013
 4259SOL    HW113676   2.380   0.930   0.927
 4259SOL    HW213677   2.440   1.024   1.046
 4260SOL     OW13678   5.564   0.423   1.555
 4260SOL    HW113679   5.562   0.372   1.470
 4260SOL    HW213680   5.602   0.366   1.628
 4261SOL     OW13681   2.444   0.156   2.927
 4261SOL    HW113682   2.529   0.209   2.930
 4261SOL    HW213683   2.408   0.157   2.834
 4262SOL     OW13684   0.683   4.288   6.687
 4262SOL    HW113685   0.612   4.320   6.624
 4262SOL    HW213686   0.641   4.231   6.758
 4263SOL     OW13687   3.029   0.284   3.182
 4263SOL    HW113688   3.017   0.306   3.085
 4263SOL    HW213689   2.991   0.358   3.238
 4264SOL     OW13690   6.195   1.941   2.789
 4264SOL    HW113691   6.118   1.877   2.796
 4264SOL    HW213692   6.171   2.027   2.833
 4265SOL     OW13693   4.389   1.525   1.219
 4265SOL    HW113694   4.385   1.506   1.121
 4265SOL    HW213695   4.424   1.445   1.267
 4266SOL     OW13696   1.816   5.365   6.472
 4266SOL    HW113697   1.875   5.446   6.466
 4266SOL    HW213698   1.813   5.320   6.383
 4267SOL     OW13699   2.097   3.364   3.601
 4267SOL    HW113700   2.104   3.301   3.524
 4267SOL    HW213701   2.033   3.437   3.578
 4268SOL     OW13702   1.128   5.958   6.303
 4268SOL    HW113703   1.184   6.040   6.317
 4268SOL    HW213704   1.116   5.943   6.205
 4269SOL     OW13705   2.890   0.615   2.452
 4269SOL    HW113706   2.850   0.636   2.364
 4269SOL    HW213707   2.841   0.664   2.524
 4270SOL     OW13708   4.138   3.380   3.019
 4270SOL    HW113709   4.122   3.478   3.021
 4270SOL    HW213710   4.227   3.362   2.977
 4271SOL     OW13711   6.626   1.250   7.010
 4271SOL    HW113712   6.584   1.336   0.014
 4271SOL    HW213713   6.555   1.181   6.997
 4272SOL     OW13714   6.741   2.416   4.165
 4272SOL    HW113715   6.691   2.342   4.121
 4272SOL    HW213716   6.683   2.459   4.235
 4273SOL     OW13717   4.771   6.981   4.745
 4273SOL    HW113718   4.853   6.936   4.782
 4273SOL    HW213719   4.695   6.916   4.743
 4274SOL     OW13720   0.751   6.690   1.624
 4274SOL    HW113721   0.712   6.611   1.671
 4274SOL    HW213722   0.850   6.691   1.638
 4275SOL     OW13723   6.715   2.230   4.407
 4275SOL    HW113724   6.757   2.238   4.316
 4275SOL    HW213725   6.765   2.287   4.472
 4276SOL     OW13726   1.645   5.308   3.792
 4276SOL    HW113727   1.574   5.352   3.848
 4276SOL    HW213728   1.612   5.300   3.698
 4277SOL     OW13729   6.299   4.555   3.103
 4277SOL    HW113730   6.218   4.605   3.072
 4277SOL    HW213731   6.367   4.554   3.030
 4278SOL     OW13732   6.842   0.007   5.483
 4278SOL    HW113733   6.852   0.048   5.393
 4278SOL    HW213734   6.759   0.043   5.527
 4279SOL     OW13735   3.467   0.922   4.076
 4279SOL    HW113736   3.470   1.012   4.119
 4279SOL    HW213737   3.451   0.852   4.146
 4280SOL     OW13738   4.980   0.763   5.669
 4280SOL    HW113739   4.962   0.718   5.582
 4280SOL    HW213740   5.072   0.740   5.700
 4281SOL     OW13741   6.940   4.477   3.194
 4281SOL    HW113742   6.947   4.383   3.160
 4281SOL    HW213743   6.972   4.481   3.288
 4282SOL     OW13744   3.428   3.991   6.080
 4282SOL    HW113745   3.375   3.944   6.151
 4282SOL    HW213746   3.367   4.047   6.024
 4283SOL     OW13747   1.258   0.623   3.100
 4283SOL    HW113748   1.313   0.639   3.182
 4283SOL    HW213749   1.310   0.651   3.019
 4284SOL     OW13750   4.105   4.695   1.193
 4284SOL    HW113751   4.073   4.613   1.146
 4284SOL    HW213752   4.057   4.775   1.159
 4285SOL     OW13753   1.851   0.512   5.667
 4285SOL    HW113754   1.863   0.500   5.765
 4285SOL    HW213755   1.902   0.592   5.636
 4286SOL     OW13756   4.944   6.815   5.804
 4286SOL    HW113757   4.971   6.863   5.721
 4286SOL    HW213758   4.905   6.726   5.780
 4287SOL     OW13759   5.807   1.137   5.987
 4287SOL    HW113760   5.780   1.221   5.941
 4287SOL    HW213761   5.903   1.117   5.967
 4288SOL     OW13762   0.059   5.508   3.687
 4288SOL    HW113763   7.002   5.453   3.681
 4288SOL    HW213764   0.136   5.456   3.651
 4289SOL     OW13765   6.783   3.079   6.225
 4289SOL    HW113766   6.809   3.007   6.288
 4289SOL    HW213767   6.734   3.151   6.274
 4290SOL     OW13768   1.321   6.094   3.925
 4290SOL    HW113769   1.266   6.097   4.008
 4290SOL    HW213770   1.374   6.179   3.916
 4291SOL     OW13771   4.733   3.543   0.379
 4291SOL    HW113772   4.746   3.524   0.282
 4291SOL    HW213773   4.649   3.596   0.391
 4292SOL     OW13774   5.673   3.090   0.342
 4292SOL    HW113775   5.614   3.117   0.266
 4292SOL    HW213776   5.630   3.115   0.429
 4293SOL     OW13777   2.611   2.584   0.473
 4293SOL    HW113778   2.585   2.612   0.381
 4293SOL    HW213779   2.610   2.663   0.534
 4294SOL     OW13780   1.957   2.191   6.987
 4294SOL    HW113781   1.902   2.249   0.021
 4294SOL    HW213782   2.018   2.134   0.017
 4295SOL     OW13783   3.899   5.721   4.900
 4295SOL    HW113784   3.937   5.780   4.829
 4295SOL    HW213785   3.971   5.663   4.938
 4296SOL     OW13786   2.713   6.842   0.984
 4296SOL    HW113787   2.679   6.808   0.896
 4296SOL    HW213788   2.642   6.831   1.053
 4297SOL     OW13789   5.013   0.209   6.657
 4297SOL    HW113790   5.103   0.242   6.626
 4297SOL    HW213791   4.989   0.254   6.743
 4298SOL     OW13792   4.096   4.956   0.270
 4298SOL    HW113793   4.107   5.010   0.353
 4298SOL    HW213794   4.147   4.999   0.195
 4299SOL     OW13795   1.545   3.336   6.875
 4299SOL    HW113796   1.581   3.421   6.835
 4299SOL    HW213797   1.549   3.263   6.807
 4300SOL     OW13798   3.364   6.478   0.364
 4300SOL    HW113799   3.344   6.547   0.434
 4300SOL    HW213800   3.440   6.510   0.307
 4301SOL     OW13801   3.886   1.178   1.778
 4301SOL    HW113802   3.941   1.248   1.732
 4301SOL    HW213803   3.797   1.217   1.803
 4302SOL     OW13804   0.778   0.360   6.441
 4302SOL    HW113805   0.688   0.384   6.404
 4302SOL    HW213806   0.848   0.410   6.390
 4303SOL     OW13807   6.948   4.480   3.887
 4303SOL    HW113808   6.956   4.512   3.981
 4303SOL    HW213809   6.864   4.426   3.877
 4304SOL     OW13810   3.042   3.941   2.486
 4304SOL    HW113811   3.116   4.007   2.474
 4304SOL    HW213812   2.994   3.961   2.571
 4305SOL     OW13813   0.240   0.599   5.238
 4305SOL    HW113814   0.141   0.583   5.231
 4305SOL    HW213815   0.280   0.530   5.299
 4306SOL     OW13816   5.272   4.608   5.713
 4306SOL    HW113817   5.235   4.520   5.743
 4306SOL    HW213818   5.205   4.653   5.654
 4307SOL     OW13819   5.489   3.935   5.958
 4307SOL    HW113820   5.400   3.901   5.989
 4307SOL    HW213821   5.489   4.035   5.960
 4308SOL     OW13822   6.112   4.908   1.220
 4308SOL    HW113823   6.050   4.944   1.290
 4308SOL    HW213824   6.112   4.808   1.224
 4309SOL     OW13825   1.058   1.070   7.012
 4309SOL    HW113826   0.997   1.032   0.054
 4309SOL    HW213827   1.091   1.160   0.016
 4310SOL     OW13828   2.086   2.569   1.835
 4310SOL    HW113829   2.113   2.573   1.931
 4310SOL    HW213830   2.105   2.657   1.791
 4311SOL     OW13831   2.069   6.055   2.602
 4311SOL    HW113832   2.089   6.078   2.697
 4311SOL    HW213833   2.036   6.137   2.555
 4312SOL     OW13834   2.163   5.461   1.734
 4312SOL    HW113835   2.194   5.469   1.640
 4312SOL    HW213836   2.219   5.394   1.783
 4313SOL     OW13837   4.498   1.287   1.560
 4313SOL    HW113838   4.563   1.356   1.593
 4313SOL    HW213839   4.422   1.333   1.515
 4314SOL     OW13840   6.040   0.988   4.409
 4314SOL    HW113841   5.945   0.968   4.434
 4314SOL    HW213842   6.046   1.007   4.311
 4315SOL     OW13843   2.536   5.867   2.000
 4315SOL    HW113844   2.509   5.950   2.050
 4315SOL    HW213845   2.620   5.885   1.949
 4316SOL     OW13846   5.552   0.798   2.066
 4316SOL    HW113847   5.591   0.794   1.974
 4316SOL    HW213848   5.498   0.716   2.083
 4317SOL     OW13849   5.021   2.633   4.891
 4317SOL    HW113850   5.005   2.567   4.817
 4317SOL    HW213851   5.114   2.668   4.886
 4318SOL     OW13852   0.364   3.012   4.614
 4318SOL    HW113853   0.461   2.988   4.626
 4318SOL    HW213854   0.312   2.930   4.591
 4319SOL     OW13855   1.930   1.552   0.992
 4319SOL    HW113856   1.946   1.603   1.077
 4319SOL    HW213857   2.015   1.506   0.965
 4320SOL     OW13858   5.170   5.217   0.268
 4320SOL    HW113859   5.103   5.218   0.342
 4320SOL    HW213860   5.123   5.229   0.180
 4321SOL     OW13861   0.068   6.457   5.370
 4321SOL    HW113862   0.014   6.384   5.412
 4321SOL    HW213863   0.010   6.511   5.309
 4322SOL     OW13864   6.337   2.765   6.950
 4322SOL    HW113865   6.309   2.681   6.903
 4322SOL    HW213866   6.325   2.843   6.888
 4323SOL     OW13867   4.661   3.965   0.283
 4323SOL    HW113868   4.595   4.019   0.335
 4323SOL    HW213869   4.751   3.973   0.326
 4324SOL     OW13870   5.905   3.731   6.737
 4324SOL    HW113871   5.836   3.709   6.668
 4324SOL    HW213872   5.887   3.678   6.820
 4325SOL     OW13873   2.132   1.467   1.581
 4325SOL    HW113874   2.218   1.468   1.530
 4325SOL    HW213875   2.079   1.387   1.556
 4326SOL     OW13876   4.699   4.903   3.806
 4326SOL    HW113877   4.723   4.877   3.712
 4326SOL    HW213878   4.779   4.945   3.850
 4327SOL     OW13879   5.790   6.111   1.608
 4327SOL    HW113880   5.794   6.019   1.646
 4327SOL    HW213881   5.816   6.178   1.677
 4328SOL     OW13882   4.626   3.384   5.699
 4328SOL    HW113883   4.628   3.423   5.607
 4328SOL    HW213884   4.610   3.286   5.694
 4329SOL     OW13885   4.484   1.838   5.804
 4329SOL    HW113886   4.447   1.846   5.896
 4329SOL    HW213887   4.489   1.741   5.779
 4330SOL     OW13888   1.970   6.197   4.537
 4330SOL    HW113889   2.002   6.173   4.446
 4330SOL    HW213890   2.033   6.161   4.605
 4331SOL     OW13891   5.438   1.989   1.838
 4331SOL    HW113892   5.477   1.942   1.759
 4331SOL    HW213893   5.459   1.937   1.921
 4332SOL     OW13894   4.979   3.475   1.910
 4332SOL    HW113895   5.011   3.518   1.825
 4332SOL    HW213896   5.057   3.453   1.968
 4333SOL     OW13897   3.833   0.940   5.843
 4333SOL    HW113898   3.822   1.013   5.911
 4333SOL    HW213899   3.875   0.860   5.886
 4334SOL     OW13900   1.819   2.343   2.990
 4334SOL    HW113901   1.785   2.339   2.897
 4334SOL    HW213902   1.742   2.353   3.054
 4335SOL     OW13903   3.342   4.032   2.736
 4335SOL    HW113904   3.294   3.947   2.755
 4335SOL    HW213905   3.314   4.066   2.646
 4336SOL     OW13906   3.367   6.487   6.161
 4336SOL    HW113907   3.423   6.562   6.197
 4336SOL    HW213908   3.425   6.408   6.142
 4337SOL     OW13909   0.622   4.220   0.639
 4337SOL    HW113910   0.698   4.286   0.639
 4337SOL    HW213911   0.547   4.257   0.693
 4338SOL     OW13912   6.329   0.020   5.582
 4338SOL    HW113913   6.309   0.115   5.608
 4338SOL    HW213914   6.421   0.016   5.542
 4339SOL     OW13915   5.478   3.339   5.693
 4339SOL    HW113916   5.530   3.254   5.704
 4339SOL    HW213917   5.480   3.366   5.596
 4340SOL     OW13918   6.243   3.349   1.986
 4340SOL    HW113919   6.299   3.279   2.030
 4340SOL    HW213920   6.299   3.428   1.963
 4341SOL     OW13921   0.780   5.452   1.578
 4341SOL    HW113922   0.765   5.547   1.604
 4341SOL    HW213923   0.849   5.411   1.637
 4342SOL     OW13924   5.471   3.772   3.903
 4342SOL    HW113925   5.448   3.765   4.000
 4342SOL    HW213926   5.562   3.734   3.888
 4343SOL     OW13927   2.812   6.436   5.365
 4343SOL    HW113928   2.795   6.435   5.464
 4343SOL    HW213929   2.905   6.405   5.347
 4344SOL     OW13930   0.060   4.060   1.951
 4344SOL    HW113931   7.011   4.109   1.994
 4344SOL    HW213932   0.024   3.996   1.883
 4345SOL     OW13933   3.379   3.820   4.833
 4345SOL    HW113934   3.380   3.901   4.774
 4345SOL    HW213935   3.465   3.813   4.883
 4346SOL     OW13936   1.980   3.345   2.761
 4346SOL    HW113937   2.002   3.390   2.675
 4346SOL    HW213938   1.903   3.282   2.748
 4347SOL     OW13939   6.678   6.605   2.760
 4347SOL    HW113940   6.742   6.589   2.685
 4347SOL    HW213941   6.597   6.653   2.726
 4348SOL     OW13942   6.661   5.119   3.962
 4348SOL    HW113943   6.615   5.055   4.023
 4348SOL    HW213944   6.693   5.070   3.880
 4349SOL     OW13945   5.486   1.691   2.945
 4349SOL    HW113946   5.404   1.731   2.904
 4349SOL    HW213947   5.558   1.760   2.949
 4350SOL     OW13948   3.440   1.742   3.808
 4350SOL    HW113949   3.387   1.679   3.751
 4350SOL    HW213950   3.396   1.752   3.897
 4351SOL     OW13951   2.016   5.445   0.832
 4351SOL    HW113952   2.056   5.401   0.751
 4351SOL    HW213953   1.917   5.431   0.831
 4352SOL     OW13954   6.581   3.919   2.571
 4352SOL    HW113955   6.574   3.845   2.505
 4352SOL    HW213956   6.531   3.999   2.538
 4353SOL     OW13957   4.231   3.003   6.458
 4353SOL    HW113958   4.269   2.935   6.397
 4353SOL    HW213959   4.144   2.970   6.496
 4354SOL     OW13960   2.302   0.616   5.672
 4354SOL    HW113961   2.288   0.667   5.757
 4354SOL    HW213962   2.354   0.673   5.608
 4355SOL     OW13963   2.533   6.680   2.671
 4355SOL    HW113964   2.556   6.593   2.627
 4355SOL    HW213965   2.546   6.671   2.770
 4356SOL     OW13966   4.939   4.001   0.331
 4356SOL    HW113967   4.947   4.094   0.295
 4356SOL    HW213968   5.030   3.961   0.340
 4357SOL     OW13969   6.285   1.373   1.328
 4357SOL    HW113970   6.260   1.288   1.281
 4357SOL    HW213971   6.230   1.381   1.412
 4358SOL     OW13972   0.011   0.527   0.758
 4358SOL    HW113973   0.110   0.538   0.760
 4358SOL    HW213974   7.015   0.430   0.757
 4359SOL     OW13975   1.973   1.781   6.051
 4359SOL    HW113976   2.032   1.775   5.970
 4359SOL    HW213977   1.978   1.873   6.090
 4360SOL     OW13978   1.268   3.469   3.393
 4360SOL    HW113979   1.364   3.489   3.378
 4360SOL    HW213980   1.253   3.452   3.491
 4361SOL     OW13981   2.776   3.353   1.359
 4361SOL    HW113982   2.841   3.379   1.430
 4361SOL    HW213983   2.825   3.336   1.274
 4362SOL     OW13984   6.293   5.125   3.073
 4362SOL    HW113985   6.389   5.117   3.100
 4362SOL    HW213986   6.234   5.113   3.152
 4363SOL     OW13987   5.703   2.129   1.235
 4363SOL    HW113988   5.792   2.140   1.191
 4363SOL    HW213989   5.709   2.154   1.332
 4364SOL     OW13990   2.957   3.693   4.159
 4364SOL    HW113991   2.925   3.599   4.143
 4364SOL    HW213992   2.924   3.724   4.248
 4365SOL     OW13993   2.941   0.705   1.947
 4365SOL    HW113994   2.920   0.798   1.917
 4365SOL    HW213995   3.040   0.691   1.944
 4366SOL     OW13996   5.634   0.244   0.312
 4366SOL    HW113997   5.707   0.219   0.376
 4366SOL    HW213998   5.668   0.314   0.249
 4367SOL     OW13999   2.373   4.372   4.652
 4367SOL    HW114000   2.291   4.421   4.684
 4367SOL    HW214001   2.381   4.286   4.702
 4368SOL     OW14002   3.431   5.271   0.137
 4368SOL    HW114003   3.381   5.209   0.197
 4368SOL    HW214004   3.517   5.228   0.109
 4369SOL     OW14005   4.569   5.445   2.915
 4369SOL    HW114006   4.632   5.455   2.839
 4369SOL    HW214007   4.590   5.361   2.965
 4370SOL     OW14008   3.861   5.177   1.639
 4370SOL    HW114009   3.910   5.246   1.691
 4370SOL    HW214010   3.907   5.089   1.648
 4371SOL     OW14011   0.968   2.368   2.396
 4371SOL    HW114012   1.002   2.427   2.323
 4371SOL    HW214013   1.035   2.298   2.417
 4372SOL     OW14014   2.807   2.010   2.707
 4372SOL    HW114015   2.879   1.940   2.713
 4372SOL    HW214016   2.722   1.973   2.743
 4373SOL     OW14017   5.670   1.832   0.514
 4373SOL    HW114018   5.576   1.796   0.516
 4373SOL    HW214019   5.734   1.755   0.513
 4374SOL     OW14020   0.747   1.966   0.629
 4374SOL    HW114021   0.663   2.014   0.654
 4374SOL    HW214022   0.724   1.883   0.579
 4375SOL     OW14023   4.523   6.968   3.331
 4375SOL    HW114024   4.449   6.995   3.393
 4375SOL    HW214025   4.509   7.009   3.241
 4376SOL     OW14026   6.773   6.607   2.484
 4376SOL    HW114027   6.769   6.689   2.541
 4376SOL    HW214028   6.858   6.608   2.431
 4377SOL     OW14029   5.665   4.846   0.103
 4377SOL    HW114030   5.623   4.841   0.194
 4377SOL    HW214031   5.742   4.783   0.098
 4378SOL     OW14032   2.169   2.570   2.439
 4378SOL    HW114033   2.206   2.660   2.462
 4378SOL    HW214034   2.094   2.548   2.501
 4379SOL     OW14035   1.934   2.417   2.670
 4379SOL    HW114036   1.847   2.375   2.697
 4379SOL    HW214037   1.918   2.479   2.594
 4380SOL     OW14038   1.195   0.157   3.007
 4380SOL    HW114039   1.281   0.120   3.042
 4380SOL    HW214040   1.164   0.231   3.067
 4381SOL     OW14041   1.754   4.141   5.054
 4381SOL    HW114042   1.721   4.206   5.123
 4381SOL    HW214043   1.846   4.167   5.025
 4382SOL     OW14044   6.163   3.631   5.568
 4382SOL    HW114045   6.260   3.650   5.577
 4382SOL    HW214046   6.139   3.551   5.624
 4383SOL     OW14047   1.035   2.387   5.976
 4383SOL    HW114048   1.055   2.441   6.058
 4383SOL    HW214049   1.121   2.359   5.933
 4384SOL     OW14050   6.741   1.931   5.603
 4384SOL    HW114051   6.663   1.989   5.625
 4384SOL    HW214052   6.741   1.911   5.505
 4385SOL     OW14053   5.876   2.858   4.980
 4385SOL    HW114054   5.901   2.763   4.964
 4385SOL    HW214055   5.791   2.862   5.033
 4386SOL     OW14056   2.212   3.339   6.826
 4386SOL    HW114057   2.140   3.371   6.888
 4386SOL    HW214058   2.232   3.411   6.759
 4387SOL     OW14059   6.881   1.670   1.268
 4387SOL    HW114060   6.968   1.652   1.223
 4387SOL    HW214061   6.805   1.649   1.206
 4388SOL     OW14062   5.247   2.133   6.277
 4388SOL    HW114063   5.163   2.080   6.288
 4388SOL    HW214064   5.242   2.185   6.192
 4389SOL     OW14065   0.153   3.226   0.910
 4389SOL    HW114066   0.175   3.282   0.829
 4389SOL    HW214067   0.235   3.214   0.965
 4390SOL     OW14068   3.793   1.088   1.188
 4390SOL    HW114069   3.869   1.030   1.218
 4390SOL    HW214070   3.829   1.177   1.160
 4391SOL     OW14071   2.007   6.033   0.032
 4391SOL    HW114072   1.915   6.003   0.008
 4391SOL    HW214073   2.074   5.980   7.006
 4392SOL     OW14074   0.020   3.043   5.088
 4392SOL    HW114075   0.040   3.086   5.000
 4392SOL    HW214076   6.985   2.965   5.074
 4393SOL     OW14077   6.129   0.207   2.538
 4393SOL    HW114078   6.183   0.252   2.609
 4393SOL    HW214079   6.137   0.259   2.452
 4394SOL     OW14080   6.228   6.187   2.120
 4394SOL    HW114081   6.208   6.228   2.209
 4394SOL    HW214082   6.199   6.091   2.120
 4395SOL     OW14083   2.950   6.483   1.882
 4395SOL    HW114084   2.973   6.533   1.966
 4395SOL    HW214085   2.912   6.394   1.906
 4396SOL     OW14086   2.144   2.259   3.816
 4396SOL    HW114087   2.140   2.239   3.914
 4396SOL    HW214088   2.089   2.341   3.796
 4397SOL     OW14089   0.638   1.331   4.541
 4397SOL    HW114090   0.621   1.377   4.628
 4397SOL    HW214091   0.627   1.232   4.552
 4398SOL     OW14092   0.502   4.192   5.806
 4398SOL    HW114093   0.576   4.141   5.850
 4398SOL    HW214094   0.520   4.200   5.708
 4399SOL     OW14095   2.288   0.526   1.874
 4399SOL    HW114096   2.274   0.570   1.785
 4399SOL    HW214097   2.200   0.516   1.920
 4400SOL     OW14098   3.439   6.585   5.573
 4400SOL    HW114099   3.352   6.634   5.574
 4400SOL    HW214100   3.439   6.515   5.643
 4401SOL     OW14101   4.215   6.882   6.754
 4401SOL    HW114102   4.131   6.858   6.705
 4401SOL    HW214103   4.195   6.954   6.821
 4402SOL     OW14104   2.836   0.378   2.005
 4402SOL    HW114105   2.892   0.455   1.973
 4402SOL    HW214106   2.782   0.407   2.084
 4403SOL     OW14107   0.810   6.912   2.531
 4403SOL    HW114108   0.765   6.922   2.619
 4403SOL    HW214109   0.887   6.849   2.539
 4404SOL     OW14110   0.525   5.129   5.858
 4404SOL    HW114111   0.500   5.039   5.821
 4404SOL    HW214112   0.578   5.179   5.790
 4405SOL     OW14113   1.729   4.394   0.772
 4405SOL    HW114114   1.781   4.438   0.699
 4405SOL    HW214115   1.663   4.458   0.810
 4406SOL     OW14116   6.994   3.628   0.639
 4406SOL    HW114117   6.935   3.640   0.559
 4406SOL    HW214118   6.949   3.568   0.705
 4407SOL     OW14119   6.236   4.920   0.678
 4407SOL    HW114120   6.320   4.942   0.728
 4407SOL    HW214121   6.260   4.872   0.593
 4408SOL     OW14122   3.536   1.213   1.434
 4408SOL    HW114123   3.620   1.176   1.393
 4408SOL    HW214124   3.507   1.152   1.508
 4409SOL     OW14125   4.924   0.727   2.596
 4409SOL    HW114126   4.867   0.789   2.542
 4409SOL    HW214127   4.991   0.683   2.536
 4410SOL     OW14128   1.155   4.956   6.603
 4410SOL    HW114129   1.135   5.049   6.634
 4410SOL    HW214130   1.165   4.956   6.503
 4411SOL     OW14131   4.012   3.946   4.597
 4411SOL    HW114132   4.048   3.854   4.585
 4411SOL    HW214133   4.085   4.013   4.577
 4412SOL     OW14134   4.265   6.307   4.740
 4412SOL    HW114135   4.325   6.374   4.785
 4412SOL    HW214136   4.239   6.236   4.804
 4413SOL     OW14137   6.576   4.898   4.122
 4413SOL    HW114138   6.574   4.889   4.222
 4413SOL    HW214139   6.570   4.807   4.081
 4414SOL     OW14140   3.441   4.567   1.184
 4414SOL    HW114141   3.496   4.513   1.248
 4414SOL    HW214142   3.471   4.662   1.186
 4415SOL     OW14143   3.829   2.999   0.305
 4415SOL    HW114144   3.791   3.084   0.340
 4415SOL    HW214145   3.796   2.983   0.212
 4416SOL     OW14146   3.073   0.681   4.029
 4416SOL    HW114147   3.083   0.581   4.020
 4416SOL    HW214148   3.108   0.710   4.118
 4417SOL     OW14149   5.662   4.219   3.371
 4417SOL    HW114150   5.654   4.227   3.271
 4417SOL    HW214151   5.607   4.289   3.415
 4418SOL     OW14152   5.780   1.763   2.273
 4418SOL    HW114153   5.777   1.799   2.180
 4418SOL    HW214154   5.868   1.785   2.315
 4419SOL     OW14155   5.977   6.224   6.550
 4419SOL    HW114156   6.008   6.299   6.492
 4419SOL    HW214157   5.957   6.260   6.642
 4420SOL     OW14158   5.378   0.991   2.050
 4420SOL    HW114159   5.434   0.909   2.062
 4420SOL    HW214160   5.295   0.967   2.000
 4421SOL     OW14161   2.085   0.985   4.879
 4421SOL    HW114162   1.987   0.978   4.895
 4421SOL    HW214163   2.110   1.082   4.870
 4422SOL     OW14164   2.413   4.069   6.828
 4422SOL    HW114165   2.412   3.969   6.835
 4422SOL    HW214166   2.488   4.105   6.883
 4423SOL     OW14167   0.018   2.786   5.960
 4423SOL    HW114168   0.034   2.690   5.936
 4423SOL    HW214169   0.020   2.841   5.876
 4424SOL     OW14170   5.792   0.925   4.491
 4424SOL    HW114171   5.795   0.862   4.568
 4424SOL    HW214172   5.764   1.016   4.522
 4425SOL     OW14173   3.243   4.417   0.516
 4425SOL    HW114174   3.181   4.486   0.553
 4425SOL    HW214175   3.190   4.345   0.470
 4426SOL     OW14176   6.804   1.377   3.728
 4426SOL    HW114177   6.770   1.346   3.817
 4426SOL    HW214178   6.803   1.477   3.725
 4427SOL     OW14179   0.403   6.571   2.667
 4427SOL    HW114180   0.364   6.632   2.736
 4427SOL    HW214181   0.423   6.624   2.584
 4428SOL     OW14182   3.257   0.054   2.305
 4428SOL    HW114183   3.256   6.988   2.268
 4428SOL    HW214184   3.164   0.092   2.302
 4429SOL     OW14185   2.311   6.018   2.421
 4429SOL    HW114186   2.327   5.952   2.495
 4429SOL    HW214187   2.278   6.103   2.459
 4430SOL     OW14188   4.837   3.955   4.676
 4430SOL    HW114189   4.891   4.031   4.713
 4430SOL    HW214190   4.840   3.878   4.740
 4431SOL     OW14191   2.173   1.291   2.015
 4431SOL    HW114192   2.214   1.336   1.936
 4431SOL    HW214193   2.242   1.236   2.061
 4432SOL     OW14194   2.754   3.913   5.846
 4432SOL    HW114195   2.813   3.833   5.857
 4432SOL    HW214196   2.689   3.916   5.922
 4433SOL     OW14197   4.992   1.957   4.647
 4433SOL    HW114198   5.085   1.923   4.633
 4433SOL    HW214199   4.952   1.983   4.559
 4434SOL     OW14200   5.012   1.657   3.971
 4434SOL    HW114201   4.935   1.621   3.918
 4434SOL    HW214202   4.978   1.690   4.059
 4435SOL     OW14203   4.960   3.451   1.453
 4435SOL    HW114204   4.908   3.528   1.490
 4435SOL    HW214205   5.047   3.443   1.502
 4436SOL     OW14206   4.632   0.777   0.989
 4436SOL    HW114207   4.588   0.695   0.951
 4436SOL    HW214208   4.642   0.767   1.088
 4437SOL     OW14209   6.101   2.188   2.901
 4437SOL    HW114210   6.095   2.142   2.989
 4437SOL    HW214211   6.008   2.205   2.865
 4438SOL     OW14212   5.076   0.575   0.022
 4438SOL    HW114213   5.042   0.622   6.966
 4438SOL    HW214214   5.046   0.624   0.103
 4439SOL     OW14215   0.494   4.466   1.886
 4439SOL    HW114216   0.482   4.553   1.838
 4439SOL    HW214217   0.478   4.480   1.984
 4440SOL     OW14218   2.665   5.008   0.552
 4440SOL    HW114219   2.591   4.994   0.617
 4440SOL    HW214220   2.695   5.103   0.555
 4441SOL     OW14221   6.963   1.764   2.724
 4441SOL    HW114222   7.022   1.735   2.649
 4441SOL    HW214223   6.925   1.683   2.769
 4442SOL     OW14224   2.220   5.166   4.282
 4442SOL    HW114225   2.130   5.140   4.247
 4442SOL    HW214226   2.244   5.108   4.359
 4443SOL     OW14227   0.757   3.120   0.202
 4443SOL    HW114228   0.818   3.187   0.243
 4443SOL    HW214229   0.758   3.129   0.103
 4444SOL     OW14230   3.093   4.572   5.326
 4444SOL    HW114231   3.044   4.601   5.244
 4444SOL    HW214232   3.055   4.619   5.406
 4445SOL     OW14233   1.011   6.619   0.685
 4445SOL    HW114234   1.033   6.528   0.649
 4445SOL    HW214235   0.990   6.681   0.609
 4446SOL     OW14236   5.698   0.338   1.962
 4446SOL    HW114237   5.697   0.259   1.900
 4446SOL    HW214238   5.627   0.403   1.934
 4447SOL     OW14239   5.729   3.851   5.876
 4447SOL    HW114240   5.802   3.860   5.945
 4447SOL    HW214241   5.656   3.915   5.897
 4448SOL     OW14242   2.561   3.977   1.680
 4448SOL    HW114243   2.635   3.912   1.699
 4448SOL    HW214244   2.477   3.945   1.724
 4449SOL     OW14245   5.332   0.436   6.309
 4449SOL    HW114246   5.306   0.525   6.270
 4449SOL    HW214247   5.411   0.449   6.369
 4450SOL     OW14248   3.146   3.430   5.028
 4450SOL    HW114249   3.122   3.353   5.086
 4450SOL    HW214250   3.246   3.435   5.020
 4451SOL     OW14251   6.545   4.808   2.970
 4451SOL    HW114252   6.519   4.834   3.063
 4451SOL    HW214253   6.551   4.708   2.964
 4452SOL     OW14254   4.899   6.214   4.327
 4452SOL    HW114255   4.995   6.187   4.326
 4452SOL    HW214256   4.854   6.175   4.407
 4453SOL     OW14257   0.988   2.626   1.424
 4453SOL    HW114258   1.074   2.628   1.374
 4453SOL    HW214259   0.979   2.538   1.471
 4454SOL     OW14260   1.685   2.152   0.658
 4454SOL    HW114261   1.668   2.172   0.754
 4454SOL    HW214262   1.661   2.057   0.639
 4455SOL     OW14263   4.440   6.813   5.899
 4455SOL    HW114264   4.480   6.875   5.966
 4455SOL    HW214265   4.423   6.725   5.941
 4456SOL     OW14266   3.687   5.754   2.222
 4456SOL    HW114267   3.625   5.676   2.231
 4456SOL    HW214268   3.770   5.725   2.175
 4457SOL     OW14269   4.436   1.308   2.498
 4457SOL    HW114270   4.413   1.240   2.428
 4457SOL    HW214271   4.372   1.385   2.490
 4458SOL     OW14272   1.689   2.949   0.555
 4458SOL    HW114273   1.674   3.007   0.635
 4458SOL    HW214274   1.787   2.940   0.538
 4459SOL     OW14275   3.857   1.207   4.900
 4459SOL    HW114276   3.916   1.287   4.892
 4459SOL    HW214277   3.913   1.124   4.896
 4460SOL     OW14278   2.815   2.980   5.812
 4460SOL    HW114279   2.770   3.052   5.758
 4460SOL    HW214280   2.887   3.020   5.868
 4461SOL     OW14281   1.171   0.220   1.185
 4461SOL    HW114282   1.143   0.215   1.281
 4461SOL    HW214283   1.204   0.312   1.164
 4462SOL     OW14284   5.831   5.172   1.634
 4462SOL    HW114285   5.917   5.165   1.582
 4462SOL    HW214286   5.846   5.228   1.715
 4463SOL     OW14287   5.202   1.980   0.393
 4463SOL    HW114288   5.139   1.937   0.458
 4463SOL    HW214289   5.265   1.911   0.357
 4464SOL     OW14290   6.663   5.644   0.823
 4464SOL    HW114291   6.668   5.735   0.782
 4464SOL    HW214292   6.613   5.649   0.909
 4465SOL     OW14293   2.777   5.284   1.729
 4465SOL    HW114294   2.779   5.257   1.633
 4465SOL    HW214295   2.748   5.207   1.785
 4466SOL     OW14296   1.911   1.310   3.612
 4466SOL    HW114297   1.912   1.286   3.515
 4466SOL    HW214298   1.999   1.288   3.653
 4467SOL     OW14299   1.752   6.060   2.621
 4467SOL    HW114300   1.788   6.001   2.693
 4467SOL    HW214301   1.736   6.005   2.538
 4468SOL     OW14302   1.974   3.744   0.084
 4468SOL    HW114303   2.050   3.808   0.083
 4468SOL    HW214304   1.960   3.710   0.177
 4469SOL     OW14305   3.113   0.620   1.451
 4469SOL    HW114306   3.044   0.552   1.425
 4469SOL    HW214307   3.104   0.640   1.549
 4470SOL     OW14308   6.363   2.418   2.004
 4470SOL    HW114309   6.419   2.338   1.985
 4470SOL    HW214310   6.291   2.394   2.069
 4471SOL     OW14311   0.991   2.423   6.450
 4471SOL    HW114312   0.954   2.332   6.430
 4471SOL    HW214313   1.050   2.418   6.530
 4472SOL     OW14314   1.198   3.543   2.116
 4472SOL    HW114315   1.266   3.501   2.176
 4472SOL    HW214316   1.106   3.527   2.154
 4473SOL     OW14317   6.064   2.815   4.321
 4473SOL    HW114318   6.126   2.873   4.267
 4473SOL    HW214319   6.092   2.818   4.417
 4474SOL     OW14320   2.804   0.716   2.178
 4474SOL    HW114321   2.854   0.689   2.095
 4474SOL    HW214322   2.784   0.814   2.175
 4475SOL     OW14323   1.488   3.871   2.651
 4475SOL    HW114324   1.510   3.820   2.568
 4475SOL    HW214325   1.566   3.929   2.676
 4476SOL     OW14326   4.269   0.521   3.027
 4476SOL    HW114327   4.323   0.466   2.964
 4476SOL    HW214328   4.198   0.464   3.069
 4477SOL     OW14329   2.149   6.729   4.906
 4477SOL    HW114330   2.065   6.733   4.852
 4477SOL    HW214331   2.222   6.690   4.850
 4478SOL     OW14332   3.847   7.006   2.978
 4478SOL    HW114333   3.873   6.921   3.023
 4478SOL    HW214334   3.919   0.007   2.914
 4479SOL     OW14335   0.482   1.613   1.930
 4479SOL    HW114336   0.439   1.702   1.943
 4479SOL    HW214337   0.490   1.566   2.018
 4480SOL     OW14338   1.233   3.920   4.706
 4480SOL    HW114339   1.333   3.923   4.708
 4480SOL    HW214340   1.201   3.918   4.611
 4481SOL     OW14341   3.434   6.353   4.760
 4481SOL    HW114342   3.472   6.361   4.853
 4481SOL    HW214343   3.342   6.392   4.759
 4482SOL     OW14344   1.312   2.793   4.952
 4482SOL    HW114345   1.366   2.860   5.001
 4482SOL    HW214346   1.225   2.779   4.999
 4483SOL     OW14347   5.583   3.005   2.302
 4483SOL    HW114348   5.633   3.032   2.385
 4483SOL    HW214349   5.491   2.974   2.327
 4484SOL     OW14350   2.682   2.511   6.457
 4484SOL    HW114351   2.750   2.579   6.431
 4484SOL    HW214352   2.725   2.442   6.515
 4485SOL     OW14353   5.833   1.746   4.767
 4485SOL    HW114354   5.755   1.705   4.721
 4485SOL    HW214355   5.828   1.846   4.756
 4486SOL     OW14356   5.527   4.904   5.361
 4486SOL    HW114357   5.531   4.883   5.459
 4486SOL    HW214358   5.452   4.853   5.320
 4487SOL     OW14359   2.475   2.802   6.839
 4487SOL    HW114360   2.378   2.828   6.831
 4487SOL    HW214361   2.520   2.816   6.751
 4488SOL     OW14362   0.217   3.641   6.353
 4488SOL    HW114363   0.144   3.612   6.416
 4488SOL    HW214364   0.300   3.587   6.372
 4489SOL     OW14365   5.560   5.096   4.894
 4489SOL    HW114366   5.475   5.089   4.841
 4489SOL    HW214367   5.638   5.091   4.833
 4490SOL     OW14368   6.201   2.630   2.279
 4490SOL    HW114369   6.211   2.533   2.258
 4490SOL    HW214370   6.275   2.659   2.341
 4491SOL     OW14371   6.387   2.589   4.263
 4491SOL    HW114372   6.305   2.565   4.315
 4491SOL    HW214373   6.467   2.548   4.306
 4492SOL     OW14374   5.842   4.792   1.633
 4492SOL    HW114375   5.835   4.694   1.614
 4492SOL    HW214376   5.751   4.833   1.631
 4493SOL     OW14377   4.878   5.183   4.805
 4493SOL    HW114378   4.952   5.249   4.816
 4493SOL    HW214379   4.817   5.214   4.732
 4494SOL     OW14380   0.534   1.185   0.072
 4494SOL    HW114381   0.455   1.245   0.085
 4494SOL    HW214382   0.507   1.090   0.088
 4495SOL     OW14383   3.600   6.419   4.367
 4495SOL    HW114384   3.615   6.434   4.269
 4495SOL    HW214385   3.680   6.375   4.407
 4496SOL     OW14386   5.413   6.226   1.139
 4496SOL    HW114387   5.338   6.200   1.078
 4496SOL    HW214388   5.428   6.324   1.133
 4497SOL     OW14389   5.179   1.750   0.122
 4497SOL    HW114390   5.278   1.742   0.134
 4497SOL    HW214391   5.159   1.830   0.066
 4498SOL     OW14392   0.149   3.667   0.394
 4498SOL    HW114393   0.091   3.639   0.471
 4498SOL    HW214394   0.217   3.596   0.376
 4499SOL     OW14395   6.080   3.607   4.380
 4499SOL    HW114396   6.103   3.633   4.287
 4499SOL    HW214397   6.161   3.570   4.425
 4500SOL     OW14398   3.217   3.137   4.922
 4500SOL    HW114399   3.316   3.151   4.912
 4500SOL    HW214400   3.196   3.120   5.018
 4501SOL     OW14401   0.146   3.429   3.224
 4501SOL    HW114402   0.200   3.476   3.294
 4501SOL    HW214403   0.190   3.441   3.135
 4502SOL     OW14404   0.628   2.779   6.584
 4502SOL    HW114405   0.708   2.800   6.640
 4502SOL    HW214406   0.561   2.853   6.592
 4503SOL     OW14407   3.335   6.828   1.613
 4503SOL    HW114408   3.288   6.743   1.635
 4503SOL    HW214409   3.434   6.812   1.612
 4504SOL     OW14410   6.643   1.237   5.095
 4504SOL    HW114411   6.699   1.269   5.019
 4504SOL    HW214412   6.546   1.250   5.073
 4505SOL     OW14413   5.409   5.273   1.821
 4505SOL    HW114414   5.414   5.368   1.791
 4505SOL    HW214415   5.315   5.252   1.851
 4506SOL     OW14416   4.741   2.879   3.370
 4506SOL    HW114417   4.704   2.869   3.462
 4506SOL    HW214418   4.689   2.822   3.307
 4507SOL     OW14419   5.636   4.450   2.600
 4507SOL    HW114420   5.588   4.430   2.514
 4507SOL    HW214421   5.707   4.519   2.582
 4508SOL     OW14422   1.424   5.306   6.755
 4508SOL    HW114423   1.341   5.350   6.789
 4508SOL    HW214424   1.407   5.269   6.663
 4509SOL     OW14425   4.293   2.413   2.804
 4509SOL    HW114426   4.382   2.452   2.826
 4509SOL    HW214427   4.252   2.466   2.729
 4510SOL     OW14428   3.701   1.624   3.943
 4510SOL    HW114429   3.730   1.659   4.032
 4510SOL    HW214430   3.617   1.671   3.915
 4511SOL     OW14431   6.511   3.354   0.137
 4511SOL    HW114432   6.457   3.438   0.139
 4511SOL    HW214433   6.457   3.281   0.094
 4512SOL     OW14434   2.722   1.706   5.422
 4512SOL    HW114435   2.635   1.741   5.455
 4512SOL    HW214436   2.738   1.615   5.461
 4513SOL     OW14437   6.463   5.309   0.169
 4513SOL    HW114438   6.563   5.315   0.161
 4513SOL    HW214439   6.433   5.364   0.247
 4514SOL     OW14440   4.146   1.592   6.229
 4514SOL    HW114441   4.220   1.589   6.296
 4514SOL    HW214442   4.066   1.636   6.269
 4515SOL     OW14443   0.365   1.813   6.110
 4515SOL    HW114444   0.274   1.773   6.108
 4515SOL    HW214445   0.409   1.799   6.021
 4516SOL     OW14446   2.031   0.191   0.280
 4516SOL    HW114447   1.952   0.131   0.264
 4516SOL    HW214448   2.025   0.270   0.218
 4517SOL     OW14449   4.402   0.899   6.793
 4517SOL    HW114450   4.391   0.843   6.875
 4517SOL    HW214451   4.363   0.990   6.808
 4518SOL     OW14452   6.622   0.355   2.611
 4518SOL    HW114453   6.535   0.375   2.654
 4518SOL    HW214454   6.681   0.305   2.676
 4519SOL     OW14455   0.149   0.015   1.438
 4519SOL    HW114456   0.238   7.013   1.403
 4519SOL    HW214457   0.078   6.985   1.396
 4520SOL     OW14458   4.799   6.325   4.564
 4520SOL    HW114459   4.775   6.313   4.661
 4520SOL    HW214460   4.853   6.409   4.554
 4521SOL     OW14461   6.829   1.810   4.687
 4521SOL    HW114462   6.836   1.868   4.606
 4521SOL    HW214463   6.839   1.865   4.770
 4522SOL     OW14464   5.107   5.880   3.201
 4522SOL    HW114465   5.069   5.824   3.274
 4522SOL    HW214466   5.045   5.956   3.181
 4523SOL     OW14467   0.733   4.524   0.044
 4523SOL    HW114468   0.787   4.474   7.002
 4523SOL    HW214469   0.787   4.601   0.079
 4524SOL     OW14470   6.424   2.804   3.020
 4524SOL    HW114471   6.404   2.774   2.927
 4524SOL    HW214472   6.364   2.757   3.084
 4525SOL     OW14473   4.967   1.869   5.773
 4525SOL    HW114474   4.891   1.839   5.715
 4525SOL    HW214475   4.938   1.948   5.827
 4526SOL     OW14476   6.770   0.335   0.852
 4526SOL    HW114477   6.705   0.334   0.776
 4526SOL    HW214478   6.767   0.248   0.900
 4527SOL     OW14479   5.531   1.145   4.059
 4527SOL    HW114480   5.619   1.137   4.106
 4527SOL    HW214481   5.468   1.076   4.095
 4528SOL     OW14482   4.880   0.913   0.476
 4528SOL    HW114483   4.825   0.833   0.453
 4528SOL    HW214484   4.863   0.985   0.409
 4529SOL     OW14485   2.356   0.727   5.196
 4529SOL    HW114486   2.280   0.701   5.256
 4529SOL    HW214487   2.428   0.770   5.250
 4530SOL     OW14488   2.277   5.380   4.740
 4530SOL    HW114489   2.326   5.302   4.700
 4530SOL    HW214490   2.276   5.371   4.839
 4531SOL     OW14491   0.399   2.734   5.097
 4531SOL    HW114492   0.376   2.745   5.193
 4531SOL    HW214493   0.320   2.756   5.040
 4532SOL     OW14494   5.996   1.053   2.327
 4532SOL    HW114495   6.031   0.959   2.324
 4532SOL    HW214496   5.989   1.089   2.234
 4533SOL     OW14497   1.044   1.611   1.955
 4533SOL    HW114498   1.127   1.559   1.937
 4533SOL    HW214499   0.966   1.564   1.912
 4534SOL     OW14500   4.718   4.150   4.144
 4534SOL    HW114501   4.685   4.234   4.188
 4534SOL    HW214502   4.781   4.103   4.206
 4535SOL     OW14503   3.607   1.029   2.657
 4535SOL    HW114504   3.640   1.092   2.727
 4535SOL    HW214505   3.671   1.028   2.580
 4536SOL     OW14506   3.736   1.760   4.194
 4536SOL    HW114507   3.637   1.774   4.201
 4536SOL    HW214508   3.779   1.783   4.281
 4537SOL     OW14509   3.932   3.274   0.585
 4537SOL    HW114510   4.026   3.307   0.590
 4537SOL    HW214511   3.871   3.351   0.568
 4538SOL     OW14512   1.681   0.462   3.010
 4538SOL    HW114513   1.769   0.428   2.976
 4538SOL    HW214514   1.607   0.404   2.974
 4539SOL     OW14515   2.944   6.607   5.020
 4539SOL    HW114516   2.918   6.697   5.053
 4539SOL    HW214517   2.994   6.558   5.091
 4540SOL     OW14518   2.742   2.766   6.184
 4540SOL    HW114519   2.823   2.711   6.165
 4540SOL    HW214520   2.662   2.722   6.144
 4541SOL     OW14521   6.789   2.120   0.433
 4541SOL    HW114522   6.847   2.174   0.494
 4541SOL    HW214523   6.831   2.113   0.343
 4542SOL     OW14524   7.002   1.557   1.894
 4542SOL    HW114525   0.055   1.589   1.945
 4542SOL    HW214526   6.921   1.608   1.921
 4543SOL     OW14527   4.513   2.151   2.171
 4543SOL    HW114528   4.506   2.158   2.271
 4543SOL    HW214529   4.450   2.217   2.129
 4544SOL     OW14530   3.387   5.957   6.039
 4544SOL    HW114531   3.454   5.886   6.018
 4544SOL    HW214532   3.342   5.936   6.126
 4545SOL     OW14533   5.773   3.556   4.105
 4545SOL    HW114534   5.707   3.483   4.122
 4545SOL    HW214535   5.864   3.516   4.088
 4546SOL     OW14536   1.797   0.983   5.185
 4546SOL    HW114537   1.773   1.069   5.140
 4546SOL    HW214538   1.790   0.994   5.284
 4547SOL     OW14539   5.907   2.302   2.095
 4547SOL    HW114540   5.884   2.357   2.015
 4547SOL    HW214541   5.965   2.225   2.067
 4548SOL     OW14542   1.494   3.224   4.195
 4548SOL    HW114543   1.577   3.228   4.139
 4548SOL    HW214544   1.432   3.155   4.159
 4549SOL     OW14545   6.721   3.855   1.672
 4549SOL    HW114546   6.686   3.946   1.697
 4549SOL    HW214547   6.666   3.819   1.596
 4550SOL     OW14548   0.710   5.061   3.132
 4550SOL    HW114549   0.669   5.152   3.140
 4550SOL    HW214550   0.660   4.998   3.191
 4551SOL     OW14551   6.654   2.747   4.750
 4551SOL    HW114552   6.693   2.772   4.839
 4551SOL    HW214553   6.564   2.705   4.765
 4552SOL     OW14554   6.421   3.264   2.179
 4552SOL    HW114555   6.479   3.240   2.257
 4552SOL    HW214556   6.382   3.181   2.140
 4553SOL     OW14557   2.978   4.781   6.197
 4553SOL    HW114558   3.001   4.806   6.291
 4553SOL    HW214559   2.972   4.863   6.140
 4554SOL     OW14560   6.183   6.904   1.364
 4554SOL    HW114561   6.222   6.876   1.452
 4554SOL    HW214562   6.090   6.939   1.379
 4555SOL     OW14563   2.104   2.800   6.391
 4555SOL    HW114564   2.074   2.883   6.344
 4555SOL    HW214565   2.033   2.730   6.385
 4556SOL     OW14566   5.538   3.016   4.048
 4556SOL    HW114567   5.519   2.982   3.956
 4556SOL    HW214568   5.632   3.052   4.051
 4557SOL     OW14569   5.355   6.679   5.260
 4557SOL    HW114570   5.308   6.595   5.289
 4557SOL    HW214571   5.402   6.662   5.174
 4558SOL     OW14572   0.391   4.313   5.107
 4558SOL    HW114573   0.349   4.248   5.171
 4558SOL    HW214574   0.484   4.334   5.138
 4559SOL     OW14575   0.431   3.740   1.858
 4559SOL    HW114576   0.460   3.646   1.841
 4559SOL    HW214577   0.334   3.741   1.884
 4560SOL     OW14578   5.228   3.883   1.524
 4560SOL    HW114579   5.303   3.925   1.575
 4560SOL    HW214580   5.212   3.935   1.440
 4561SOL     OW14581   2.417   1.887   3.020
 4561SOL    HW114582   2.350   1.814   3.011
 4561SOL    HW214583   2.466   1.898   2.934
 4562SOL     OW14584   2.517   6.535   5.798
 4562SOL    HW114585   2.598   6.478   5.786
 4562SOL    HW214586   2.438   6.478   5.819
 4563SOL     OW14587   6.935   2.520   1.545
 4563SOL    HW114588   6.954   2.569   1.459
 4563SOL    HW214589   6.837   2.517   1.560
 4564SOL     OW14590   6.852   6.107   1.632
 4564SOL    HW114591   6.857   6.018   1.586
 4564SOL    HW214592   6.926   6.166   1.598
 4565SOL     OW14593   0.917   1.369   4.841
 4565SOL    HW114594   0.988   1.394   4.908
 4565SOL    HW214595   0.937   1.412   4.754
 4566SOL     OW14596   6.576   2.628   6.958
 4566SOL    HW114597   6.489   2.659   6.920
 4566SOL    HW214598   6.637   2.706   6.969
 4567SOL     OW14599   6.130   0.902   6.353
 4567SOL    HW114600   6.033   0.879   6.338
 4567SOL    HW214601   6.152   0.886   6.449
 4568SOL     OW14602   2.361   3.519   5.917
 4568SOL    HW114603   2.439   3.579   5.897
 4568SOL    HW214604   2.284   3.574   5.948
 4569SOL     OW14605   2.182   1.678   2.956
 4569SOL    HW114606   2.104   1.660   3.015
 4569SOL    HW214607   2.151   1.718   2.870
 4570SOL     OW14608   0.437   6.382   3.065
 4570SOL    HW114609   0.343   6.390   3.032
 4570SOL    HW214610   0.461   6.464   3.116
 4571SOL     OW14611   4.370   4.261   6.492
 4571SOL    HW114612   4.414   4.171   6.490
 4571SOL    HW214613   4.324   4.273   6.580
 4572SOL     OW14614   2.214   0.567   6.896
 4572SOL    HW114615   2.124   0.591   6.859
 4572SOL    HW214616   2.245   0.640   6.957
 4573SOL     OW14617   6.189   0.677   0.595
 4573SOL    HW114618   6.153   0.596   0.641
 4573SOL    HW214619   6.133   0.757   0.619
 4574SOL     OW14620   5.726   4.243   0.910
 4574SOL    HW114621   5.749   4.261   1.006
 4574SOL    HW214622   5.798   4.188   0.869
 4575SOL     OW14623   5.800   0.849   6.627
 4575SOL    HW114624   5.722   0.787   6.610
 4575SOL    HW214625   5.873   0.798   6.671
 4576SOL     OW14626   2.795   6.485   5.628
 4576SOL    HW114627   2.827   6.572   5.666
 4576SOL    HW214628   2.854   6.411   5.661
 4577SOL     OW14629   1.687   2.022   4.990
 4577SOL    HW114630   1.709   2.111   5.030
 4577SOL    HW214631   1.726   2.016   4.898
 4578SOL     OW14632   0.134   2.833   4.922
 4578SOL    HW114633   0.105   2.812   4.828
 4578SOL    HW214634   0.174   2.924   4.925
 4579SOL     OW14635   4.101   0.858   3.418
 4579SOL    HW114636   4.067   0.950   3.398
 4579SOL    HW214637   4.062   0.825   3.504
 4580SOL     OW14638   5.717   4.768   0.819
 4580SOL    HW114639   5.735   4.674   0.788
 4580SOL    HW214640   5.803   4.813   0.843
 4581SOL     OW14641   2.508   5.266   2.940
 4581SOL    HW114642   2.513   5.337   2.870
 4581SOL    HW214643   2.596   5.219   2.946
 4582SOL     OW14644   5.477   0.100   5.394
 4582SOL    HW114645   5.481   0.056   5.483
 4582SOL    HW214646   5.567   0.137   5.370
 4583SOL     OW14647   2.418   2.519   6.482
 4583SOL    HW114648   2.392   2.432   6.523
 4583SOL    HW214649   2.517   2.525   6.475
 4584SOL     OW14650   0.289   4.756   5.667
 4584SOL    HW114651   0.299   4.658   5.686
 4584SOL    HW214652   0.347   4.808   5.730
 4585SOL     OW14653   3.137   6.020   3.490
 4585SOL    HW114654   3.066   6.033   3.560
 4585SOL    HW214655   3.198   6.099   3.489
 4586SOL     OW14656   3.603   4.831   0.651
 4586SOL    HW114657   3.524   4.891   0.662
 4586SOL    HW214658   3.687   4.885   0.657
 4587SOL     OW14659   3.533   3.963   3.126
 4587SOL    HW114660   3.567   3.993   3.215
 4587SOL    HW214661   3.479   4.036   3.085
 4588SOL     OW14662   2.548   3.485   5.373
 4588SOL    HW114663   2.622   3.449   5.316
 4588SOL    HW214664   2.562   3.458   5.468
 4589SOL     OW14665   5.870   0.847   2.767
 4589SOL    HW114666   5.970   0.844   2.759
 4589SOL    HW214667   5.841   0.942   2.778
 4590SOL     OW14668   4.794   5.821   1.319
 4590SOL    HW114669   4.773   5.903   1.266
 4590SOL    HW214670   4.709   5.782   1.356
 4591SOL     OW14671   1.406   6.895   4.788
 4591SOL    HW114672   1.462   6.822   4.826
 4591SOL    HW214673   1.422   6.979   4.840
 4592SOL     OW14674   2.681   1.690   2.637
 4592SOL    HW114675   2.649   1.597   2.651
 4592SOL    HW214676   2.756   1.709   2.700
 4593SOL     OW14677   4.832   5.439   2.712
 4593SOL    HW114678   4.801   5.478   2.625
 4593SOL    HW214679   4.898   5.366   2.693
 4594SOL     OW14680   2.747   1.209   3.241
 4594SOL    HW114681   2.800   1.293   3.230
 4594SOL    HW214682   2.682   1.199   3.166
 4595SOL     OW14683   3.880   3.348   5.420
 4595SOL    HW114684   3.917   3.269   5.469
 4595SOL    HW214685   3.832   3.407   5.484
 4596SOL     OW14686   5.850   6.781   2.074
 4596SOL    HW114687   5.781   6.758   2.005
 4596SOL    HW214688   5.805   6.795   2.163
 4597SOL     OW14689   3.691   5.572   6.231
 4597SOL    HW114690   3.611   5.616   6.189
 4597SOL    HW214691   3.773   5.625   6.210
 4598SOL     OW14692   1.964   6.557   6.666
 4598SOL    HW114693   2.036   6.540   6.733
 4598SOL    HW214694   2.001   6.551   6.574
 4599SOL     OW14695   1.586   5.084   0.864
 4599SOL    HW114696   1.608   4.987   0.878
 4599SOL    HW214697   1.540   5.120   0.945
 4600SOL     OW14698   1.407   5.383   5.463
 4600SOL    HW114699   1.363   5.391   5.552
 4600SOL    HW214700   1.480   5.315   5.468
 4601SOL     OW14701   2.143   1.265   5.563
 4601SOL    HW114702   2.104   1.212   5.638
 4601SOL    HW214703   2.081   1.339   5.538
 4602SOL     OW14704   2.415   6.545   1.337
 4602SOL    HW114705   2.435   6.512   1.429
 4602SOL    HW214706   2.484   6.613   1.311
 4603SOL     OW14707   3.009   5.984   0.906
 4603SOL    HW114708   3.063   5.965   0.824
 4603SOL    HW214709   2.926   5.929   0.905
 4604SOL     OW14710   4.573   0.500   0.627
 4604SOL    HW114711   4.612   0.417   0.588
 4604SOL    HW214712   4.559   0.488   0.725
 4605SOL     OW14713   2.974   0.132   2.355
 4605SOL    HW114714   2.887   0.175   2.376
 4605SOL    HW214715   2.961   0.064   2.283
 4606SOL     OW14716   0.747   6.129   2.300
 4606SOL    HW114717   0.669   6.188   2.321
 4606SOL    HW214718   0.714   6.036   2.281
 4607SOL     OW14719   1.423   3.611   1.593
 4607SOL    HW114720   1.491   3.683   1.583
 4607SOL    HW214721   1.340   3.636   1.544
 4608SOL     OW14722   0.518   6.043   3.717
 4608SOL    HW114723   0.538   6.103   3.795
 4608SOL    HW214724   0.588   6.055   3.646
 4609SOL     OW14725   4.194   5.088   6.256
 4609SOL    HW114726   4.103   5.115   6.223
 4609SOL    HW214727   4.230   5.160   6.314
 4610SOL     OW14728   5.037   2.304   0.959
 4610SOL    HW114729   5.096   2.255   0.894
 4610SOL    HW214730   5.032   2.400   0.934
 4611SOL     OW14731   1.015   6.341   6.780
 4611SOL    HW114732   1.007   6.247   6.747
 4611SOL    HW214733   0.999   6.404   6.704
 4612SOL     OW14734   1.411   6.106   0.173
 4612SOL    HW114735   1.490   6.160   0.145
 4612SOL    HW214736   1.333   6.128   0.113
 4613SOL     OW14737   2.059   5.786   1.813
 4613SOL    HW114738   2.112   5.862   1.851
 4613SOL    HW214739   2.115   5.704   1.812
 4614SOL     OW14740   6.409   3.291   3.400
 4614SOL    HW114741   6.330   3.343   3.368
 4614SOL    HW214742   6.464   3.263   3.322
 4615SOL     OW14743   1.602   0.423   0.117
 4615SOL    HW114744   1.616   0.509   0.167
 4615SOL    HW214745   1.664   0.419   0.039
 4616SOL     OW14746   6.744   1.057   4.621
 4616SOL    HW114747   6.715   1.112   4.699
 4616SOL    HW214748   6.685   0.977   4.612
 4617SOL     OW14749   0.779   2.512   2.560
 4617SOL    HW114750   0.859   2.477   2.511
 4617SOL    HW214751   0.773   2.469   2.650
 4618SOL     OW14752   2.210   2.983   4.845
 4618SOL    HW114753   2.189   3.061   4.787
 4618SOL    HW214754   2.271   3.011   4.919
 4619SOL     OW14755   3.114   6.427   3.192
 4619SOL    HW114756   3.039   6.409   3.129
 4619SOL    HW214757   3.195   6.377   3.162
 4620SOL     OW14758   2.987   4.957   0.865
 4620SOL    HW114759   2.913   5.022   0.884
 4620SOL    HW214760   3.014   4.965   0.769
 4621SOL     OW14761   4.986   0.359   2.432
 4621SOL    HW114762   5.025   0.269   2.452
 4621SOL    HW214763   5.041   0.429   2.477
 4622SOL     OW14764   2.714   4.547   0.826
 4622SOL    HW114765   2.725   4.607   0.748
 4622SOL    HW214766   2.738   4.454   0.800
 4623SOL     OW14767   5.460   6.485   1.098
 4623SOL    HW114768   5.517   6.542   1.158
 4623SOL    HW214769   5.482   6.506   1.003
 4624SOL     OW14770   4.036   6.864   3.184
 4624SOL    HW114771   4.038   6.964   3.193
 4624SOL    HW214772   4.125   6.832   3.153
 4625SOL     OW14773   2.192   4.483   1.102
 4625SOL    HW114774   2.179   4.394   1.058
 4625SOL    HW214775   2.280   4.521   1.076
 4626SOL     OW14776   4.996   4.219   1.538
 4626SOL    HW114777   5.005   4.217   1.638
 4626SOL    HW214778   4.909   4.262   1.513
 4627SOL     OW14779   2.148   4.491   4.806
 4627SOL    HW114780   2.214   4.467   4.878
 4627SOL    HW214781   2.135   4.590   4.805
 4628SOL     OW14782   6.301   4.156   3.696
 4628SOL    HW114783   6.223   4.093   3.696
 4628SOL    HW214784   6.269   4.249   3.681
 4629SOL     OW14785   2.373   5.446   5.734
 4629SOL    HW114786   2.407   5.404   5.650
 4629SOL    HW214787   2.425   5.410   5.812
 4630SOL     OW14788   3.037   5.759   2.490
 4630SOL    HW114789   2.963   5.759   2.558
 4630SOL    HW214790   3.008   5.811   2.410
 4631SOL     OW14791   1.573   5.602   3.254
 4631SOL    HW114792   1.662   5.595   3.209
 4631SOL    HW214793   1.579   5.562   3.346
 4632SOL     OW14794   3.305   4.927   2.512
 4632SOL    HW114795   3.371   4.916   2.437
 4632SOL    HW214796   3.213   4.909   2.478
 4633SOL     OW14797   5.800   0.723   4.679
 4633SOL    HW114798   5.741   0.676   4.744
 4633SOL    HW214799   5.817   0.664   4.600
 4634SOL     OW14800   3.174   4.587   5.801
 4634SOL    HW114801   3.084   4.629   5.786
 4634SOL    HW214802   3.170   4.490   5.774
 4635SOL     OW14803   4.708   4.037   1.206
 4635SOL    HW114804   4.798   4.067   1.176
 4635SOL    HW214805   4.651   4.015   1.127
 4636SOL     OW14806   1.280   4.646   6.896
 4636SOL    HW114807   1.268   4.684   6.988
 4636SOL    HW214808   1.267   4.547   6.899
 4637SOL     OW14809   0.665   6.125   1.109
 4637SOL    HW114810   0.756   6.167   1.112
 4637SOL    HW214811   0.608   6.165   1.181
 4638SOL     OW14812   4.391   4.566   6.698
 4638SOL    HW114813   4.350   4.478   6.724
 4638SOL    HW214814   4.323   4.623   6.653
 4639SOL     OW14815   3.782   3.860   5.329
 4639SOL    HW114816   3.741   3.859   5.420
 4639SOL    HW214817   3.719   3.820   5.263
 4640SOL     OW14818   4.881   3.805   3.956
 4640SOL    HW114819   4.925   3.732   3.904
 4640SOL    HW214820   4.880   3.780   4.053
 4641SOL     OW14821   2.339   0.080   4.745
 4641SOL    HW114822   2.249   0.037   4.737
 4641SOL    HW214823   2.383   0.084   4.655
 4642SOL     OW14824   1.207   5.729   4.379
 4642SOL    HW114825   1.146   5.707   4.303
 4642SOL    HW214826   1.239   5.823   4.368
 4643SOL     OW14827   6.576   2.638   1.077
 4643SOL    HW114828   6.503   2.691   1.036
 4643SOL    HW214829   6.538   2.573   1.143
 4644SOL     OW14830   6.565   5.017   5.575
 4644SOL    HW114831   6.635   5.055   5.635
 4644SOL    HW214832   6.524   4.937   5.619
 4645SOL     OW14833   0.576   6.924   4.146
 4645SOL    HW114834   0.598   6.827   4.158
 4645SOL    HW214835   0.660   6.974   4.124
 4646SOL     OW14836   2.027   5.731   3.658
 4646SOL    HW114837   1.979   5.662   3.711
 4646SOL    HW214838   2.125   5.709   3.656
 4647SOL     OW14839   1.578   6.850   3.076
 4647SOL    HW114840   1.561   6.759   3.039
 4647SOL    HW214841   1.592   6.844   3.175
 4648SOL     OW14842   3.344   1.117   2.610
 4648SOL    HW114843   3.441   1.094   2.608
 4648SOL    HW214844   3.308   1.099   2.701
 4649SOL     OW14845   5.233   1.009   6.955
 4649SOL    HW114846   5.212   1.094   6.907
 4649SOL    HW214847   5.281   1.030   0.015
 4650SOL     OW14848   4.736   5.137   2.666
 4650SOL    HW114849   4.693   5.227   2.656
 4650SOL    HW214850   4.835   5.146   2.653
 4651SOL     OW14851   6.413   3.043   0.489
 4651SOL    HW114852   6.401   2.955   0.443
 4651SOL    HW214853   6.372   3.115   0.433
 4652SOL     OW14854   6.437   6.798   4.497
 4652SOL    HW114855   6.495   6.867   4.542
 4652SOL    HW214856   6.488   6.712   4.489
 4653SOL     OW14857   5.187   5.436   0.763
 4653SOL    HW114858   5.186   5.421   0.862
 4653SOL    HW214859   5.161   5.531   0.744
 4654SOL     OW14860   0.650   6.872   0.289
 4654SOL    HW114861   0.569   6.813   0.285
 4654SOL    HW214862   0.647   6.937   0.213
 4655SOL     OW14863   5.189   4.001   1.275
 4655SOL    HW114864   5.163   4.097   1.271
 4655SOL    HW214865   5.274   3.987   1.225
 4656SOL     OW14866   1.576   0.069   2.602
 4656SOL    HW114867   1.656   0.120   2.634
 4656SOL    HW214868   1.593   0.034   2.510
 4657SOL     OW14869   4.370   6.600   2.220
 4657SOL    HW114870   4.441   6.576   2.287
 4657SOL    HW214871   4.393   6.688   2.178
 4658SOL     OW14872   3.843   1.044   3.012
 4658SOL    HW114873   3.849   1.093   2.924
 4658SOL    HW214874   3.814   1.108   3.083
 4659SOL     OW14875   3.391   4.780   5.188
 4659SOL    HW114876   3.432   4.849   5.248
 4659SOL    HW214877   3.401   4.690   5.230
 4660SOL     OW14878   0.980   4.253   5.263
 4660SOL    HW114879   1.014   4.345   5.241
 4660SOL    HW214880   1.036   4.213   5.335
 4661SOL     OW14881   2.521   4.606   5.829
 4661SOL    HW114882   2.584   4.531   5.850
 4661SOL    HW214883   2.453   4.574   5.763
 4662SOL     OW14884   3.336   0.096   5.371
 4662SOL    HW114885   3.273   0.042   5.427
 4662SOL    HW214886   3.369   0.174   5.424
 4663SOL     OW14887   0.527   1.666   1.435
 4663SOL    HW114888   0.564   1.758   1.417
 4663SOL    HW214889   0.429   1.673   1.453
 4664SOL     OW14890   1.220   1.104   1.393
 4664SOL    HW114891   1.248   1.195   1.423
 4664SOL    HW214892   1.146   1.112   1.326
 4665SOL     OW14893   3.707   0.018   6.675
 4665SOL    HW114894   3.630   0.080   6.657
 4665SOL    HW214895   3.675   6.950   6.672
 4666SOL     OW14896   1.564   3.281   0.537
 4666SOL    HW114897   1.546   3.208   0.603
 4666SOL    HW214898   1.578   3.367   0.585
 4667SOL     OW14899   0.064   3.485   2.506
 4667SOL    HW114900   0.078   3.522   2.414
 4667SOL    HW214901   6.997   3.505   2.536
 4668SOL     OW14902   4.152   2.286   3.043
 4668SOL    HW114903   4.122   2.349   2.972
 4668SOL    HW214904   4.234   2.238   3.012
 4669SOL     OW14905   4.723   6.578   6.285
 4669SOL    HW114906   4.804   6.635   6.269
 4669SOL    HW214907   4.743   6.512   6.358
 4670SOL     OW14908   2.055   2.630   6.073
 4670SOL    HW114909   1.958   2.651   6.088
 4670SOL    HW214910   2.069   2.531   6.082
 4671SOL     OW14911   0.152   2.845   0.408
 4671SOL    HW114912   0.100   2.802   0.482
 4671SOL    HW214913   0.239   2.880   0.443
 4672SOL     OW14914   2.371   4.947   5.858
 4672SOL    HW114915   2.402   4.876   5.922
 4672SOL    HW214916   2.412   5.035   5.882
 4673SOL     OW14917   5.102   6.977   2.116
 4673SOL    HW114918   5.058   6.889   2.131
 4673SOL    HW214919   5.088   7.006   2.021
 4674SOL     OW14920   5.440   1.084   6.572
 4674SOL    HW114921   5.380   1.042   6.504
 4674SOL    HW214922   5.535   1.058   6.553
 4675SOL     OW14923   2.299   1.041   6.531
 4675SOL    HW114924   2.210   1.084   6.546
 4675SOL    HW214925   2.303   1.002   6.439
 4676SOL     OW14926   6.696   6.424   4.350
 4676SOL    HW114927   6.600   6.417   4.323
 4676SOL    HW214928   6.750   6.457   4.272
 4677SOL     OW14929   2.432   1.540   6.433
 4677SOL    HW114930   2.343   1.574   6.464
 4677SOL    HW214931   2.481   1.613   6.387
 4678SOL     OW14932   1.575   4.362   2.924
 4678SOL    HW114933   1.520   4.442   2.947
 4678SOL    HW214934   1.608   4.318   3.008
 4679SOL     OW14935   3.561   1.179   0.349
 4679SOL    HW114936   3.649   1.218   0.377
 4679SOL    HW214937   3.555   1.180   0.249
 4680SOL     OW14938   2.826   1.720   0.526
 4680SOL    HW114939   2.853   1.625   0.541
 4680SOL    HW214940   2.730   1.731   0.551
 4681SOL     OW14941   5.173   5.979   6.148
 4681SOL    HW114942   5.154   5.901   6.090
 4681SOL    HW214943   5.270   6.003   6.141
 4682SOL     OW14944   4.378   4.119   5.621
 4682SOL    HW114945   4.298   4.178   5.610
 4682SOL    HW214946   4.460   4.174   5.636
 4683SOL     OW14947   4.280   4.840   2.963
 4683SOL    HW114948   4.313   4.926   2.924
 4683SOL    HW214949   4.205   4.860   3.026
 4684SOL     OW14950   6.998   1.638   5.377
 4684SOL    HW114951   0.055   1.693   5.392
 4684SOL    HW214952   6.997   1.561   5.440
 4685SOL     OW14953   0.639   5.921   5.571
 4685SOL    HW114954   0.720   5.861   5.565
 4685SOL    HW214955   0.601   5.917   5.663
 4686SOL     OW14956   4.527   4.989   0.008
 4686SOL    HW114957   4.624   4.965   0.002
 4686SOL    HW214958   4.481   4.966   6.948
 4687SOL     OW14959   6.291   4.042   4.620
 4687SOL    HW114960   6.260   4.133   4.592
 4687SOL    HW214961   6.214   3.978   4.619
 4688SOL     OW14962   6.061   4.478   4.621
 4688SOL    HW114963   6.027   4.409   4.685
 4688SOL    HW214964   6.028   4.568   4.647
 4689SOL     OW14965   5.817   0.575   0.582
 4689SOL    HW114966   5.831   0.485   0.623
 4689SOL    HW214967   5.872   0.582   0.498
 4690SOL     OW14968   1.310   0.142   7.002
 4690SOL    HW114969   1.214   0.145   6.973
 4690SOL    HW214970   1.320   0.190   0.063
 4691SOL     OW14971   3.074   4.970   1.629
 4691SOL    HW114972   3.052   4.942   1.536
 4691SOL    HW214973   2.990   4.991   1.679
 4692SOL     OW14974   5.965   5.729   1.993
 4692SOL    HW114975   6.037   5.699   2.055
 4692SOL    HW214976   5.887   5.668   2.000
 4693SOL     OW14977   0.953   1.225   3.281
 4693SOL    HW114978   1.012   1.231   3.361
 4693SOL    HW214979   1.004   1.254   3.200
 4694SOL     OW14980   2.078   0.537   0.472
 4694SOL    HW114981   2.090   0.635   0.489
 4694SOL    HW214982   2.144   0.486   0.526
 4695SOL     OW14983   1.792   3.595   1.816
 4695SOL    HW114984   1.755   3.644   1.895
 4695SOL    HW214985   1.869   3.538   1.846
 4696SOL     OW14986   0.251   4.141   0.091
 4696SOL    HW114987   0.331   4.082   0.102
 4696SOL    HW214988   0.182   4.116   0.159
 4697SOL     OW14989   2.199   3.474   1.274
 4697SOL    HW114990   2.230   3.487   1.368
 4697SOL    HW214991   2.270   3.505   1.211
 4698SOL     OW14992   4.307   5.110   2.866
 4698SOL    HW114993   4.359   5.077   2.787
 4698SOL    HW214994   4.227   5.161   2.834
 4699SOL     OW14995   1.706   6.683   2.034
 4699SOL    HW114996   1.618   6.728   2.015
 4699SOL    HW214997   1.748   6.657   1.947
 4700SOL     OW14998   6.450   1.787   2.654
 4700SOL    HW114999   6.471   1.693   2.628
 4700SOL    HW215000   6.353   1.806   2.636
 4701SOL     OW15001   2.236   2.214   0.091
 4701SOL    HW115002   2.284   2.148   0.033
 4701SOL    HW215003   2.301   2.261   0.150
 4702SOL     OW15004   4.006   5.343   6.801
 4702SOL    HW115005   4.019   5.328   6.899
 4702SOL    HW215006   4.086   5.309   6.751
 4703SOL     OW15007   1.003   1.306   1.428
 4703SOL    HW115008   0.931   1.365   1.463
 4703SOL    HW215009   1.091   1.332   1.468
 4704SOL     OW15010   0.859   6.663   0.420
 4704SOL    HW115011   0.875   6.568   0.393
 4704SOL    HW215012   0.822   6.713   0.342
 4705SOL     OW15013   3.520   3.045   1.943
 4705SOL    HW115014   3.617   3.055   1.966
 4705SOL    HW215015   3.481   2.969   1.995
 4706SOL     OW15016   3.596   0.417   6.637
 4706SOL    HW115017   3.633   0.509   6.654
 4706SOL    HW215018   3.576   0.373   6.725
 4707SOL     OW15019   1.812   6.375   0.812
 4707SOL    HW115020   1.869   6.433   0.754
 4707SOL    HW215021   1.869   6.324   0.876
 4708SOL     OW15022   1.219   1.795   6.619
 4708SOL    HW115023   1.185   1.701   6.625
 4708SOL    HW215024   1.312   1.795   6.583
 4709SOL     OW15025   4.500   5.825   5.774
 4709SOL    HW115026   4.422   5.764   5.787
 4709SOL    HW215027   4.580   5.772   5.749
 4710SOL     OW15028   4.105   1.065   5.366
 4710SOL    HW115029   4.083   1.047   5.462
 4710SOL    HW215030   4.180   1.131   5.362
 4711SOL     OW15031   5.832   0.947   1.548
 4711SOL    HW115032   5.806   0.882   1.619
 4711SOL    HW215033   5.855   0.897   1.464
 4712SOL     OW15034   2.747   4.427   6.878
 4712SOL    HW115035   2.651   4.448   6.862
 4712SOL    HW215036   2.755   4.341   6.928
 4713SOL     OW15037   3.136   3.695   0.161
 4713SOL    HW115038   3.183   3.671   0.246
 4713SOL    HW215039   3.048   3.649   0.157
 4714SOL     OW15040   1.216   2.280   0.137
 4714SOL    HW115041   1.314   2.291   0.119
 4714SOL    HW215042   1.168   2.365   0.113
 4715SOL     OW15043   5.638   2.340   2.614
 4715SOL    HW115044   5.624   2.438   2.599
 4715SOL    HW215045   5.569   2.288   2.563
 4716SOL     OW15046   5.001   5.433   6.500
 4716SOL    HW115047   5.012   5.339   6.532
 4716SOL    HW215048   5.005   5.435   6.400
 4717SOL     OW15049   0.347   0.018   3.567
 4717SOL    HW115050   0.335   7.022   3.470
 4717SOL    HW215051   0.304   6.973   3.623
 4718SOL     OW15052   5.594   2.657   1.513
 4718SOL    HW115053   5.547   2.744   1.499
 4718SOL    HW215054   5.529   2.582   1.503
 4719SOL     OW15055   5.327   3.279   2.002
 4719SOL    HW115056   5.282   3.319   2.082
 4719SOL    HW215057   5.258   3.241   1.940
 4720SOL     OW15058   1.940   5.297   5.931
 4720SOL    HW115059   1.884   5.234   5.877
 4720SOL    HW215060   1.992   5.357   5.870
 4721SOL     OW15061   6.971   2.111   1.770
 4721SOL    HW115062   0.007   2.042   1.807
 4721SOL    HW215063   6.916   2.150   1.844
 4722SOL     OW15064   1.089   6.314   6.356
 4722SOL    HW115065   1.060   6.287   6.265
 4722SOL    HW215066   1.159   6.250   6.389
 4723SOL     OW15067   2.031   3.745   5.724
 4723SOL    HW115068   2.046   3.844   5.721
 4723SOL    HW215069   2.001   3.718   5.816
 4724SOL     OW15070   6.001   5.942   3.043
 4724SOL    HW115071   6.049   6.026   3.065
 4724SOL    HW215072   5.987   5.937   2.944
 4725SOL     OW15073   6.212   5.701   2.773
 4725SOL    HW115074   6.219   5.672   2.868
 4725SOL    HW215075   6.201   5.620   2.715
 4726SOL     OW15076   1.833   2.767   5.927
 4726SOL    HW115077   1.894   2.693   5.898
 4726SOL    HW215078   1.747   2.728   5.960
 4727SOL     OW15079   0.901   5.852   0.698
 4727SOL    HW115080   0.986   5.841   0.749
 4727SOL    HW215081   0.856   5.763   0.687
 4728SOL     OW15082   5.891   0.918   2.055
 4728SOL    HW115083   5.897   1.015   2.080
 4728SOL    HW215084   5.982   0.878   2.053
 4729SOL     OW15085   2.638   1.614   0.934
 4729SOL    HW115086   2.596   1.535   0.979
 4729SOL    HW215087   2.721   1.641   0.983
 4730SOL     OW15088   3.285   5.716   5.038
 4730SOL    HW115089   3.235   5.728   4.952
 4730SOL    HW215090   3.301   5.805   5.079
 4731SOL     OW15091   4.617   0.207   0.165
 4731SOL    HW115092   4.643   0.193   0.070
 4731SOL    HW215093   4.669   0.283   0.204
 4732SOL     OW15094   0.810   3.377   6.077
 4732SOL    HW115095   0.824   3.278   6.085
 4732SOL    HW215096   0.773   3.413   6.162
 4733SOL     OW15097   0.995   3.924   3.533
 4733SOL    HW115098   0.955   4.006   3.493
 4733SOL    HW215099   1.038   3.869   3.461
 4734SOL     OW15100   4.645   2.495   0.467
 4734SOL    HW115101   4.725   2.545   0.435
 4734SOL    HW215102   4.671   2.438   0.546
 4735SOL     OW15103   6.937   5.757   4.866
 4735SOL    HW115104   6.845   5.760   4.907
 4735SOL    HW215105   7.006   5.757   4.939
 4736SOL     OW15106   0.239   2.218   6.424
 4736SOL    HW115107   0.176   2.251   6.354
 4736SOL    HW215108   0.333   2.232   6.393
 4737SOL     OW15109   2.287   4.404   2.285
 4737SOL    HW115110   2.322   4.434   2.196
 4737SOL    HW215111   2.360   4.408   2.353
 4738SOL     OW15112   0.208   6.505   3.354
 4738SOL    HW115113   0.193   6.552   3.442
 4738SOL    HW215114   0.216   6.407   3.370
 4739SOL     OW15115   4.014   6.424   3.263
 4739SOL    HW115116   4.065   6.348   3.304
 4739SOL    HW215117   3.951   6.388   3.194
 4740SOL     OW15118   0.815   1.274   1.137
 4740SOL    HW115119   0.852   1.182   1.129
 4740SOL    HW215120   0.886   1.340   1.114
 4741SOL     OW15121   3.994   3.284   1.189
 4741SOL    HW115122   3.910   3.296   1.242
 4741SOL    HW215123   4.026   3.373   1.156
 4742SOL     OW15124   3.548   6.689   5.827
 4742SOL    HW115125   3.512   6.711   5.917
 4742SOL    HW215126   3.519   6.759   5.761
 4743SOL     OW15127   1.686   3.373   3.116
 4743SOL    HW115128   1.724   3.283   3.095
 4743SOL    HW215129   1.615   3.364   3.186
 4744SOL     OW15130   1.592   4.471   0.437
 4744SOL    HW115131   1.686   4.465   0.403
 4744SOL    HW215132   1.585   4.549   0.499
 4745SOL     OW15133   3.003   4.148   5.587
 4745SOL    HW115134   3.006   4.157   5.487
 4745SOL    HW215135   3.043   4.061   5.613
 4746SOL     OW15136   5.598   6.073   2.862
 4746SOL    HW115137   5.524   6.106   2.803
 4746SOL    HW215138   5.559   6.034   2.945
 4747SOL     OW15139   1.309   3.875   6.768
 4747SOL    HW115140   1.363   3.949   6.728
 4747SOL    HW215141   1.345   3.787   6.737
 4748SOL     OW15142   2.655   5.194   1.133
 4748SOL    HW115143   2.686   5.142   1.212
 4748SOL    HW215144   2.566   5.236   1.153
 4749SOL     OW15145   1.997   6.315   5.500
 4749SOL    HW115146   2.041   6.349   5.417
 4749SOL    HW215147   2.057   6.249   5.544
 4750SOL     OW15148   0.340   3.623   4.654
 4750SOL    HW115149   0.363   3.529   4.628
 4750SOL    HW215150   0.417   3.684   4.633
 4751SOL     OW15151   4.009   2.011   2.466
 4751SOL    HW115152   3.946   1.985   2.393
 4751SOL    HW215153   3.975   1.975   2.553
 4752SOL     OW15154   4.052   1.338   6.652
 4752SOL    HW115155   4.138   1.334   6.601
 4752SOL    HW215156   4.027   1.434   6.667
 4753SOL     OW15157   6.420   0.563   3.662
 4753SOL    HW115158   6.488   0.539   3.731
 4753SOL    HW215159   6.458   0.547   3.571
 4754SOL     OW15160   5.741   5.001   4.716
 4754SOL    HW115161   5.823   5.046   4.752
 4754SOL    HW215162   5.718   4.924   4.775
 4755SOL     OW15163   3.089   0.581   0.419
 4755SOL    HW115164   3.044   0.501   0.457
 4755SOL    HW215165   3.186   0.579   0.444
 4756SOL     OW15166   6.221   2.556   6.814
 4756SOL    HW115167   6.137   2.581   6.766
 4756SOL    HW215168   6.264   2.478   6.770
 4757SOL     OW15169   2.273   1.594   1.232
 4757SOL    HW115170   2.251   1.514   1.177
 4757SOL    HW215171   2.303   1.565   1.322
 4758SOL     OW15172   1.421   6.354   3.864
 4758SOL    HW115173   1.353   6.358   3.790
 4758SOL    HW215174   1.404   6.428   3.929
 4759SOL     OW15175   6.356   4.659   5.162
 4759SOL    HW115176   6.346   4.560   5.164
 4759SOL    HW215177   6.445   4.684   5.125
 4760SOL     OW15178   2.420   1.967   0.417
 4760SOL    HW115179   2.451   2.049   0.465
 4760SOL    HW215180   2.336   1.987   0.366
 4761SOL     OW15181   0.804   5.941   0.287
 4761SOL    HW115182   0.842   5.971   0.375
 4761SOL    HW215183   0.834   6.004   0.216
 4762SOL     OW15184   1.590   5.712   1.713
 4762SOL    HW115185   1.629   5.684   1.800
 4762SOL    HW215186   1.536   5.795   1.725
 4763SOL     OW15187   6.233   0.230   2.797
 4763SOL    HW115188   6.150   0.285   2.810
 4763SOL    HW215189   6.313   0.288   2.811
 4764SOL     OW15190   4.932   3.859   4.938
 4764SOL    HW115191   5.025   3.854   4.902
 4764SOL    HW215192   4.906   3.770   4.976
 4765SOL     OW15193   4.743   0.919   4.820
 4765SOL    HW115194   4.797   0.892   4.900
 4765SOL    HW215195   4.695   1.004   4.839
 4766SOL     OW15196   5.607   5.861   4.120
 4766SOL    HW115197   5.582   5.873   4.216
 4766SOL    HW215198   5.578   5.941   4.068
 4767SOL     OW15199   2.799   5.480   5.252
 4767SOL    HW115200   2.845   5.473   5.164
 4767SOL    HW215201   2.700   5.491   5.238
 4768SOL     OW15202   4.573   2.157   6.349
 4768SOL    HW115203   4.658   2.190   6.308
 4768SOL    HW215204   4.505   2.142   6.278
 4769SOL     OW15205   4.807   4.953   0.030
 4769SOL    HW115206   4.865   4.939   0.110
 4769SOL    HW215207   4.803   4.868   7.002
 4770SOL     OW15208   0.011   1.728   4.326
 4770SOL    HW115209   0.033   1.745   4.230
 4770SOL    HW215210   6.940   1.705   4.335
 4771SOL     OW15211   2.845   5.719   5.380
 4771SOL    HW115212   2.864   5.631   5.338
 4771SOL    HW215213   2.750   5.722   5.410
 4772SOL     OW15214   4.118   5.049   0.832
 4772SOL    HW115215   4.170   4.971   0.798
 4772SOL    HW215216   4.176   5.130   0.830
 4773SOL     OW15217   6.846   5.329   4.480
 4773SOL    HW115218   6.827   5.342   4.577
 4773SOL    HW215219   6.783   5.385   4.426
 4774SOL     OW15220   1.802   3.427   1.506
 4774SOL    HW115221   1.853   3.342   1.494
 4774SOL    HW215222   1.825   3.468   1.594
 4775SOL     OW15223   5.831   6.762   3.014
 4775SOL    HW115224   5.766   6.699   3.057
 4775SOL    HW215225   5.844   6.842   3.073
 4776SOL     OW15226   1.332   6.161   5.462
 4776SOL    HW115227   1.350   6.063   5.477
 4776SOL    HW215228   1.243   6.172   5.418
 4777SOL     OW15229   1.833   5.282   1.128
 4777SOL    HW115230   1.783   5.228   1.196
 4777SOL    HW215231   1.875   5.361   1.173
 4778SOL     OW15232   6.525   2.991   3.775
 4778SOL    HW115233   6.441   3.045   3.783
 4778SOL    HW215234   6.506   2.906   3.726
 4779SOL     OW15235   5.935   6.097   2.339
 4779SOL    HW115236   6.018   6.047   2.312
 4779SOL    HW215237   5.906   6.068   2.430
 4780SOL     OW15238   5.930   1.943   0.108
 4780SOL    HW115239   5.910   2.034   0.072
 4780SOL    HW215240   5.988   1.951   0.189
 4781SOL     OW15241   2.373   5.822   2.609
 4781SOL    HW115242   2.420   5.836   2.697
 4781SOL    HW215243   2.303   5.752   2.619
 4782SOL     OW15244   5.835   5.247   6.998
 4782SOL    HW115245   5.839   5.293   6.909
 4782SOL    HW215246   5.873   5.155   6.989
 4783SOL     OW15247   4.892   3.781   6.771
 4783SOL    HW115248   4.837   3.819   6.845
 4783SOL    HW215249   4.888   3.681   6.775
 4784SOL     OW15250   6.489   3.378   6.203
 4784SOL    HW115251   6.515   3.302   6.263
 4784SOL    HW215252   6.501   3.350   6.107
 4785SOL     OW15253   1.497   5.901   2.939
 4785SOL    HW115254   1.538   5.854   2.860
 4785SOL    HW215255   1.398   5.893   2.934
 4786SOL     OW15256   2.691   0.125   0.304
 4786SOL    HW115257   2.628   0.195   0.340
 4786SOL    HW215258   2.658   0.034   0.331
 4787SOL     OW15259   4.170   1.344   2.944
 4787SOL    HW115260   4.125   1.433   2.956
 4787SOL    HW215261   4.269   1.356   2.947
 4788SOL     OW15262   6.513   6.079   6.922
 4788SOL    HW115263   6.579   6.051   6.853
 4788SOL    HW215264   6.477   6.169   6.900
 4789SOL     OW15265   4.791   1.683   1.724
 4789SOL    HW115266   4.817   1.739   1.645
 4789SOL    HW215267   4.831   1.723   1.807
 4790SOL     OW15268   5.933   1.563   5.456
 4790SOL    HW115269   5.839   1.545   5.429
 4790SOL    HW215270   5.934   1.626   5.534
 4791SOL     OW15271   0.071   3.159   1.366
 4791SOL    HW115272   0.081   3.188   1.461
 4791SOL    HW215273   0.161   3.145   1.325
 4792SOL     OW15274   2.638   4.845   3.934
 4792SOL    HW115275   2.593   4.920   3.981
 4792SOL    HW215276   2.703   4.800   3.996
 4793SOL     OW15277   2.344   2.761   4.969
 4793SOL    HW115278   2.287   2.838   4.939
 4793SOL    HW215279   2.355   2.764   5.068
 4794SOL     OW15280   5.552   0.090   5.053
 4794SOL    HW115281   5.559   0.055   5.147
 4794SOL    HW215282   5.574   0.017   4.988
 4795SOL     OW15283   6.374   2.131   3.991
 4795SOL    HW115284   6.281   2.142   3.955
 4795SOL    HW215285   6.417   2.051   3.951
 4796SOL     OW15286   4.521   1.432   4.920
 4796SOL    HW115287   4.524   1.378   5.004
 4796SOL    HW215288   4.590   1.504   4.923
 4797SOL     OW15289   0.776   6.488   5.540
 4797SOL    HW115290   0.733   6.445   5.620
 4797SOL    HW215291   0.719   6.473   5.459
 4798SOL     OW15292   0.326   4.173   5.514
 4798SOL    HW115293   0.381   4.198   5.434
 4798SOL    HW215294   0.253   4.110   5.486
 4799SOL     OW15295   4.183   1.796   0.766
 4799SOL    HW115296   4.090   1.799   0.730
 4799SOL    HW215297   4.248   1.807   0.690
 4800SOL     OW15298   2.986   2.781   6.968
 4800SOL    HW115299   2.965   2.835   6.886
 4800SOL    HW215300   2.902   2.746   7.007
 4801SOL     OW15301   3.059   2.466   6.702
 4801SOL    HW115302   3.094   2.491   6.792
 4801SOL    HW215303   3.091   2.532   6.634
 4802SOL     OW15304   0.675   6.598   1.956
 4802SOL    HW115305   0.679   6.512   2.007
 4802SOL    HW215306   0.588   6.643   1.973
 4803SOL     OW15307   6.900   4.916   6.902
 4803SOL    HW115308   6.996   4.896   6.882
 4803SOL    HW215309   6.894   4.972   6.984
 4804SOL     OW15310   6.656   6.800   1.646
 4804SOL    HW115311   6.612   6.890   1.638
 4804SOL    HW215312   6.679   6.782   1.741
 4805SOL     OW15313   5.511   1.504   1.910
 4805SOL    HW115314   5.518   1.405   1.903
 4805SOL    HW215315   5.454   1.529   1.987
 4806SOL     OW15316   0.784   4.587   2.283
 4806SOL    HW115317   0.769   4.562   2.379
 4806SOL    HW215318   0.859   4.534   2.246
 4807SOL     OW15319   0.683   5.081   7.006
 4807SOL    HW115320   0.744   5.087   6.927
 4807SOL    HW215321   0.729   5.119   0.060
 4808SOL     OW15322   4.679   5.551   1.073
 4808SOL    HW115323   4.738   5.578   0.998
 4808SOL    HW215324   4.637   5.632   1.114
 4809SOL     OW15325   3.668   5.159   0.116
 4809SOL    HW115326   3.644   5.087   0.181
 4809SOL    HW215327   3.765   5.155   0.095
 4810SOL     OW15328   1.658   4.281   2.459
 4810SOL    HW115329   1.680   4.266   2.555
 4810SOL    HW215330   1.593   4.212   2.428
 4811SOL     OW15331   2.512   4.211   1.554
 4811SOL    HW115332   2.516   4.134   1.618
 4811SOL    HW215333   2.500   4.296   1.604
 4812SOL     OW15334   0.733   5.632   2.229
 4812SOL    HW115335   0.811   5.588   2.185
 4812SOL    HW215336   0.696   5.572   2.299
 4813SOL     OW15337   5.795   1.767   6.795
 4813SOL    HW115338   5.750   1.688   6.836
 4813SOL    HW215339   5.738   1.849   6.809
 4814SOL     OW15340   7.015   3.172   1.106
 4814SOL    HW115341   0.049   3.186   1.027
 4814SOL    HW215342   0.043   3.176   1.190
 4815SOL     OW15343   5.100   3.906   2.962
 4815SOL    HW115344   5.170   3.978   2.960
 4815SOL    HW215345   5.125   3.838   3.030
 4816SOL     OW15346   2.468   4.780   1.177
 4816SOL    HW115347   2.531   4.822   1.111
 4816SOL    HW215348   2.519   4.726   1.243
 4817SOL     OW15349   2.146   1.566   0.255
 4817SOL    HW115350   2.229   1.512   0.243
 4817SOL    HW215351   2.073   1.506   0.289
 4818SOL     OW15352   0.653   0.140   4.603
 4818SOL    HW115353   0.683   0.078   4.530
 4818SOL    HW215354   0.598   0.214   4.563
 4819SOL     OW15355   2.335   1.932   0.905
 4819SOL    HW115356   2.408   1.888   0.956
 4819SOL    HW215357   2.247   1.890   0.929
 4820SOL     OW15358   6.197   2.343   2.217
 4820SOL    HW115359   6.109   2.341   2.170
 4820SOL    HW215360   6.183   2.338   2.316
 4821SOL     OW15361   0.654   6.745   2.354
 4821SOL    HW115362   0.708   6.664   2.332
 4821SOL    HW215363   0.669   6.770   2.450
 4822SOL     OW15364   2.159   3.583   4.544
 4822SOL    HW115365   2.244   3.633   4.564
 4822SOL    HW215366   2.137   3.522   4.620
 4823SOL     OW15367   1.011   0.353   4.285
 4823SOL    HW115368   1.063   0.367   4.369
 4823SOL    HW215369   0.933   0.416   4.284
 4824SOL     OW15370   5.271   2.061   4.436
 4824SOL    HW115371   5.215   2.123   4.492
 4824SOL    HW215372   5.290   2.104   4.348
 4825SOL     OW15373   1.918   2.213   4.900
 4825SOL    HW115374   2.005   2.253   4.926
 4825SOL    HW215375   1.846   2.249   4.960
 4826SOL     OW15376   0.019   1.458   6.344
 4826SOL    HW115377   6.960   1.461   6.293
 4826SOL    HW215378   0.001   1.432   6.439
 4827SOL     OW15379   6.521   1.200   1.602
 4827SOL    HW115380   6.451   1.128   1.594
 4827SOL    HW215381   6.492   1.280   1.549
 4828SOL     OW15382   5.419   3.181   0.965
 4828SOL    HW115383   5.461   3.108   1.019
 4828SOL    HW215384   5.490   3.246   0.938
 4829SOL     OW15385   4.688   6.948   0.060
 4829SOL    HW115386   4.716   6.986   6.999
 4829SOL    HW215387   4.592   6.970   0.077
 4830SOL     OW15388   4.537   6.746   3.901
 4830SOL    HW115389   4.582   6.674   3.954
 4830SOL    HW215390   4.534   6.719   3.804
 4831SOL     OW15391   0.307   4.640   6.496
 4831SOL    HW115392   0.405   4.624   6.485
 4831SOL    HW215393   0.258   4.602   6.418
 4832SOL     OW15394   3.062   3.431   4.611
 4832SOL    HW115395   2.996   3.431   4.686
 4832SOL    HW215396   3.140   3.488   4.636
 4833SOL     OW15397   4.879   2.053   3.322
 4833SOL    HW115398   4.843   2.126   3.264
 4833SOL    HW215399   4.826   1.969   3.307
 4834SOL     OW15400   4.197   6.417   1.138
 4834SOL    HW115401   4.118   6.361   1.112
 4834SOL    HW215402   4.176   6.465   1.223
 4835SOL     OW15403   0.014   1.396   6.611
 4835SOL    HW115404   0.091   1.390   6.675
 4835SOL    HW215405   6.987   1.312   6.614
 4836SOL     OW15406   5.111   2.813   4.451
 4836SOL    HW115407   5.083   2.869   4.530
 4836SOL    HW215408   5.165   2.736   4.482
 4837SOL     OW15409   6.026   3.621   2.447
 4837SOL    HW115410   5.965   3.570   2.508
 4837SOL    HW215411   6.018   3.584   2.354
 4838SOL     OW15412   0.901   5.310   0.511
 4838SOL    HW115413   0.933   5.249   0.438
 4838SOL    HW215414   0.975   5.371   0.538
 4839SOL     OW15415   1.885   2.970   6.624
 4839SOL    HW115416   1.927   3.050   6.582
 4839SOL    HW215417   1.934   2.946   6.708
 4840SOL     OW15418   6.625   5.343   6.230
 4840SOL    HW115419   6.671   5.262   6.193
 4840SOL    HW215420   6.685   5.390   6.294
 4841SOL     OW15421   3.384   5.585   1.820
 4841SOL    HW115422   3.393   5.514   1.750
 4841SOL    HW215423   3.472   5.631   1.833
 4842SOL     OW15424   3.653   4.956   2.614
 4842SOL    HW115425   3.598   5.022   2.665
 4842SOL    HW215426   3.724   4.918   2.674
 4843SOL     OW15427   6.315   2.794   0.960
 4843SOL    HW115428   6.225   2.765   0.992
 4843SOL    HW215429   6.305   2.868   0.894
 4844SOL     OW15430   0.036   2.947   5.741
 4844SOL    HW115431   6.976   2.902   5.717
 4844SOL    HW215432   0.021   3.045   5.749
 4845SOL     OW15433   5.147   5.446   5.995
 4845SOL    HW115434   5.103   5.359   6.013
 4845SOL    HW215435   5.164   5.455   5.896
 4846SOL     OW15436   0.108   3.191   3.618
 4846SOL    HW115437   0.040   3.203   3.690
 4846SOL    HW215438   0.165   3.272   3.612
 4847SOL     OW15439   2.799   1.136   6.044
 4847SOL    HW115440   2.750   1.220   6.067
 4847SOL    HW215441   2.738   1.058   6.053
 4848SOL     OW15442   1.716   0.426   3.881
 4848SOL    HW115443   1.698   0.370   3.800
 4848SOL    HW215444   1.634   0.478   3.904
 4849SOL     OW15445   1.302   6.184   6.454
 4849SOL    HW115446   1.366   6.230   6.517
 4849SOL    HW215447   1.354   6.126   6.391
 4850SOL     OW15448   3.806   1.909   2.302
 4850SOL    HW115449   3.766   1.878   2.389
 4850SOL    HW215450   3.741   1.893   2.228
 4851SOL     OW15451   4.737   6.626   5.963
 4851SOL    HW115452   4.688   6.634   5.876
 4851SOL    HW215453   4.671   6.612   6.037
 4852SOL     OW15454   1.446   6.189   5.029
 4852SOL    HW115455   1.459   6.287   5.014
 4852SOL    HW215456   1.522   6.154   5.083
 4853SOL     OW15457   3.103   1.338   3.251
 4853SOL    HW115458   3.175   1.378   3.194
 4853SOL    HW215459   3.142   1.266   3.308
 4854SOL     OW15460   4.514   6.913   1.661
 4854SOL    HW115461   4.524   6.963   1.575
 4854SOL    HW215462   4.530   6.815   1.645
 4855SOL     OW15463   6.041   2.541   3.039
 4855SOL    HW115464   6.082   2.605   3.104
 4855SOL    HW215465   6.111   2.508   2.976
 4856SOL     OW15466   1.674   3.475   2.541
 4856SOL    HW115467   1.722   3.391   2.515
 4856SOL    HW215468   1.661   3.477   2.640
 4857SOL     OW15469   2.384   1.798   4.916
 4857SOL    HW115470   2.322   1.821   4.991
 4857SOL    HW215471   2.334   1.802   4.829
 4858SOL     OW15472   0.464   0.514   4.383
 4858SOL    HW115473   0.471   0.414   4.383
 4858SOL    HW215474   0.555   0.554   4.394
 4859SOL     OW15475   0.442   0.415   4.847
 4859SOL    HW115476   0.430   0.404   4.748
 4859SOL    HW215477   0.536   0.391   4.872
 4860SOL     OW15478   4.348   4.387   1.648
 4860SOL    HW115479   4.403   4.329   1.708
 4860SOL    HW215480   4.339   4.478   1.689
 4861SOL     OW15481   5.849   4.590   0.090
 4861SOL    HW115482   5.892   4.523   0.150
 4861SOL    HW215483   5.887   4.580   7.024
 4862SOL     OW15484   2.528   4.894   4.627
 4862SOL    HW115485   2.593   4.827   4.664
 4862SOL    HW215486   2.439   4.849   4.612
 4863SOL     OW15487   5.637   3.751   1.683
 4863SOL    HW115488   5.657   3.678   1.618
 4863SOL    HW215489   5.715   3.762   1.745
 4864SOL     OW15490   4.134   1.660   2.687
 4864SOL    HW115491   4.036   1.649   2.668
 4864SOL    HW215492   4.150   1.750   2.727
 4865SOL     OW15493   2.161   6.665   4.209
 4865SOL    HW115494   2.174   6.665   4.308
 4865SOL    HW215495   2.179   6.574   4.173
 4866SOL     OW15496   6.315   3.039   2.084
 4866SOL    HW115497   6.361   2.951   2.077
 4866SOL    HW215498   6.217   3.024   2.102
 4867SOL     OW15499   3.639   5.249   1.812
 4867SOL    HW115500   3.639   5.316   1.738
 4867SOL    HW215501   3.644   5.157   1.774
 4868SOL     OW15502   6.661   4.813   2.672
 4868SOL    HW115503   6.601   4.763   2.610
 4868SOL    HW215504   6.652   4.775   2.765
 4869SOL     OW15505   1.032   0.975   2.056
 4869SOL    HW115506   0.955   0.990   1.994
 4869SOL    HW215507   1.118   0.991   2.007
 4870SOL     OW15508   0.068   5.845   2.568
 4870SOL    HW115509   0.085   5.888   2.479
 4870SOL    HW215510   0.062   5.746   2.557
 4871SOL     OW15511   1.645   0.979   3.826
 4871SOL    HW115512   1.653   1.072   3.860
 4871SOL    HW215513   1.732   0.949   3.787
 4872SOL     OW15514   5.869   6.150   3.759
 4872SOL    HW115515   5.961   6.185   3.745
 4872SOL    HW215516   5.807   6.225   3.781
 4873SOL     OW15517   0.222   5.004   3.380
 4873SOL    HW115518   0.240   4.905   3.377
 4873SOL    HW215519   0.306   5.053   3.403
 4874SOL     OW15520   6.319   3.319   3.011
 4874SOL    HW115521   6.381   3.337   2.935
 4874SOL    HW215522   6.340   3.229   3.051
 4875SOL     OW15523   6.060   2.438   1.616
 4875SOL    HW115524   5.974   2.484   1.635
 4875SOL    HW215525   6.044   2.359   1.557
 4876SOL     OW15526   5.746   1.382   4.220
 4876SOL    HW115527   5.651   1.391   4.190
 4876SOL    HW215528   5.764   1.450   4.291
 4877SOL     OW15529   1.678   2.033   6.914
 4877SOL    HW115530   1.640   2.008   7.003
 4877SOL    HW215531   1.717   2.125   6.920
 4878SOL     OW15532   6.632   0.457   3.159
 4878SOL    HW115533   6.686   0.393   3.104
 4878SOL    HW215534   6.691   0.529   3.194
 4879SOL     OW15535   4.566   6.385   2.624
 4879SOL    HW115536   4.604   6.413   2.712
 4879SOL    HW215537   4.476   6.343   2.638
 4880SOL     OW15538   5.522   3.351   6.985
 4880SOL    HW115539   5.575   3.334   6.902
 4880SOL    HW215540   5.570   3.418   0.016
 4881SOL     OW15541   1.561   1.025   6.638
 4881SOL    HW115542   1.571   1.037   6.539
 4881SOL    HW215543   1.527   1.110   6.679
 4882SOL     OW15544   5.366   1.421   5.063
 4882SOL    HW115545   5.353   1.519   5.071
 4882SOL    HW215546   5.288   1.373   5.104
 4883SOL     OW15547   5.300   4.724   2.067
 4883SOL    HW115548   5.333   4.721   1.973
 4883SOL    HW215549   5.231   4.795   2.077
 4884SOL     OW15550   2.884   6.629   1.553
 4884SOL    HW115551   2.845   6.576   1.629
 4884SOL    HW215552   2.812   6.683   1.510
 4885SOL     OW15553   2.213   4.934   1.718
 4885SOL    HW115554   2.188   5.011   1.659
 4885SOL    HW215555   2.204   4.960   1.814
 4886SOL     OW15556   1.192   5.401   1.117
 4886SOL    HW115557   1.169   5.465   1.045
 4886SOL    HW215558   1.267   5.342   1.088
 4887SOL     OW15559   0.926   0.079   2.749
 4887SOL    HW115560   0.931   0.145   2.824
 4887SOL    HW215561   0.837   0.032   2.751
 4888SOL     OW15562   2.333   6.431   4.115
 4888SOL    HW115563   2.366   6.385   4.032
 4888SOL    HW215564   2.237   6.406   4.131
 4889SOL     OW15565   6.819   1.417   6.192
 4889SOL    HW115566   6.830   1.324   6.155
 4889SOL    HW215567   6.731   1.454   6.162
 4890SOL     OW15568   1.186   1.316   7.015
 4890SOL    HW115569   1.207   1.324   0.086
 4890SOL    HW215570   1.270   1.324   6.961
 4891SOL     OW15571   1.654   4.620   6.644
 4891SOL    HW115572   1.596   4.572   6.578
 4891SOL    HW215573   1.739   4.569   6.657
 4892SOL     OW15574   3.179   6.028   2.174
 4892SOL    HW115575   3.241   6.025   2.253
 4892SOL    HW215576   3.194   5.947   2.117
 4893SOL     OW15577   6.479   3.564   1.596
 4893SOL    HW115578   6.453   3.571   1.692
 4893SOL    HW215579   6.396   3.566   1.539
 4894SOL     OW15580   2.353   1.283   2.977
 4894SOL    HW115581   2.294   1.310   2.902
 4894SOL    HW215582   2.402   1.363   3.012
 4895SOL     OW15583   0.675   4.734   3.728
 4895SOL    HW115584   0.691   4.776   3.817
 4895SOL    HW215585   0.604   4.664   3.735
 4896SOL     OW15586   1.746   5.040   1.938
 4896SOL    HW115587   1.654   5.039   1.977
 4896SOL    HW215588   1.813   5.032   2.012
 4897SOL     OW15589   2.546   4.185   5.928
 4897SOL    HW115590   2.542   4.167   5.830
 4897SOL    HW215591   2.473   4.248   5.954
 4898SOL     OW15592   4.018   0.618   4.397
 4898SOL    HW115593   4.011   0.528   4.353
 4898SOL    HW215594   4.106   0.626   4.444
 4899SOL     OW15595   5.623   5.207   3.216
 4899SOL    HW115596   5.672   5.287   3.249
 4899SOL    HW215597   5.575   5.164   3.293
 4900SOL     OW15598   2.113   6.062   4.272
 4900SOL    HW115599   2.183   6.067   4.200
 4900SOL    HW215600   2.037   6.005   4.240
 4901SOL     OW15601   3.311   6.920   5.577
 4901SOL    HW115602   3.274   6.839   5.622
 4901SOL    HW215603   3.241   6.991   5.573
 4902SOL     OW15604   2.306   1.978   4.373
 4902SOL    HW115605   2.335   2.032   4.294
 4902SOL    HW215606   2.253   2.035   4.436
 4903SOL     OW15607   3.758   6.341   6.280
 4903SOL    HW115608   3.771   6.352   6.379
 4903SOL    HW215609   3.747   6.432   6.238
 4904SOL     OW15610   1.861   6.390   4.018
 4904SOL    HW115611   1.879   6.469   3.958
 4904SOL    HW215612   1.780   6.342   3.985
 4905SOL     OW15613   4.557   7.008   2.875
 4905SOL    HW115614   4.623   0.029   2.815
 4905SOL    HW215615   4.605   6.940   2.930
 4906SOL     OW15616   4.935   2.132   6.251
 4906SOL    HW115617   4.905   2.188   6.328
 4906SOL    HW215618   4.941   2.189   6.169
 4907SOL     OW15619   4.305   5.963   1.582
 4907SOL    HW115620   4.286   6.037   1.646
 4907SOL    HW215621   4.385   5.911   1.613
 4908SOL     OW15622   5.475   4.940   6.512
 4908SOL    HW115623   5.538   4.938   6.435
 4908SOL    HW215624   5.422   5.025   6.510
 4909SOL     OW15625   6.884   0.209   3.980
 4909SOL    HW115626   6.961   0.205   3.917
 4909SOL    HW215627   6.823   0.131   3.965
 4910SOL     OW15628   5.922   0.558   4.987
 4910SOL    HW115629   5.931   0.638   4.927
 4910SOL    HW215630   5.994   0.561   5.057
 4911SOL     OW15631   1.384   3.460   4.227
 4911SOL    HW115632   1.421   3.367   4.232
 4911SOL    HW215633   1.315   3.465   4.154
 4912SOL     OW15634   5.084   1.576   6.913
 4912SOL    HW115635   5.172   1.549   6.875
 4912SOL    HW215636   5.097   1.612   7.006
 4913SOL     OW15637   3.795   2.809   5.152
 4913SOL    HW115638   3.809   2.720   5.109
 4913SOL    HW215639   3.803   2.881   5.083
 4914SOL     OW15640   4.240   0.653   5.068
 4914SOL    HW115641   4.232   0.556   5.047
 4914SOL    HW215642   4.156   0.701   5.039
 4915SOL     OW15643   4.973   6.935   4.952
 4915SOL    HW115644   4.962   0.002   4.986
 4915SOL    HW215645   4.910   6.874   5.002
 4916SOL     OW15646   1.284   6.991   4.159
 4916SOL    HW115647   1.360   6.926   4.155
 4916SOL    HW215648   1.290   0.017   4.244
 4917SOL     OW15649   2.755   4.720   1.287
 4917SOL    HW115650   2.828   4.713   1.354
 4917SOL    HW215651   2.783   4.676   1.202
 4918SOL     OW15652   4.483   5.597   2.361
 4918SOL    HW115653   4.427   5.516   2.377
 4918SOL    HW215654   4.443   5.675   2.408
 4919SOL     OW15655   2.835   2.126   0.069
 4919SOL    HW115656   2.916   2.067   0.076
 4919SOL    HW215657   2.857   2.217   0.104
 4920SOL     OW15658   6.273   0.949   3.987
 4920SOL    HW115659   6.253   0.908   4.075
 4920SOL    HW215660   6.363   0.993   3.990
 4921SOL     OW15661   1.254   4.826   0.695
 4921SOL    HW115662   1.335   4.873   0.660
 4921SOL    HW215663   1.246   4.737   0.650
 4922SOL     OW15664   1.723   2.299   5.088
 4922SOL    HW115665   1.774   2.283   5.172
 4922SOL    HW215666   1.625   2.290   5.106
 4923SOL     OW15667   4.276   1.993   2.372
 4923SOL    HW115668   4.178   2.013   2.377
 4923SOL    HW215669   4.300   1.966   2.279
 4924SOL     OW15670   2.963   1.832   5.327
 4924SOL    HW115671   3.001   1.897   5.392
 4924SOL    HW215672   2.877   1.795   5.363
 4925SOL     OW15673   6.738   6.338   2.542
 4925SOL    HW115674   6.765   6.325   2.637
 4925SOL    HW215675   6.727   6.436   2.523
 4926SOL     OW15676   5.636   1.480   0.659
 4926SOL    HW115677   5.719   1.527   0.688
 4926SOL    HW215678   5.660   1.390   0.622
 4927SOL     OW15679   3.649   3.801   4.290
 4927SOL    HW115680   3.667   3.890   4.248
 4927SOL    HW215681   3.725   3.739   4.269
 4928SOL     OW15682   1.560   0.174   0.198
 4928SOL    HW115683   1.509   0.112   0.137
 4928SOL    HW215684   1.553   0.267   0.163
 4929SOL     OW15685   0.471   5.521   4.981
 4929SOL    HW115686   0.495   5.586   5.054
 4929SOL    HW215687   0.379   5.543   4.947
 4930SOL     OW15688   4.752   0.930   3.341
 4930SOL    HW115689   4.795   1.019   3.326
 4930SOL    HW215690   4.717   0.895   3.254
 4931SOL     OW15691   6.958   6.866   0.877
 4931SOL    HW115692   0.019   6.886   0.922
 4931SOL    HW215693   6.969   6.876   0.778
 4932SOL     OW15694   2.711   3.315   1.731
 4932SOL    HW115695   2.657   3.237   1.700
 4932SOL    HW215696   2.772   3.287   1.805
 4933SOL     OW15697   2.395   0.190   3.390
 4933SOL    HW115698   2.465   0.250   3.352
 4933SOL    HW215699   2.419   0.095   3.371
 4934SOL     OW15700   2.622   5.697   2.527
 4934SOL    HW115701   2.535   5.738   2.554
 4934SOL    HW215702   2.633   5.704   2.427
 4935SOL     OW15703   1.600   1.037   6.350
 4935SOL    HW115704   1.528   1.105   6.362
 4935SOL    HW215705   1.667   1.071   6.283
 4936SOL     OW15706   2.560   4.649   1.915
 4936SOL    HW115707   2.633   4.650   1.983
 4936SOL    HW215708   2.483   4.596   1.949
 4937SOL     OW15709   6.336   2.835   5.730
 4937SOL    HW115710   6.366   2.842   5.825
 4937SOL    HW215711   6.394   2.768   5.682
 4938SOL     OW15712   2.190   5.769   5.606
 4938SOL    HW115713   2.208   5.673   5.629
 4938SOL    HW215714   2.269   5.824   5.632
 4939SOL     OW15715   6.601   2.196   4.107
 4939SOL    HW115716   6.521   2.141   4.082
 4939SOL    HW215717   6.678   2.135   4.126
 4940SOL     OW15718   0.250   0.893   5.233
 4940SOL    HW115719   0.185   0.936   5.171
 4940SOL    HW215720   0.226   0.797   5.247
 4941SOL     OW15721   5.152   2.350   5.280
 4941SOL    HW115722   5.214   2.272   5.267
 4941SOL    HW215723   5.195   2.433   5.246
 4942SOL     OW15724   5.247   3.154   6.136
 4942SOL    HW115725   5.338   3.125   6.108
 4942SOL    HW215726   5.239   3.150   6.236
 4943SOL     OW15727   4.623   3.619   6.167
 4943SOL    HW115728   4.599   3.715   6.151
 4943SOL    HW215729   4.561   3.560   6.116
 4944SOL     OW15730   2.221   4.231   1.772
 4944SOL    HW115731   2.124   4.236   1.748
 4944SOL    HW215732   2.267   4.313   1.740
 4945SOL     OW15733   1.082   0.344   4.575
 4945SOL    HW115734   1.126   0.386   4.654
 4945SOL    HW215735   1.009   0.283   4.606
 4946SOL     OW15736   1.478   4.874   0.025
 4946SOL    HW115737   1.508   4.843   6.961
 4946SOL    HW215738   1.498   4.804   0.093
 4947SOL     OW15739   2.217   0.869   1.242
 4947SOL    HW115740   2.258   0.920   1.167
 4947SOL    HW215741   2.152   0.927   1.291
 4948SOL     OW15742   1.487   2.664   2.701
 4948SOL    HW115743   1.498   2.758   2.667
 4948SOL    HW215744   1.436   2.610   2.634
 4949SOL     OW15745   5.424   6.061   6.241
 4949SOL    HW115746   5.444   6.028   6.333
 4949SOL    HW215747   5.510   6.070   6.190
 4950SOL     OW15748   2.428   5.573   4.641
 4950SOL    HW115749   2.510   5.569   4.698
 4950SOL    HW215750   2.361   5.506   4.674
 4951SOL     OW15751   6.265   1.562   5.254
 4951SOL    HW115752   6.316   1.479   5.280
 4951SOL    HW215753   6.322   1.642   5.271
 4952SOL     OW15754   0.818   0.966   5.992
 4952SOL    HW115755   0.744   0.907   5.960
 4952SOL    HW215756   0.872   0.918   6.061
 4953SOL     OW15757   1.980   5.785   2.563
 4953SOL    HW115758   1.898   5.740   2.601
 4953SOL    HW215759   1.980   5.881   2.589
 4954SOL     OW15760   3.629   3.192   0.386
 4954SOL    HW115761   3.627   3.290   0.369
 4954SOL    HW215762   3.536   3.155   0.378
 4955SOL     OW15763   3.099   6.560   6.838
 4955SOL    HW115764   3.017   6.527   6.791
 4955SOL    HW215765   3.134   6.641   6.792
 4956SOL     OW15766   2.359   0.175   5.229
 4956SOL    HW115767   2.278   0.204   5.281
 4956SOL    HW215768   2.349   0.079   5.204
 4957SOL     OW15769   6.042   2.060   2.081
 4957SOL    HW115770   6.020   2.044   2.178
 4957SOL    HW215771   6.119   2.003   2.054
 4958SOL     OW15772   6.926   5.214   5.419
 4958SOL    HW115773   6.957   5.239   5.328
 4958SOL    HW215774   6.981   5.263   5.487
 4959SOL     OW15775   6.605   1.750   0.197
 4959SOL    HW115776   6.675   1.728   0.265
 4959SOL    HW215777   6.553   1.830   0.227
 4960SOL     OW15778   3.313   4.991   3.438
 4960SOL    HW115779   3.245   5.058   3.468
 4960SOL    HW215780   3.319   4.918   3.506
 4961SOL     OW15781   4.343   1.319   5.856
 4961SOL    HW115782   4.411   1.255   5.890
 4961SOL    HW215783   4.293   1.277   5.780
 4962SOL     OW15784   6.249   2.337   0.467
 4962SOL    HW115785   6.248   2.355   0.368
 4962SOL    HW215786   6.311   2.262   0.487
 4963SOL     OW15787   6.297   5.581   0.515
 4963SOL    HW115788   6.247   5.584   0.428
 4963SOL    HW215789   6.243   5.531   0.582
 4964SOL     OW15790   3.003   0.118   3.625
 4964SOL    HW115791   2.922   0.068   3.654
 4964SOL    HW215792   3.001   0.211   3.662
 4965SOL     OW15793   0.560   0.862   2.365
 4965SOL    HW115794   0.631   0.894   2.429
 4965SOL    HW215795   0.471   0.894   2.395
 4966SOL     OW15796   2.316   6.942   5.170
 4966SOL    HW115797   2.386   6.935   5.099
 4966SOL    HW215798   2.319   6.861   5.228
 4967SOL     OW15799   3.435   5.514   5.591
 4967SOL    HW115800   3.339   5.501   5.571
 4967SOL    HW215801   3.488   5.435   5.561
 4968SOL     OW15802   6.591   1.762   3.652
 4968SOL    HW115803   6.521   1.691   3.656
 4968SOL    HW215804   6.681   1.719   3.661
 4969SOL     OW15805   2.434   6.242   2.821
 4969SOL    HW115806   2.514   6.267   2.767
 4969SOL    HW215807   2.403   6.321   2.874
 4970SOL     OW15808   1.785   2.702   2.730
 4970SOL    HW115809   1.688   2.683   2.738
 4970SOL    HW215810   1.802   2.760   2.650
 4971SOL     OW15811   6.172   5.558   3.703
 4971SOL    HW115812   6.230   5.546   3.622
 4971SOL    HW215813   6.205   5.499   3.777
 4972SOL     OW15814   1.472   3.798   0.588
 4972SOL    HW115815   1.479   3.732   0.663
 4972SOL    HW215816   1.377   3.830   0.581
 4973SOL     OW15817   1.816   6.799   2.246
 4973SOL    HW115818   1.766   6.765   2.166
 4973SOL    HW215819   1.755   6.856   2.301
 4974SOL     OW15820   6.087   4.625   1.248
 4974SOL    HW115821   6.041   4.595   1.332
 4974SOL    HW215822   6.072   4.558   1.176
 4975SOL     OW15823   5.742   4.106   5.633
 4975SOL    HW115824   5.825   4.160   5.623
 4975SOL    HW215825   5.663   4.167   5.637
 4976SOL     OW15826   2.189   0.627   3.252
 4976SOL    HW115827   2.114   0.641   3.317
 4976SOL    HW215828   2.242   0.711   3.244
 4977SOL     OW15829   3.965   4.832   6.863
 4977SOL    HW115830   3.867   4.842   6.845
 4977SOL    HW215831   3.979   4.761   6.932
 4978SOL     OW15832   0.085   3.663   4.744
 4978SOL    HW115833   0.181   3.665   4.716
 4978SOL    HW215834   0.054   3.568   4.747
 4979SOL     OW15835   0.394   0.215   6.240
 4979SOL    HW115836   0.318   0.185   6.183
 4979SOL    HW215837   0.431   0.137   6.290
 4980SOL     OW15838   4.967   6.487   3.187
 4980SOL    HW115839   5.020   6.433   3.252
 4980SOL    HW215840   4.976   6.447   3.096
 4981SOL     OW15841   4.721   6.039   0.128
 4981SOL    HW115842   4.813   6.065   0.098
 4981SOL    HW215843   4.706   5.942   0.111
 4982SOL     OW15844   2.613   1.351   6.084
 4982SOL    HW115845   2.672   1.430   6.101
 4982SOL    HW215846   2.552   1.337   6.163
 4983SOL     OW15847   5.902   3.027   4.748
 4983SOL    HW115848   5.889   2.963   4.823
 4983SOL    HW215849   5.826   3.018   4.683
 4984SOL     OW15850   5.488   4.062   3.597
 4984SOL    HW115851   5.548   4.138   3.621
 4984SOL    HW215852   5.499   4.041   3.500
 4985SOL     OW15853   6.116   6.543   3.592
 4985SOL    HW115854   6.163   6.606   3.653
 4985SOL    HW215855   6.054   6.484   3.645
 4986SOL     OW15856   5.931   4.203   1.872
 4986SOL    HW115857   5.893   4.142   1.942
 4986SOL    HW215858   5.985   4.274   1.916
 4987SOL     OW15859   1.151   0.321   1.587
 4987SOL    HW115860   1.133   0.228   1.555
 4987SOL    HW215861   1.066   0.374   1.582
 4988SOL     OW15862   5.228   0.651   3.573
 4988SOL    HW115863   5.171   0.603   3.506
 4988SOL    HW215864   5.175   0.669   3.655
 4989SOL     OW15865   4.946   0.128   1.915
 4989SOL    HW115866   4.922   0.150   2.010
 4989SOL    HW215867   4.863   0.117   1.862
 4990SOL     OW15868   1.901   2.236   5.288
 4990SOL    HW115869   1.931   2.321   5.331
 4990SOL    HW215870   1.871   2.172   5.358
 4991SOL     OW15871   6.448   4.917   4.397
 4991SOL    HW115872   6.539   4.921   4.440
 4991SOL    HW215873   6.378   4.933   4.467
 4992SOL     OW15874   5.056   1.086   4.200
 4992SOL    HW115875   5.092   1.037   4.280
 4992SOL    HW215876   4.981   1.034   4.161
 4993SOL     OW15877   2.850   5.905   4.065
 4993SOL    HW115878   2.844   5.989   4.119
 4993SOL    HW215879   2.759   5.876   4.038
 4994SOL     OW15880   2.138   7.023   3.211
 4994SOL    HW115881   2.120   6.951   3.278
 4994SOL    HW215882   2.056   0.053   3.201
 4995SOL     OW15883   7.020   2.576   5.773
 4995SOL    HW115884   7.003   2.493   5.720
 4995SOL    HW215885   6.967   2.652   5.734
 4996SOL     OW15886   1.374   1.404   2.823
 4996SOL    HW115887   1.333   1.442   2.906
 4996SOL    HW215888   1.311   1.417   2.746
 4997SOL     OW15889   5.516   2.137   2.800
 4997SOL    HW115890   5.556   2.132   2.891
 4997SOL    HW215891   5.437   2.199   2.801
 4998SOL     OW15892   2.211   4.287   5.115
 4998SOL    HW115893   2.266   4.363   5.080
 4998SOL    HW215894   2.263   4.202   5.108
 4999SOL     OW15895   6.448   4.388   0.360
 4999SOL    HW115896   6.422   4.397   0.264
 4999SOL    HW215897   6.367   4.364   0.414
 5000SOL     OW15898   2.613   6.518   3.245
 5000SOL    HW115899   2.580   6.435   3.200
 5000SOL    HW215900   2.713   6.514   3.252
 5001SOL     OW15901   0.286   4.105   0.805
 5001SOL    HW115902   0.243   4.016   0.817
 5001SOL    HW215903   0.384   4.094   0.792
 5002SOL     OW15904   0.775   3.167   3.665
 5002SOL    HW115905   0.864   3.158   3.620
 5002SOL    HW215906   0.732   3.253   3.635
 5003SOL     OW15907   2.500   6.407   2.501
 5003SOL    HW115908   2.568   6.393   2.574
 5003SOL    HW215909   2.413   6.365   2.528
 5004SOL     OW15910   3.314   5.129   6.171
 5004SOL    HW115911   3.362   5.204   6.217
 5004SOL    HW215912   3.377   5.053   6.156
 5005SOL     OW15913   3.196   2.427   0.587
 5005SOL    HW115914   3.246   2.473   0.514
 5005SOL    HW215915   3.127   2.367   0.547
 5006SOL     OW15916   5.463   0.868   0.513
 5006SOL    HW115917   5.452   0.967   0.515
 5006SOL    HW215918   5.445   0.834   0.421
 5007SOL     OW15919   1.587   0.121   6.928
 5007SOL    HW115920   1.604   0.025   6.949
 5007SOL    HW215921   1.495   0.147   6.960
 5008SOL     OW15922   6.985   6.381   3.521
 5008SOL    HW115923   6.916   6.418   3.458
 5008SOL    HW215924   6.988   6.281   3.512
 5009SOL     OW15925   1.271   6.373   0.977
 5009SOL    HW115926   1.369   6.369   0.957
 5009SOL    HW215927   1.236   6.465   0.958
 5010SOL     OW15928   3.148   3.573   2.686
 5010SOL    HW115929   3.188   3.658   2.721
 5010SOL    HW215930   3.216   3.525   2.630
 5011SOL     OW15931   1.821   3.665   3.015
 5011SOL    HW115932   1.869   3.681   3.102
 5011SOL    HW215933   1.811   3.566   3.001
 5012SOL     OW15934   5.309   4.150   6.269
 5012SOL    HW115935   5.402   4.115   6.258
 5012SOL    HW215936   5.287   4.155   6.367
 5013SOL     OW15937   4.793   1.732   6.809
 5013SOL    HW115938   4.877   1.680   6.823
 5013SOL    HW215939   4.732   1.718   6.887
 5014SOL     OW15940   5.246   4.710   0.741
 5014SOL    HW115941   5.276   4.736   0.833
 5014SOL    HW215942   5.289   4.624   0.714
 5015SOL     OW15943   4.474   2.179   4.401
 5015SOL    HW115944   4.421   2.149   4.321
 5015SOL    HW215945   4.568   2.200   4.373
 5016SOL     OW15946   2.265   2.367   0.990
 5016SOL    HW115947   2.314   2.450   1.014
 5016SOL    HW215948   2.212   2.382   0.907
 5017SOL     OW15949   2.005   2.157   0.243
 5017SOL    HW115950   2.083   2.187   0.189
 5017SOL    HW215951   1.994   2.217   0.322
 5018SOL     OW15952   0.003   4.416   2.090
 5018SOL    HW115953   6.973   4.378   2.017
 5018SOL    HW215954   0.086   4.360   2.102
 5019SOL     OW15955   1.226   4.687   6.625
 5019SOL    HW115956   1.225   4.651   6.719
 5019SOL    HW215957   1.208   4.785   6.626
 5020SOL     OW15958   5.304   0.078   6.237
 5020SOL    HW115959   5.319   7.006   6.220
 5020SOL    HW215960   5.375   0.131   6.191
 5021SOL     OW15961   1.631   1.983   6.018
 5021SOL    HW115962   1.589   1.980   6.109
 5021SOL    HW215963   1.698   2.056   6.015
 5022SOL     OW15964   1.342   1.000   7.022
 5022SOL    HW115965   1.259   1.040   6.984
 5022SOL    HW215966   1.319   0.939   0.071
 5023SOL     OW15967   6.420   2.971   1.130
 5023SOL    HW115968   6.355   3.043   1.106
 5023SOL    HW215969   6.401   2.890   1.074
 5024SOL     OW15970   5.691   5.772   2.209
 5024SOL    HW115971   5.608   5.797   2.259
 5024SOL    HW215972   5.733   5.855   2.171
 5025SOL     OW15973   3.807   2.194   1.634
 5025SOL    HW115974   3.767   2.243   1.712
 5025SOL    HW215975   3.756   2.109   1.620
 5026SOL     OW15976   6.115   6.378   6.374
 5026SOL    HW115977   6.082   6.469   6.349
 5026SOL    HW215978   6.134   6.325   6.291
 5027SOL     OW15979   1.000   6.175   2.376
 5027SOL    HW115980   1.057   6.109   2.426
 5027SOL    HW215981   0.942   6.126   2.311
 5028SOL     OW15982   0.828   0.207   3.214
 5028SOL    HW115983   0.874   0.130   3.259
 5028SOL    HW215984   0.782   0.263   3.283
 5029SOL     OW15985   0.366   2.498   3.089
 5029SOL    HW115986   0.303   2.420   3.092
 5029SOL    HW215987   0.399   2.517   3.182
 5030SOL     OW15988   6.698   6.952   6.881
 5030SOL    HW115989   6.626   6.884   6.865
 5030SOL    HW215990   6.674   7.008   6.961
 5031SOL     OW15991   6.047   0.770   4.820
 5031SOL    HW115992   6.126   0.757   4.759
 5031SOL    HW215993   5.965   0.785   4.764
 5032SOL     OW15994   1.107   3.842   1.132
 5032SOL    HW115995   1.154   3.916   1.179
 5032SOL    HW215996   1.174   3.775   1.101
 5033SOL     OW15997   3.238   6.173   6.274
 5033SOL    HW115998   3.315   6.236   6.280
 5033SOL    HW215999   3.227   6.126   6.362
 5034SOL     OW16000   5.458   1.092   2.971
 5034SOL    HW116001   5.499   1.148   3.043
 5034SOL    HW216002   5.427   1.005   3.009
 5035SOL     OW16003   0.322   4.303   0.434
 5035SOL    HW116004   0.364   4.290   0.524
 5035SOL    HW216005   0.268   4.222   0.411
 5036SOL     OW16006   0.227   5.197   6.963
 5036SOL    HW116007   0.131   5.169   6.968
 5036SOL    HW216008   0.233   5.297   6.961
 5037SOL     OW16009   5.256   2.464   3.143
 5037SOL    HW116010   5.296   2.472   3.234
 5037SOL    HW216011   5.198   2.543   3.125
 5038SOL     OW16012   1.915   4.093   6.948
 5038SOL    HW116013   1.983   4.096   6.875
 5038SOL    HW216014   1.961   4.094   0.010
 5039SOL     OW16015   3.015   4.296   5.353
 5039SOL    HW116016   3.088   4.357   5.322
 5039SOL    HW216017   2.946   4.349   5.403
 5040SOL     OW16018   2.149   4.802   5.842
 5040SOL    HW116019   2.222   4.870   5.840
 5040SOL    HW216020   2.061   4.848   5.830
 5041SOL     OW16021   1.562   1.944   1.676
 5041SOL    HW116022   1.470   1.978   1.695
 5041SOL    HW216023   1.604   2.001   1.605
 5042SOL     OW16024   6.022   3.073   0.570
 5042SOL    HW116025   6.049   3.154   0.519
 5042SOL    HW216026   6.022   2.994   0.508
 5043SOL     OW16027   2.824   1.107   5.753
 5043SOL    HW116028   2.888   1.033   5.774
 5043SOL    HW216029   2.798   1.154   5.838
 5044SOL     OW16030   6.939   6.317   1.962
 5044SOL    HW116031   6.976   6.239   1.911
 5044SOL    HW216032   6.896   6.284   2.046
 5045SOL     OW16033   5.901   2.187   0.501
 5045SOL    HW116034   5.964   2.236   0.563
 5045SOL    HW216035   5.829   2.144   0.555
 5046SOL     OW16036   3.571   4.162   3.607
 5046SOL    HW116037   3.526   4.161   3.696
 5046SOL    HW216038   3.669   4.177   3.619
 5047SOL     OW16039   0.358   3.214   2.650
 5047SOL    HW116040   0.324   3.221   2.744
 5047SOL    HW216041   0.280   3.215   2.587
 5048SOL     OW16042   0.690   1.015   1.923
 5048SOL    HW116043   0.676   0.971   2.012
 5048SOL    HW216044   0.716   0.945   1.856
 5049SOL     OW16045   6.387   1.829   5.249
 5049SOL    HW116046   6.478   1.810   5.211
 5049SOL    HW216047   6.328   1.864   5.177
 5050SOL     OW16048   1.480   0.007   1.842
 5050SOL    HW116049   1.423   0.088   1.826
 5050SOL    HW216050   1.459   6.964   1.774
 5051SOL     OW16051   4.249   3.681   1.134
 5051SOL    HW116052   4.346   3.666   1.153
 5051SOL    HW216053   4.204   3.593   1.119
 5052SOL     OW16054   2.207   6.169   5.726
 5052SOL    HW116055   2.199   6.199   5.821
 5052SOL    HW216056   2.302   6.174   5.697
 5053SOL     OW16057   2.217   3.981   3.455
 5053SOL    HW116058   2.248   4.067   3.495
 5053SOL    HW216059   2.224   3.908   3.523
 5054SOL     OW16060   3.781   6.282   5.158
 5054SOL    HW116061   3.811   6.359   5.103
 5054SOL    HW216062   3.701   6.308   5.213
 5055SOL     OW16063   2.154   0.165   5.412
 5055SOL    HW116064   2.206   0.238   5.456
 5055SOL    HW216065   2.059   0.194   5.399
 5056SOL     OW16066   6.202   4.408   0.478
 5056SOL    HW116067   6.121   4.410   0.418
 5056SOL    HW216068   6.173   4.391   0.572
 5057SOL     OW16069   6.746   5.823   5.364
 5057SOL    HW116070   6.657   5.819   5.410
 5057SOL    HW216071   6.735   5.866   5.274
 5058SOL     OW16072   2.693   3.050   5.364
 5058SOL    HW116073   2.610   3.040   5.310
 5058SOL    HW216074   2.744   2.964   5.365
 5059SOL     OW16075   5.354   2.452   3.388
 5059SOL    HW116076   5.325   2.375   3.445
 5059SOL    HW216077   5.384   2.527   3.447
 5060SOL     OW16078   0.475   2.333   5.834
 5060SOL    HW116079   0.497   2.279   5.753
 5060SOL    HW216080   0.513   2.289   5.915
 5061SOL     OW16081   3.632   3.294   2.906
 5061SOL    HW116082   3.713   3.315   2.961
 5061SOL    HW216083   3.627   3.358   2.829
 5062SOL     OW16084   5.632   0.056   3.361
 5062SOL    HW116085   5.567   0.111   3.308
 5062SOL    HW216086   5.631   0.087   3.456
 5063SOL     OW16087   1.351   6.847   2.298
 5063SOL    HW116088   1.339   6.777   2.227
 5063SOL    HW216089   1.274   6.911   2.295
 5064SOL     OW16090   4.308   3.799   1.590
 5064SOL    HW116091   4.324   3.896   1.608
 5064SOL    HW216092   4.392   3.748   1.608
 5065SOL     OW16093   1.518   1.666   3.635
 5065SOL    HW116094   1.605   1.652   3.682
 5065SOL    HW216095   1.475   1.750   3.669
 5066SOL     OW16096   3.417   4.639   0.903
 5066SOL    HW116097   3.402   4.594   0.991
 5066SOL    HW216098   3.467   4.577   0.842
 5067SOL     OW16099   3.214   1.046   2.376
 5067SOL    HW116100   3.185   0.954   2.404
 5067SOL    HW216101   3.253   1.094   2.455
 5068SOL     OW16102   2.923   5.028   6.841
 5068SOL    HW116103   2.872   5.028   6.755
 5068SOL    HW216104   2.996   4.959   6.836
 5069SOL     OW16105   2.045   3.025   6.254
 5069SOL    HW116106   2.060   3.090   6.328
 5069SOL    HW216107   2.030   3.076   6.169
 5070SOL     OW16108   5.288   4.564   3.950
 5070SOL    HW116109   5.333   4.608   4.028
 5070SOL    HW216110   5.355   4.514   3.897
 5071SOL     OW16111   4.003   0.907   3.997
 5071SOL    HW116112   4.010   0.886   4.094
 5071SOL    HW216113   3.982   1.005   3.986
 5072SOL     OW16114   1.109   0.781   1.787
 5072SOL    HW116115   1.164   0.860   1.760
 5072SOL    HW216116   1.162   0.697   1.774
 5073SOL     OW16117   1.617   4.294   1.096
 5073SOL    HW116118   1.534   4.246   1.068
 5073SOL    HW216119   1.605   4.393   1.083
 5074SOL     OW16120   3.187   2.003   1.423
 5074SOL    HW116121   3.112   2.049   1.472
 5074SOL    HW216122   3.206   1.915   1.466
 5075SOL     OW16123   1.554   2.287   6.053
 5075SOL    HW116124   1.641   2.250   6.086
 5075SOL    HW216125   1.541   2.258   5.958
 5076SOL     OW16126   5.217   0.428   1.068
 5076SOL    HW116127   5.195   0.509   1.014
 5076SOL    HW216128   5.194   0.346   1.016
 5077SOL     OW16129   1.696   4.442   5.567
 5077SOL    HW116130   1.765   4.466   5.499
 5077SOL    HW216131   1.642   4.524   5.589
 5078SOL     OW16132   0.713   0.781   3.942
 5078SOL    HW116133   0.627   0.734   3.964
 5078SOL    HW216134   0.696   0.880   3.940
 5079SOL     OW16135   2.113   3.397   4.734
 5079SOL    HW116136   2.108   3.318   4.672
 5079SOL    HW216137   2.105   3.366   4.828
 5080SOL     OW16138   6.230   6.211   6.047
 5080SOL    HW116139   6.257   6.306   6.033
 5080SOL    HW216140   6.306   6.161   6.087
 5081SOL     OW16141   2.884   3.728   5.307
 5081SOL    HW116142   2.863   3.778   5.391
 5081SOL    HW216143   2.871   3.788   5.228
 5082SOL     OW16144   5.151   5.774   1.618
 5082SOL    HW116145   5.054   5.794   1.623
 5082SOL    HW216146   5.175   5.746   1.525
 5083SOL     OW16147   2.480   0.666   2.837
 5083SOL    HW116148   2.505   0.685   2.742
 5083SOL    HW216149   2.388   0.700   2.855
 5084SOL     OW16150   0.846   4.218   3.965
 5084SOL    HW116151   0.917   4.150   3.985
 5084SOL    HW216152   0.865   4.302   4.016
 5085SOL     OW16153   6.531   2.340   5.921
 5085SOL    HW116154   6.588   2.372   5.846
 5085SOL    HW216155   6.551   2.393   6.003
 5086SOL     OW16156   1.451   4.998   2.825
 5086SOL    HW116157   1.491   4.923   2.773
 5086SOL    HW216158   1.506   5.081   2.812
 5087SOL     OW16159   1.143   5.330   2.135
 5087SOL    HW116160   1.057   5.374   2.107
 5087SOL    HW216161   1.123   5.243   2.179
 5088SOL     OW16162   5.943   0.100   3.811
 5088SOL    HW116163   6.023   0.151   3.781
 5088SOL    HW216164   5.917   0.033   3.741
 5089SOL     OW16165   6.006   3.981   4.196
 5089SOL    HW116166   5.922   3.927   4.195
 5089SOL    HW216167   6.057   3.966   4.112
 5090SOL     OW16168   1.952   3.553   2.542
 5090SOL    HW116169   1.995   3.611   2.611
 5090SOL    HW216170   1.857   3.579   2.530
 5091SOL     OW16171   6.810   1.409   1.686
 5091SOL    HW116172   6.749   1.457   1.750
 5091SOL    HW216173   6.848   1.329   1.731
 5092SOL     OW16174   3.689   3.744   3.148
 5092SOL    HW116175   3.611   3.801   3.171
 5092SOL    HW216176   3.664   3.683   3.072
 5093SOL     OW16177   3.099   0.886   0.593
 5093SOL    HW116178   3.011   0.926   0.620
 5093SOL    HW216179   3.099   0.869   0.495
 5094SOL     OW16180   2.417   5.887   5.732
 5094SOL    HW116181   2.377   5.920   5.817
 5094SOL    HW216182   2.450   5.964   5.678
 5095SOL     OW16183   6.412   1.983   3.557
 5095SOL    HW116184   6.449   2.067   3.597
 5095SOL    HW216185   6.474   1.907   3.574
 5096SOL     OW16186   3.735   5.071   6.287
 5096SOL    HW116187   3.796   5.150   6.298
 5096SOL    HW216188   3.664   5.093   6.220
 5097SOL     OW16189   0.778   0.097   6.301
 5097SOL    HW116190   0.785   0.171   6.368
 5097SOL    HW216191   0.720   0.126   6.225
 5098SOL     OW16192   3.178   0.754   2.132
 5098SOL    HW116193   3.137   0.779   2.220
 5098SOL    HW216194   3.176   0.833   2.071
 5099SOL     OW16195   0.494   0.234   0.780
 5099SOL    HW116196   0.444   0.159   0.824
 5099SOL    HW216197   0.593   0.218   0.792
 5100SOL     OW16198   3.255   5.675   4.440
 5100SOL    HW116199   3.166   5.714   4.418
 5100SOL    HW216200   3.301   5.732   4.508
 5101SOL     OW16201   4.462   0.393   6.900
 5101SOL    HW116202   4.425   0.389   6.993
 5101SOL    HW216203   4.415   0.328   6.842
 5102SOL     OW16204   5.750   6.718   4.266
 5102SOL    HW116205   5.667   6.765   4.237
 5102SOL    HW216206   5.828   6.752   4.213
 5103SOL     OW16207   0.482   0.706   4.052
 5103SOL    HW116208   0.468   0.608   4.034
 5103SOL    HW216209   0.463   0.725   4.148
 5104SOL     OW16210   1.615   6.192   1.925
 5104SOL    HW116211   1.690   6.144   1.880
 5104SOL    HW216212   1.630   6.194   2.024
 5105SOL     OW16213   2.276   2.278   0.513
 5105SOL    HW116214   2.356   2.278   0.453
 5105SOL    HW216215   2.272   2.191   0.563
 5106SOL     OW16216   4.288   2.603   0.514
 5106SOL    HW116217   4.351   2.627   0.588
 5106SOL    HW216218   4.277   2.504   0.509
 5107SOL     OW16219   4.005   1.705   1.278
 5107SOL    HW116220   4.051   1.734   1.194
 5107SOL    HW216221   4.055   1.741   1.357
 5108SOL     OW16222   3.921   3.740   5.020
 5108SOL    HW116223   3.980   3.683   4.963
 5108SOL    HW216224   3.977   3.804   5.073
 5109SOL     OW16225   0.924   1.837   6.829
 5109SOL    HW116226   0.889   1.853   6.737
 5109SOL    HW216227   0.932   1.925   6.877
 5110SOL     OW16228   0.439   0.454   6.046
 5110SOL    HW116229   0.502   0.530   6.057
 5110SOL    HW216230   0.453   0.411   5.956
 5111SOL     OW16231   1.477   0.416   4.939
 5111SOL    HW116232   1.447   0.439   4.846
 5111SOL    HW216233   1.559   0.469   4.962
 5112SOL     OW16234   1.476   0.092   3.071
 5112SOL    HW116235   1.521   0.004   3.068
 5112SOL    HW216236   1.467   0.123   3.166
 5113SOL     OW16237   1.632   6.756   0.884
 5113SOL    HW116238   1.702   6.782   0.951
 5113SOL    HW216239   1.653   6.798   0.796
 5114SOL     OW16240   3.730   0.605   6.896
 5114SOL    HW116241   3.732   0.505   6.899
 5114SOL    HW216242   3.654   0.638   6.952
 5115SOL     OW16243   1.442   4.529   3.968
 5115SOL    HW116244   1.367   4.467   3.946
 5115SOL    HW216245   1.458   4.530   4.066
 5116SOL     OW16246   0.633   6.790   6.621
 5116SOL    HW116247   0.638   6.709   6.563
 5116SOL    HW216248   0.681   6.866   6.576
 5117SOL     OW16249   2.139   3.969   4.909
 5117SOL    HW116250   2.206   3.989   4.982
 5117SOL    HW216251   2.134   3.870   4.896
 5118SOL     OW16252   5.087   1.194   0.142
 5118SOL    HW116253   5.134   1.243   0.067
 5118SOL    HW216254   4.996   1.233   0.155
 5119SOL     OW16255   5.370   0.567   2.103
 5119SOL    HW116256   5.276   0.602   2.102
 5119SOL    HW216257   5.388   0.524   2.192
 5120SOL     OW16258   3.301   0.449   4.191
 5120SOL    HW116259   3.286   0.407   4.280
 5120SOL    HW216260   3.331   0.380   4.125
 5121SOL     OW16261   2.765   2.123   6.810
 5121SOL    HW116262   2.767   2.031   6.771
 5121SOL    HW216263   2.808   2.122   6.900
 5122SOL     OW16264   3.265   6.513   3.449
 5122SOL    HW116265   3.359   6.536   3.427
 5122SOL    HW216266   3.206   6.534   3.370
 5123SOL     OW16267   4.070   2.247   4.140
 5123SOL    HW116268   4.121   2.279   4.220
 5123SOL    HW216269   3.976   2.281   4.144
 5124SOL     OW16270   2.612   5.805   4.704
 5124SOL    HW116271   2.517   5.772   4.707
 5124SOL    HW216272   2.636   5.844   4.793
 5125SOL     OW16273   6.150   2.988   3.656
 5125SOL    HW116274   6.231   3.006   3.600
 5125SOL    HW216275   6.175   2.993   3.753
 5126SOL     OW16276   5.745   5.441   5.774
 5126SOL    HW116277   5.842   5.460   5.759
 5126SOL    HW216278   5.718   5.473   5.865
 5127SOL     OW16279   0.876   4.233   7.012
 5127SOL    HW116280   0.893   4.284   0.071
 5127SOL    HW216281   0.917   4.282   6.935
 5128SOL     OW16282   6.907   0.476   6.264
 5128SOL    HW116283   6.975   0.404   6.272
 5128SOL    HW216284   6.938   0.543   6.196
 5129SOL     OW16285   6.318   6.994   2.695
 5129SOL    HW116286   6.247   6.945   2.645
 5129SOL    HW216287   6.299   0.066   2.692
 5130SOL     OW16288   0.108   5.689   3.898
 5130SOL    HW116289   0.099   5.629   3.819
 5130SOL    HW216290   0.204   5.691   3.927
 5131SOL     OW16291   1.990   5.110   4.154
 5131SOL    HW116292   2.016   5.022   4.114
 5131SOL    HW216293   1.924   5.155   4.093
 5132SOL     OW16294   3.432   2.632   6.393
 5132SOL    HW116295   3.522   2.619   6.435
 5132SOL    HW216296   3.385   2.545   6.387
 5133SOL     OW16297   1.806   5.754   6.601
 5133SOL    HW116298   1.823   5.707   6.688
 5133SOL    HW216299   1.867   5.717   6.531
 5134SOL     OW16300   0.435   2.959   2.440
 5134SOL    HW116301   0.461   2.921   2.528
 5134SOL    HW216302   0.344   2.999   2.446
 5135SOL     OW16303   5.483   3.222   4.670
 5135SOL    HW116304   5.431   3.166   4.734
 5135SOL    HW216305   5.422   3.284   4.622
 5136SOL     OW16306   4.689   0.503   6.386
 5136SOL    HW116307   4.691   0.428   6.320
 5136SOL    HW216308   4.595   0.534   6.399
 5137SOL     OW16309   5.404   3.840   5.532
 5137SOL    HW116310   5.429   3.762   5.589
 5137SOL    HW216311   5.422   3.925   5.582
 5138SOL     OW16312   3.803   3.324   5.159
 5138SOL    HW116313   3.894   3.316   5.118
 5138SOL    HW216314   3.812   3.341   5.257
 5139SOL     OW16315   1.569   1.155   2.907
 5139SOL    HW116316   1.561   1.241   2.856
 5139SOL    HW216317   1.493   1.147   2.971
 5140SOL     OW16318   3.905   3.037   6.424
 5140SOL    HW116319   3.943   3.116   6.473
 5140SOL    HW216320   3.806   3.047   6.415
 5141SOL     OW16321   6.499   3.849   0.936
 5141SOL    HW116322   6.598   3.833   0.934
 5141SOL    HW216323   6.473   3.905   0.857
 5142SOL     OW16324   6.461   6.845   3.118
 5142SOL    HW116325   6.468   6.765   3.058
 5142SOL    HW216326   6.373   6.844   3.165
 5143SOL     OW16327   6.455   4.387   3.884
 5143SOL    HW116328   6.401   4.365   3.803
 5143SOL    HW216329   6.467   4.304   3.939
 5144SOL     OW16330   0.710   4.435   5.604
 5144SOL    HW116331   0.662   4.434   5.517
 5144SOL    HW216332   0.806   4.462   5.589
 5145SOL     OW16333   2.828   5.556   5.745
 5145SOL    HW116334   2.856   5.502   5.665
 5145SOL    HW216335   2.773   5.634   5.714
 5146SOL     OW16336   3.476   4.056   5.279
 5146SOL    HW116337   3.503   4.035   5.373
 5146SOL    HW216338   3.390   4.010   5.258
 5147SOL     OW16339   6.878   5.283   2.533
 5147SOL    HW116340   6.886   5.364   2.592
 5147SOL    HW216341   6.970   5.253   2.507
 5148SOL     OW16342   6.316   6.841   1.607
 5148SOL    HW116343   6.391   6.896   1.642
 5148SOL    HW216344   6.244   6.832   1.677
 5149SOL     OW16345   6.621   5.094   2.899
 5149SOL    HW116346   6.692   5.089   2.829
 5149SOL    HW216347   6.587   5.002   2.918
 5150SOL     OW16348   2.312   5.443   3.105
 5150SOL    HW116349   2.373   5.402   3.037
 5150SOL    HW216350   2.366   5.494   3.172
 5151SOL     OW16351   6.358   2.861   1.727
 5151SOL    HW116352   6.369   2.820   1.636
 5151SOL    HW216353   6.321   2.792   1.789
 5152SOL     OW16354   1.938   4.658   0.009
 5152SOL    HW116355   1.873   4.582   0.007
 5152SOL    HW216356   1.889   4.744   7.020
 5153SOL     OW16357   2.009   0.841   6.970
 5153SOL    HW116358   1.986   0.805   6.880
 5153SOL    HW216359   2.101   0.811   6.996
 5154SOL     OW16360   0.767   2.707   6.030
 5154SOL    HW116361   0.702   2.683   5.958
 5154SOL    HW216362   0.845   2.755   5.990
 5155SOL     OW16363   4.339   0.226   2.119
 5155SOL    HW116364   4.309   0.174   2.199
 5155SOL    HW216365   4.408   0.293   2.147
 5156SOL     OW16366   5.588   3.658   6.063
 5156SOL    HW116367   5.539   3.645   6.150
 5156SOL    HW216368   5.562   3.746   6.023
 5157SOL     OW16369   3.886   2.076   3.248
 5157SOL    HW116370   3.983   2.052   3.249
 5157SOL    HW216371   3.861   2.121   3.333
 5158SOL     OW16372   3.876   1.775   1.710
 5158SOL    HW116373   3.852   1.724   1.792
 5158SOL    HW216374   3.795   1.822   1.675
 5159SOL     OW16375   6.821   3.628   4.374
 5159SOL    HW116376   6.739   3.658   4.421
 5159SOL    HW216377   6.804   3.625   4.276
 5160SOL     OW16378   7.007   5.128   2.912
 5160SOL    HW116379   0.067   5.109   2.959
 5160SOL    HW216380   6.982   5.223   2.925
 5161SOL     OW16381   1.817   3.776   5.533
 5161SOL    HW116382   1.877   3.783   5.613
 5161SOL    HW216383   1.741   3.714   5.553
 5162SOL     OW16384   1.224   4.998   2.989
 5162SOL    HW116385   1.228   5.075   3.052
 5162SOL    HW216386   1.313   4.986   2.944
 5163SOL     OW16387   3.569   6.504   0.031
 5163SOL    HW116388   3.522   6.420   0.003
 5163SOL    HW216389   3.515   6.583   0.004
 5164SOL     OW16390   3.981   2.641   6.802
 5164SOL    HW116391   4.055   2.612   6.742
 5164SOL    HW216392   3.933   2.718   6.761
 5165SOL     OW16393   6.338   4.207   5.737
 5165SOL    HW116394   6.394   4.249   5.808
 5165SOL    HW216395   6.359   4.248   5.649
 5166SOL     OW16396   0.658   5.209   2.451
 5166SOL    HW116397   0.671   5.166   2.541
 5166SOL    HW216398   0.747   5.236   2.415
 5167SOL     OW16399   6.740   6.465   6.428
 5167SOL    HW116400   6.715   6.535   6.360
 5167SOL    HW216401   6.820   6.415   6.396
 5168SOL     OW16402   5.399   3.675   1.802
 5168SOL    HW116403   5.490   3.717   1.796
 5168SOL    HW216404   5.385   3.640   1.894
 5169SOL     OW16405   4.076   2.206   4.588
 5169SOL    HW116406   4.046   2.195   4.683
 5169SOL    HW216407   4.159   2.152   4.573
 5170SOL     OW16408   0.516   4.138   5.341
 5170SOL    HW116409   0.520   4.101   5.248
 5170SOL    HW216410   0.590   4.203   5.354
 5171SOL     OW16411   0.642   5.419   4.406
 5171SOL    HW116412   0.630   5.517   4.390
 5171SOL    HW216413   0.633   5.400   4.503
 5172SOL     OW16414   1.336   2.532   2.531
 5172SOL    HW116415   1.302   2.469   2.601
 5172SOL    HW216416   1.364   2.480   2.450
 5173SOL     OW16417   5.243   4.870   6.004
 5173SOL    HW116418   5.239   4.916   5.915
 5173SOL    HW216419   5.338   4.847   6.025
 5174SOL     OW16420   2.360   4.777   3.433
 5174SOL    HW116421   2.383   4.867   3.469
 5174SOL    HW216422   2.414   4.708   3.481
 5175SOL     OW16423   2.758   3.315   6.916
 5175SOL    HW116424   2.821   3.319   6.994
 5175SOL    HW216425   2.810   3.305   6.831
 5176SOL     OW16426   4.684   3.103   6.862
 5176SOL    HW116427   4.699   3.057   6.950
 5176SOL    HW216428   4.587   3.125   6.852
 5177SOL     OW16429   4.980   0.732   0.235
 5177SOL    HW116430   4.982   0.713   0.334
 5177SOL    HW216431   4.921   0.811   0.218
 5178SOL     OW16432   0.969   4.386   2.243
 5178SOL    HW116433   0.990   4.354   2.335
 5178SOL    HW216434   1.049   4.373   2.184
 5179SOL     OW16435   4.179   5.928   3.682
 5179SOL    HW116436   4.129   5.977   3.611
 5179SOL    HW216437   4.180   5.830   3.661
 5180SOL     OW16438   2.294   2.172   1.198
 5180SOL    HW116439   2.269   2.218   1.113
 5180SOL    HW216440   2.385   2.132   1.189
 5181SOL     OW16441   5.778   1.282   2.635
 5181SOL    HW116442   5.737   1.350   2.695
 5181SOL    HW216443   5.726   1.277   2.549
 5182SOL     OW16444   3.952   4.266   1.359
 5182SOL    HW116445   4.036   4.277   1.413
 5182SOL    HW216446   3.890   4.341   1.381
 5183SOL     OW16447   4.318   1.624   3.123
 5183SOL    HW116448   4.344   1.655   3.214
 5183SOL    HW216449   4.366   1.538   3.103
 5184SOL     OW16450   0.788   1.981   4.504
 5184SOL    HW116451   0.825   1.890   4.522
 5184SOL    HW216452   0.767   1.989   4.406
 5185SOL     OW16453   5.699   0.509   2.417
 5185SOL    HW116454   5.745   0.441   2.360
 5185SOL    HW216455   5.767   0.572   2.455
 5186SOL     OW16456   6.633   2.910   0.682
 5186SOL    HW116457   6.695   2.980   0.649
 5186SOL    HW216458   6.550   2.952   0.719
 5187SOL     OW16459   1.008   0.014   4.279
 5187SOL    HW116460   1.085   0.051   4.331
 5187SOL    HW216461   1.021   6.941   4.267
 5188SOL     OW16462   0.589   5.510   0.676
 5188SOL    HW116463   0.588   5.598   0.628
 5188SOL    HW216464   0.679   5.496   0.717
 5189SOL     OW16465   3.520   4.424   0.785
 5189SOL    HW116466   3.461   4.361   0.734
 5189SOL    HW216467   3.615   4.397   0.773
 5190SOL     OW16468   0.680   1.965   4.257
 5190SOL    HW116469   0.712   2.039   4.198
 5190SOL    HW216470   0.703   1.877   4.216
 5191SOL     OW16471   3.925   0.294   1.582
 5191SOL    HW116472   3.841   0.320   1.535
 5191SOL    HW216473   3.983   0.374   1.594
 5192SOL     OW16474   2.692   5.672   3.096
 5192SOL    HW116475   2.686   5.718   3.184
 5192SOL    HW216476   2.777   5.618   3.093
 5193SOL     OW16477   5.064   4.642   4.790
 5193SOL    HW116478   5.058   4.620   4.887
 5193SOL    HW216479   4.973   4.639   4.749
 5194SOL     OW16480   4.831   2.253   0.323
 5194SOL    HW116481   4.826   2.154   0.321
 5194SOL    HW216482   4.817   2.286   0.416
 5195SOL     OW16483   6.159   6.331   4.022
 5195SOL    HW116484   6.205   6.259   4.074
 5195SOL    HW216485   6.151   6.413   4.078
 5196SOL     OW16486   3.499   5.080   0.506
 5196SOL    HW116487   3.469   5.077   0.601
 5196SOL    HW216488   3.419   5.077   0.446
 5197SOL     OW16489   1.891   5.561   5.428
 5197SOL    HW116490   1.952   5.538   5.504
 5197SOL    HW216491   1.932   5.634   5.373
 5198SOL     OW16492   4.413   6.747   3.645
 5198SOL    HW116493   4.350   6.799   3.702
 5198SOL    HW216494   4.372   6.659   3.621
 5199SOL     OW16495   1.794   5.897   0.266
 5199SOL    HW116496   1.758   5.982   0.304
 5199SOL    HW216497   1.808   5.908   0.168
 5200SOL     OW16498   1.037   2.544   5.151
 5200SOL    HW116499   0.940   2.526   5.140
 5200SOL    HW216500   1.054   2.642   5.138
 5201SOL     OW16501   0.168   6.505   4.015
 5201SOL    HW116502   0.257   6.525   3.974
 5201SOL    HW216503   0.127   6.589   4.050
 5202SOL     OW16504   5.986   3.901   5.537
 5202SOL    HW116505   5.901   3.867   5.577
 5202SOL    HW216506   6.063   3.874   5.595
 5203SOL     OW16507   2.448   1.177   6.699
 5203SOL    HW116508   2.392   1.113   6.645
 5203SOL    HW216509   2.390   1.246   6.740
 5204SOL     OW16510   4.744   5.897   6.759
 5204SOL    HW116511   4.657   5.861   6.791
 5204SOL    HW216512   4.767   5.980   6.810
 5205SOL     OW16513   0.469   6.034   0.589
 5205SOL    HW116514   0.481   6.122   0.636
 5205SOL    HW216515   0.471   6.049   0.490
 5206SOL     OW16516   0.447   4.907   6.429
 5206SOL    HW116517   0.385   4.843   6.385
 5206SOL    HW216518   0.438   4.900   6.528
 5207SOL     OW16519   1.100   6.179   4.159
 5207SOL    HW116520   1.027   6.225   4.109
 5207SOL    HW216521   1.065   6.146   4.246
 5208SOL     OW16522   5.315   2.496   6.773
 5208SOL    HW116523   5.217   2.477   6.771
 5208SOL    HW216524   5.348   2.491   6.867
 5209SOL     OW16525   5.756   6.786   2.367
 5209SOL    HW116526   5.661   6.816   2.354
 5209SOL    HW216527   5.774   6.774   2.464
 5210SOL     OW16528   4.684   2.598   0.173
 5210SOL    HW116529   4.782   2.619   0.175
 5210SOL    HW216530   4.659   2.564   0.082
 5211SOL     OW16531   4.007   2.248   5.721
 5211SOL    HW116532   4.006   2.201   5.633
 5211SOL    HW216533   3.915   2.280   5.743
 5212SOL     OW16534   0.384   2.550   0.587
 5212SOL    HW116535   0.319   2.582   0.518
 5212SOL    HW216536   0.445   2.482   0.545
 5213SOL     OW16537   4.689   3.908   6.998
 5213SOL    HW116538   4.623   3.859   0.029
 5213SOL    HW216539   4.642   3.979   6.946
 5214SOL     OW16540   5.274   2.238   6.021
 5214SOL    HW116541   5.227   2.324   6.000
 5214SOL    HW216542   5.373   2.252   6.015
 5215SOL     OW16543   0.908   4.510   3.796
 5215SOL    HW116544   0.988   4.467   3.755
 5215SOL    HW216545   0.828   4.452   3.782
 5216SOL     OW16546   4.634   4.805   1.768
 5216SOL    HW116547   4.694   4.731   1.738
 5216SOL    HW216548   4.678   4.893   1.750
 5217SOL     OW16549   3.725   5.448   4.164
 5217SOL    HW116550   3.643   5.436   4.220
 5217SOL    HW216551   3.793   5.379   4.190
 5218SOL     OW16552   0.933   0.666   1.988
 5218SOL    HW116553   0.955   0.721   1.908
 5218SOL    HW216554   0.998   0.686   2.061
 5219SOL     OW16555   4.321   1.582   5.033
 5219SOL    HW116556   4.326   1.665   4.977
 5219SOL    HW216557   4.384   1.514   4.997
 5220SOL     OW16558   1.093   6.382   2.184
 5220SOL    HW116559   1.174   6.339   2.145
 5220SOL    HW216560   1.051   6.321   2.251
 5221SOL     OW16561   5.983   1.534   3.806
 5221SOL    HW116562   5.952   1.468   3.874
 5221SOL    HW216563   5.903   1.578   3.764
 5222SOL     OW16564   4.502   6.737   3.213
 5222SOL    HW116565   4.502   6.814   3.276
 5222SOL    HW216566   4.563   6.666   3.246
 5223SOL     OW16567   6.171   2.356   0.907
 5223SOL    HW116568   6.248   2.416   0.885
 5223SOL    HW216569   6.093   2.410   0.937
 5224SOL     OW16570   6.182   2.732   4.896
 5224SOL    HW116571   6.163   2.757   4.991
 5224SOL    HW216572   6.119   2.659   4.868
 5225SOL     OW16573   0.311   0.804   3.834
 5225SOL    HW116574   0.370   0.885   3.829
 5225SOL    HW216575   0.343   0.744   3.907
 5226SOL     OW16576   6.968   0.145   4.895
 5226SOL    HW116577   0.005   0.096   4.956
 5226SOL    HW216578   7.016   0.223   4.855
 5227SOL     OW16579   0.291   3.475   5.081
 5227SOL    HW116580   0.250   3.450   4.993
 5227SOL    HW216581   0.245   3.424   5.154
 5228SOL     OW16582   6.221   2.360   1.218
 5228SOL    HW116583   6.164   2.429   1.264
 5228SOL    HW216584   6.208   2.366   1.119
 5229SOL     OW16585   2.483   6.175   0.424
 5229SOL    HW116586   2.470   6.101   0.358
 5229SOL    HW216587   2.400   6.186   0.479
 5230SOL     OW16588   0.768   5.702   1.651
 5230SOL    HW116589   0.679   5.724   1.691
 5230SOL    HW216590   0.828   5.782   1.658
 5231SOL     OW16591   4.678   2.479   4.465
 5231SOL    HW116592   4.605   2.494   4.398
 5231SOL    HW216593   4.638   2.463   4.555
 5232SOL     OW16594   1.921   3.681   5.992
 5232SOL    HW116595   1.913   3.584   5.971
 5232SOL    HW216596   1.837   3.714   6.035
 5233SOL     OW16597   4.365   1.121   2.319
 5233SOL    HW116598   4.460   1.093   2.335
 5233SOL    HW216599   4.322   1.061   2.252
 5234SOL     OW16600   2.672   1.894   5.894
 5234SOL    HW116601   2.686   1.961   5.966
 5234SOL    HW216602   2.582   1.908   5.852
 5235SOL     OW16603   1.888   2.526   0.885
 5235SOL    HW116604   1.798   2.554   0.852
 5235SOL    HW216605   1.920   2.447   0.832
 5236SOL     OW16606   4.754   5.064   1.710
 5236SOL    HW116607   4.765   5.095   1.616
 5236SOL    HW216608   4.726   5.141   1.768
 5237SOL     OW16609   1.712   1.221   5.096
 5237SOL    HW116610   1.776   1.278   5.045
 5237SOL    HW216611   1.620   1.234   5.060
 5238SOL     OW16612   0.329   4.399   0.095
 5238SOL    HW116613   0.307   4.302   0.093
 5238SOL    HW216614   0.250   4.452   0.063
 5239SOL     OW16615   3.434   2.948   4.457
 5239SOL    HW116616   3.491   2.920   4.380
 5239SOL    HW216617   3.343   2.973   4.422
 5240SOL     OW16618   2.959   2.632   5.837
 5240SOL    HW116619   2.896   2.657   5.764
 5240SOL    HW216620   3.046   2.681   5.826
 5241SOL     OW16621   0.232   5.089   4.480
 5241SOL    HW116622   0.242   5.100   4.578
 5241SOL    HW216623   0.178   5.165   4.443
 5242SOL     OW16624   6.568   6.603   6.782
 5242SOL    HW116625   6.601   6.569   6.870
 5242SOL    HW216626   6.554   6.525   6.721
 5243SOL     OW16627   1.578   5.520   1.521
 5243SOL    HW116628   1.556   5.588   1.591
 5243SOL    HW216629   1.674   5.529   1.494
 5244SOL     OW16630   3.153   5.567   6.948
 5244SOL    HW116631   3.113   5.490   6.898
 5244SOL    HW216632   3.248   5.547   6.970
 5245SOL     OW16633   4.263   4.842   6.835
 5245SOL    HW116634   4.202   4.896   6.892
 5245SOL    HW216635   4.210   4.790   6.768
 5246SOL     OW16636   5.379   3.496   1.574
 5246SOL    HW116637   5.378   3.400   1.603
 5246SOL    HW216638   5.394   3.555   1.654
 5247SOL     OW16639   1.695   0.727   7.020
 5247SOL    HW116640   1.670   0.796   6.952
 5247SOL    HW216641   1.787   0.694   7.001
 5248SOL     OW16642   5.716   1.620   3.970
 5248SOL    HW116643   5.763   1.534   3.990
 5248SOL    HW216644   5.620   1.602   3.949
 5249SOL     OW16645   0.189   5.265   6.296
 5249SOL    HW116646   0.226   5.226   6.211
 5249SOL    HW216647   0.103   5.220   6.318
 5250SOL     OW16648   2.033   5.864   6.203
 5250SOL    HW116649   2.006   5.840   6.110
 5250SOL    HW216650   1.963   5.923   6.244
 5251SOL     OW16651   0.452   3.762   0.080
 5251SOL    HW116652   0.452   3.848   0.131
 5251SOL    HW216653   0.530   3.706   0.109
 5252SOL     OW16654   1.708   6.398   0.565
 5252SOL    HW116655   1.619   6.352   0.565
 5252SOL    HW216656   1.742   6.404   0.658
 5253SOL     OW16657   6.271   4.770   4.700
 5253SOL    HW116658   6.246   4.842   4.635
 5253SOL    HW216659   6.313   4.811   4.781
 5254SOL     OW16660   4.460   1.011   2.922
 5254SOL    HW116661   4.421   0.919   2.932
 5254SOL    HW216662   4.427   1.052   2.837
 5255SOL     OW16663   5.970   1.767   5.272
 5255SOL    HW116664   5.959   1.779   5.173
 5255SOL    HW216665   5.963   1.670   5.295
 5256SOL     OW16666   3.872   1.184   3.759
 5256SOL    HW116667   3.963   1.175   3.798
 5256SOL    HW216668   3.876   1.168   3.660
 5257SOL     OW16669   5.511   6.659   2.044
 5257SOL    HW116670   5.532   6.755   2.023
 5257SOL    HW216671   5.564   6.599   1.984
 5258SOL     OW16672   5.848   3.356   1.686
 5258SOL    HW116673   5.778   3.370   1.615
 5258SOL    HW216674   5.809   3.378   1.775
 5259SOL     OW16675   5.286   6.255   2.113
 5259SOL    HW116676   5.343   6.174   2.121
 5259SOL    HW216677   5.248   6.260   2.020
 5260SOL     OW16678   5.100   3.755   0.570
 5260SOL    HW116679   5.126   3.686   0.638
 5260SOL    HW216680   5.179   3.814   0.550
 5261SOL     OW16681   0.255   3.849   6.921
 5261SOL    HW116682   0.289   3.924   6.863
 5261SOL    HW216683   0.330   3.809   6.972
 5262SOL     OW16684   2.906   0.876   3.572
 5262SOL    HW116685   2.941   0.869   3.665
 5262SOL    HW216686   2.845   0.954   3.565
 5263SOL     OW16687   1.920   1.615   4.137
 5263SOL    HW116688   1.981   1.584   4.065
 5263SOL    HW216689   1.865   1.537   4.169
 5264SOL     OW16690   6.510   2.257   2.705
 5264SOL    HW116691   6.512   2.327   2.777
 5264SOL    HW216692   6.432   2.274   2.645
 5265SOL     OW16693   6.596   3.877   4.030
 5265SOL    HW116694   6.635   3.933   3.957
 5265SOL    HW216695   6.511   3.918   4.062
 5266SOL     OW16696   2.915   5.423   0.760
 5266SOL    HW116697   2.958   5.510   0.786
 5266SOL    HW216698   2.877   5.379   0.841
 5267SOL     OW16699   5.529   3.915   4.890
 5267SOL    HW116700   5.587   3.939   4.968
 5267SOL    HW216701   5.507   3.998   4.839
 5268SOL     OW16702   5.554   0.774   6.508
 5268SOL    HW116703   5.548   0.685   6.462
 5268SOL    HW216704   5.493   0.775   6.587
 5269SOL     OW16705   1.489   6.637   3.544
 5269SOL    HW116706   1.409   6.577   3.538
 5269SOL    HW216707   1.517   6.646   3.640
 5270SOL     OW16708   6.115   0.899   1.044
 5270SOL    HW116709   6.213   0.915   1.032
 5270SOL    HW216710   6.092   0.808   1.008
 5271SOL     OW16711   5.974   5.628   5.124
 5271SOL    HW116712   5.886   5.636   5.170
 5271SOL    HW216713   5.986   5.705   5.061
 5272SOL     OW16714   3.193   5.299   2.022
 5272SOL    HW116715   3.264   5.253   1.970
 5272SOL    HW216716   3.226   5.388   2.053
 5273SOL     OW16717   6.750   3.093   3.499
 5273SOL    HW116718   6.696   3.172   3.529
 5273SOL    HW216719   6.691   3.030   3.448
 5274SOL     OW16720   6.961   6.790   2.982
 5274SOL    HW116721   7.005   6.721   2.925
 5274SOL    HW216722   6.910   6.854   2.924
 5275SOL     OW16723   3.640   2.355   1.182
 5275SOL    HW116724   3.606   2.341   1.089
 5275SOL    HW216725   3.616   2.276   1.238
 5276SOL     OW16726   2.135   0.465   1.026
 5276SOL    HW116727   2.109   0.510   0.941
 5276SOL    HW216728   2.174   0.532   1.089
 5277SOL     OW16729   1.587   1.532   2.700
 5277SOL    HW116730   1.519   1.484   2.755
 5277SOL    HW216731   1.544   1.610   2.655
 5278SOL     OW16732   6.239   0.027   3.386
 5278SOL    HW116733   6.200   6.994   3.456
 5278SOL    HW216734   6.165   0.076   3.339
 5279SOL     OW16735   1.853   4.994   6.165
 5279SOL    HW116736   1.911   4.974   6.244
 5279SOL    HW216737   1.780   4.925   6.159
 5280SOL     OW16738   2.492   6.304   5.245
 5280SOL    HW116739   2.582   6.276   5.212
 5280SOL    HW216740   2.422   6.275   5.180
 5281SOL     OW16741   0.220   1.970   3.056
 5281SOL    HW116742   0.287   2.006   2.991
 5281SOL    HW216743   0.135   1.948   3.008
 5282SOL     OW16744   2.559   1.636   3.268
 5282SOL    HW116745   2.550   1.702   3.343
 5282SOL    HW216746   2.596   1.550   3.304
 5283SOL     OW16747   4.140   6.613   0.600
 5283SOL    HW116748   4.220   6.560   0.628
 5283SOL    HW216749   4.075   6.553   0.554
 5284SOL     OW16750   4.824   3.936   3.667
 5284SOL    HW116751   4.829   3.901   3.761
 5284SOL    HW216752   4.772   3.872   3.610
 5285SOL     OW16753   2.932   5.196   3.577
 5285SOL    HW116754   2.851   5.144   3.602
 5285SOL    HW216755   2.980   5.149   3.503
 5286SOL     OW16756   1.204   4.808   0.095
 5286SOL    HW116757   1.297   4.844   0.099
 5286SOL    HW216758   1.151   4.843   0.172
 5287SOL     OW16759   2.665   6.680   0.777
 5287SOL    HW116760   2.724   6.601   0.796
 5287SOL    HW216761   2.584   6.649   0.727
 5288SOL     OW16762   3.328   0.192   1.381
 5288SOL    HW116763   3.310   0.285   1.411
 5288SOL    HW216764   3.277   0.128   1.438
 5289SOL     OW16765   1.501   4.590   5.712
 5289SOL    HW116766   1.579   4.608   5.773
 5289SOL    HW216767   1.423   4.559   5.766
 5290SOL     OW16768   1.509   5.044   5.043
 5290SOL    HW116769   1.475   4.998   4.961
 5290SOL    HW216770   1.579   5.111   5.017
 5291SOL     OW16771   2.422   5.187   6.136
 5291SOL    HW116772   2.429   5.127   6.216
 5291SOL    HW216773   2.326   5.203   6.114
 5292SOL     OW16774   6.339   3.002   6.797
 5292SOL    HW116775   6.297   2.944   6.728
 5292SOL    HW216776   6.359   3.092   6.758
 5293SOL     OW16777   0.690   0.309   4.937
 5293SOL    HW116778   0.661   0.225   4.981
 5293SOL    HW216779   0.757   0.355   4.995
 5294SOL     OW16780   4.914   3.496   5.597
 5294SOL    HW116781   4.921   3.435   5.676
 5294SOL    HW216782   4.926   3.443   5.513
 5295SOL     OW16783   5.512   0.558   3.073
 5295SOL    HW116784   5.541   0.465   3.052
 5295SOL    HW216785   5.554   0.621   3.008
 5296SOL     OW16786   2.454   5.390   0.251
 5296SOL    HW116787   2.503   5.446   0.318
 5296SOL    HW216788   2.519   5.335   0.199
 5297SOL     OW16789   2.643   1.978   1.580
 5297SOL    HW116790   2.551   1.978   1.619
 5297SOL    HW216791   2.647   1.910   1.507
 5298SOL     OW16792   1.024   5.681   0.410
 5298SOL    HW116793   1.029   5.632   0.497
 5298SOL    HW216794   1.008   5.616   0.336
 5299SOL     OW16795   2.780   2.397   0.588
 5299SOL    HW116796   2.721   2.471   0.555
 5299SOL    HW216797   2.731   2.341   0.654
 5300SOL     OW16798   0.602   5.874   2.281
 5300SOL    HW116799   0.601   5.776   2.260
 5300SOL    HW216800   0.544   5.892   2.361
 5301SOL     OW16801   4.600   2.066   0.539
 5301SOL    HW116802   4.596   2.060   0.439
 5301SOL    HW216803   4.571   2.157   0.569
 5302SOL     OW16804   5.738   4.046   2.927
 5302SOL    HW116805   5.769   4.050   2.832
 5302SOL    HW216806   5.812   4.075   2.987
 5303SOL     OW16807   6.558   5.845   3.363
 5303SOL    HW116808   6.517   5.929   3.328
 5303SOL    HW216809   6.554   5.845   3.463
 5304SOL     OW16810   0.003   1.869   5.887
 5304SOL    HW116811   6.931   1.877   5.870
 5304SOL    HW216812   0.019   1.823   5.974
 5305SOL     OW16813   1.493   6.644   4.927
 5305SOL    HW116814   1.549   6.644   5.010
 5305SOL    HW216815   1.485   6.550   4.893
 5306SOL     OW16816   0.200   5.838   5.398
 5306SOL    HW116817   0.218   5.926   5.443
 5306SOL    HW216818   0.129   5.789   5.447
 5307SOL     OW16819   4.332   0.152   0.126
 5307SOL    HW116820   4.364   0.059   0.113
 5307SOL    HW216821   4.407   0.208   0.160
 5308SOL     OW16822   0.664   6.679   5.076
 5308SOL    HW116823   0.698   6.585   5.075
 5308SOL    HW216824   0.661   6.712   5.170
 5309SOL     OW16825   3.181   3.603   2.291
 5309SOL    HW116826   3.115   3.665   2.248
 5309SOL    HW216827   3.138   3.555   2.367
 5310SOL     OW16828   5.106   3.030   2.106
 5310SOL    HW116829   5.038   2.957   2.096
 5310SOL    HW216830   5.131   3.065   2.016
 5311SOL     OW16831   0.422   5.779   0.951
 5311SOL    HW116832   0.443   5.689   0.989
 5311SOL    HW216833   0.505   5.835   0.951
 5312SOL     OW16834   0.194   4.254   2.398
 5312SOL    HW116835   0.186   4.354   2.407
 5312SOL    HW216836   0.270   4.232   2.337
 5313SOL     OW16837   1.109   5.214   0.106
 5313SOL    HW116838   1.146   5.303   0.134
 5313SOL    HW216839   1.184   5.153   0.083
 5314SOL     OW16840   3.316   5.048   0.261
 5314SOL    HW116841   3.275   5.010   0.178
 5314SOL    HW216842   3.248   5.050   0.334
 5315SOL     OW16843   3.584   3.865   1.157
 5315SOL    HW116844   3.565   3.858   1.060
 5315SOL    HW216845   3.668   3.815   1.178
 5316SOL     OW16846   6.664   5.265   5.386
 5316SOL    HW116847   6.756   5.232   5.405
 5316SOL    HW216848   6.617   5.200   5.326
 5317SOL     OW16849   6.937   1.051   4.432
 5317SOL    HW116850   7.015   1.057   4.494
 5317SOL    HW216851   6.853   1.071   4.482
 5318SOL     OW16852   0.756   1.989   6.215
 5318SOL    HW116853   0.706   1.908   6.247
 5318SOL    HW216854   0.737   2.004   6.118
 5319SOL     OW16855   4.793   6.873   0.320
 5319SOL    HW116856   4.840   6.786   0.307
 5319SOL    HW216857   4.749   6.900   0.234
 5320SOL     OW16858   5.753   4.873   6.803
 5320SOL    HW116859   5.672   4.931   6.795
 5320SOL    HW216860   5.737   4.802   6.871
 5321SOL     OW16861   0.928   4.402   2.782
 5321SOL    HW116862   1.024   4.405   2.755
 5321SOL    HW216863   0.908   4.313   2.824
 5322SOL     OW16864   4.141   6.441   6.029
 5322SOL    HW116865   4.232   6.463   5.992
 5322SOL    HW216866   4.133   6.479   6.121
 5323SOL     OW16867   3.819   3.121   0.783
 5323SOL    HW116868   3.873   3.160   0.708
 5323SOL    HW216869   3.879   3.101   0.861
 5324SOL     OW16870   3.679   2.566   1.690
 5324SOL    HW116871   3.713   2.639   1.750
 5324SOL    HW216872   3.664   2.483   1.743
 5325SOL     OW16873   5.827   6.325   3.276
 5325SOL    HW116874   5.865   6.361   3.191
 5325SOL    HW216875   5.900   6.317   3.344
 5326SOL     OW16876   6.826   5.079   2.712
 5326SOL    HW116877   6.847   5.125   2.626
 5326SOL    HW216878   6.901   5.093   2.777
 5327SOL     OW16879   0.090   5.109   5.628
 5327SOL    HW116880   0.183   5.145   5.636
 5327SOL    HW216881   0.024   5.184   5.633
 5328SOL     OW16882   4.272   3.085   5.821
 5328SOL    HW116883   4.291   3.160   5.757
 5328SOL    HW216884   4.174   3.069   5.826
 5329SOL     OW16885   0.055   4.113   6.675
 5329SOL    HW116886   0.025   4.032   6.626
 5329SOL    HW216887   0.155   4.114   6.681
 5330SOL     OW16888   3.129   4.817   6.452
 5330SOL    HW116889   3.103   4.728   6.489
 5330SOL    HW216890   3.227   4.831   6.464
 5331SOL     OW16891   5.403   1.522   1.417
 5331SOL    HW116892   5.467   1.529   1.339
 5331SOL    HW216893   5.410   1.604   1.473
 5332SOL     OW16894   6.710   4.321   0.394
 5332SOL    HW116895   6.712   4.222   0.408
 5332SOL    HW216896   6.615   4.353   0.391
 5333SOL     OW16897   1.048   0.705   3.577
 5333SOL    HW116898   1.091   0.619   3.546
 5333SOL    HW216899   1.002   0.690   3.664
 5334SOL     OW16900   3.671   4.928   5.673
 5334SOL    HW116901   3.627   4.883   5.596
 5334SOL    HW216902   3.603   4.953   5.742
 5335SOL     OW16903   0.389   5.133   2.218
 5335SOL    HW116904   0.412   5.131   2.315
 5335SOL    HW216905   0.456   5.189   2.169
 5336SOL     OW16906   1.994   2.062   3.696
 5336SOL    HW116907   2.028   2.146   3.738
 5336SOL    HW216908   1.961   2.081   3.604
 5337SOL     OW16909   5.673   4.535   1.512
 5337SOL    HW116910   5.702   4.503   1.602
 5337SOL    HW216911   5.586   4.492   1.489
 5338SOL     OW16912   5.261   0.963   6.385
 5338SOL    HW116913   5.179   0.941   6.437
 5338SOL    HW216914   5.264   0.907   6.302
 5339SOL     OW16915   5.576   1.212   3.177
 5339SOL    HW116916   5.658   1.263   3.150
 5339SOL    HW216917   5.577   1.198   3.276
 5340SOL     OW16918   6.092   3.946   1.227
 5340SOL    HW116919   6.074   3.849   1.212
 5340SOL    HW216920   6.024   3.984   1.290
 5341SOL     OW16921   2.879   5.172   5.051
 5341SOL    HW116922   2.845   5.126   4.969
 5341SOL    HW216923   2.972   5.141   5.071
 5342SOL     OW16924   5.308   6.290   4.726
 5342SOL    HW116925   5.225   6.241   4.700
 5342SOL    HW216926   5.292   6.388   4.723
 5343SOL     OW16927   3.841   3.464   4.391
 5343SOL    HW116928   3.772   3.394   4.372
 5343SOL    HW216929   3.816   3.513   4.474
 5344SOL     OW16930   0.582   1.756   0.539
 5344SOL    HW116931   0.536   1.752   0.451
 5344SOL    HW216932   0.665   1.700   0.536
 5345SOL     OW16933   4.817   0.944   0.134
 5345SOL    HW116934   4.838   0.922   0.039
 5345SOL    HW216935   4.869   1.026   0.161
 5346SOL     OW16936   2.902   5.454   4.178
 5346SOL    HW116937   2.963   5.377   4.157
 5346SOL    HW216938   2.954   5.539   4.178
 5347SOL     OW16939   6.644   4.038   3.169
 5347SOL    HW116940   6.645   3.996   3.078
 5347SOL    HW216941   6.616   4.134   3.161
 5348SOL     OW16942   0.546   1.476   6.358
 5348SOL    HW116943   0.550   1.576   6.362
 5348SOL    HW216944   0.463   1.448   6.310
 5349SOL     OW16945   2.621   3.081   0.986
 5349SOL    HW116946   2.709   3.057   1.027
 5349SOL    HW216947   2.550   3.020   1.021
 5350SOL     OW16948   2.723   6.806   5.341
 5350SOL    HW116949   2.660   6.731   5.365
 5350SOL    HW216950   2.692   6.891   5.383
 5351SOL     OW16951   0.393   5.492   2.240
 5351SOL    HW116952   0.441   5.468   2.325
 5351SOL    HW216953   0.456   5.484   2.163
 5352SOL     OW16954   2.332   4.813   3.157
 5352SOL    HW116955   2.308   4.809   3.254
 5352SOL    HW216956   2.333   4.908   3.126
 5353SOL     OW16957   3.790   5.915   4.107
 5353SOL    HW116958   3.705   5.910   4.054
 5353SOL    HW216959   3.809   5.825   4.148
 5354SOL     OW16960   2.028   4.961   0.724
 5354SOL    HW116961   1.978   4.968   0.810
 5354SOL    HW216962   2.114   5.013   0.731
 5355SOL     OW16963   6.297   5.051   4.211
 5355SOL    HW116964   6.361   4.977   4.231
 5355SOL    HW216965   6.206   5.027   4.244
 5356SOL     OW16966   6.502   3.626   2.449
 5356SOL    HW116967   6.431   3.563   2.481
 5356SOL    HW216968   6.460   3.698   2.393
 5357SOL     OW16969   3.777   4.358   0.775
 5357SOL    HW116970   3.849   4.354   0.706
 5357SOL    HW216971   3.787   4.283   0.840
 5358SOL     OW16972   4.801   2.369   1.177
 5358SOL    HW116973   4.890   2.327   1.157
 5358SOL    HW216974   4.812   2.436   1.250
 5359SOL     OW16975   2.293   2.030   6.081
 5359SOL    HW116976   2.287   2.103   6.149
 5359SOL    HW216977   2.326   1.946   6.124
 5360SOL     OW16978   5.277   6.210   3.853
 5360SOL    HW116979   5.228   6.277   3.798
 5360SOL    HW216980   5.374   6.235   3.858
 5361SOL     OW16981   2.076   6.351   4.200
 5361SOL    HW116982   1.998   6.344   4.138
 5361SOL    HW216983   2.073   6.276   4.266
 5362SOL     OW16984   6.600   5.703   2.499
 5362SOL    HW116985   6.599   5.740   2.591
 5362SOL    HW216986   6.538   5.625   2.493
 5363SOL     OW16987   5.188   6.432   5.744
 5363SOL    HW116988   5.254   6.434   5.819
 5363SOL    HW216989   5.101   6.471   5.774
 5364SOL     OW16990   6.033   6.778   1.655
 5364SOL    HW116991   6.018   6.877   1.652
 5364SOL    HW216992   6.083   6.755   1.738
 5365SOL     OW16993   3.057   3.033   2.123
 5365SOL    HW116994   2.965   3.048   2.087
 5365SOL    HW216995   3.116   2.997   2.052
 5366SOL     OW16996   0.027   6.612   2.401
 5366SOL    HW116997   7.025   6.643   2.310
 5366SOL    HW216998   0.108   6.663   2.430
 5367SOL     OW16999   0.174   6.726   1.294
 5367SOL    HW117000   0.114   6.806   1.294
 5367SOL    HW217001   0.143   6.661   1.226
 5368SOL     OW17002   6.590   6.930   2.622
 5368SOL    HW117003   6.627   7.007   2.570
 5368SOL    HW217004   6.494   6.947   2.643
 5369SOL     OW17005   3.303   6.352   1.060
 5369SOL    HW117006   3.346   6.292   0.994
 5369SOL    HW217007   3.234   6.302   1.111
 5370SOL     OW17008   3.976   3.782   1.226
 5370SOL    HW117009   4.059   3.752   1.180
 5370SOL    HW217010   3.898   3.730   1.191
 5371SOL     OW17011   6.902   4.930   5.424
 5371SOL    HW117012   6.945   4.890   5.505
 5371SOL    HW217013   6.897   5.030   5.435
 5372SOL     OW17014   1.051   6.124   2.879
 5372SOL    HW117015   1.058   6.058   2.955
 5372SOL    HW217016   1.110   6.202   2.898
 5373SOL     OW17017   4.225   6.914   5.390
 5373SOL    HW117018   4.235   6.979   5.466
 5373SOL    HW217019   4.168   6.838   5.418
 5374SOL     OW17020   2.121   4.656   0.801
 5374SOL    HW117021   2.058   4.730   0.828
 5374SOL    HW217022   2.132   4.592   0.877
 5375SOL     OW17023   0.379   5.740   5.934
 5375SOL    HW117024   0.289   5.745   5.890
 5375SOL    HW217025   0.407   5.644   5.941
 5376SOL     OW17026   1.204   2.218   1.447
 5376SOL    HW117027   1.284   2.222   1.507
 5376SOL    HW217028   1.217   2.280   1.370
 5377SOL     OW17029   1.219   0.349   2.835
 5377SOL    HW117030   1.209   0.265   2.888
 5377SOL    HW217031   1.153   0.417   2.869
 5378SOL     OW17032   6.817   0.171   2.305
 5378SOL    HW117033   6.852   0.103   2.239
 5378SOL    HW217034   6.771   0.244   2.256
 5379SOL     OW17035   1.184   3.349   5.055
 5379SOL    HW117036   1.262   3.334   4.994
 5379SOL    HW217037   1.162   3.446   5.058
 5380SOL     OW17038   2.599   6.712   1.248
 5380SOL    HW117039   2.682   6.673   1.210
 5380SOL    HW217040   2.590   6.808   1.221
 5381SOL     OW17041   6.884   6.020   2.136
 5381SOL    HW117042   6.925   5.931   2.152
 5381SOL    HW217043   6.834   6.019   2.049
 5382SOL     OW17044   2.994   2.246   2.461
 5382SOL    HW117045   3.004   2.250   2.362
 5382SOL    HW217046   2.897   2.256   2.485
 5383SOL     OW17047   1.321   2.657   4.583
 5383SOL    HW117048   1.239   2.708   4.557
 5383SOL    HW217049   1.399   2.688   4.527
 5384SOL     OW17050   4.711   5.950   4.972
 5384SOL    HW117051   4.613   5.933   4.968
 5384SOL    HW217052   4.759   5.867   4.999
 5385SOL     OW17053   5.002   3.033   5.521
 5385SOL    HW117054   5.024   3.122   5.481
 5385SOL    HW217055   5.082   2.973   5.515
 5386SOL     OW17056   5.741   1.115   4.227
 5386SOL    HW117057   5.735   1.191   4.291
 5386SOL    HW217058   5.737   1.029   4.278
 5387SOL     OW17059   2.397   6.137   3.246
 5387SOL    HW117060   2.468   6.108   3.309
 5387SOL    HW217061   2.337   6.203   3.291
 5388SOL     OW17062   1.519   6.803   2.744
 5388SOL    HW117063   1.587   6.877   2.745
 5388SOL    HW217064   1.446   6.825   2.680
 5389SOL     OW17065   3.695   1.759   4.584
 5389SOL    HW117066   3.711   1.701   4.664
 5389SOL    HW217067   3.699   1.855   4.610
 5390SOL     OW17068   5.489   4.408   3.465
 5390SOL    HW117069   5.440   4.415   3.552
 5390SOL    HW217070   5.487   4.497   3.419
 5391SOL     OW17071   2.483   1.678   6.891
 5391SOL    HW117072   2.429   1.603   6.850
 5391SOL    HW217073   2.422   1.739   6.942
 5392SOL     OW17074   5.428   4.240   1.188
 5392SOL    HW117075   5.449   4.196   1.276
 5392SOL    HW217076   5.446   4.176   1.114
 5393SOL     OW17077   4.919   1.040   5.030
 5393SOL    HW117078   4.861   1.100   5.085
 5393SOL    HW217079   4.959   1.091   4.954
 5394SOL     OW17080   0.793   5.606   1.037
 5394SOL    HW117081   0.851   5.642   1.110
 5394SOL    HW217082   0.723   5.674   1.014
 5395SOL     OW17083   5.156   0.635   1.512
 5395SOL    HW117084   5.251   0.667   1.513
 5395SOL    HW217085   5.148   0.554   1.454
 5396SOL     OW17086   5.168   5.306   1.993
 5396SOL    HW117087   5.138   5.212   2.005
 5396SOL    HW217088   5.213   5.339   2.076
 5397SOL     OW17089   0.258   1.928   2.241
 5397SOL    HW117090   0.176   1.980   2.264
 5397SOL    HW217091   0.300   1.892   2.324
 5398SOL     OW17092   2.548   1.969   3.748
 5398SOL    HW117093   2.645   1.960   3.771
 5398SOL    HW217094   2.531   2.060   3.709
 5399SOL     OW17095   2.930   6.858   6.486
 5399SOL    HW117096   2.905   6.837   6.580
 5399SOL    HW217097   2.959   6.774   6.440
 5400SOL     OW17098   2.845   3.351   0.496
 5400SOL    HW117099   2.868   3.262   0.535
 5400SOL    HW217100   2.904   3.369   0.417
 5401SOL     OW17101   5.431   4.006   2.231
 5401SOL    HW117102   5.506   3.948   2.199
 5401SOL    HW217103   5.379   4.039   2.153
 5402SOL     OW17104   2.509   6.964   1.170
 5402SOL    HW117105   2.552   0.026   1.192
 5402SOL    HW217106   2.413   6.978   1.147
 5403SOL     OW17107   5.167   3.669   6.204
 5403SOL    HW117108   5.163   3.576   6.167
 5403SOL    HW217109   5.183   3.734   6.129
 5404SOL     OW17110   0.835   7.013   1.427
 5404SOL    HW117111   0.870   6.924   1.396
 5404SOL    HW217112   0.743   7.001   1.464
 5405SOL     OW17113   6.415   4.715   0.060
 5405SOL    HW117114   6.352   4.670   0.123
 5405SOL    HW217115   6.388   4.811   0.049
 5406SOL     OW17116   2.307   1.020   5.110
 5406SOL    HW117117   2.280   1.051   5.201
 5406SOL    HW217118   2.343   1.097   5.057
 5407SOL     OW17119   3.392   1.736   0.873
 5407SOL    HW117120   3.379   1.822   0.824
 5407SOL    HW217121   3.304   1.692   0.889
 5408SOL     OW17122   4.189   1.064   5.017
 5408SOL    HW117123   4.226   1.133   4.954
 5408SOL    HW217124   4.106   1.100   5.060
 5409SOL     OW17125   6.147   0.935   2.724
 5409SOL    HW117126   6.148   1.015   2.665
 5409SOL    HW217127   6.175   0.961   2.817
 5410SOL     OW17128   0.985   2.356   6.897
 5410SOL    HW117129   1.055   2.369   6.827
 5410SOL    HW217130   1.017   2.394   6.984
 5411SOL     OW17131   4.878   4.958   6.454
 5411SOL    HW117132   4.843   5.050   6.435
 5411SOL    HW217133   4.947   4.934   6.385
 5412SOL     OW17134   2.537   1.036   6.384
 5412SOL    HW117135   2.468   1.025   6.456
 5412SOL    HW217136   2.542   1.132   6.356
 5413SOL     OW17137   0.401   0.080   6.851
 5413SOL    HW117138   0.408   0.031   6.938
 5413SOL    HW217139   0.387   0.015   6.777
 5414SOL     OW17140   6.360   4.868   4.911
 5414SOL    HW117141   6.276   4.882   4.964
 5414SOL    HW217142   6.440   4.887   4.968
 5415SOL     OW17143   2.883   6.237   0.984
 5415SOL    HW117144   2.957   6.283   1.032
 5415SOL    HW217145   2.918   6.153   0.943
 5416SOL     OW17146   2.589   4.832   5.015
 5416SOL    HW117147   2.501   4.788   5.001
 5416SOL    HW217148   2.663   4.766   4.995
 5417SOL     OW17149   4.042   0.050   5.001
 5417SOL    HW117150   4.019   0.099   4.918
 5417SOL    HW217151   3.981   0.080   5.075
 5418SOL     OW17152   5.493   5.748   5.249
 5418SOL    HW117153   5.522   5.826   5.194
 5418SOL    HW217154   5.539   5.666   5.217
 5419SOL     OW17155   3.853   5.922   0.595
 5419SOL    HW117156   3.945   5.892   0.570
 5419SOL    HW217157   3.792   5.912   0.516
 5420SOL     OW17158   1.986   2.371   1.172
 5420SOL    HW117159   1.938   2.457   1.156
 5420SOL    HW217160   2.076   2.374   1.127
 5421SOL     OW17161   3.265   5.141   1.141
 5421SOL    HW117162   3.311   5.074   1.199
 5421SOL    HW217163   3.186   5.179   1.189
 5422SOL     OW17164   1.446   4.968   4.787
 5422SOL    HW117165   1.476   5.043   4.728
 5422SOL    HW217166   1.351   4.944   4.764
 5423SOL     OW17167   5.358   5.039   0.280
 5423SOL    HW117168   5.296   5.111   0.250
 5423SOL    HW217169   5.350   5.027   0.379
 5424SOL     OW17170   5.569   3.876   4.524
 5424SOL    HW117171   5.625   3.897   4.604
 5424SOL    HW217172   5.529   3.785   4.536
 5425SOL     OW17173   6.354   2.475   4.630
 5425SOL    HW117174   6.263   2.458   4.593
 5425SOL    HW217175   6.365   2.573   4.648
 5426SOL     OW17176   5.016   5.502   2.203
 5426SOL    HW117177   5.046   5.535   2.113
 5426SOL    HW217178   5.050   5.409   2.216
 5427SOL     OW17179   5.479   3.141   0.143
 5427SOL    HW117180   5.420   3.069   0.108
 5427SOL    HW217181   5.491   3.212   0.074
 5428SOL     OW17182   5.315   6.369   1.814
 5428SOL    HW117183   5.369   6.453   1.811
 5428SOL    HW217184   5.228   6.383   1.767
 5429SOL     OW17185   2.056   0.049   5.039
 5429SOL    HW117186   2.132   0.038   5.104
 5429SOL    HW217187   2.081   0.009   4.951
 5430SOL     OW17188   1.826   2.856   4.722
 5430SOL    HW117189   1.784   2.768   4.699
 5430SOL    HW217190   1.760   2.930   4.707
 5431SOL     OW17191   2.927   3.908   6.555
 5431SOL    HW117192   3.016   3.945   6.581
 5431SOL    HW217193   2.867   3.908   6.634
 5432SOL     OW17194   3.951   5.259   6.338
 5432SOL    HW117195   3.996   5.319   6.272
 5432SOL    HW217196   3.947   5.305   6.427
 5433SOL     OW17197   0.711   0.090   1.158
 5433SOL    HW117198   0.753   7.026   1.166
 5433SOL    HW217199   0.765   0.147   1.097
 5434SOL     OW17200   4.237   1.139   4.643
 5434SOL    HW117201   4.191   1.072   4.586
 5434SOL    HW217202   4.335   1.139   4.622
 5435SOL     OW17203   6.279   3.920   0.602
 5435SOL    HW117204   6.317   3.985   0.667
 5435SOL    HW217205   6.321   3.934   0.513
 5436SOL     OW17206   6.399   4.186   4.138
 5436SOL    HW117207   6.352   4.097   4.141
 5436SOL    HW217208   6.331   4.259   4.133
 5437SOL     OW17209   3.150   5.135   5.131
 5437SOL    HW117210   3.197   5.219   5.104
 5437SOL    HW217211   3.214   5.058   5.129
 5438SOL     OW17212   5.093   4.392   1.809
 5438SOL    HW117213   5.095   4.461   1.737
 5438SOL    HW217214   5.185   4.352   1.820
 5439SOL     OW17215   0.346   3.623   6.735
 5439SOL    HW117216   0.434   3.671   6.731
 5439SOL    HW217217   0.284   3.673   6.795
 5440SOL     OW17218   6.468   6.643   3.894
 5440SOL    HW117219   6.459   6.552   3.932
 5440SOL    HW217220   6.552   6.686   3.928
 5441SOL     OW17221   5.247   3.574   3.392
 5441SOL    HW117222   5.313   3.572   3.466
 5441SOL    HW217223   5.170   3.512   3.414
 5442SOL     OW17224   4.204   6.916   3.735
 5442SOL    HW117225   4.139   6.848   3.769
 5442SOL    HW217226   4.238   6.971   3.812
 5443SOL     OW17227   4.708   5.930   3.871
 5443SOL    HW117228   4.649   5.963   3.945
 5443SOL    HW217229   4.772   6.002   3.845
 5444SOL     OW17230   0.044   1.021   3.822
 5444SOL    HW117231   0.039   1.080   3.742
 5444SOL    HW217232   0.071   0.929   3.794
 5445SOL     OW17233   6.081   4.299   3.500
 5445SOL    HW117234   5.995   4.270   3.541
 5445SOL    HW217235   6.064   4.334   3.408
 5446SOL     OW17236   5.994   5.335   4.553
 5446SOL    HW117237   5.940   5.311   4.472
 5446SOL    HW217238   5.991   5.434   4.566
 5447SOL     OW17239   1.521   1.368   0.801
 5447SOL    HW117240   1.507   1.278   0.843
 5447SOL    HW217241   1.608   1.368   0.752
 5448SOL     OW17242   4.335   4.896   4.073
 5448SOL    HW117243   4.297   4.834   4.004
 5448SOL    HW217244   4.296   4.873   4.162
 5449SOL     OW17245   1.791   1.066   0.952
 5449SOL    HW117246   1.795   1.165   0.933
 5449SOL    HW217247   1.767   1.017   0.868
 5450SOL     OW17248   3.300   0.023   0.946
 5450SOL    HW117249   3.216   6.995   0.951
 5450SOL    HW217250   3.277   0.118   0.926
 5451SOL     OW17251   1.884   5.745   3.415
 5451SOL    HW117252   1.897   5.790   3.504
 5451SOL    HW217253   1.894   5.814   3.342
 5452SOL     OW17254   2.644   4.311   1.010
 5452SOL    HW117255   2.738   4.340   1.031
 5452SOL    HW217256   2.633   4.301   0.911
 5453SOL     OW17257   5.392   3.610   2.054
 5453SOL    HW117258   5.329   3.659   2.114
 5453SOL    HW217259   5.412   3.521   2.093
 5454SOL     OW17260   5.635   5.733   1.062
 5454SOL    HW117261   5.590   5.695   0.982
 5454SOL    HW217262   5.620   5.673   1.141
 5455SOL     OW17263   0.299   2.252   3.719
 5455SOL    HW117264   0.208   2.287   3.699
 5455SOL    HW217265   0.311   2.247   3.818
 5456SOL     OW17266   3.386   1.686   6.546
 5456SOL    HW117267   3.343   1.777   6.551
 5456SOL    HW217268   3.479   1.692   6.582
 5457SOL     OW17269   6.570   2.239   1.397
 5457SOL    HW117270   6.528   2.180   1.329
 5457SOL    HW217271   6.653   2.195   1.432
 5458SOL     OW17272   6.877   5.003   0.827
 5458SOL    HW117273   6.935   5.033   0.902
 5458SOL    HW217274   6.884   4.904   0.816
 5459SOL     OW17275   1.998   4.997   5.353
 5459SOL    HW117276   2.078   4.938   5.350
 5459SOL    HW217277   1.945   4.987   5.269
 5460SOL     OW17278   2.953   6.955   2.177
 5460SOL    HW117279   2.900   7.009   2.112
 5460SOL    HW217280   3.041   6.930   2.135
 5461SOL     OW17281   0.994   0.631   4.511
 5461SOL    HW117282   1.025   0.598   4.601
 5461SOL    HW217283   1.064   0.692   4.473
 5462SOL     OW17284   5.360   6.208   6.922
 5462SOL    HW117285   5.313   6.119   6.924
 5462SOL    HW217286   5.380   6.233   6.827
 5463SOL     OW17287   0.249   1.988   0.353
 5463SOL    HW117288   0.310   2.030   0.420
 5463SOL    HW217289   0.294   1.984   0.264
 5464SOL     OW17290   5.907   5.960   4.715
 5464SOL    HW117291   5.856   6.031   4.668
 5464SOL    HW217292   5.845   5.907   4.774
 5465SOL     OW17293   6.497   0.545   3.383
 5465SOL    HW117294   6.551   0.490   3.319
 5465SOL    HW217295   6.422   0.589   3.335
 5466SOL     OW17296   5.575   2.809   5.848
 5466SOL    HW117297   5.485   2.823   5.889
 5466SOL    HW217298   5.634   2.761   5.913
 5467SOL     OW17299   5.936   3.444   3.188
 5467SOL    HW117300   6.023   3.484   3.217
 5467SOL    HW217301   5.950   3.390   3.105
 5468SOL     OW17302   0.119   2.233   4.394
 5468SOL    HW117303   0.057   2.230   4.472
 5468SOL    HW217304   0.109   2.322   4.348
 5469SOL     OW17305   3.035   5.890   5.428
 5469SOL    HW117306   3.116   5.836   5.450
 5469SOL    HW217307   2.960   5.828   5.404
 5470SOL     OW17308   3.935   5.230   4.093
 5470SOL    HW117309   4.023   5.227   4.046
 5470SOL    HW217310   3.950   5.221   4.192
 5471SOL     OW17311   5.992   0.377   2.780
 5471SOL    HW117312   6.010   0.429   2.864
 5471SOL    HW217313   6.020   0.431   2.701
 5472SOL     OW17314   2.843   3.652   6.883
 5472SOL    HW117315   2.846   3.621   6.978
 5472SOL    HW217316   2.932   3.691   6.858
 5473SOL     OW17317   1.254   3.646   0.316
 5473SOL    HW117318   1.222   3.618   0.407
 5473SOL    HW217319   1.299   3.735   0.323
 5474SOL     OW17320   0.569   4.983   4.577
 5474SOL    HW117321   0.526   5.018   4.661
 5474SOL    HW217322   0.592   4.886   4.589
 5475SOL     OW17323   1.917   2.238   0.489
 5475SOL    HW117324   1.832   2.185   0.492
 5475SOL    HW217325   1.910   2.314   0.554
 5476SOL     OW17326   2.421   4.444   4.924
 5476SOL    HW117327   2.465   4.465   5.011
 5476SOL    HW217328   2.488   4.451   4.851
 5477SOL     OW17329   2.135   3.853   3.235
 5477SOL    HW117330   2.183   3.901   3.308
 5477SOL    HW217331   2.044   3.893   3.222
 5478SOL     OW17332   4.708   6.897   5.367
 5478SOL    HW117333   4.782   6.871   5.428
 5478SOL    HW217334   4.621   6.864   5.404
 5479SOL     OW17335   5.284   2.042   4.791
 5479SOL    HW117336   5.253   2.028   4.697
 5479SOL    HW217337   5.234   2.117   4.833
 5480SOL     OW17338   5.113   5.215   4.617
 5480SOL    HW117339   5.133   5.160   4.698
 5480SOL    HW217340   5.199   5.245   4.575
 5481SOL     OW17341   4.612   2.056   4.750
 5481SOL    HW117342   4.546   2.131   4.737
 5481SOL    HW217343   4.596   1.985   4.682
 5482SOL     OW17344   3.489   3.675   1.999
 5482SOL    HW117345   3.424   3.620   1.947
 5482SOL    HW217346   3.443   3.712   2.080
 5483SOL     OW17347   0.750   1.889   5.433
 5483SOL    HW117348   0.837   1.858   5.395
 5483SOL    HW217349   0.761   1.982   5.470
 5484SOL     OW17350   5.159   0.347   4.368
 5484SOL    HW117351   5.133   0.287   4.445
 5484SOL    HW217352   5.245   0.393   4.390
 5485SOL     OW17353   3.232   6.884   5.112
 5485SOL    HW117354   3.196   6.953   5.175
 5485SOL    HW217355   3.287   6.929   5.041
 5486SOL     OW17356   1.811   5.535   4.747
 5486SOL    HW117357   1.821   5.573   4.655
 5486SOL    HW217358   1.740   5.586   4.796
 5487SOL     OW17359   4.969   2.943   6.771
 5487SOL    HW117360   4.990   3.041   6.775
 5487SOL    HW217361   5.052   2.893   6.745
 5488SOL     OW17362   5.215   1.034   0.768
 5488SOL    HW117363   5.291   0.983   0.727
 5488SOL    HW217364   5.250   1.095   0.839
 5489SOL     OW17365   1.448   5.376   0.875
 5489SOL    HW117366   1.420   5.290   0.918
 5489SOL    HW217367   1.368   5.435   0.862
 5490SOL     OW17368   3.526   0.111   0.309
 5490SOL    HW117369   3.609   0.078   0.355
 5490SOL    HW217370   3.462   0.145   0.377
 5491SOL     OW17371   1.855   4.407   0.322
 5491SOL    HW117372   1.883   4.311   0.329
 5491SOL    HW217373   1.929   4.465   0.356
 5492SOL     OW17374   0.812   1.971   6.584
 5492SOL    HW117375   0.898   1.990   6.537
 5492SOL    HW217376   0.738   2.022   6.540
 5493SOL     OW17377   4.090   3.637   3.700
 5493SOL    HW117378   4.097   3.582   3.616
 5493SOL    HW217379   4.149   3.717   3.692
 5494SOL     OW17380   6.909   2.896   6.356
 5494SOL    HW117381   6.989   2.856   6.312
 5494SOL    HW217382   6.936   2.977   6.408
 5495SOL     OW17383   3.703   2.489   1.435
 5495SOL    HW117384   3.678   2.392   1.424
 5495SOL    HW217385   3.692   2.516   1.530
 5496SOL     OW17386   2.391   0.480   3.419
 5496SOL    HW117387   2.482   0.455   3.385
 5496SOL    HW217388   2.330   0.500   3.343
 5497SOL     OW17389   0.385   1.834   4.082
 5497SOL    HW117390   0.471   1.858   4.128
 5497SOL    HW217391   0.405   1.777   4.002
 5498SOL     OW17392   5.304   6.576   1.501
 5498SOL    HW117393   5.356   6.555   1.419
 5498SOL    HW217394   5.363   6.573   1.582
 5499SOL     OW17395   0.078   1.316   3.907
 5499SOL    HW117396   0.036   1.291   3.820
 5499SOL    HW217397   0.086   1.234   3.965
 5500SOL     OW17398   1.670   0.091   0.719
 5500SOL    HW117399   1.691   7.023   0.693
 5500SOL    HW217400   1.709   0.154   0.652
 5501SOL     OW17401   4.184   6.979   0.419
 5501SOL    HW117402   4.194   6.969   0.320
 5501SOL    HW217403   4.154   6.893   0.459
 5502SOL     OW17404   5.917   3.440   6.883
 5502SOL    HW117405   5.836   3.403   6.838
 5502SOL    HW217406   5.896   3.457   6.980
 5503SOL     OW17407   6.850   5.403   2.966
 5503SOL    HW117408   6.776   5.391   2.900
 5503SOL    HW217409   6.882   5.497   2.964
 5504SOL     OW17410   4.206   1.284   4.862
 5504SOL    HW117411   4.134   1.350   4.838
 5504SOL    HW217412   4.226   1.227   4.783
 5505SOL     OW17413   1.733   5.672   4.513
 5505SOL    HW117414   1.654   5.703   4.567
 5505SOL    HW217415   1.811   5.731   4.531
 5506SOL     OW17416   1.361   1.590   6.350
 5506SOL    HW117417   1.289   1.555   6.410
 5506SOL    HW217418   1.345   1.557   6.256
 5507SOL     OW17419   2.577   0.137   3.920
 5507SOL    HW117420   2.570   0.091   4.009
 5507SOL    HW217421   2.602   0.233   3.934
 5508SOL     OW17422   2.183   0.574   6.516
 5508SOL    HW117423   2.103   0.634   6.514
 5508SOL    HW217424   2.211   0.552   6.423
 5509SOL     OW17425   0.551   6.367   0.619
 5509SOL    HW117426   0.611   6.345   0.541
 5509SOL    HW217427   0.496   6.447   0.598
 5510SOL     OW17428   4.500   6.046   0.781
 5510SOL    HW117429   4.531   6.140   0.771
 5510SOL    HW217430   4.562   5.997   0.842
 5511SOL     OW17431   2.391   0.667   4.520
 5511SOL    HW117432   2.356   0.576   4.541
 5511SOL    HW217433   2.419   0.671   4.424
 5512SOL     OW17434   5.883   2.037   1.849
 5512SOL    HW117435   5.968   2.080   1.879
 5512SOL    HW217436   5.812   2.106   1.840
 5513SOL     OW17437   4.343   4.724   6.323
 5513SOL    HW117438   4.434   4.757   6.351
 5513SOL    HW217439   4.277   4.798   6.331
 5514SOL     OW17440   4.701   6.536   3.274
 5514SOL    HW117441   4.681   6.500   3.365
 5514SOL    HW217442   4.789   6.502   3.244
 5515SOL     OW17443   0.318   4.596   1.410
 5515SOL    HW117444   0.307   4.498   1.390
 5515SOL    HW217445   0.286   4.615   1.503
 5516SOL     OW17446   1.018   3.531   6.027
 5516SOL    HW117447   1.019   3.614   6.083
 5516SOL    HW217448   0.951   3.467   6.064
 5517SOL     OW17449   2.111   3.272   2.131
 5517SOL    HW117450   2.149   3.340   2.069
 5517SOL    HW217451   2.120   3.304   2.226
 5518SOL     OW17452   6.178   6.848   6.804
 5518SOL    HW117453   6.190   6.845   6.705
 5518SOL    HW217454   6.090   6.808   6.828
 5519SOL     OW17455   5.298   3.205   3.292
 5519SOL    HW117456   5.331   3.112   3.303
 5519SOL    HW217457   5.243   3.211   3.209
 5520SOL     OW17458   6.789   6.015   1.890
 5520SOL    HW117459   6.798   6.063   1.803
 5520SOL    HW217460   6.692   6.011   1.915
 5521SOL     OW17461   4.970   6.886   1.798
 5521SOL    HW117462   4.974   6.896   1.699
 5521SOL    HW217463   4.954   6.976   1.840
 5522SOL     OW17464   6.715   5.219   0.941
 5522SOL    HW117465   6.738   5.129   0.904
 5522SOL    HW217466   6.689   5.281   0.867
 5523SOL     OW17467   4.030   0.168   2.323
 5523SOL    HW117468   3.976   0.110   2.383
 5523SOL    HW217469   4.011   0.264   2.344
 5524SOL     OW17470   5.232   5.199   5.004
 5524SOL    HW117471   5.165   5.270   5.023
 5524SOL    HW217472   5.188   5.121   4.960
 5525SOL     OW17473   0.122   2.940   0.156
 5525SOL    HW117474   0.111   2.864   0.093
 5525SOL    HW217475   0.126   2.906   0.250
 5526SOL     OW17476   4.830   4.731   4.594
 5526SOL    HW117477   4.838   4.831   4.597
 5526SOL    HW217478   4.770   4.700   4.667
 5527SOL     OW17479   6.404   3.887   4.389
 5527SOL    HW117480   6.314   3.870   4.429
 5527SOL    HW217481   6.425   3.985   4.395
 5528SOL     OW17482   1.408   1.754   6.984
 5528SOL    HW117483   1.482   1.741   6.919
 5528SOL    HW217484   1.321   1.726   6.942
 5529SOL     OW17485   2.324   0.322   3.661
 5529SOL    HW117486   2.324   0.323   3.561
 5529SOL    HW217487   2.300   0.231   3.694
 5530SOL     OW17488   6.358   2.087   2.522
 5530SOL    HW117489   6.382   1.992   2.545
 5530SOL    HW217490   6.262   2.103   2.543
 5531SOL     OW17491   3.882   2.976   2.280
 5531SOL    HW117492   3.892   2.877   2.282
 5531SOL    HW217493   3.857   3.010   2.371
 5532SOL     OW17494   1.627   2.665   0.724
 5532SOL    HW117495   1.560   2.708   0.664
 5532SOL    HW217496   1.658   2.732   0.792
 5533SOL     OW17497   3.446   1.026   3.114
 5533SOL    HW117498   3.354   0.992   3.132
 5533SOL    HW217499   3.513   0.962   3.153
 5534SOL     OW17500   1.103   1.857   6.069
 5534SOL    HW117501   1.134   1.931   6.010
 5534SOL    HW217502   1.004   1.847   6.060
 5535SOL     OW17503   0.416   3.364   3.487
 5535SOL    HW117504   0.500   3.366   3.542
 5535SOL    HW217505   0.391   3.269   3.468
 5536SOL     OW17506   2.863   0.948   4.247
 5536SOL    HW117507   2.796   0.958   4.174
 5536SOL    HW217508   2.949   0.911   4.209
 5537SOL     OW17509   2.966   0.662   2.930
 5537SOL    HW117510   3.019   0.653   3.014
 5537SOL    HW217511   2.981   0.752   2.889
 5538SOL     OW17512   3.015   7.024   5.275
 5538SOL    HW117513   2.921   0.008   5.244
 5538SOL    HW217514   3.057   0.088   5.284
 5539SOL     OW17515   1.135   3.571   0.571
 5539SOL    HW117516   1.197   3.498   0.600
 5539SOL    HW217517   1.064   3.584   0.641
 5540SOL     OW17518   5.815   3.660   3.581
 5540SOL    HW117519   5.908   3.626   3.598
 5540SOL    HW217520   5.773   3.606   3.508
 5541SOL     OW17521   5.880   0.846   6.205
 5541SOL    HW117522   5.806   0.901   6.244
 5541SOL    HW217523   5.873   0.847   6.105
 5542SOL     OW17524   6.246   5.132   6.169
 5542SOL    HW117525   6.225   5.230   6.167
 5542SOL    HW217526   6.218   5.090   6.083
 5543SOL     OW17527   3.353   5.488   5.889
 5543SOL    HW117528   3.270   5.542   5.871
 5543SOL    HW217529   3.376   5.435   5.807
 5544SOL     OW17530   5.574   6.689   6.106
 5544SOL    HW117531   5.485   6.648   6.121
 5544SOL    HW217532   5.618   6.647   6.026
 5545SOL     OW17533   4.293   1.928   2.739
 5545SOL    HW117534   4.317   1.883   2.653
 5545SOL    HW217535   4.264   2.022   2.721
 5546SOL     OW17536   0.459   6.370   4.646
 5546SOL    HW117537   0.496   6.308   4.715
 5546SOL    HW217538   0.417   6.449   4.692
 5547SOL     OW17539   3.686   0.314   4.745
 5547SOL    HW117540   3.753   0.369   4.696
 5547SOL    HW217541   3.608   0.371   4.770
 5548SOL     OW17542   5.729   3.226   5.897
 5548SOL    HW117543   5.671   3.200   5.821
 5548SOL    HW217544   5.761   3.320   5.884
 5549SOL     OW17545   4.877   3.959   0.896
 5549SOL    HW117546   4.867   3.864   0.926
 5549SOL    HW217547   4.915   4.014   0.970
 5550SOL     OW17548   1.978   4.353   2.126
 5550SOL    HW117549   1.992   4.431   2.186
 5550SOL    HW217550   1.984   4.382   2.030
 5551SOL     OW17551   1.825   6.491   3.040
 5551SOL    HW117552   1.763   6.420   3.075
 5551SOL    HW217553   1.865   6.460   2.954
 5552SOL     OW17554   6.619   0.126   0.063
 5552SOL    HW117555   6.628   0.058   0.136
 5552SOL    HW217556   6.675   0.206   0.084
 5553SOL     OW17557   5.315   6.417   0.079
 5553SOL    HW117558   5.291   6.332   0.125
 5553SOL    HW217559   5.378   6.397   0.004
 5554SOL     OW17560   4.825   1.492   5.434
 5554SOL    HW117561   4.778   1.470   5.519
 5554SOL    HW217562   4.800   1.584   5.404
 5555SOL     OW17563   2.056   4.040   3.787
 5555SOL    HW117564   2.037   3.943   3.771
 5555SOL    HW217565   1.986   4.096   3.742
 5556SOL     OW17566   6.918   1.344   3.342
 5556SOL    HW117567   6.966   1.262   3.374
 5556SOL    HW217568   6.949   1.423   3.395
 5557SOL     OW17569   3.397   6.725   2.852
 5557SOL    HW117570   3.379   6.815   2.811
 5557SOL    HW217571   3.470   6.680   2.801
 5558SOL     OW17572   4.723   3.610   5.853
 5558SOL    HW117573   4.773   3.525   5.871
 5558SOL    HW217574   4.627   3.589   5.834
 5559SOL     OW17575   1.922   0.387   2.159
 5559SOL    HW117576   1.974   0.305   2.182
 5559SOL    HW217577   1.906   0.441   2.242
 5560SOL     OW17578   1.484   6.274   2.885
 5560SOL    HW117579   1.432   6.191   2.861
 5560SOL    HW217580   1.541   6.301   2.807
 5561SOL     OW17581   1.324   1.990   4.099
 5561SOL    HW117582   1.316   1.894   4.072
 5561SOL    HW217583   1.346   1.995   4.196
 5562SOL     OW17584   3.460   2.053   6.681
 5562SOL    HW117585   3.492   2.005   6.599
 5562SOL    HW217586   3.533   2.054   6.749
 5563SOL     OW17587   4.444   5.712   2.797
 5563SOL    HW117588   4.477   5.620   2.816
 5563SOL    HW217589   4.356   5.726   2.843
 5564SOL     OW17590   4.235   0.794   1.827
 5564SOL    HW117591   4.278   0.705   1.841
 5564SOL    HW217592   4.136   0.782   1.818
 5565SOL     OW17593   4.788   1.929   6.082
 5565SOL    HW117594   4.819   1.836   6.099
 5565SOL    HW217595   4.867   1.988   6.063
 5566SOL     OW17596   1.861   5.399   6.977
 5566SOL    HW117597   1.883   5.337   6.902
 5566SOL    HW217598   1.943   5.451   7.003
 5567SOL     OW17599   0.129   3.388   1.839
 5567SOL    HW117600   0.037   3.409   1.874
 5567SOL    HW217601   0.189   3.364   1.915
 5568SOL     OW17602   4.293   1.751   3.927
 5568SOL    HW117603   4.300   1.838   3.975
 5568SOL    HW217604   4.350   1.683   3.972
 5569SOL     OW17605   1.517   1.812   2.350
 5569SOL    HW117606   1.543   1.725   2.306
 5569SOL    HW217607   1.516   1.800   2.450
 5570SOL     OW17608   6.467   4.572   4.663
 5570SOL    HW117609   6.481   4.525   4.576
 5570SOL    HW217610   6.395   4.640   4.654
 5571SOL     OW17611   6.983   5.410   0.913
 5571SOL    HW117612   6.931   5.462   0.845
 5571SOL    HW217613   6.974   5.453   1.002
 5572SOL     OW17614   1.063   2.269   5.087
 5572SOL    HW117615   1.148   2.218   5.101
 5572SOL    HW217616   1.082   2.367   5.092
 5573SOL     OW17617   2.181   4.442   6.372
 5573SOL    HW117618   2.183   4.533   6.330
 5573SOL    HW217619   2.100   4.393   6.341
 5574SOL     OW17620   6.371   1.405   2.773
 5574SOL    HW117621   6.323   1.324   2.739
 5574SOL    HW217622   6.310   1.460   2.829
 5575SOL     OW17623   6.663   1.540   1.446
 5575SOL    HW117624   6.664   1.502   1.353
 5575SOL    HW217625   6.735   1.497   1.500
 5576SOL     OW17626   1.413   5.446   2.158
 5576SOL    HW117627   1.322   5.407   2.176
 5576SOL    HW217628   1.413   5.490   2.069
 5577SOL     OW17629   2.618   2.691   5.343
 5577SOL    HW117630   2.707   2.736   5.341
 5577SOL    HW217631   2.629   2.593   5.326
 5578SOL     OW17632   3.947   3.968   6.927
 5578SOL    HW117633   3.917   4.000   7.017
 5578SOL    HW217634   4.028   3.911   6.938
 5579SOL     OW17635   0.668   3.504   5.888
 5579SOL    HW117636   0.582   3.501   5.940
 5579SOL    HW217637   0.741   3.462   5.942
 5580SOL     OW17638   5.322   2.829   5.921
 5580SOL    HW117639   5.253   2.845   5.993
 5580SOL    HW217640   5.320   2.905   5.856
 5581SOL     OW17641   2.633   0.636   1.908
 5581SOL    HW117642   2.601   0.559   1.854
 5581SOL    HW217643   2.731   0.649   1.893
 5582SOL     OW17644   3.366   3.399   4.491
 5582SOL    HW117645   3.417   3.465   4.435
 5582SOL    HW217646   3.347   3.439   4.580
 5583SOL     OW17647   4.073   0.754   2.792
 5583SOL    HW117648   4.019   0.838   2.790
 5583SOL    HW217649   4.022   0.682   2.839
 5584SOL     OW17650   5.646   4.250   3.756
 5584SOL    HW117651   5.681   4.238   3.849
 5584SOL    HW217652   5.723   4.266   3.694
 5585SOL     OW17653   4.914   6.483   4.253
 5585SOL    HW117654   4.893   6.389   4.282
 5585SOL    HW217655   5.013   6.494   4.245
 5586SOL     OW17656   0.229   2.308   0.042
 5586SOL    HW117657   0.279   2.275   6.988
 5586SOL    HW217658   0.262   2.262   0.124
 5587SOL     OW17659   3.962   5.987   2.412
 5587SOL    HW117660   3.866   5.994   2.439
 5587SOL    HW217661   4.020   6.024   2.485
 5588SOL     OW17662   1.890   6.777   2.748
 5588SOL    HW117663   1.829   6.849   2.781
 5588SOL    HW217664   1.985   6.804   2.764
 5589SOL     OW17665   6.216   3.794   5.352
 5589SOL    HW117666   6.147   3.755   5.413
 5589SOL    HW217667   6.299   3.812   5.404
 5590SOL     OW17668   6.595   5.159   3.533
 5590SOL    HW117669   6.574   5.162   3.435
 5590SOL    HW217670   6.662   5.087   3.551
 5591SOL     OW17671   6.000   1.356   6.796
 5591SOL    HW117672   6.021   1.401   6.709
 5591SOL    HW217673   6.024   1.260   6.790
 5592SOL     OW17674   0.164   4.520   3.014
 5592SOL    HW117675   0.072   4.529   3.050
 5592SOL    HW217676   0.166   4.444   2.948
 5593SOL     OW17677   0.271   2.507   5.869
 5593SOL    HW117678   0.334   2.432   5.847
 5593SOL    HW217679   0.182   2.490   5.825
 5594SOL     OW17680   3.622   1.211   6.442
 5594SOL    HW117681   3.721   1.208   6.456
 5594SOL    HW217682   3.587   1.119   6.426
 5595SOL     OW17683   6.490   0.314   5.236
 5595SOL    HW117684   6.584   0.327   5.205
 5595SOL    HW217685   6.433   0.288   5.158
 5596SOL     OW17686   4.855   0.314   2.926
 5596SOL    HW117687   4.947   0.273   2.932
 5596SOL    HW217688   4.863   0.412   2.908
 5597SOL     OW17689   6.382   1.796   5.538
 5597SOL    HW117690   6.288   1.814   5.567
 5597SOL    HW217691   6.388   1.803   5.439
 5598SOL     OW17692   6.277   3.239   4.093
 5598SOL    HW117693   6.311   3.317   4.145
 5598SOL    HW217694   6.229   3.176   4.155
 5599SOL     OW17695   0.538   2.341   2.092
 5599SOL    HW117696   0.455   2.305   2.051
 5599SOL    HW217697   0.551   2.436   2.064
 5600SOL     OW17698   2.369   0.156   2.653
 5600SOL    HW117699   2.379   0.253   2.631
 5600SOL    HW217700   2.429   0.102   2.594
 5601SOL     OW17701   2.818   0.911   6.437
 5601SOL    HW117702   2.739   0.928   6.377
 5601SOL    HW217703   2.786   0.886   6.528
 5602SOL     OW17704   0.752   0.231   1.941
 5602SOL    HW117705   0.753   0.327   1.914
 5602SOL    HW217706   0.732   0.175   1.861
 5603SOL     OW17707   5.485   2.088   7.004
 5603SOL    HW117708   5.544   2.136   0.042
 5603SOL    HW217709   5.401   2.060   0.025
 5604SOL     OW17710   0.022   2.250   5.252
 5604SOL    HW117711   0.005   2.188   5.329
 5604SOL    HW217712   0.120   2.263   5.242
 5605SOL     OW17713   1.367   0.505   4.706
 5605SOL    HW117714   1.417   0.588   4.680
 5605SOL    HW217715   1.368   0.441   4.629
 5606SOL     OW17716   5.909   0.644   0.843
 5606SOL    HW117717   5.854   0.618   0.763
 5606SOL    HW217718   6.006   0.639   0.819
 5607SOL     OW17719   5.874   1.368   3.985
 5607SOL    HW117720   5.831   1.363   4.075
 5607SOL    HW217721   5.843   1.291   3.929
 5608SOL     OW17722   6.184   0.855   3.347
 5608SOL    HW117723   6.161   0.947   3.379
 5608SOL    HW217724   6.110   0.792   3.371
 5609SOL     OW17725   4.461   6.006   2.158
 5609SOL    HW117726   4.445   5.921   2.107
 5609SOL    HW217727   4.380   6.064   2.151
 5610SOL     OW17728   5.111   4.258   1.300
 5610SOL    HW117729   5.072   4.246   1.391
 5610SOL    HW217730   5.176   4.334   1.301
 5611SOL     OW17731   0.944   4.931   3.211
 5611SOL    HW117732   0.858   4.979   3.197
 5611SOL    HW217733   0.951   4.854   3.147
 5612SOL     OW17734   4.527   3.187   0.096
 5612SOL    HW117735   4.481   3.135   0.024
 5612SOL    HW217736   4.472   3.183   0.180
 5613SOL     OW17737   5.157   5.511   5.322
 5613SOL    HW117738   5.061   5.499   5.345
 5613SOL    HW217739   5.209   5.430   5.349
 5614SOL     OW17740   5.299   3.467   5.016
 5614SOL    HW117741   5.217   3.467   5.073
 5614SOL    HW217742   5.353   3.549   5.036
 5615SOL     OW17743   6.770   1.656   4.130
 5615SOL    HW117744   6.855   1.618   4.094
 5615SOL    HW217745   6.693   1.625   4.075
 5616SOL     OW17746   1.872   2.497   4.790
 5616SOL    HW117747   1.898   2.445   4.709
 5616SOL    HW217748   1.953   2.519   4.844
 5617SOL     OW17749   1.707   4.758   5.346
 5617SOL    HW117750   1.636   4.775   5.414
 5617SOL    HW217751   1.673   4.783   5.255
 5618SOL     OW17752   6.754   4.980   3.722
 5618SOL    HW117753   6.738   4.887   3.755
 5618SOL    HW217754   6.851   4.989   3.697
 5619SOL     OW17755   3.396   3.606   3.935
 5619SOL    HW117756   3.383   3.705   3.924
 5619SOL    HW217757   3.490   3.589   3.966
 5620SOL     OW17758   4.100   3.764   0.012
 5620SOL    HW117759   4.026   3.696   0.010
 5620SOL    HW217760   4.187   3.718   7.020
 5621SOL     OW17761   1.431   3.115   0.351
 5621SOL    HW117762   1.482   3.039   0.311
 5621SOL    HW217763   1.493   3.172   0.404
 5622SOL     OW17764   4.918   0.277   5.670
 5622SOL    HW117765   4.962   0.265   5.759
 5622SOL    HW217766   4.845   0.209   5.659
 5623SOL     OW17767   4.670   6.520   4.852
 5623SOL    HW117768   4.743   6.458   4.882
 5623SOL    HW217769   4.705   6.614   4.849
 5624SOL     OW17770   0.546   4.420   3.978
 5624SOL    HW117771   0.572   4.488   4.047
 5624SOL    HW217772   0.563   4.328   4.013
 5625SOL     OW17773   0.255   6.844   5.685
 5625SOL    HW117774   0.269   6.756   5.641
 5625SOL    HW217775   0.162   6.877   5.666
 5626SOL     OW17776   2.447   5.439   3.900
 5626SOL    HW117777   2.413   5.530   3.876
 5626SOL    HW217778   2.547   5.442   3.910
 5627SOL     OW17779   0.197   5.045   6.668
 5627SOL    HW117780   0.100   5.064   6.679
 5627SOL    HW217781   0.244   5.052   6.756
 5628SOL     OW17782   1.700   3.108   1.672
 5628SOL    HW117783   1.662   3.196   1.700
 5628SOL    HW217784   1.640   3.066   1.604
 5629SOL     OW17785   4.602   3.265   1.708
 5629SOL    HW117786   4.524   3.300   1.656
 5629SOL    HW217787   4.572   3.186   1.763
 5630SOL     OW17788   1.742   4.477   6.997
 5630SOL    HW117789   1.704   4.401   6.944
 5630SOL    HW217790   1.669   4.521   0.023
 5631SOL     OW17791   4.628   1.984   1.964
 5631SOL    HW117792   4.601   1.901   2.013
 5631SOL    HW217793   4.595   2.064   2.013
 5632SOL     OW17794   3.264   2.214   5.424
 5632SOL    HW117795   3.330   2.248   5.492
 5632SOL    HW217796   3.260   2.278   5.347
 5633SOL     OW17797   6.046   5.005   4.332
 5633SOL    HW117798   6.007   5.089   4.372
 5633SOL    HW217799   5.972   4.943   4.307
 5634SOL     OW17800   2.035   5.008   4.698
 5634SOL    HW117801   2.046   5.091   4.645
 5634SOL    HW217802   2.051   5.027   4.795
 5635SOL     OW17803   1.724   6.585   6.805
 5635SOL    HW117804   1.659   6.640   6.752
 5635SOL    HW217805   1.813   6.585   6.761
 5636SOL     OW17806   6.274   6.803   5.130
 5636SOL    HW117807   6.224   6.717   5.126
 5636SOL    HW217808   6.236   6.861   5.201
 5637SOL     OW17809   4.048   6.355   3.630
 5637SOL    HW117810   4.015   6.293   3.559
 5637SOL    HW217811   4.099   6.303   3.699
 5638SOL     OW17812   6.537   3.954   1.207
 5638SOL    HW117813   6.511   3.916   1.119
 5638SOL    HW217814   6.610   3.899   1.247
 5639SOL     OW17815   2.753   0.278   2.430
 5639SOL    HW117816   2.730   0.330   2.348
 5639SOL    HW217817   2.681   0.211   2.449
 5640SOL     OW17818   3.646   0.886   2.363
 5640SOL    HW117819   3.724   0.936   2.401
 5640SOL    HW217820   3.580   0.951   2.325
 5641SOL     OW17821   0.960   4.534   5.566
 5641SOL    HW117822   0.925   4.627   5.552
 5641SOL    HW217823   1.033   4.515   5.500
 5642SOL     OW17824   0.348   5.882   5.164
 5642SOL    HW117825   0.273   5.886   5.230
 5642SOL    HW217826   0.402   5.966   5.169
 5643SOL     OW17827   3.765   1.039   4.374
 5643SOL    HW117828   3.833   1.085   4.430
 5643SOL    HW217829   3.678   1.089   4.379
 5644SOL     OW17830   3.604   6.880   4.582
 5644SOL    HW117831   3.561   6.965   4.614
 5644SOL    HW217832   3.633   6.825   4.661
 5645SOL     OW17833   5.537   4.716   2.972
 5645SOL    HW117834   5.586   4.646   3.024
 5645SOL    HW217835   5.597   4.793   2.955
 5646SOL     OW17836   0.862   5.614   3.351
 5646SOL    HW117837   0.791   5.593   3.284
 5646SOL    HW217838   0.951   5.581   3.317
 5647SOL     OW17839   5.242   0.020   0.591
 5647SOL    HW117840   5.306   0.076   0.538
 5647SOL    HW217841   5.177   7.002   0.529
 5648SOL     OW17842   1.725   0.257   3.668
 5648SOL    HW117843   1.750   0.186   3.733
 5648SOL    HW217844   1.636   0.236   3.628
 5649SOL     OW17845   0.354   0.278   5.076
 5649SOL    HW117846   0.383   0.325   4.993
 5649SOL    HW217847   0.406   0.312   5.154
 5650SOL     OW17848   1.550   5.430   0.617
 5650SOL    HW117849   1.523   5.504   0.556
 5650SOL    HW217850   1.492   5.432   0.699
 5651SOL     OW17851   0.856   1.074   1.516
 5651SOL    HW117852   0.803   1.048   1.435
 5651SOL    HW217853   0.934   1.130   1.488
 5652SOL     OW17854   6.611   0.124   2.452
 5652SOL    HW117855   6.584   0.211   2.493
 5652SOL    HW217856   6.704   0.132   2.414
 5653SOL     OW17857   0.399   6.219   6.479
 5653SOL    HW117858   0.462   6.169   6.537
 5653SOL    HW217859   0.307   6.181   6.489
 5654SOL     OW17860   6.822   0.306   5.645
 5654SOL    HW117861   6.778   0.360   5.573
 5654SOL    HW217862   6.905   0.351   5.676
 5655SOL     OW17863   1.393   3.725   4.562
 5655SOL    HW117864   1.423   3.819   4.579
 5655SOL    HW217865   1.305   3.709   4.606
 5656SOL     OW17866   6.995   3.829   0.007
 5656SOL    HW117867   0.065   3.849   7.014
 5656SOL    HW217868   6.939   3.863   6.958
 5657SOL     OW17869   5.844   1.631   0.409
 5657SOL    HW117870   5.854   1.656   0.313
 5657SOL    HW217871   5.816   1.535   0.415
 5658SOL     OW17872   3.622   4.421   6.058
 5658SOL    HW117873   3.657   4.329   6.040
 5658SOL    HW217874   3.579   4.423   6.148
 5659SOL     OW17875   3.664   3.259   4.272
 5659SOL    HW117876   3.592   3.241   4.206
 5659SOL    HW217877   3.679   3.177   4.328
 5660SOL     OW17878   5.706   0.818   0.635
 5660SOL    HW117879   5.743   0.731   0.599
 5660SOL    HW217880   5.612   0.829   0.603
 5661SOL     OW17881   1.348   4.997   5.322
 5661SOL    HW117882   1.320   5.018   5.228
 5661SOL    HW217883   1.447   5.008   5.330
 5662SOL     OW17884   2.802   5.740   3.351
 5662SOL    HW117885   2.787   5.789   3.436
 5662SOL    HW217886   2.776   5.644   3.363
 5663SOL     OW17887   2.212   3.215   0.612
 5663SOL    HW117888   2.199   3.146   0.682
 5663SOL    HW217889   2.156   3.193   0.532
 5664SOL     OW17890   6.541   4.037   4.733
 5664SOL    HW117891   6.547   3.996   4.824
 5664SOL    HW217892   6.445   4.048   4.708
 5665SOL     OW17893   1.658   1.372   0.355
 5665SOL    HW117894   1.593   1.312   0.310
 5665SOL    HW217895   1.656   1.462   0.311
 5666SOL     OW17896   6.195   6.151   1.828
 5666SOL    HW117897   6.114   6.099   1.857
 5666SOL    HW217898   6.234   6.198   1.906
 5667SOL     OW17899   0.883   5.135   4.545
 5667SOL    HW117900   0.810   5.176   4.599
 5667SOL    HW217901   0.851   5.048   4.507
 5668SOL     OW17902   5.474   1.927   4.537
 5668SOL    HW117903   5.403   1.971   4.482
 5668SOL    HW217904   5.544   1.994   4.561
 5669SOL     OW17905   0.184   3.276   6.394
 5669SOL    HW117906   0.255   3.255   6.327
 5669SOL    HW217907   0.222   3.276   6.486
 5670SOL     OW17908   6.720   2.709   3.370
 5670SOL    HW117909   6.783   2.676   3.441
 5670SOL    HW217910   6.755   2.794   3.331
 5671SOL     OW17911   0.051   6.424   0.197
 5671SOL    HW117912   0.028   6.416   0.100
 5671SOL    HW217913   0.134   6.371   0.216
 5672SOL     OW17914   3.420   4.689   6.379
 5672SOL    HW117915   3.451   4.612   6.323
 5672SOL    HW217916   3.410   4.770   6.321
 5673SOL     OW17917   0.584   0.043   2.383
 5673SOL    HW117918   0.603   0.012   2.289
 5673SOL    HW217919   0.660   0.017   2.442
 5674SOL     OW17920   0.193   5.026   4.790
 5674SOL    HW117921   0.254   4.955   4.755
 5674SOL    HW217922   0.105   4.985   4.814
 5675SOL     OW17923   3.915   2.270   6.023
 5675SOL    HW117924   3.880   2.276   6.116
 5675SOL    HW217925   3.891   2.181   5.984
 5676SOL     OW17926   1.650   2.654   2.057
 5676SOL    HW117927   1.749   2.659   2.072
 5676SOL    HW217928   1.620   2.736   2.008
 5677SOL     OW17929   0.554   1.076   1.236
 5677SOL    HW117930   0.554   1.158   1.179
 5677SOL    HW217931   0.636   1.022   1.216
 5678SOL     OW17932   4.007   6.287   2.864
 5678SOL    HW117933   4.059   6.372   2.868
 5678SOL    HW217934   3.910   6.306   2.878
 5679SOL     OW17935   0.858   1.386   3.729
 5679SOL    HW117936   0.781   1.447   3.710
 5679SOL    HW217937   0.854   1.357   3.824
 5680SOL     OW17938   0.962   5.013   6.200
 5680SOL    HW117939   0.948   5.039   6.296
 5680SOL    HW217940   0.909   5.074   6.141
 5681SOL     OW17941   0.027   4.616   0.620
 5681SOL    HW117942   0.000   4.649   0.530
 5681SOL    HW217943   7.007   4.530   0.640
 5682SOL     OW17944   2.171   4.549   5.896
 5682SOL    HW117945   2.112   4.511   5.825
 5682SOL    HW217946   2.184   4.647   5.879
 5683SOL     OW17947   3.933   0.646   5.921
 5683SOL    HW117948   3.852   0.607   5.878
 5683SOL    HW217949   3.969   0.582   5.989
 5684SOL     OW17950   2.557   2.995   5.978
 5684SOL    HW117951   2.640   2.969   5.927
 5684SOL    HW217952   2.499   3.051   5.920
 5685SOL     OW17953   1.710   2.905   2.249
 5685SOL    HW117954   1.648   2.866   2.181
 5685SOL    HW217955   1.694   3.003   2.256
 5686SOL     OW17956   3.509   1.387   5.825
 5686SOL    HW117957   3.581   1.321   5.808
 5686SOL    HW217958   3.439   1.380   5.753
 5687SOL     OW17959   0.731   4.693   6.610
 5687SOL    HW117960   0.669   4.677   6.687
 5687SOL    HW217961   0.678   4.726   6.531
 5688SOL     OW17962   0.419   2.591   0.973
 5688SOL    HW117963   0.485   2.650   1.020
 5688SOL    HW217964   0.466   2.509   0.939
 5689SOL     OW17965   4.044   1.420   0.570
 5689SOL    HW117966   4.094   1.424   0.657
 5689SOL    HW217967   3.945   1.419   0.589
 5690SOL     OW17968   2.246   6.256   0.548
 5690SOL    HW117969   2.198   6.206   0.476
 5690SOL    HW217970   2.250   6.353   0.523
 5691SOL     OW17971   3.137   0.386   1.936
 5691SOL    HW117972   3.182   0.454   1.877
 5691SOL    HW217973   3.161   0.403   2.031
 5692SOL     OW17974   5.972   3.516   0.659
 5692SOL    HW117975   5.882   3.560   0.662
 5692SOL    HW217976   6.033   3.562   0.723
 5693SOL     OW17977   5.708   2.067   2.177
 5693SOL    HW117978   5.783   2.120   2.138
 5693SOL    HW217979   5.689   2.101   2.270
 5694SOL     OW17980   0.983   1.544   3.283
 5694SOL    HW117981   1.022   1.606   3.351
 5694SOL    HW217982   1.034   1.457   3.284
 5695SOL     OW17983   1.281   2.808   3.073
 5695SOL    HW117984   1.325   2.725   3.039
 5695SOL    HW217985   1.209   2.783   3.138
 5696SOL     OW17986   1.185   1.280   3.032
 5696SOL    HW117987   1.261   1.276   3.096
 5696SOL    HW217988   1.193   1.206   2.965
 5697SOL     OW17989   6.143   2.261   1.849
 5697SOL    HW117990   6.106   2.320   1.777
 5697SOL    HW217991   6.199   2.316   1.911
 5698SOL     OW17992   0.909   3.603   3.897
 5698SOL    HW117993   0.933   3.589   3.801
 5698SOL    HW217994   0.907   3.514   3.944
 5699SOL     OW17995   0.576   2.165   3.221
 5699SOL    HW117996   0.623   2.247   3.190
 5699SOL    HW217997   0.503   2.190   3.285
 5700SOL     OW17998   0.243   6.840   3.737
 5700SOL    HW117999   0.149   6.825   3.769
 5700SOL    HW218000   0.300   6.763   3.762
 5701SOL     OW18001   1.252   0.716   2.125
 5701SOL    HW118002   1.336   0.686   2.080
 5701SOL    HW218003   1.194   0.637   2.143
 5702SOL     OW18004   2.850   6.227   4.910
 5702SOL    HW118005   2.788   6.248   4.986
 5702SOL    HW218006   2.924   6.168   4.943
 5703SOL     OW18007   7.009   4.524   1.520
 5703SOL    HW118008   0.060   4.509   1.581
 5703SOL    HW218009   0.017   4.537   1.427
 5704SOL     OW18010   4.873   4.381   2.253
 5704SOL    HW118011   4.910   4.471   2.230
 5704SOL    HW218012   4.851   4.377   2.350
 5705SOL     OW18013   5.083   0.816   0.656
 5705SOL    HW118014   5.019   0.829   0.581
 5705SOL    HW218015   5.128   0.903   0.678
 5706SOL     OW18016   6.772   3.856   0.701
 5706SOL    HW118017   6.837   3.844   0.626
 5706SOL    HW218018   6.810   3.819   0.785
 5707SOL     OW18019   0.224   6.393   0.568
 5707SOL    HW118020   0.226   6.354   0.476
 5707SOL    HW218021   0.307   6.447   0.582
 5708SOL     OW18022   5.343   5.806   1.822
 5708SOL    HW118023   5.296   5.810   1.733
 5708SOL    HW218024   5.439   5.830   1.810
 5709SOL     OW18025   1.391   0.307   2.624
 5709SOL    HW118026   1.329   0.327   2.700
 5709SOL    HW218027   1.448   0.229   2.647
 5710SOL     OW18028   2.997   3.133   0.584
 5710SOL    HW118029   2.976   3.118   0.681
 5710SOL    HW218030   2.943   3.070   0.529
 5711SOL     OW18031   5.074   1.109   2.571
 5711SOL    HW118032   5.049   1.197   2.531
 5711SOL    HW218033   5.167   1.112   2.606
 5712SOL     OW18034   0.083   6.315   6.692
 5712SOL    HW118035   0.037   6.232   6.658
 5712SOL    HW218036   0.034   6.350   6.771
 5713SOL     OW18037   3.159   2.574   1.443
 5713SOL    HW118038   3.091   2.593   1.514
 5713SOL    HW218039   3.250   2.591   1.480
 5714SOL     OW18040   0.345   5.811   0.110
 5714SOL    HW118041   0.402   5.732   0.090
 5714SOL    HW218042   0.331   5.818   0.209
 5715SOL     OW18043   0.953   6.950   3.337
 5715SOL    HW118044   1.004   7.004   3.404
 5715SOL    HW218045   1.006   6.943   3.252
 5716SOL     OW18046   1.271   3.896   0.022
 5716SOL    HW118047   1.178   3.862   0.028
 5716SOL    HW218048   1.295   3.911   6.952
 5717SOL     OW18049   2.430   5.439   0.754
 5717SOL    HW118050   2.334   5.410   0.761
 5717SOL    HW218051   2.436   5.525   0.703
 5718SOL     OW18052   0.353   2.710   5.379
 5718SOL    HW118053   0.436   2.742   5.424
 5718SOL    HW218054   0.334   2.616   5.407
 5719SOL     OW18055   2.575   1.843   6.630
 5719SOL    HW118056   2.601   1.772   6.564
 5719SOL    HW218057   2.647   1.852   6.700
 5720SOL     OW18058   1.800   5.271   4.814
 5720SOL    HW118059   1.813   5.363   4.776
 5720SOL    HW218060   1.889   5.227   4.825
 5721SOL     OW18061   0.052   3.535   1.239
 5721SOL    HW118062   7.007   3.497   1.180
 5721SOL    HW218063   0.016   3.544   1.332
 5722SOL     OW18064   6.580   1.497   5.193
 5722SOL    HW118065   6.607   1.463   5.103
 5722SOL    HW218066   6.554   1.420   5.251
 5723SOL     OW18067   4.533   3.589   0.712
 5723SOL    HW118068   4.520   3.594   0.613
 5723SOL    HW218069   4.603   3.520   0.732
 5724SOL     OW18070   5.698   3.217   5.045
 5724SOL    HW118071   5.795   3.231   5.025
 5724SOL    HW218072   5.642   3.278   4.989
 5725SOL     OW18073   4.913   5.013   3.975
 5725SOL    HW118074   4.859   5.093   4.001
 5725SOL    HW218075   4.916   4.948   4.051
 5726SOL     OW18076   0.322   4.822   4.681
 5726SOL    HW118077   0.351   4.729   4.703
 5726SOL    HW218078   0.268   4.821   4.596
 5727SOL     OW18079   6.602   1.490   3.936
 5727SOL    HW118080   6.553   1.474   4.022
 5727SOL    HW218081   6.537   1.493   3.860
 5728SOL     OW18082   4.043   0.470   6.548
 5728SOL    HW118083   4.012   0.563   6.569
 5728SOL    HW218084   4.002   0.439   6.463
 5729SOL     OW18085   1.332   1.291   0.510
 5729SOL    HW118086   1.283   1.248   0.586
 5729SOL    HW218087   1.341   1.389   0.527
 5730SOL     OW18088   4.687   5.093   6.233
 5730SOL    HW118089   4.603   5.084   6.179
 5730SOL    HW218090   4.765   5.062   6.178
 5731SOL     OW18091   0.590   6.642   3.906
 5731SOL    HW118092   0.604   6.642   4.005
 5731SOL    HW218093   0.639   6.718   3.865
 5732SOL     OW18094   6.399   5.489   4.241
 5732SOL    HW118095   6.301   5.509   4.238
 5732SOL    HW218096   6.413   5.390   4.246
 5733SOL     OW18097   4.202   6.886   5.104
 5733SOL    HW118098   4.148   6.961   5.066
 5733SOL    HW218099   4.247   6.916   5.188
 5734SOL     OW18100   1.273   6.874   5.482
 5734SOL    HW118101   1.315   6.873   5.391
 5734SOL    HW218102   1.256   6.969   5.509
 5735SOL     OW18103   4.124   2.276   2.216
 5735SOL    HW118104   4.089   2.280   2.122
 5735SOL    HW218105   4.071   2.208   2.267
 5736SOL     OW18106   6.037   4.441   0.218
 5736SOL    HW118107   6.014   4.354   0.261
 5736SOL    HW218108   6.004   4.517   0.275
 5737SOL     OW18109   5.140   6.381   0.720
 5737SOL    HW118110   5.236   6.364   0.744
 5737SOL    HW218111   5.136   6.453   0.651
 5738SOL     OW18112   2.812   3.382   6.050
 5738SOL    HW118113   2.747   3.386   5.974
 5738SOL    HW218114   2.859   3.470   6.059
 5739SOL     OW18115   1.205   0.694   5.283
 5739SOL    HW118116   1.202   0.772   5.221
 5739SOL    HW218117   1.255   0.619   5.240
 5740SOL     OW18118   4.071   3.704   1.493
 5740SOL    HW118119   4.084   3.722   1.395
 5740SOL    HW218120   4.155   3.726   1.542
 5741SOL     OW18121   0.409   3.628   4.275
 5741SOL    HW118122   0.462   3.603   4.355
 5741SOL    HW218123   0.322   3.669   4.303
 5742SOL     OW18124   5.346   6.697   2.518
 5742SOL    HW118125   5.270   6.724   2.576
 5742SOL    HW218126   5.312   6.649   2.437
 5743SOL     OW18127   2.564   5.416   5.429
 5743SOL    HW118128   2.580   5.324   5.464
 5743SOL    HW218129   2.616   5.482   5.484
 5744SOL     OW18130   5.129   0.938   1.948
 5744SOL    HW118131   5.109   0.926   1.850
 5744SOL    HW218132   5.076   1.014   1.984
 5745SOL     OW18133   1.849   0.384   4.127
 5745SOL    HW118134   1.798   0.367   4.043
 5745SOL    HW218135   1.821   0.472   4.166
 5746SOL     OW18136   5.457   6.919   1.579
 5746SOL    HW118137   5.546   6.874   1.566
 5746SOL    HW218138   5.415   6.936   1.490
 5747SOL     OW18139   6.935   4.150   2.909
 5747SOL    HW118140   6.842   4.164   2.875
 5747SOL    HW218141   6.933   4.088   2.988
 5748SOL     OW18142   1.408   5.628   0.463
 5748SOL    HW118143   1.416   5.702   0.396
 5748SOL    HW218144   1.393   5.667   0.553
 5749SOL     OW18145   1.642   6.439   4.659
 5749SOL    HW118146   1.670   6.438   4.755
 5749SOL    HW218147   1.721   6.458   4.601
 5750SOL     OW18148   6.117   6.238   4.505
 5750SOL    HW118149   6.150   6.321   4.550
 5750SOL    HW218150   6.118   6.162   4.570
 5751SOL     OW18151   3.078   2.231   4.556
 5751SOL    HW118152   3.160   2.265   4.601
 5751SOL    HW218153   3.095   2.222   4.458
 5752SOL     OW18154   6.463   0.885   0.553
 5752SOL    HW118155   6.382   0.868   0.609
 5752SOL    HW218156   6.508   0.797   0.533
 5753SOL     OW18157   4.054   3.355   4.749
 5753SOL    HW118158   3.956   3.367   4.731
 5753SOL    HW218159   4.105   3.359   4.663
 5754SOL     OW18160   6.730   4.390   1.173
 5754SOL    HW118161   6.763   4.309   1.125
 5754SOL    HW218162   6.743   4.379   1.271
 5755SOL     OW18163   2.003   3.309   6.225
 5755SOL    HW118164   1.947   3.369   6.167
 5755SOL    HW218165   2.098   3.340   6.224
 5756SOL     OW18166   6.138   6.910   3.594
 5756SOL    HW118167   6.041   6.919   3.617
 5756SOL    HW218168   6.176   6.830   3.642
 5757SOL     OW18169   6.759   6.166   2.956
 5757SOL    HW118170   6.662   6.170   2.977
 5757SOL    HW218171   6.784   6.245   2.899
 5758SOL     OW18172   2.562   0.990   4.973
 5758SOL    HW118173   2.507   1.058   4.924
 5758SOL    HW218174   2.522   0.975   5.063
 5759SOL     OW18175   4.757   1.366   6.683
 5759SOL    HW118176   4.824   1.386   6.612
 5759SOL    HW218177   4.787   1.288   6.738
 5760SOL     OW18178   0.166   4.130   1.030
 5760SOL    HW118179   0.187   4.156   0.936
 5760SOL    HW218180   0.223   4.052   1.056
 5761SOL     OW18181   5.415   6.581   6.783
 5761SOL    HW118182   5.336   6.523   6.806
 5761SOL    HW218183   5.491   6.558   6.844
 5762SOL     OW18184   4.830   5.742   0.110
 5762SOL    HW118185   4.873   5.715   0.196
 5762SOL    HW218186   4.759   5.676   0.086
 5763SOL     OW18187   7.018   0.133   0.049
 5763SOL    HW118188   0.037   0.111   0.136
 5763SOL    HW218189   0.046   0.201   7.026
 5764SOL     OW18190   4.950   5.098   5.602
 5764SOL    HW118191   4.901   5.176   5.639
 5764SOL    HW218192   4.887   5.021   5.590
 5765SOL     OW18193   6.408   3.599   0.101
 5765SOL    HW118194   6.328   3.632   0.151
 5765SOL    HW218195   6.403   3.629   0.006
 5766SOL     OW18196   2.026   2.724   0.047
 5766SOL    HW118197   1.940   2.714   0.097
 5766SOL    HW218198   2.101   2.730   0.113
 5767SOL     OW18199   1.664   0.484   0.634
 5767SOL    HW118200   1.670   0.424   0.714
 5767SOL    HW218201   1.739   0.463   0.571
 5768SOL     OW18202   0.519   6.136   3.170
 5768SOL    HW118203   0.468   6.202   3.114
 5768SOL    HW218204   0.455   6.080   3.221
 5769SOL     OW18205   2.212   5.823   4.439
 5769SOL    HW118206   2.213   5.893   4.368
 5769SOL    HW218207   2.280   5.753   4.418
 5770SOL     OW18208   5.469   6.873   0.470
 5770SOL    HW118209   5.435   6.932   0.543
 5770SOL    HW218210   5.568   6.883   0.462
 5771SOL     OW18211   1.753   6.219   3.398
 5771SOL    HW118212   1.667   6.173   3.378
 5771SOL    HW218213   1.734   6.305   3.446
 5772SOL     OW18214   6.312   2.004   0.992
 5772SOL    HW118215   6.223   2.048   0.982
 5772SOL    HW218216   6.335   1.955   0.908
 5773SOL     OW18217   4.472   1.057   3.876
 5773SOL    HW118218   4.562   1.066   3.831
 5773SOL    HW218219   4.424   0.979   3.837
 5774SOL     OW18220   2.871   5.618   3.730
 5774SOL    HW118221   2.850   5.701   3.678
 5774SOL    HW218222   2.834   5.626   3.822
 5775SOL     OW18223   1.565   0.923   1.923
 5775SOL    HW118224   1.557   0.831   1.959
 5775SOL    HW218225   1.618   0.922   1.839
 5776SOL     OW18226   6.724   0.560   5.787
 5776SOL    HW118227   6.752   0.643   5.835
 5776SOL    HW218228   6.729   0.483   5.851
 5777SOL     OW18229   6.712   0.371   5.114
 5777SOL    HW118230   6.737   0.388   5.019
 5777SOL    HW218231   6.730   0.453   5.168
 5778SOL     OW18232   1.734   0.339   1.548
 5778SOL    HW118233   1.654   0.302   1.500
 5778SOL    HW218234   1.703   0.394   1.625
 5779SOL     OW18235   4.393   1.860   0.590
 5779SOL    HW118236   4.352   1.826   0.505
 5779SOL    HW218237   4.451   1.939   0.570
 5780SOL     OW18238   6.299   4.868   2.889
 5780SOL    HW118239   6.388   4.850   2.931
 5780SOL    HW218240   6.242   4.921   2.952
 5781SOL     OW18241   0.352   3.911   4.742
 5781SOL    HW118242   0.419   3.847   4.779
 5781SOL    HW218243   0.366   3.922   4.644
 5782SOL     OW18244   0.965   0.653   0.503
 5782SOL    HW118245   0.984   0.719   0.577
 5782SOL    HW218246   0.934   0.567   0.543
 5783SOL     OW18247   1.873   0.652   1.733
 5783SOL    HW118248   1.949   0.698   1.689
 5783SOL    HW218249   1.802   0.631   1.665
 5784SOL     OW18250   6.653   6.640   0.211
 5784SOL    HW118251   6.717   6.664   0.137
 5784SOL    HW218252   6.564   6.679   0.192
 5785SOL     OW18253   1.707   1.716   0.958
 5785SOL    HW118254   1.648   1.670   0.890
 5785SOL    HW218255   1.800   1.679   0.951
 5786SOL     OW18256   0.434   3.817   0.743
 5786SOL    HW118257   0.458   3.721   0.733
 5786SOL    HW218258   0.497   3.873   0.690
 5787SOL     OW18259   4.403   2.874   5.320
 5787SOL    HW118260   4.320   2.819   5.314
 5787SOL    HW218261   4.483   2.815   5.306
 5788SOL     OW18262   3.145   1.332   1.387
 5788SOL    HW118263   3.140   1.232   1.388
 5788SOL    HW218264   3.231   1.360   1.344
 5789SOL     OW18265   3.330   3.793   6.253
 5789SOL    HW118266   3.326   3.764   6.349
 5789SOL    HW218267   3.245   3.766   6.207
 5790SOL     OW18268   0.445   4.592   4.805
 5790SOL    HW118269   0.376   4.599   4.876
 5790SOL    HW218270   0.525   4.543   4.840
 5791SOL     OW18271   3.048   1.968   2.439
 5791SOL    HW118272   3.059   2.054   2.488
 5791SOL    HW218273   3.126   1.953   2.379
 5792SOL     OW18274   5.418   2.725   2.230
 5792SOL    HW118275   5.459   2.637   2.254
 5792SOL    HW218276   5.440   2.747   2.135
 5793SOL     OW18277   5.997   1.026   4.145
 5793SOL    HW118278   5.996   0.949   4.081
 5793SOL    HW218279   5.903   1.059   4.158
 5794SOL     OW18280   2.996   0.133   6.449
 5794SOL    HW118281   2.975   0.037   6.433
 5794SOL    HW218282   2.917   0.178   6.491
 5795SOL     OW18283   6.872   6.600   1.544
 5795SOL    HW118284   6.808   6.673   1.567
 5795SOL    HW218285   6.957   6.612   1.595
 5796SOL     OW18286   4.414   1.168   6.787
 5796SOL    HW118287   4.444   1.152   6.693
 5796SOL    HW218288   4.368   1.257   6.792
 5797SOL     OW18289   5.027   1.821   0.517
 5797SOL    HW118290   4.930   1.830   0.540
 5797SOL    HW218291   5.068   1.748   0.572
 5798SOL     OW18292   6.908   5.261   5.127
 5798SOL    HW118293   7.002   5.239   5.104
 5798SOL    HW218294   6.846   5.207   5.070
 5799SOL     OW18295   0.320   1.020   4.359
 5799SOL    HW118296   0.280   0.962   4.287
 5799SOL    HW218297   0.413   0.991   4.377
 5800SOL     OW18298   0.872   6.860   2.241
 5800SOL    HW118299   0.912   6.929   2.301
 5800SOL    HW218300   0.796   6.814   2.288
 5801SOL     OW18301   1.877   2.160   3.483
 5801SOL    HW118302   1.861   2.253   3.516
 5801SOL    HW218303   1.899   2.163   3.386
 5802SOL     OW18304   6.477   2.967   2.492
 5802SOL    HW118305   6.407   2.972   2.420
 5802SOL    HW218306   6.559   2.923   2.455
 5803SOL     OW18307   1.821   5.862   2.787
 5803SOL    HW118308   1.898   5.900   2.838
 5803SOL    HW218309   1.792   5.776   2.830
 5804SOL     OW18310   0.249   5.783   3.309
 5804SOL    HW118311   0.247   5.736   3.221
 5804SOL    HW218312   0.285   5.876   3.296
 5805SOL     OW18313   1.303   3.342   0.691
 5805SOL    HW118314   1.387   3.354   0.745
 5805SOL    HW218315   1.315   3.264   0.629
 5806SOL     OW18316   6.992   4.880   4.858
 5806SOL    HW118317   6.910   4.911   4.809
 5806SOL    HW218318   7.015   4.787   4.829
 5807SOL     OW18319   1.143   5.858   0.218
 5807SOL    HW118320   1.082   5.795   0.267
 5807SOL    HW218321   1.232   5.862   0.264
 5808SOL     OW18322   7.003   6.281   4.421
 5808SOL    HW118323   0.007   6.314   4.332
 5808SOL    HW218324   6.903   6.278   4.423
 5809SOL     OW18325   6.743   1.557   5.397
 5809SOL    HW118326   6.830   1.607   5.394
 5809SOL    HW218327   6.708   1.545   5.303
 5810SOL     OW18328   5.015   0.952   5.367
 5810SOL    HW118329   4.962   0.895   5.304
 5810SOL    HW218330   4.963   0.965   5.451
 5811SOL     OW18331   3.656   1.305   4.773
 5811SOL    HW118332   3.570   1.255   4.782
 5811SOL    HW218333   3.730   1.253   4.815
 5812SOL     OW18334   5.071   3.376   6.122
 5812SOL    HW118335   5.139   3.310   6.155
 5812SOL    HW218336   4.986   3.366   6.173
 5813SOL     OW18337   2.741   0.780   0.807
 5813SOL    HW118338   2.789   0.833   0.737
 5813SOL    HW218339   2.803   0.713   0.847
 5814SOL     OW18340   6.835   3.024   2.181
 5814SOL    HW118341   6.910   3.090   2.174
 5814SOL    HW218342   6.760   3.051   2.121
 5815SOL     OW18343   4.186   1.389   4.150
 5815SOL    HW118344   4.231   1.364   4.235
 5815SOL    HW218345   4.115   1.458   4.169
 5816SOL     OW18346   5.234   4.343   0.056
 5816SOL    HW118347   5.204   4.428   0.099
 5816SOL    HW218348   5.162   4.309   7.021
 5817SOL     OW18349   6.069   5.067   5.304
 5817SOL    HW118350   6.004   5.003   5.346
 5817SOL    HW218351   6.037   5.161   5.316
 5818SOL     OW18352   6.685   5.401   5.956
 5818SOL    HW118353   6.630   5.362   6.030
 5818SOL    HW218354   6.634   5.398   5.870
 5819SOL     OW18355   3.695   6.780   6.679
 5819SOL    HW118356   3.629   6.706   6.697
 5819SOL    HW218357   3.774   6.769   6.739
 5820SOL     OW18358   4.347   4.601   2.916
 5820SOL    HW118359   4.368   4.559   3.004
 5820SOL    HW218360   4.322   4.697   2.929
 5821SOL     OW18361   6.663   0.822   1.993
 5821SOL    HW118362   6.687   0.848   2.087
 5821SOL    HW218363   6.699   0.889   1.929
 5822SOL     OW18364   1.950   2.923   1.531
 5822SOL    HW118365   1.895   2.888   1.606
 5822SOL    HW218366   2.030   2.865   1.518
 5823SOL     OW18367   2.821   7.018   4.662
 5823SOL    HW118368   2.820   6.990   4.758
 5823SOL    HW218369   2.906   0.040   4.642
 5824SOL     OW18370   0.130   5.966   3.008
 5824SOL    HW118371   0.050   5.982   2.952
 5824SOL    HW218372   0.101   5.945   3.102
 5825SOL     OW18373   0.162   6.911   4.654
 5825SOL    HW118374   0.107   6.971   4.595
 5825SOL    HW218375   0.101   6.846   4.700
 5826SOL     OW18376   0.370   5.829   6.494
 5826SOL    HW118377   0.395   5.750   6.550
 5826SOL    HW218378   0.432   5.837   6.417
 5827SOL     OW18379   1.832   3.604   4.401
 5827SOL    HW118380   1.758   3.543   4.429
 5827SOL    HW218381   1.805   3.653   4.318
 5828SOL     OW18382   5.057   1.336   2.450
 5828SOL    HW118383   5.002   1.415   2.477
 5828SOL    HW218384   5.153   1.351   2.473
 5829SOL     OW18385   1.745   0.330   4.586
 5829SOL    HW118386   1.722   0.392   4.662
 5829SOL    HW218387   1.670   0.329   4.520
 5830SOL     OW18388   5.734   0.280   5.899
 5830SOL    HW118389   5.701   0.329   5.818
 5830SOL    HW218390   5.702   0.185   5.896
 5831SOL     OW18391   1.363   1.013   6.126
 5831SOL    HW118392   1.420   0.950   6.073
 5831SOL    HW218393   1.305   0.960   6.189
 5832SOL     OW18394   3.078   4.805   6.851
 5832SOL    HW118395   3.033   4.730   6.898
 5832SOL    HW218396   3.155   4.771   6.798
 5833SOL     OW18397   4.195   3.526   5.204
 5833SOL    HW118398   4.115   3.572   5.241
 5833SOL    HW218399   4.275   3.548   5.260
 5834SOL     OW18400   6.868   4.287   6.657
 5834SOL    HW118401   6.952   4.235   6.672
 5834SOL    HW218402   6.812   4.242   6.588
 5835SOL     OW18403   5.633   2.118   3.043
 5835SOL    HW118404   5.703   2.093   3.110
 5835SOL    HW218405   5.563   2.174   3.088
 5836SOL     OW18406   2.928   0.422   1.396
 5836SOL    HW118407   2.967   0.335   1.367
 5836SOL    HW218408   2.877   0.409   1.481
 5837SOL     OW18409   3.466   3.187   0.087
 5837SOL    HW118410   3.381   3.203   0.137
 5837SOL    HW218411   3.460   3.101   0.037
 5838SOL     OW18412   2.862   1.687   1.051
 5838SOL    HW118413   2.881   1.735   0.965
 5838SOL    HW218414   2.931   1.710   1.118
 5839SOL     OW18415   0.538   2.285   1.010
 5839SOL    HW118416   0.515   2.197   1.049
 5839SOL    HW218417   0.568   2.348   1.082
 5840SOL     OW18418   1.139   3.737   6.505
 5840SOL    HW118419   1.236   3.714   6.512
 5840SOL    HW218420   1.125   3.831   6.535
 5841SOL     OW18421   5.282   1.254   2.029
 5841SOL    HW118422   5.306   1.171   2.078
 5841SOL    HW218423   5.272   1.234   1.931
 5842SOL     OW18424   4.803   2.987   1.482
 5842SOL    HW118425   4.783   2.945   1.571
 5842SOL    HW218426   4.735   2.958   1.415
 5843SOL     OW18427   1.128   4.613   1.852
 5843SOL    HW118428   1.032   4.624   1.823
 5843SOL    HW218429   1.188   4.639   1.777
 5844SOL     OW18430   1.909   6.128   5.918
 5844SOL    HW118431   1.885   6.157   5.825
 5844SOL    HW218432   1.836   6.157   5.981
 5845SOL     OW18433   0.706   0.136   1.693
 5845SOL    HW118434   0.679   0.046   1.657
 5845SOL    HW218435   0.639   0.204   1.665
 5846SOL     OW18436   6.345   3.224   5.750
 5846SOL    HW118437   6.286   3.173   5.688
 5846SOL    HW218438   6.289   3.269   5.820
 5847SOL     OW18439   2.554   2.392   2.153
 5847SOL    HW118440   2.635   2.352   2.110
 5847SOL    HW218441   2.529   2.336   2.232
 5848SOL     OW18442   1.401   5.455   3.076
 5848SOL    HW118443   1.413   5.499   2.987
 5848SOL    HW218444   1.457   5.501   3.145
 5849SOL     OW18445   1.972   0.430   5.425
 5849SOL    HW118446   2.070   0.448   5.425
 5849SOL    HW218447   1.931   0.463   5.510
 5850SOL     OW18448   0.042   3.734   2.102
 5850SOL    HW118449   0.049   3.751   2.003
 5850SOL    HW218450   6.984   3.775   2.137
 5851SOL     OW18451   5.266   3.668   3.754
 5851SOL    HW118452   5.287   3.710   3.665
 5851SOL    HW218453   5.313   3.718   3.826
 5852SOL     OW18454   5.682   6.446   2.976
 5852SOL    HW118455   5.627   6.363   2.973
 5852SOL    HW218456   5.777   6.422   2.997
 5853SOL     OW18457   4.097   5.461   5.669
 5853SOL    HW118458   4.106   5.363   5.650
 5853SOL    HW218459   4.009   5.493   5.635
 5854SOL     OW18460   4.429   3.899   5.785
 5854SOL    HW118461   4.366   3.826   5.811
 5854SOL    HW218462   4.379   3.972   5.740
 5855SOL     OW18463   1.550   0.659   4.338
 5855SOL    HW118464   1.648   0.678   4.349
 5855SOL    HW218465   1.502   0.744   4.319
 5856SOL     OW18466   1.672   5.618   3.707
 5856SOL    HW118467   1.654   5.538   3.765
 5856SOL    HW218468   1.626   5.698   3.744
 5857SOL     OW18469   6.173   3.420   5.204
 5857SOL    HW118470   6.267   3.437   5.176
 5857SOL    HW218471   6.170   3.406   5.303
 5858SOL     OW18472   2.466   2.370   2.652
 5858SOL    HW118473   2.476   2.432   2.574
 5858SOL    HW218474   2.369   2.350   2.665
 5859SOL     OW18475   6.376   6.186   1.624
 5859SOL    HW118476   6.434   6.268   1.628
 5859SOL    HW218477   6.303   6.194   1.693
 5860SOL     OW18478   0.277   4.748   3.310
 5860SOL    HW118479   0.200   4.730   3.372
 5860SOL    HW218480   0.330   4.665   3.299
 5861SOL     OW18481   5.741   0.677   4.115
 5861SOL    HW118482   5.800   0.742   4.067
 5861SOL    HW218483   5.786   0.588   4.122
 5862SOL     OW18484   5.882   5.503   1.034
 5862SOL    HW118485   5.838   5.491   0.945
 5862SOL    HW218486   5.963   5.561   1.024
 5863SOL     OW18487   2.707   2.248   5.066
 5863SOL    HW118488   2.624   2.286   5.026
 5863SOL    HW218489   2.778   2.239   4.996
 5864SOL     OW18490   3.578   4.142   2.485
 5864SOL    HW118491   3.563   4.210   2.557
 5864SOL    HW218492   3.664   4.094   2.502
 5865SOL     OW18493   5.707   0.460   5.256
 5865SOL    HW118494   5.783   0.431   5.314
 5865SOL    HW218495   5.741   0.478   5.163
 5866SOL     OW18496   3.977   3.083   1.008
 5866SOL    HW118497   4.066   3.078   0.963
 5866SOL    HW218498   3.982   3.148   1.084
 5867SOL     OW18499   2.530   3.449   1.342
 5867SOL    HW118500   2.479   3.385   1.400
 5867SOL    HW218501   2.628   3.431   1.351
 5868SOL     OW18502   2.164   1.712   5.845
 5868SOL    HW118503   2.120   1.651   5.779
 5868SOL    HW218504   2.187   1.798   5.799
 5869SOL     OW18505   1.885   5.915   3.162
 5869SOL    HW118506   1.966   5.972   3.163
 5869SOL    HW218507   1.818   5.953   3.098
 5870SOL     OW18508   5.250   6.292   5.004
 5870SOL    HW118509   5.271   6.201   4.969
 5870SOL    HW218510   5.242   6.357   4.928
 5871SOL     OW18511   3.563   3.283   1.826
 5871SOL    HW118512   3.530   3.199   1.871
 5871SOL    HW218513   3.488   3.326   1.776
 5872SOL     OW18514   4.561   6.593   1.659
 5872SOL    HW118515   4.478   6.558   1.701
 5872SOL    HW218516   4.606   6.519   1.608
 5873SOL     OW18517   3.664   0.703   2.011
 5873SOL    HW118518   3.587   0.649   2.047
 5873SOL    HW218519   3.718   0.646   1.949
 5874SOL     OW18520   2.186   4.814   5.357
 5874SOL    HW118521   2.234   4.748   5.298
 5874SOL    HW218522   2.235   4.823   5.444
 5875SOL     OW18523   4.322   1.419   6.849
 5875SOL    HW118524   4.414   1.455   6.841
 5875SOL    HW218525   4.256   1.494   6.845
 5876SOL     OW18526   3.893   3.269   1.720
 5876SOL    HW118527   3.918   3.362   1.747
 5876SOL    HW218528   3.794   3.259   1.723
 5877SOL     OW18529   6.856   6.489   1.130
 5877SOL    HW118530   6.771   6.495   1.181
 5877SOL    HW218531   6.851   6.547   1.049
 5878SOL     OW18532   0.139   5.744   4.260
 5878SOL    HW118533   0.086   5.788   4.187
 5878SOL    HW218534   0.111   5.783   4.348
 5879SOL     OW18535   1.254   4.140   6.922
 5879SOL    HW118536   1.174   4.097   6.878
 5879SOL    HW218537   1.288   4.080   6.994
 5880SOL     OW18538   4.222   4.342   6.719
 5880SOL    HW118539   4.169   4.415   6.761
 5880SOL    HW218540   4.184   4.253   6.745
 5881SOL     OW18541   0.487   6.808   2.953
 5881SOL    HW118542   0.516   6.852   3.038
 5881SOL    HW218543   0.388   6.811   2.946
 5882SOL     OW18544   0.205   6.002   1.631
 5882SOL    HW118545   0.297   6.040   1.625
 5882SOL    HW218546   0.209   5.909   1.668
 5883SOL     OW18547   1.084   1.145   6.512
 5883SOL    HW118548   1.010   1.133   6.578
 5883SOL    HW218549   1.066   1.227   6.457
 5884SOL     OW18550   2.708   1.462   4.701
 5884SOL    HW118551   2.690   1.460   4.800
 5884SOL    HW218552   2.661   1.541   4.660
 5885SOL     OW18553   0.320   0.229   3.249
 5885SOL    HW118554   0.386   0.222   3.324
 5885SOL    HW218555   0.363   0.199   3.164
 5886SOL     OW18556   0.899   1.898   4.842
 5886SOL    HW118557   0.871   1.992   4.862
 5886SOL    HW218558   0.962   1.899   4.764
 5887SOL     OW18559   2.690   1.882   3.138
 5887SOL    HW118560   2.611   1.820   3.137
 5887SOL    HW218561   2.662   1.972   3.104
 5888SOL     OW18562   2.906   1.011   1.568
 5888SOL    HW118563   2.995   1.016   1.522
 5888SOL    HW218564   2.879   1.102   1.598
 5889SOL     OW18565   1.391   6.810   0.521
 5889SOL    HW118566   1.368   6.864   0.602
 5889SOL    HW218567   1.307   6.773   0.481
 5890SOL     OW18568   2.326   1.078   3.906
 5890SOL    HW118569   2.404   1.026   3.941
 5890SOL    HW218570   2.297   1.039   3.819
 5891SOL     OW18571   3.706   3.034   6.138
 5891SOL    HW118572   3.798   3.050   6.102
 5891SOL    HW218573   3.705   2.947   6.188
 5892SOL     OW18574   0.748   5.093   1.464
 5892SOL    HW118575   0.690   5.083   1.384
 5892SOL    HW218576   0.692   5.094   1.547
 5893SOL     OW18577   2.015   3.714   3.970
 5893SOL    HW118578   2.014   3.620   4.005
 5893SOL    HW218579   2.097   3.728   3.915
 5894SOL     OW18580   6.943   4.849   4.294
 5894SOL    HW118581   7.022   4.792   4.318
 5894SOL    HW218582   6.975   4.939   4.264
 5895SOL     OW18583   5.885   4.212   3.959
 5895SOL    HW118584   5.838   4.182   4.042
 5895SOL    HW218585   5.881   4.140   3.890
 5896SOL     OW18586   4.011   0.802   0.220
 5896SOL    HW118587   4.070   0.775   0.296
 5896SOL    HW218588   4.049   0.884   0.177
 5897SOL     OW18589   4.046   0.547   1.354
 5897SOL    HW118590   4.066   0.529   1.451
 5897SOL    HW218591   4.038   0.646   1.340
 5898SOL     OW18592   1.836   6.631   3.287
 5898SOL    HW118593   1.889   6.637   3.202
 5898SOL    HW218594   1.742   6.607   3.266
 5899SOL     OW18595   5.292   5.841   5.785
 5899SOL    HW118596   5.372   5.808   5.734
 5899SOL    HW218597   5.286   5.940   5.778
 5900SOL     OW18598   5.778   5.306   3.624
 5900SOL    HW118599   5.683   5.278   3.638
 5900SOL    HW218600   5.796   5.316   3.526
 5901SOL     OW18601   2.359   0.690   0.528
 5901SOL    HW118602   2.344   0.604   0.577
 5901SOL    HW218603   2.345   0.675   0.430
 5902SOL     OW18604   6.685   2.505   5.784
 5902SOL    HW118605   6.649   2.571   5.718
 5902SOL    HW218606   6.683   2.545   5.876
 5903SOL     OW18607   4.765   4.712   6.903
 5903SOL    HW118608   4.741   4.690   6.809
 5903SOL    HW218609   4.717   4.650   6.965
 5904SOL     OW18610   1.143   4.534   1.326
 5904SOL    HW118611   1.130   4.631   1.349
 5904SOL    HW218612   1.128   4.478   1.407
 5905SOL     OW18613   5.938   5.760   3.480
 5905SOL    HW118614   5.944   5.774   3.382
 5905SOL    HW218615   5.952   5.663   3.501
 5906SOL     OW18616   3.855   2.119   3.533
 5906SOL    HW118617   3.849   2.167   3.620
 5906SOL    HW218618   3.886   2.025   3.548
 5907SOL     OW18619   0.328   5.440   0.667
 5907SOL    HW118620   0.427   5.453   0.678
 5907SOL    HW218621   0.311   5.355   0.617
 5908SOL     OW18622   0.422   2.566   6.514
 5908SOL    HW118623   0.363   2.641   6.483
 5908SOL    HW218624   0.511   2.603   6.540
 5909SOL     OW18625   6.719   5.518   0.494
 5909SOL    HW118626   6.659   5.572   0.434
 5909SOL    HW218627   6.791   5.576   0.530
 5910SOL     OW18628   6.600   3.665   3.841
 5910SOL    HW118629   6.620   3.722   3.920
 5910SOL    HW218630   6.685   3.631   3.801
 5911SOL     OW18631   6.645   6.375   6.967
 5911SOL    HW118632   6.549   6.348   6.974
 5911SOL    HW218633   6.688   6.367   0.031
 5912SOL     OW18634   6.530   1.124   6.076
 5912SOL    HW118635   6.574   1.130   5.987
 5912SOL    HW218636   6.493   1.214   6.101
 5913SOL     OW18637   4.994   3.039   6.184
 5913SOL    HW118638   4.923   3.048   6.115
 5913SOL    HW218639   5.083   3.059   6.143
 5914SOL     OW18640   1.379   4.682   6.388
 5914SOL    HW118641   1.322   4.752   6.346
 5914SOL    HW218642   1.346   4.663   6.480
 5915SOL     OW18643   4.500   5.749   1.179
 5915SOL    HW118644   4.547   5.718   1.261
 5915SOL    HW218645   4.418   5.801   1.204
 5916SOL     OW18646   5.723   6.445   4.254
 5916SOL    HW118647   5.662   6.366   4.245
 5916SOL    HW218648   5.670   6.523   4.287
 5917SOL     OW18649   2.942   3.365   4.381
 5917SOL    HW118650   2.976   3.414   4.462
 5917SOL    HW218651   3.012   3.303   4.346
 5918SOL     OW18652   1.778   4.016   5.390
 5918SOL    HW118653   1.851   4.009   5.322
 5918SOL    HW218654   1.775   3.931   5.444
 5919SOL     OW18655   3.859   2.955   3.016
 5919SOL    HW118656   3.926   2.880   3.019
 5919SOL    HW218657   3.848   2.994   3.107
 5920SOL     OW18658   4.511   1.149   6.519
 5920SOL    HW118659   4.547   1.182   6.432
 5920SOL    HW218660   4.583   1.101   6.569
 5921SOL     OW18661   3.482   5.609   6.672
 5921SOL    HW118662   3.462   5.514   6.647
 5921SOL    HW218663   3.434   5.632   6.756
 5922SOL     OW18664   4.980   4.283   2.680
 5922SOL    HW118665   4.885   4.258   2.700
 5922SOL    HW218666   5.032   4.290   2.765
 5923SOL     OW18667   6.804   1.654   2.048
 5923SOL    HW118668   6.782   1.588   2.121
 5923SOL    HW218669   6.803   1.746   2.086
 5924SOL     OW18670   6.798   0.252   3.058
 5924SOL    HW118671   6.742   0.179   3.019
 5924SOL    HW218672   6.828   0.313   2.985
 5925SOL     OW18673   3.997   6.759   2.172
 5925SOL    HW118674   4.063   6.831   2.150
 5925SOL    HW218675   4.009   6.730   2.267
 5926SOL     OW18676   3.869   5.468   1.913
 5926SOL    HW118677   3.782   5.456   1.865
 5926SOL    HW218678   3.944   5.447   1.851
 5927SOL     OW18679   1.482   4.513   2.570
 5927SOL    HW118680   1.424   4.433   2.588
 5927SOL    HW218681   1.526   4.503   2.481
 5928SOL     OW18682   3.685   6.974   1.095
 5928SOL    HW118683   3.629   0.025   1.124
 5928SOL    HW218684   3.635   6.889   1.108
 5929SOL     OW18685   6.807   0.149   6.310
 5929SOL    HW118686   6.791   0.081   6.238
 5929SOL    HW218687   6.724   0.203   6.325
 5930SOL     OW18688   6.334   4.159   3.067
 5930SOL    HW118689   6.403   4.213   3.116
 5930SOL    HW218690   6.329   4.190   2.972
 5931SOL     OW18691   0.510   5.808   3.040
 5931SOL    HW118692   0.425   5.758   3.025
 5931SOL    HW218693   0.523   5.875   2.966
 5932SOL     OW18694   3.201   0.321   0.796
 5932SOL    HW118695   3.274   0.334   0.729
 5932SOL    HW218696   3.198   0.400   0.857
 5933SOL     OW18697   6.874   5.005   3.389
 5933SOL    HW118698   6.868   4.921   3.335
 5933SOL    HW218699   6.874   5.084   3.328
 5934SOL     OW18700   3.720   3.081   5.071
 5934SOL    HW118701   3.643   3.058   5.130
 5934SOL    HW218702   3.756   3.171   5.097
 5935SOL     OW18703   5.826   5.068   6.553
 5935SOL    HW118704   5.905   5.059   6.494
 5935SOL    HW218705   5.809   4.981   6.600
 5936SOL     OW18706   3.014   2.282   1.635
 5936SOL    HW118707   3.107   2.311   1.614
 5936SOL    HW218708   2.999   2.288   1.734
 5937SOL     OW18709   6.339   3.781   2.223
 5937SOL    HW118710   6.356   3.685   2.199
 5937SOL    HW218711   6.405   3.839   2.177
 5938SOL     OW18712   6.660   5.423   2.739
 5938SOL    HW118713   6.583   5.479   2.770
 5938SOL    HW218714   6.627   5.352   2.677
 5939SOL     OW18715   2.307   6.511   2.899
 5939SOL    HW118716   2.369   6.587   2.922
 5939SOL    HW218717   2.234   6.506   2.967
 5940SOL     OW18718   4.629   5.678   2.154
 5940SOL    HW118719   4.564   5.665   2.229
 5940SOL    HW218720   4.680   5.594   2.138
 5941SOL     OW18721   5.656   3.403   2.191
 5941SOL    HW118722   5.711   3.375   2.270
 5941SOL    HW218723   5.630   3.321   2.139
 5942SOL     OW18724   5.878   3.787   0.447
 5942SOL    HW118725   5.803   3.847   0.417
 5942SOL    HW218726   5.841   3.715   0.505
 5943SOL     OW18727   2.983   4.358   5.902
 5943SOL    HW118728   2.918   4.305   5.848
 5943SOL    HW218729   2.939   4.441   5.936
 5944SOL     OW18730   0.016   2.610   1.270
 5944SOL    HW118731   0.095   2.621   1.210
 5944SOL    HW218732   6.969   2.673   1.241
 5945SOL     OW18733   6.867   4.810   5.133
 5945SOL    HW118734   6.928   4.846   5.061
 5945SOL    HW218735   6.890   4.854   5.220
 5946SOL     OW18736   4.051   3.559   5.887
 5946SOL    HW118737   3.991   3.480   5.879
 5946SOL    HW218738   4.000   3.642   5.867
 5947SOL     OW18739   3.160   3.326   2.003
 5947SOL    HW118740   3.185   3.230   1.992
 5947SOL    HW218741   3.084   3.333   2.068
 5948SOL     OW18742   4.385   4.549   2.651
 5948SOL    HW118743   4.365   4.565   2.747
 5948SOL    HW218744   4.308   4.579   2.595
 5949SOL     OW18745   4.941   3.848   1.292
 5949SOL    HW118746   5.005   3.916   1.257
 5949SOL    HW218747   4.848   3.870   1.262
 5950SOL     OW18748   5.190   1.156   5.296
 5950SOL    HW118749   5.144   1.075   5.330
 5950SOL    HW218750   5.140   1.194   5.218
 5951SOL     OW18751   1.167   5.559   3.830
 5951SOL    HW118752   1.236   5.558   3.903
 5951SOL    HW218753   1.205   5.602   3.749
 5952SOL     OW18754   5.498   4.657   3.339
 5952SOL    HW118755   5.522   4.717   3.416
 5952SOL    HW218756   5.426   4.700   3.285
 5953SOL     OW18757   6.125   2.931   5.586
 5953SOL    HW118758   6.114   3.028   5.610
 5953SOL    HW218759   6.190   2.889   5.648
 5954SOL     OW18760   5.937   5.321   5.317
 5954SOL    HW118761   5.852   5.367   5.346
 5954SOL    HW218762   5.963   5.353   5.226
 5955SOL     OW18763   4.704   5.570   2.514
 5955SOL    HW118764   4.624   5.562   2.455
 5955SOL    HW218765   4.750   5.657   2.495
 5956SOL     OW18766   4.854   2.058   4.848
 5956SOL    HW118767   4.756   2.061   4.829
 5956SOL    HW218768   4.903   2.029   4.766
 5957SOL     OW18769   3.726   1.217   5.196
 5957SOL    HW118770   3.633   1.249   5.177
 5957SOL    HW218771   3.732   1.188   5.291
 5958SOL     OW18772   5.300   5.904   3.021
 5958SOL    HW118773   5.235   5.876   3.092
 5958SOL    HW218774   5.263   5.883   2.931
 5959SOL     OW18775   4.417   3.143   5.371
 5959SOL    HW118776   4.339   3.188   5.326
 5959SOL    HW218777   4.422   3.048   5.342
 5960SOL     OW18778   3.901   5.390   5.185
 5960SOL    HW118779   3.816   5.355   5.223
 5960SOL    HW218780   3.924   5.338   5.102
 5961SOL     OW18781   4.723   1.751   2.860
 5961SOL    HW118782   4.627   1.728   2.842
 5961SOL    HW218783   4.781   1.714   2.788
 5962SOL     OW18784   5.858   6.572   0.432
 5962SOL    HW118785   5.793   6.636   0.391
 5962SOL    HW218786   5.838   6.479   0.400
 5963SOL     OW18787   3.940   3.638   6.802
 5963SOL    HW118788   3.982   3.675   6.719
 5963SOL    HW218789   3.952   3.539   6.802
 5964SOL     OW18790   0.812   6.128   5.448
 5964SOL    HW118791   0.723   6.100   5.483
 5964SOL    HW218792   0.848   6.202   5.506
 5965SOL     OW18793   1.892   1.892   0.125
 5965SOL    HW118794   1.964   1.830   0.093
 5965SOL    HW218795   1.933   1.980   0.148
 5966SOL     OW18796   2.087   6.464   5.300
 5966SOL    HW118797   2.082   6.414   5.213
 5966SOL    HW218798   2.113   6.559   5.283
 5967SOL     OW18799   3.524   0.196   6.428
 5967SOL    HW118800   3.442   0.153   6.390
 5967SOL    HW218801   3.498   0.266   6.494
 5968SOL     OW18802   5.253   2.416   0.247
 5968SOL    HW118803   5.237   2.511   0.273
 5968SOL    HW218804   5.224   2.355   0.321
 5969SOL     OW18805   6.438   6.940   6.523
 5969SOL    HW118806   6.492   6.857   6.510
 5969SOL    HW218807   6.341   6.918   6.516
 5970SOL     OW18808   0.381   4.171   2.839
 5970SOL    HW118809   0.352   4.099   2.902
 5970SOL    HW218810   0.450   4.134   2.776
 5971SOL     OW18811   0.307   1.303   2.475
 5971SOL    HW118812   0.251   1.244   2.418
 5971SOL    HW218813   0.308   1.396   2.436
 5972SOL     OW18814   5.550   5.928   6.599
 5972SOL    HW118815   5.594   6.001   6.547
 5972SOL    HW218816   5.585   5.840   6.567
 5973SOL     OW18817   1.402   3.239   2.309
 5973SOL    HW118818   1.436   3.267   2.398
 5973SOL    HW218819   1.340   3.161   2.320
 5974SOL     OW18820   5.578   5.922   6.865
 5974SOL    HW118821   5.492   5.903   6.912
 5974SOL    HW218822   5.561   5.927   6.766
 5975SOL     OW18823   4.429   0.015   0.796
 5975SOL    HW118824   4.437   6.946   0.768
 5975SOL    HW218825   4.340   0.051   0.769
 5976SOL     OW18826   3.847   2.557   6.141
 5976SOL    HW118827   3.815   2.611   6.063
 5976SOL    HW218828   3.775   2.493   6.169
 5977SOL     OW18829   1.471   5.706   6.796
 5977SOL    HW118830   1.505   5.743   6.710
 5977SOL    HW218831   1.521   5.623   6.819
 5978SOL     OW18832   4.161   5.691   1.857
 5978SOL    HW118833   4.176   5.609   1.802
 5978SOL    HW218834   4.075   5.733   1.831
 5979SOL     OW18835   5.232   0.581   3.129
 5979SOL    HW118836   5.231   0.677   3.100
 5979SOL    HW218837   5.324   0.556   3.158
 5980SOL     OW18838   3.357   3.663   1.009
 5980SOL    HW118839   3.380   3.574   0.971
 5980SOL    HW218840   3.417   3.733   0.970
 5981SOL     OW18841   5.732   2.094   1.506
 5981SOL    HW118842   5.739   1.995   1.520
 5981SOL    HW218843   5.660   2.131   1.563
 5982SOL     OW18844   6.100   2.753   2.059
 5982SOL    HW118845   6.137   2.715   2.144
 5982SOL    HW218846   6.088   2.851   2.069
 5983SOL     OW18847   1.321   1.537   3.791
 5983SOL    HW118848   1.361   1.460   3.842
 5983SOL    HW218849   1.386   1.569   3.722
 5984SOL     OW18850   6.194   5.354   3.329
 5984SOL    HW118851   6.137   5.384   3.253
 5984SOL    HW218852   6.202   5.428   3.396
 5985SOL     OW18853   6.735   3.306   4.006
 5985SOL    HW118854   6.799   3.295   3.930
 5985SOL    HW218855   6.643   3.280   3.976
 5986SOL     OW18856   3.443   4.143   4.118
 5986SOL    HW118857   3.538   4.121   4.138
 5986SOL    HW218858   3.396   4.169   4.202
 5987SOL     OW18859   5.725   0.085   4.045
 5987SOL    HW118860   5.815   0.055   4.076
 5987SOL    HW218861   5.735   0.170   3.993
 5988SOL     OW18862   4.686   0.268   6.230
 5988SOL    HW118863   4.774   0.246   6.273
 5988SOL    HW218864   4.639   0.183   6.205
 5989SOL     OW18865   2.604   5.702   6.410
 5989SOL    HW118866   2.648   5.612   6.413
 5989SOL    HW218867   2.637   5.759   6.485
 5990SOL     OW18868   3.320   3.434   0.623
 5990SOL    HW118869   3.383   3.454   0.698
 5990SOL    HW218870   3.261   3.358   0.649
 5991SOL     OW18871   3.750   5.423   6.868
 5991SOL    HW118872   3.713   5.493   6.807
 5991SOL    HW218873   3.845   5.404   6.844
 5992SOL     OW18874   3.742   0.363   2.061
 5992SOL    HW118875   3.840   0.345   2.057
 5992SOL    HW218876   3.703   0.352   1.969
 5993SOL     OW18877   3.697   4.693   6.084
 5993SOL    HW118878   3.661   4.607   6.048
 5993SOL    HW218879   3.786   4.712   6.042
 5994SOL     OW18880   6.295   2.639   1.894
 5994SOL    HW118881   6.213   2.666   1.942
 5994SOL    HW218882   6.337   2.560   1.939
 5995SOL     OW18883   4.899   3.522   2.433
 5995SOL    HW118884   4.852   3.576   2.364
 5995SOL    HW218885   4.996   3.516   2.410
 5996SOL     OW18886   0.985   6.105   1.228
 5996SOL    HW118887   0.969   6.178   1.162
 5996SOL    HW218888   0.922   6.116   1.305
 5997SOL     OW18889   0.369   5.359   2.612
 5997SOL    HW118890   0.375   5.348   2.711
 5997SOL    HW218891   0.370   5.270   2.568
 5998SOL     OW18892   6.145   1.379   3.310
 5998SOL    HW118893   6.132   1.404   3.406
 5998SOL    HW218894   6.190   1.454   3.261
 5999SOL     OW18895   2.444   2.787   1.625
 5999SOL    HW118896   2.420   2.702   1.673
 5999SOL    HW218897   2.534   2.778   1.584
 6000SOL     OW18898   2.492   6.950   0.655
 6000SOL    HW118899   2.582   6.970   0.694
 6000SOL    HW218900   2.502   6.934   0.556
 6001SOL     OW18901   0.325   4.224   6.724
 6001SOL    HW118902   0.400   4.181   6.775
 6001SOL    HW218903   0.299   4.310   6.769
 6002SOL     OW18904   5.996   0.935   0.644
 6002SOL    HW118905   5.967   1.029   0.662
 6002SOL    HW218906   5.920   0.873   0.664
 6003SOL     OW18907   6.133   1.860   4.556
 6003SOL    HW118908   6.146   1.914   4.473
 6003SOL    HW218909   6.176   1.770   4.544
 6004SOL     OW18910   6.827   3.568   2.768
 6004SOL    HW118911   6.756   3.504   2.797
 6004SOL    HW218912   6.908   3.556   2.826
 6005SOL     OW18913   4.766   5.238   3.993
 6005SOL    HW118914   4.685   5.202   4.039
 6005SOL    HW218915   4.768   5.337   4.002
 6006SOL     OW18916   2.523   1.365   5.299
 6006SOL    HW118917   2.567   1.358   5.210
 6006SOL    HW218918   2.440   1.309   5.300
 6007SOL     OW18919   5.309   4.119   5.504
 6007SOL    HW118920   5.344   4.166   5.423
 6007SOL    HW218921   5.211   4.103   5.494
 6008SOL     OW18922   2.430   4.718   5.263
 6008SOL    HW118923   2.455   4.623   5.244
 6008SOL    HW218924   2.513   4.772   5.278
 6009SOL     OW18925   2.460   1.116   3.365
 6009SOL    HW118926   2.365   1.140   3.344
 6009SOL    HW218927   2.511   1.106   3.280
 6010SOL     OW18928   1.241   4.820   4.328
 6010SOL    HW118929   1.205   4.825   4.235
 6010SOL    HW218930   1.267   4.911   4.359
 6011SOL     OW18931   5.161   3.034   3.053
 6011SOL    HW118932   5.082   2.984   3.088
 6011SOL    HW218933   5.133   3.091   2.976
 6012SOL     OW18934   5.812   1.069   0.336
 6012SOL    HW118935   5.882   1.107   0.277
 6012SOL    HW218936   5.775   0.985   0.296
 6013SOL     OW18937   5.212   2.136   2.616
 6013SOL    HW118938   5.183   2.127   2.521
 6013SOL    HW218939   5.152   2.081   2.674
 6014SOL     OW18940   4.081   3.693   2.843
 6014SOL    HW118941   3.995   3.714   2.797
 6014SOL    HW218942   4.155   3.693   2.775
 6015SOL     OW18943   6.306   3.932   4.029
 6015SOL    HW118944   6.271   3.842   4.055
 6015SOL    HW218945   6.248   3.973   3.959
 6016SOL     OW18946   6.596   1.602   5.614
 6016SOL    HW118947   6.646   1.575   5.532
 6016SOL    HW218948   6.527   1.671   5.590
 6017SOL     OW18949   6.756   4.614   3.600
 6017SOL    HW118950   6.838   4.645   3.648
 6017SOL    HW218951   6.677   4.624   3.660
 6018SOL     OW18952   4.202   0.281   6.334
 6018SOL    HW118953   4.252   0.343   6.395
 6018SOL    HW218954   4.265   0.248   6.264
 6019SOL     OW18955   0.284   2.710   3.975
 6019SOL    HW118956   0.234   2.796   3.985
 6019SOL    HW218957   0.289   2.664   4.064
 6020SOL     OW18958   0.998   5.226   0.898
 6020SOL    HW118959   0.961   5.208   0.989
 6020SOL    HW218960   1.064   5.155   0.875
 6021SOL     OW18961   4.484   0.565   2.589
 6021SOL    HW118962   4.499   0.662   2.569
 6021SOL    HW218963   4.571   0.522   2.610
 6022SOL     OW18964   5.480   1.408   4.178
 6022SOL    HW118965   5.401   1.457   4.141
 6022SOL    HW218966   5.479   1.314   4.146
 6023SOL     OW18967   5.745   1.158   1.400
 6023SOL    HW118968   5.806   1.109   1.462
 6023SOL    HW218969   5.651   1.131   1.418
 6024SOL     OW18970   1.802   4.764   2.869
 6024SOL    HW118971   1.710   4.734   2.848
 6024SOL    HW218972   1.839   4.816   2.792
 6025SOL     OW18973   3.751   1.813   3.397
 6025SOL    HW118974   3.719   1.830   3.490
 6025SOL    HW218975   3.828   1.874   3.376
 6026SOL     OW18976   6.870   4.509   5.377
 6026SOL    HW118977   6.958   4.483   5.417
 6026SOL    HW218978   6.879   4.515   5.277
 6027SOL     OW18979   0.384   2.999   5.778
 6027SOL    HW118980   0.327   3.078   5.756
 6027SOL    HW218981   0.471   3.005   5.728
 6028SOL     OW18982   6.875   5.116   0.391
 6028SOL    HW118983   6.917   5.151   0.475
 6028SOL    HW218984   6.817   5.037   0.413
 6029SOL     OW18985   2.474   6.979   4.951
 6029SOL    HW118986   2.414   7.013   4.880
 6029SOL    HW218987   2.521   6.896   4.919
 6030SOL     OW18988   4.098   5.239   2.487
 6030SOL    HW118989   4.173   5.282   2.436
 6030SOL    HW218990   4.010   5.265   2.447
 6031SOL     OW18991   2.653   5.372   4.250
 6031SOL    HW118992   2.746   5.407   4.240
 6031SOL    HW218993   2.588   5.446   4.234
 6032SOL     OW18994   2.256   4.550   2.621
 6032SOL    HW118995   2.331   4.566   2.556
 6032SOL    HW218996   2.267   4.609   2.700
 6033SOL     OW18997   2.740   2.217   2.529
 6033SOL    HW118998   2.766   2.133   2.578
 6033SOL    HW218999   2.701   2.282   2.594
 6034SOL     OW19000   1.381   6.897   5.218
 6034SOL    HW119001   1.315   6.957   5.173
 6034SOL    HW219002   1.473   6.916   5.182
 6035SOL     OW19003   0.203   1.126   2.281
 6035SOL    HW119004   0.112   1.095   2.254
 6035SOL    HW219005   0.236   1.193   2.214
 6036SOL     OW19006   5.141   4.441   3.143
 6036SOL    HW119007   5.145   4.530   3.097
 6036SOL    HW219008   5.066   4.440   3.208
 6037SOL     OW19009   4.478   6.036   6.959
 6037SOL    HW119010   4.422   6.107   6.916
 6037SOL    HW219011   4.567   6.074   6.984
 6038SOL     OW19012   1.939   3.030   5.967
 6038SOL    HW119013   1.910   2.935   5.956
 6038SOL    HW219014   1.883   3.089   5.910
 6039SOL     OW19015   3.144   3.057   2.927
 6039SOL    HW119016   3.214   2.990   2.899
 6039SOL    HW219017   3.182   3.149   2.921
 6040SOL     OW19018   1.016   1.549   0.643
 6040SOL    HW119019   1.085   1.478   0.658
 6040SOL    HW219020   1.060   1.638   0.645
 6041SOL     OW19021   2.703   0.287   4.771
 6041SOL    HW119022   2.743   0.200   4.800
 6041SOL    HW219023   2.610   0.295   4.809
 6042SOL     OW19024   4.553   6.576   2.433
 6042SOL    HW119025   4.571   6.650   2.498
 6042SOL    HW219026   4.557   6.488   2.480
 6043SOL     OW19027   1.113   5.287   5.928
 6043SOL    HW119028   1.123   5.281   6.028
 6043SOL    HW219029   1.132   5.197   5.888
 6044SOL     OW19030   1.583   2.867   1.367
 6044SOL    HW119031   1.542   2.896   1.453
 6044SOL    HW219032   1.596   2.946   1.308
 6045SOL     OW19033   5.914   4.043   2.252
 6045SOL    HW119034   5.846   4.082   2.313
 6045SOL    HW219035   5.976   3.985   2.304
 6046SOL     OW19036   3.670   2.015   6.840
 6046SOL    HW119037   3.635   2.064   6.921
 6046SOL    HW219038   3.739   1.949   6.869
 6047SOL     OW19039   5.063   1.829   2.208
 6047SOL    HW119040   4.998   1.801   2.279
 6047SOL    HW219041   5.049   1.773   2.126
 6048SOL     OW19042   4.866   5.373   5.650
 6048SOL    HW119043   4.809   5.383   5.732
 6048SOL    HW219044   4.826   5.428   5.576
 6049SOL     OW19045   5.084   3.341   0.119
 6049SOL    HW119046   5.102   3.326   0.022
 6049SOL    HW219047   4.995   3.302   0.143
 6050SOL     OW19048   3.677   5.589   5.719
 6050SOL    HW119049   3.741   5.555   5.650
 6050SOL    HW219050   3.583   5.567   5.691
 6051SOL     OW19051   1.958   6.241   3.691
 6051SOL    HW119052   1.874   6.214   3.645
 6051SOL    HW219053   1.936   6.289   3.776
 6052SOL     OW19054   6.036   1.209   0.234
 6052SOL    HW119055   6.004   1.293   0.190
 6052SOL    HW219056   6.136   1.210   0.238
 6053SOL     OW19057   4.096   1.143   6.845
 6053SOL    HW119058   4.038   1.188   6.778
 6053SOL    HW219059   4.191   1.171   6.830
 6054SOL     OW19060   2.011   3.381   0.017
 6054SOL    HW119061   1.971   3.375   0.108
 6054SOL    HW219062   2.007   3.476   7.012
 6055SOL     OW19063   5.356   6.950   5.208
 6055SOL    HW119064   5.413   7.003   5.272
 6055SOL    HW219065   5.355   6.854   5.236
 6056SOL     OW19066   5.064   3.373   4.326
 6056SOL    HW119067   5.120   3.435   4.271
 6056SOL    HW219068   5.121   3.301   4.365
 6057SOL     OW19069   6.145   2.074   3.127
 6057SOL    HW119070   6.055   2.068   3.171
 6057SOL    HW219071   6.208   2.122   3.188
 6058SOL     OW19072   4.546   3.647   1.635
 6058SOL    HW119073   4.604   3.580   1.682
 6058SOL    HW219074   4.594   3.735   1.629
 6059SOL     OW19075   5.053   4.780   5.647
 6059SOL    HW119076   5.041   4.776   5.747
 6059SOL    HW219077   5.090   4.870   5.622
 6060SOL     OW19078   2.691   3.577   6.660
 6060SOL    HW119079   2.642   3.496   6.692
 6060SOL    HW219080   2.771   3.592   6.717
 6061SOL     OW19081   3.629   2.930   0.675
 6061SOL    HW119082   3.686   2.990   0.731
 6061SOL    HW219083   3.688   2.872   0.618
 6062SOL     OW19084   2.605   0.834   5.269
 6062SOL    HW119085   2.657   0.916   5.246
 6062SOL    HW219086   2.663   0.753   5.258
 6063SOL     OW19087   4.309   2.781   5.881
 6063SOL    HW119088   4.374   2.855   5.861
 6063SOL    HW219089   4.221   2.821   5.906
 6064SOL     OW19090   1.384   6.001   0.849
 6064SOL    HW119091   1.467   6.054   0.831
 6064SOL    HW219092   1.306   6.063   0.858
 6065SOL     OW19093   0.385   6.677   2.310
 6065SOL    HW119094   0.370   6.683   2.211
 6065SOL    HW219095   0.478   6.706   2.332
 6066SOL     OW19096   4.804   1.392   6.031
 6066SOL    HW119097   4.899   1.425   6.031
 6066SOL    HW219098   4.743   1.466   6.059
 6067SOL     OW19099   5.739   1.089   5.323
 6067SOL    HW119100   5.735   1.073   5.422
 6067SOL    HW219101   5.767   1.184   5.306
 6068SOL     OW19102   5.205   3.323   4.626
 6068SOL    HW119103   5.113   3.356   4.644
 6068SOL    HW219104   5.201   3.237   4.575
 6069SOL     OW19105   5.982   3.302   5.064
 6069SOL    HW119106   6.044   3.354   5.122
 6069SOL    HW219107   6.011   3.207   5.060
 6070SOL     OW19108   2.918   2.369   1.096
 6070SOL    HW119109   2.925   2.290   1.036
 6070SOL    HW219110   2.908   2.338   1.191
 6071SOL     OW19111   5.318   5.575   4.644
 6071SOL    HW119112   5.320   5.487   4.596
 6071SOL    HW219113   5.227   5.615   4.636
 6072SOL     OW19114   6.738   0.407   1.611
 6072SOL    HW119115   6.649   0.410   1.656
 6072SOL    HW219116   6.795   0.336   1.652
 6073SOL     OW19117   5.971   2.942   6.963
 6073SOL    HW119118   5.977   2.861   7.022
 6073SOL    HW219119   5.881   2.944   6.920
 6074SOL     OW19120   0.799   6.343   2.546
 6074SOL    HW119121   0.877   6.281   2.536
 6074SOL    HW219122   0.716   6.299   2.513
 6075SOL     OW19123   6.045   0.828   5.894
 6075SOL    HW119124   6.045   0.740   5.942
 6075SOL    HW219125   6.072   0.900   5.957
 6076SOL     OW19126   3.275   5.456   4.094
 6076SOL    HW119127   3.223   5.374   4.117
 6076SOL    HW219128   3.275   5.519   4.172
 6077SOL     OW19129   6.070   5.694   0.970
 6077SOL    HW119130   6.151   5.666   1.021
 6077SOL    HW219131   6.092   5.701   0.873
 6078SOL     OW19132   4.661   4.904   0.585
 6078SOL    HW119133   4.658   4.855   0.499
 6078SOL    HW219134   4.756   4.917   0.614
 6079SOL     OW19135   4.299   3.779   6.221
 6079SOL    HW119136   4.381   3.819   6.180
 6079SOL    HW219137   4.255   3.848   6.280
 6080SOL     OW19138   0.340   6.571   1.445
 6080SOL    HW119139   0.269   6.634   1.411
 6080SOL    HW219140   0.309   6.477   1.434
 6081SOL     OW19141   6.613   2.869   5.233
 6081SOL    HW119142   6.689   2.923   5.268
 6081SOL    HW219143   6.560   2.923   5.168
 6082SOL     OW19144   1.932   1.324   3.978
 6082SOL    HW119145   2.024   1.296   4.005
 6082SOL    HW219146   1.873   1.326   4.059
 6083SOL     OW19147   6.347   5.849   6.914
 6083SOL    HW119148   6.413   5.924   6.904
 6083SOL    HW219149   6.257   5.887   6.939
 6084SOL     OW19150   0.513   6.755   3.538
 6084SOL    HW119151   0.488   6.835   3.484
 6084SOL    HW219152   0.571   6.783   3.615
 6085SOL     OW19153   6.865   5.830   0.472
 6085SOL    HW119154   6.907   5.772   0.403
 6085SOL    HW219155   6.900   5.923   0.463
 6086SOL     OW19156   3.429   0.818   5.798
 6086SOL    HW119157   3.414   0.852   5.706
 6086SOL    HW219158   3.429   0.895   5.863
 6087SOL     OW19159   3.587   5.426   0.981
 6087SOL    HW119160   3.577   5.376   1.067
 6087SOL    HW219161   3.529   5.507   0.983
 6088SOL     OW19162   5.174   5.839   4.263
 6088SOL    HW119163   5.152   5.815   4.168
 6088SOL    HW219164   5.170   5.938   4.273
 6089SOL     OW19165   5.137   3.138   1.837
 6089SOL    HW119166   5.037   3.136   1.828
 6089SOL    HW219167   5.178   3.147   1.746
 6090SOL     OW19168   1.992   5.788   5.282
 6090SOL    HW119169   1.954   5.880   5.291
 6090SOL    HW219170   2.088   5.794   5.255
 6091SOL     OW19171   2.019   1.072   0.121
 6091SOL    HW119172   1.937   1.076   0.178
 6091SOL    HW219173   2.010   0.996   0.056
 6092SOL     OW19174   3.927   0.220   2.682
 6092SOL    HW119175   4.026   0.225   2.692
 6092SOL    HW219176   3.902   0.133   2.638
 6093SOL     OW19177   1.978   3.405   1.873
 6093SOL    HW119178   1.952   3.308   1.868
 6093SOL    HW219179   2.076   3.412   1.894
 6094SOL     OW19180   2.541   6.821   2.256
 6094SOL    HW119181   2.514   6.837   2.351
 6094SOL    HW219182   2.504   6.733   2.224
 6095SOL     OW19183   5.117   4.342   0.611
 6095SOL    HW119184   5.069   4.286   0.678
 6095SOL    HW219185   5.213   4.352   0.638
 6096SOL     OW19186   6.198   6.511   4.206
 6096SOL    HW119187   6.191   6.591   4.266
 6096SOL    HW219188   6.251   6.439   4.251
 6097SOL     OW19189   2.093   5.957   2.081
 6097SOL    HW119190   2.108   5.939   2.178
 6097SOL    HW219191   2.140   6.041   2.054
 6098SOL     OW19192   1.740   1.840   5.213
 6098SOL    HW119193   1.742   1.912   5.143
 6098SOL    HW219194   1.683   1.765   5.181
 6099SOL     OW19195   5.832   6.638   0.103
 6099SOL    HW119196   5.897   6.564   0.120
 6099SOL    HW219197   5.833   6.702   0.180
 6100SOL     OW19198   5.422   6.028   0.644
 6100SOL    HW119199   5.334   6.030   0.691
 6100SOL    HW219200   5.410   5.998   0.550
 6101SOL     OW19201   6.577   3.324   3.620
 6101SOL    HW119202   6.510   3.332   3.547
 6101SOL    HW219203   6.529   3.316   3.708
 6102SOL     OW19204   3.438   6.351   2.805
 6102SOL    HW119205   3.398   6.286   2.740
 6102SOL    HW219206   3.370   6.420   2.828
 6103SOL     OW19207   6.502   1.837   1.738
 6103SOL    HW119208   6.485   1.837   1.639
 6103SOL    HW219209   6.426   1.880   1.785
 6104SOL     OW19210   6.260   0.780   5.635
 6104SOL    HW119211   6.303   0.805   5.722
 6104SOL    HW219212   6.310   0.824   5.560
 6105SOL     OW19213   3.367   6.335   6.673
 6105SOL    HW119214   3.285   6.344   6.617
 6105SOL    HW219215   3.444   6.309   6.615
 6106SOL     OW19216   1.778   4.081   6.697
 6106SOL    HW119217   1.835   4.026   6.635
 6106SOL    HW219218   1.818   4.078   6.789
 6107SOL     OW19219   3.850   5.436   4.483
 6107SOL    HW119220   3.916   5.510   4.494
 6107SOL    HW219221   3.763   5.474   4.452
 6108SOL     OW19222   1.932   3.138   1.907
 6108SOL    HW119223   2.013   3.099   1.949
 6108SOL    HW219224   1.920   3.101   1.814
 6109SOL     OW19225   6.043   2.233   5.077
 6109SOL    HW119226   6.015   2.300   5.145
 6109SOL    HW219227   5.966   2.211   5.017
 6110SOL     OW19228   3.821   3.963   0.532
 6110SOL    HW119229   3.747   4.011   0.485
 6110SOL    HW219230   3.907   4.013   0.520
 6111SOL     OW19231   1.904   4.149   2.441
 6111SOL    HW119232   1.875   4.055   2.460
 6111SOL    HW219233   1.826   4.210   2.448
 6112SOL     OW19234   3.680   0.305   2.346
 6112SOL    HW119235   3.758   0.318   2.407
 6112SOL    HW219236   3.712   0.304   2.251
 6113SOL     OW19237   2.716   1.160   6.756
 6113SOL    HW119238   2.753   1.079   6.712
 6113SOL    HW219239   2.618   1.168   6.735
 6114SOL     OW19240   5.058   5.044   1.469
 6114SOL    HW119241   5.122   5.122   1.471
 6114SOL    HW219242   5.069   4.991   1.552
 6115SOL     OW19243   5.490   6.748   4.165
 6115SOL    HW119244   5.443   6.826   4.124
 6115SOL    HW219245   5.485   6.670   4.104
 6116SOL     OW19246   3.760   1.381   6.130
 6116SOL    HW119247   3.697   1.423   6.195
 6116SOL    HW219248   3.851   1.375   6.170
 6117SOL     OW19249   1.695   1.234   3.815
 6117SOL    HW119250   1.782   1.236   3.864
 6117SOL    HW219251   1.703   1.286   3.730
 6118SOL     OW19252   6.917   1.083   2.354
 6118SOL    HW119253   6.903   1.068   2.452
 6118SOL    HW219254   6.948   1.177   2.339
 6119SOL     OW19255   0.757   3.878   6.524
 6119SOL    HW119256   0.759   3.863   6.425
 6119SOL    HW219257   0.804   3.964   6.545
 6120SOL     OW19258   3.502   6.452   5.027
 6120SOL    HW119259   3.505   6.405   5.115
 6120SOL    HW219260   3.431   6.523   5.030
 6121SOL     OW19261   0.654   3.461   5.468
 6121SOL    HW119262   0.720   3.387   5.478
 6121SOL    HW219263   0.703   3.546   5.449
 6122SOL     OW19264   4.275   5.236   0.434
 6122SOL    HW119265   4.224   5.176   0.495
 6122SOL    HW219266   4.366   5.252   0.471
 6123SOL     OW19267   5.259   0.061   6.806
 6123SOL    HW119268   5.246   0.070   6.707
 6123SOL    HW219269   5.353   0.033   6.825
 6124SOL     OW19270   2.182   6.969   6.156
 6124SOL    HW119271   2.272   6.961   6.199
 6124SOL    HW219272   2.163   6.888   6.101
 6125SOL     OW19273   2.232   5.126   0.498
 6125SOL    HW119274   2.255   5.033   0.472
 6125SOL    HW219275   2.208   5.179   0.416
 6126SOL     OW19276   1.217   0.120   4.447
 6126SOL    HW119277   1.175   0.189   4.506
 6126SOL    HW219278   1.316   0.134   4.444
 6127SOL     OW19279   3.490   0.390   0.635
 6127SOL    HW119280   3.566   0.383   0.700
 6127SOL    HW219281   3.485   0.483   0.599
 6128SOL     OW19282   5.934   4.239   0.371
 6128SOL    HW119283   5.880   4.298   0.432
 6128SOL    HW219284   5.971   4.163   0.424
 6129SOL     OW19285   7.000   3.210   3.262
 6129SOL    HW119286   0.003   3.303   3.241
 6129SOL    HW219287   6.947   3.210   3.347
 6130SOL     OW19288   5.847   2.362   3.177
 6130SOL    HW119289   5.757   2.404   3.164
 6130SOL    HW219290   5.918   2.423   3.140
 6131SOL     OW19291   0.630   1.357   5.305
 6131SOL    HW119292   0.539   1.339   5.343
 6131SOL    HW219293   0.679   1.271   5.295
 6132SOL     OW19294   4.897   2.350   6.899
 6132SOL    HW119295   4.974   2.355   6.963
 6132SOL    HW219296   4.873   2.254   6.883
 6133SOL     OW19297   1.685   3.185   1.984
 6133SOL    HW119298   1.773   3.158   1.946
 6133SOL    HW219299   1.633   3.235   1.914
 6134SOL     OW19300   4.065   4.537   6.229
 6134SOL    HW119301   3.986   4.549   6.290
 6134SOL    HW219302   4.148   4.563   6.277
 6135SOL     OW19303   0.494   1.028   1.520
 6135SOL    HW119304   0.500   1.108   1.580
 6135SOL    HW219305   0.501   1.057   1.425
 6136SOL     OW19306   1.108   2.761   2.319
 6136SOL    HW119307   1.084   2.789   2.412
 6136SOL    HW219308   1.072   2.827   2.254
 6137SOL     OW19309   6.473   3.046   2.753
 6137SOL    HW119310   6.540   2.996   2.808
 6137SOL    HW219311   6.476   3.014   2.659
 6138SOL     OW19312   3.703   6.208   2.825
 6138SOL    HW119313   3.695   6.180   2.920
 6138SOL    HW219314   3.629   6.270   2.802
 6139SOL     OW19315   1.172   0.312   5.814
 6139SOL    HW119316   1.095   0.261   5.853
 6139SOL    HW219317   1.257   0.264   5.833
 6140SOL     OW19318   0.432   6.145   1.654
 6140SOL    HW119319   0.515   6.115   1.608
 6140SOL    HW219320   0.426   6.244   1.651
 6141SOL     OW19321   0.432   6.498   6.439
 6141SOL    HW119322   0.436   6.399   6.445
 6141SOL    HW219323   0.346   6.531   6.477
 6142SOL     OW19324   1.341   6.621   6.828
 6142SOL    HW119325   1.348   6.721   6.833
 6142SOL    HW219326   1.405   6.580   6.894
 6143SOL     OW19327   6.721   3.460   1.737
 6143SOL    HW119328   6.627   3.481   1.708
 6143SOL    HW219329   6.762   3.395   1.672
 6144SOL     OW19330   5.673   4.526   3.169
 6144SOL    HW119331   5.615   4.594   3.215
 6144SOL    HW219332   5.621   4.441   3.156
 6145SOL     OW19333   4.830   5.145   2.970
 6145SOL    HW119334   4.735   5.140   3.001
 6145SOL    HW219335   4.834   5.121   2.873
 6146SOL     OW19336   3.082   5.999   3.949
 6146SOL    HW119337   3.156   5.932   3.949
 6146SOL    HW219338   2.997   5.954   3.978
 6147SOL     OW19339   2.221   2.284   4.854
 6147SOL    HW119340   2.201   2.246   4.944
 6147SOL    HW219341   2.311   2.329   4.855
 6148SOL     OW19342   5.720   6.481   4.810
 6148SOL    HW119343   5.666   6.546   4.757
 6148SOL    HW219344   5.777   6.426   4.749
 6149SOL     OW19345   2.574   5.816   1.044
 6149SOL    HW119346   2.540   5.750   1.111
 6149SOL    HW219347   2.544   5.789   0.952
 6150SOL     OW19348   4.366   5.446   6.809
 6150SOL    HW119349   4.423   5.372   6.846
 6150SOL    HW219350   4.331   5.419   6.720
 6151SOL     OW19351   5.879   4.128   6.386
 6151SOL    HW119352   5.961   4.171   6.348
 6151SOL    HW219353   5.898   4.033   6.409
 6152SOL     OW19354   6.432   5.353   4.577
 6152SOL    HW119355   6.415   5.449   4.558
 6152SOL    HW219356   6.445   5.304   4.491
 6153SOL     OW19357   5.011   4.560   1.593
 6153SOL    HW119358   4.949   4.584   1.668
 6153SOL    HW219359   5.006   4.630   1.522
 6154SOL     OW19360   5.802   1.680   2.707
 6154SOL    HW119361   5.786   1.741   2.784
 6154SOL    HW219362   5.740   1.704   2.632
 6155SOL     OW19363   1.615   1.723   4.036
 6155SOL    HW119364   1.565   1.639   4.058
 6155SOL    HW219365   1.687   1.737   4.105
 6156SOL     OW19366   4.068   4.306   1.094
 6156SOL    HW119367   3.996   4.273   1.034
 6156SOL    HW219368   4.044   4.288   1.189
 6157SOL     OW19369   0.312   0.805   4.790
 6157SOL    HW119370   0.339   0.746   4.865
 6157SOL    HW219371   0.320   0.756   4.703
 6158SOL     OW19372   3.561   2.062   5.662
 6158SOL    HW119373   3.484   2.006   5.691
 6158SOL    HW219374   3.633   2.059   5.731
 6159SOL     OW19375   5.187   2.878   2.316
 6159SOL    HW119376   5.160   2.952   2.255
 6159SOL    HW219377   5.265   2.830   2.276
 6160SOL     OW19378   4.915   1.688   6.141
 6160SOL    HW119379   4.970   1.606   6.124
 6160SOL    HW219380   4.960   1.745   6.210
 6161SOL     OW19381   4.694   1.722   5.308
 6161SOL    HW119382   4.645   1.719   5.220
 6161SOL    HW219383   4.631   1.752   5.380
 6162SOL     OW19384   0.803   6.138   3.054
 6162SOL    HW119385   0.710   6.108   3.074
 6162SOL    HW219386   0.800   6.225   3.005
 6163SOL     OW19387   6.131   6.946   0.783
 6163SOL    HW119388   6.164   6.929   0.876
 6163SOL    HW219389   6.189   7.014   0.740
 6164SOL     OW19390   4.079   3.749   2.298
 6164SOL    HW119391   4.133   3.832   2.317
 6164SOL    HW219392   4.102   3.679   2.365
 6165SOL     OW19393   4.617   1.468   6.914
 6165SOL    HW119394   4.635   1.445   6.819
 6165SOL    HW219395   4.635   1.388   6.972
 6166SOL     OW19396   5.216   1.379   6.473
 6166SOL    HW119397   5.169   1.465   6.494
 6166SOL    HW219398   5.315   1.393   6.480
 6167SOL     OW19399   1.254   5.607   3.529
 6167SOL    HW119400   1.223   5.519   3.492
 6167SOL    HW219401   1.210   5.682   3.480
 6168SOL     OW19402   1.421   4.365   1.815
 6168SOL    HW119403   1.410   4.423   1.895
 6168SOL    HW219404   1.519   4.351   1.797
 6169SOL     OW19405   1.216   2.454   0.821
 6169SOL    HW119406   1.287   2.499   0.875
 6169SOL    HW219407   1.252   2.432   0.731
 6170SOL     OW19408   1.183   3.816   5.455
 6170SOL    HW119409   1.269   3.824   5.405
 6170SOL    HW219410   1.107   3.804   5.391
 6171SOL     OW19411   0.535   2.921   0.599
 6171SOL    HW119412   0.581   2.840   0.634
 6171SOL    HW219413   0.528   2.915   0.499
 6172SOL     OW19414   1.921   2.744   2.407
 6172SOL    HW119415   1.910   2.645   2.405
 6172SOL    HW219416   1.846   2.787   2.356
 6173SOL     OW19417   6.899   5.505   1.661
 6173SOL    HW119418   6.821   5.566   1.673
 6173SOL    HW219419   6.940   5.485   1.750
 6174SOL     OW19420   5.654   4.863   3.526
 6174SOL    HW119421   5.610   4.952   3.537
 6174SOL    HW219422   5.752   4.875   3.515
 6175SOL     OW19423   4.328   0.570   3.549
 6175SOL    HW119424   4.326   0.583   3.450
 6175SOL    HW219425   4.280   0.485   3.572
 6176SOL     OW19426   4.951   4.035   6.153
 6176SOL    HW119427   4.994   4.092   6.083
 6176SOL    HW219428   4.873   3.987   6.114
 6177SOL     OW19429   5.723   0.982   1.106
 6177SOL    HW119430   5.671   1.045   1.163
 6177SOL    HW219431   5.805   0.953   1.154
 6178SOL     OW19432   4.512   4.812   2.558
 6178SOL    HW119433   4.422   4.771   2.540
 6178SOL    HW219434   4.583   4.744   2.540
 6179SOL     OW19435   6.538   4.302   3.210
 6179SOL    HW119436   6.575   4.311   3.303
 6179SOL    HW219437   6.584   4.367   3.149
 6180SOL     OW19438   3.297   4.223   0.034
 6180SOL    HW119439   3.284   4.125   0.028
 6180SOL    HW219440   3.265   4.266   6.975
 6181SOL     OW19441   4.096   6.702   1.141
 6181SOL    HW119442   4.085   6.634   1.069
 6181SOL    HW219443   4.117   6.656   1.227
 6182SOL     OW19444   5.504   3.548   5.267
 6182SOL    HW119445   5.497   3.622   5.199
 6182SOL    HW219446   5.584   3.563   5.325
 6183SOL     OW19447   1.223   2.177   3.030
 6183SOL    HW119448   1.291   2.121   3.078
 6183SOL    HW219449   1.244   2.273   3.044
 6184SOL     OW19450   2.181   6.975   6.643
 6184SOL    HW119451   2.163   7.024   6.558
 6184SOL    HW219452   2.100   6.923   6.670
 6185SOL     OW19453   1.020   3.852   5.705
 6185SOL    HW119454   0.973   3.774   5.745
 6185SOL    HW219455   1.074   3.822   5.626
 6186SOL     OW19456   0.225   0.256   6.922
 6186SOL    HW119457   0.310   0.205   6.905
 6186SOL    HW219458   0.246   0.341   6.970
 6187SOL     OW19459   5.280   4.594   3.617
 6187SOL    HW119460   5.274   4.693   3.627
 6187SOL    HW219461   5.313   4.554   3.702
 6188SOL     OW19462   2.044   0.954   0.465
 6188SOL    HW119463   2.125   0.979   0.518
 6188SOL    HW219464   2.008   1.034   0.418
 6189SOL     OW19465   4.666   4.352   3.085
 6189SOL    HW119466   4.648   4.409   3.005
 6189SOL    HW219467   4.622   4.392   3.165
 6190SOL     OW19468   0.798   3.985   5.247
 6190SOL    HW119469   0.791   3.990   5.147
 6190SOL    HW219470   0.881   4.032   5.277
 6191SOL     OW19471   3.043   1.672   0.026
 6191SOL    HW119472   3.004   1.746   0.080
 6191SOL    HW219473   2.979   1.644   6.981
 6192SOL     OW19474   3.616   2.575   5.654
 6192SOL    HW119475   3.694   2.557   5.594
 6192SOL    HW219476   3.612   2.672   5.675
 6193SOL     OW19477   4.743   0.463   1.938
 6193SOL    HW119478   4.796   0.442   1.856
 6193SOL    HW219479   4.761   0.393   2.008
 6194SOL     OW19480   1.517   0.230   1.442
 6194SOL    HW119481   1.518   0.137   1.478
 6194SOL    HW219482   1.432   0.246   1.392
 6195SOL     OW19483   3.897   6.158   5.812
 6195SOL    HW119484   3.825   6.104   5.856
 6195SOL    HW219485   3.874   6.171   5.715
 6196SOL     OW19486   5.536   3.117   1.528
 6196SOL    HW119487   5.551   3.146   1.622
 6196SOL    HW219488   5.623   3.093   1.486
 6197SOL     OW19489   3.794   4.646   0.873
 6197SOL    HW119490   3.710   4.672   0.825
 6197SOL    HW219491   3.812   4.549   0.857
 6198SOL     OW19492   4.319   6.518   1.772
 6198SOL    HW119493   4.265   6.436   1.751
 6198SOL    HW219494   4.262   6.599   1.761
 6199SOL     OW19495   0.666   1.367   0.467
 6199SOL    HW119496   0.670   1.332   0.560
 6199SOL    HW219497   0.583   1.332   0.422
 6200SOL     OW19498   1.366   1.126   5.779
 6200SOL    HW119499   1.443   1.184   5.805
 6200SOL    HW219500   1.355   1.052   5.846
 6201SOL     OW19501   0.672   4.080   4.642
 6201SOL    HW119502   0.584   4.077   4.595
 6201SOL    HW219503   0.721   3.994   4.627
 6202SOL     OW19504   4.063   1.423   2.332
 6202SOL    HW119505   3.973   1.465   2.331
 6202SOL    HW219506   4.086   1.391   2.239
 6203SOL     OW19507   6.851   5.587   2.396
 6203SOL    HW119508   6.753   5.579   2.375
 6203SOL    HW219509   6.862   5.613   2.492
 6204SOL     OW19510   0.190   4.819   4.408
 6204SOL    HW119511   0.206   4.917   4.417
 6204SOL    HW219512   0.264   4.777   4.357
 6205SOL     OW19513   6.146   5.578   0.058
 6205SOL    HW119514   6.130   5.488   0.099
 6205SOL    HW219515   6.226   5.574   7.025
 6206SOL     OW19516   5.873   1.623   3.508
 6206SOL    HW119517   5.854   1.623   3.410
 6206SOL    HW219518   5.971   1.611   3.524
 6207SOL     OW19519   0.344   4.905   5.163
 6207SOL    HW119520   0.356   4.845   5.242
 6207SOL    HW219521   0.422   4.895   5.101
 6208SOL     OW19522   5.337   2.425   5.723
 6208SOL    HW119523   5.280   2.506   5.712
 6208SOL    HW219524   5.284   2.342   5.704
 6209SOL     OW19525   3.931   5.721   6.624
 6209SOL    HW119526   3.898   5.634   6.589
 6209SOL    HW219527   3.896   5.795   6.567
 6210SOL     OW19528   5.709   3.660   3.860
 6210SOL    HW119529   5.752   3.634   3.773
 6210SOL    HW219530   5.733   3.593   3.930
 6211SOL     OW19531   3.164   6.394   5.522
 6211SOL    HW119532   3.192   6.482   5.560
 6211SOL    HW219533   3.177   6.394   5.423
 6212SOL     OW19534   2.256   4.972   4.468
 6212SOL    HW119535   2.279   4.878   4.443
 6212SOL    HW219536   2.167   4.973   4.515
 6213SOL     OW19537   6.690   0.759   0.235
 6213SOL    HW119538   6.733   0.780   0.323
 6213SOL    HW219539   6.705   0.835   0.171
 6214SOL     OW19540   4.464   5.400   4.027
 6214SOL    HW119541   4.483   5.311   4.068
 6214SOL    HW219542   4.405   5.389   3.947
 6215SOL     OW19543   4.248   2.218   0.260
 6215SOL    HW119544   4.286   2.243   0.349
 6215SOL    HW219545   4.298   2.265   0.188
 6216SOL     OW19546   6.403   1.252   2.365
 6216SOL    HW119547   6.375   1.195   2.287
 6216SOL    HW219548   6.439   1.339   2.331
 6217SOL     OW19549   0.643   3.697   2.580
 6217SOL    HW119550   0.612   3.761   2.510
 6217SOL    HW219551   0.576   3.624   2.592
 6218SOL     OW19552   4.056   6.138   6.575
 6218SOL    HW119553   4.056   6.043   6.604
 6218SOL    HW219554   4.010   6.147   6.487
 6219SOL     OW19555   1.768   2.124   4.651
 6219SOL    HW119556   1.819   2.150   4.733
 6219SOL    HW219557   1.829   2.077   4.587
 6220SOL     OW19558   2.461   1.575   4.586
 6220SOL    HW119559   2.461   1.476   4.598
 6220SOL    HW219560   2.405   1.598   4.506
 6221SOL     OW19561   5.611   6.109   0.137
 6221SOL    HW119562   5.552   6.187   0.155
 6221SOL    HW219563   5.703   6.128   0.171
 6222SOL     OW19564   1.106   6.264   1.681
 6222SOL    HW119565   1.012   6.281   1.709
 6222SOL    HW219566   1.110   6.256   1.581
 6223SOL     OW19567   1.464   4.800   3.850
 6223SOL    HW119568   1.490   4.706   3.869
 6223SOL    HW219569   1.365   4.805   3.837
 6224SOL     OW19570   3.159   1.481   6.032
 6224SOL    HW119571   3.248   1.436   6.032
 6224SOL    HW219572   3.094   1.426   6.083
 6225SOL     OW19573   4.162   3.543   6.448
 6225SOL    HW119574   4.234   3.501   6.503
 6225SOL    HW219575   4.198   3.569   6.358
 6226SOL     OW19576   0.430   1.869   5.788
 6226SOL    HW119577   0.378   1.952   5.808
 6226SOL    HW219578   0.526   1.883   5.813
 6227SOL     OW19579   3.174   5.495   5.170
 6227SOL    HW119580   3.215   5.561   5.107
 6227SOL    HW219581   3.077   5.484   5.147
 6228SOL     OW19582   1.072   3.308   2.525
 6228SOL    HW119583   0.985   3.335   2.484
 6228SOL    HW219584   1.097   3.373   2.597
 6229SOL     OW19585   1.073   1.787   3.804
 6229SOL    HW119586   1.061   1.864   3.742
 6229SOL    HW219587   1.003   1.718   3.785
 6230SOL     OW19588   0.682   2.037   3.432
 6230SOL    HW119589   0.634   1.974   3.493
 6230SOL    HW219590   0.630   2.049   3.348
 6231SOL     OW19591   6.095   6.514   0.549
 6231SOL    HW119592   6.106   6.572   0.630
 6231SOL    HW219593   6.011   6.538   0.502
 6232SOL     OW19594   6.515   1.261   0.831
 6232SOL    HW119595   6.587   1.237   0.895
 6232SOL    HW219596   6.542   1.236   0.738
 6233SOL     OW19597   6.550   2.028   1.181
 6233SOL    HW119598   6.480   2.053   1.113
 6233SOL    HW219599   6.530   1.937   1.216
 6234SOL     OW19600   6.810   1.043   5.487
 6234SOL    HW119601   6.769   1.116   5.431
 6234SOL    HW219602   6.834   1.080   5.577
 6235SOL     OW19603   0.027   0.068   1.040
 6235SOL    HW119604   0.092   0.000   1.075
 6235SOL    HW219605   0.043   0.156   1.085
 6236SOL     OW19606   0.678   3.895   1.023
 6236SOL    HW119607   0.682   3.900   1.123
 6236SOL    HW219608   0.737   3.965   0.983
 6237SOL     OW19609   3.892   0.379   6.076
 6237SOL    HW119610   3.892   0.281   6.058
 6237SOL    HW219611   3.878   0.394   6.174
 6238SOL     OW19612   4.062   5.240   2.784
 6238SOL    HW119613   4.060   5.265   2.687
 6238SOL    HW219614   4.049   5.323   2.839
 6239SOL     OW19615   3.136   1.010   1.390
 6239SOL    HW119616   3.225   0.966   1.383
 6239SOL    HW219617   3.106   1.039   1.299
 6240SOL     OW19618   2.315   3.799   5.561
 6240SOL    HW119619   2.289   3.702   5.561
 6240SOL    HW219620   2.406   3.808   5.520
 6241SOL     OW19621   3.108   0.028   1.511
 6241SOL    HW119622   3.141   6.973   1.559
 6241SOL    HW219623   3.057   0.086   1.574
 6242SOL     OW19624   3.735   0.544   4.072
 6242SOL    HW119625   3.828   0.537   4.034
 6242SOL    HW219626   3.694   0.453   4.076
 6243SOL     OW19627   6.620   6.889   5.201
 6243SOL    HW119628   6.581   6.816   5.145
 6243SOL    HW219629   6.691   6.937   5.149
 6244SOL     OW19630   6.057   2.651   2.658
 6244SOL    HW119631   6.004   2.583   2.608
 6244SOL    HW219632   6.107   2.607   2.732
 6245SOL     OW19633   1.473   3.734   0.106
 6245SOL    HW119634   1.435   3.646   0.079
 6245SOL    HW219635   1.414   3.808   0.073
 6246SOL     OW19636   1.355   2.223   5.717
 6246SOL    HW119637   1.331   2.319   5.732
 6246SOL    HW219638   1.454   2.214   5.711
 6247SOL     OW19639   0.457   5.385   4.063
 6247SOL    HW119640   0.535   5.339   4.106
 6247SOL    HW219641   0.387   5.317   4.042
 6248SOL     OW19642   3.455   3.380   6.916
 6248SOL    HW119643   3.357   3.400   6.915
 6248SOL    HW219644   3.476   3.318   6.992
 6249SOL     OW19645   0.066   4.195   0.632
 6249SOL    HW119646   0.137   4.158   0.692
 6249SOL    HW219647   0.101   4.200   0.538
 6250SOL     OW19648   6.534   0.597   0.534
 6250SOL    HW119649   6.544   0.590   0.435
 6250SOL    HW219650   6.550   0.508   0.576
 6251SOL     OW19651   4.011   5.909   5.923
 6251SOL    HW119652   4.057   5.897   5.834
 6251SOL    HW219653   4.046   5.991   5.967
 6252SOL     OW19654   2.299   6.043   5.442
 6252SOL    HW119655   2.361   6.098   5.498
 6252SOL    HW219656   2.212   6.032   5.489
 6253SOL     OW19657   2.357   5.062   4.072
 6253SOL    HW119658   2.441   5.023   4.111
 6253SOL    HW219659   2.318   5.128   4.136
 6254SOL     OW19660   5.586   1.350   1.638
 6254SOL    HW119661   5.574   1.445   1.610
 6254SOL    HW219662   5.517   1.293   1.593
 6255SOL     OW19663   2.810   0.647   0.518
 6255SOL    HW119664   2.882   0.717   0.520
 6255SOL    HW219665   2.723   0.689   0.544
 6256SOL     OW19666   3.677   5.124   1.435
 6256SOL    HW119667   3.754   5.135   1.497
 6256SOL    HW219668   3.682   5.034   1.392
 6257SOL     OW19669   5.056   2.071   1.104
 6257SOL    HW119670   5.055   2.167   1.079
 6257SOL    HW219671   4.967   2.030   1.084
 6258SOL     OW19672   3.217   0.910   3.616
 6258SOL    HW119673   3.136   0.964   3.593
 6258SOL    HW219674   3.232   0.842   3.544
 6259SOL     OW19675   1.730   2.846   6.930
 6259SOL    HW119676   1.814   2.820   6.883
 6259SOL    HW219677   1.751   2.910   7.003
 6260SOL     OW19678   3.654   5.846   0.393
 6260SOL    HW119679   3.678   5.911   0.321
 6260SOL    HW219680   3.555   5.841   0.403
 6261SOL     OW19681   3.926   1.371   0.006
 6261SOL    HW119682   3.846   1.397   0.059
 6261SOL    HW219683   3.898   1.326   6.947
 6262SOL     OW19684   2.301   6.201   2.101
 6262SOL    HW119685   2.331   6.225   2.009
 6262SOL    HW219686   2.366   6.137   2.142
 6263SOL     OW19687   6.955   0.245   4.229
 6263SOL    HW119688   0.022   0.278   4.243
 6263SOL    HW219689   6.932   0.249   4.132
 6264SOL     OW19690   1.745   0.279   1.969
 6264SOL    HW119691   1.796   0.242   1.892
 6264SOL    HW219692   1.807   0.328   2.030
 6265SOL     OW19693   3.766   3.520   0.532
 6265SOL    HW119694   3.676   3.495   0.494
 6265SOL    HW219695   3.813   3.581   0.468
 6266SOL     OW19696   3.821   0.778   3.822
 6266SOL    HW119697   3.721   0.785   3.828
 6266SOL    HW219698   3.863   0.826   3.899
 6267SOL     OW19699   2.367   7.000   5.489
 6267SOL    HW119700   2.320   6.927   5.538
 6267SOL    HW219701   2.301   0.023   5.432
 6268SOL     OW19702   2.889   0.478   3.299
 6268SOL    HW119703   2.878   0.503   3.395
 6268SOL    HW219704   2.876   0.559   3.242
 6269SOL     OW19705   0.407   6.667   1.994
 6269SOL    HW119706   0.310   6.659   2.019
 6269SOL    HW219707   0.441   6.757   2.020
 6270SOL     OW19708   1.483   0.300   6.212
 6270SOL    HW119709   1.442   0.220   6.168
 6270SOL    HW219710   1.457   0.302   6.309
 6271SOL     OW19711   6.219   2.413   6.238
 6271SOL    HW119712   6.123   2.440   6.239
 6271SOL    HW219713   6.273   2.483   6.192
 6272SOL     OW19714   0.893   2.752   0.284
 6272SOL    HW119715   0.913   2.729   0.379
 6272SOL    HW219716   0.968   2.805   0.246
 6273SOL     OW19717   0.863   6.568   2.700
 6273SOL    HW119718   0.857   6.494   2.633
 6273SOL    HW219719   0.890   6.653   2.654
 6274SOL     OW19720   3.586   6.195   5.706
 6274SOL    HW119721   3.606   6.280   5.753
 6274SOL    HW219722   3.491   6.196   5.674
 6275SOL     OW19723   2.507   6.698   6.412
 6275SOL    HW119724   2.479   6.784   6.370
 6275SOL    HW219725   2.465   6.690   6.502
 6276SOL     OW19726   1.941   4.518   4.037
 6276SOL    HW119727   1.873   4.459   3.993
 6276SOL    HW219728   1.992   4.568   3.967
 6277SOL     OW19729   4.825   3.075   0.887
 6277SOL    HW119730   4.860   3.101   0.977
 6277SOL    HW219731   4.862   3.138   0.818
 6278SOL     OW19732   5.525   6.626   4.678
 6278SOL    HW119733   5.456   6.613   4.749
 6278SOL    HW219734   5.480   6.630   4.589
 6279SOL     OW19735   3.914   6.702   6.853
 6279SOL    HW119736   3.993   6.672   6.906
 6279SOL    HW219737   3.841   6.635   6.861
 6280SOL     OW19738   0.977   1.581   5.803
 6280SOL    HW119739   0.946   1.656   5.861
 6280SOL    HW219740   1.041   1.523   5.853
 6281SOL     OW19741   0.246   4.820   4.095
 6281SOL    HW119742   0.281   4.908   4.063
 6281SOL    HW219743   0.286   4.747   4.040
 6282SOL     OW19744   7.000   5.444   6.022
 6282SOL    HW119745   6.940   5.465   5.945
 6282SOL    HW219746   6.983   5.351   6.054
 6283SOL     OW19747   6.895   3.554   5.085
 6283SOL    HW119748   6.934   3.480   5.030
 6283SOL    HW219749   6.850   3.620   5.025
 6284SOL     OW19750   1.156   5.163   4.826
 6284SOL    HW119751   1.250   5.191   4.808
 6284SOL    HW219752   1.094   5.239   4.807
 6285SOL     OW19753   0.077   3.414   4.167
 6285SOL    HW119754   0.044   3.442   4.077
 6285SOL    HW219755   0.168   3.372   4.157
 6286SOL     OW19756   6.076   1.880   4.160
 6286SOL    HW119757   6.130   1.937   4.221
 6286SOL    HW219758   6.137   1.836   4.093
 6287SOL     OW19759   3.416   4.971   4.988
 6287SOL    HW119760   3.441   4.887   5.036
 6287SOL    HW219761   3.406   4.952   4.891
 6288SOL     OW19762   5.255   4.498   2.260
 6288SOL    HW119763   5.187   4.435   2.223
 6288SOL    HW219764   5.279   4.566   2.191
 6289SOL     OW19765   2.310   4.885   0.413
 6289SOL    HW119766   2.286   4.812   0.477
 6289SOL    HW219767   2.396   4.862   0.366
 6290SOL     OW19768   6.349   5.269   5.889
 6290SOL    HW119769   6.396   5.278   5.801
 6290SOL    HW219770   6.374   5.345   5.948
 6291SOL     OW19771   4.011   3.561   3.978
 6291SOL    HW119772   4.062   3.578   3.894
 6291SOL    HW219773   3.947   3.485   3.965
 6292SOL     OW19774   1.534   1.932   4.589
 6292SOL    HW119775   1.552   2.029   4.605
 6292SOL    HW219776   1.619   1.886   4.562
 6293SOL     OW19777   4.587   1.299   1.004
 6293SOL    HW119778   4.563   1.215   0.955
 6293SOL    HW219779   4.551   1.294   1.097
 6294SOL     OW19780   3.633   6.442   4.075
 6294SOL    HW119781   3.607   6.515   4.012
 6294SOL    HW219782   3.622   6.353   4.031
 6295SOL     OW19783   5.738   4.697   5.253
 6295SOL    HW119784   5.709   4.602   5.244
 6295SOL    HW219785   5.658   4.755   5.268
 6296SOL     OW19786   0.459   6.244   5.784
 6296SOL    HW119787   0.391   6.304   5.826
 6296SOL    HW219788   0.550   6.286   5.792
 6297SOL     OW19789   5.499   0.741   5.039
 6297SOL    HW119790   5.541   0.790   4.963
 6297SOL    HW219791   5.454   0.806   5.101
 6298SOL     OW19792   1.658   3.557   6.721
 6298SOL    HW119793   1.689   3.615   6.796
 6298SOL    HW219794   1.691   3.594   6.634
 6299SOL     OW19795   6.266   1.939   1.533
 6299SOL    HW119796   6.187   1.907   1.482
 6299SOL    HW219797   6.301   2.024   1.492
 6300SOL     OW19798   6.851   1.381   6.877
 6300SOL    HW119799   6.796   1.392   6.795
 6300SOL    HW219800   6.803   1.322   6.942
 6301SOL     OW19801   4.080   0.269   0.175
 6301SOL    HW119802   4.064   0.362   0.143
 6301SOL    HW219803   4.172   0.240   0.148
 6302SOL     OW19804   1.201   0.478   3.471
 6302SOL    HW119805   1.247   0.535   3.403
 6302SOL    HW219806   1.250   0.485   3.558
 6303SOL     OW19807   1.422   0.814   3.793
 6303SOL    HW119808   1.511   0.860   3.795
 6303SOL    HW219809   1.426   0.731   3.849
 6304SOL     OW19810   2.265   1.280   1.186
 6304SOL    HW119811   2.315   1.247   1.266
 6304SOL    HW219812   2.168   1.259   1.196
 6305SOL     OW19813   6.059   6.665   0.776
 6305SOL    HW119814   6.080   6.760   0.797
 6305SOL    HW219815   6.098   6.606   0.846
 6306SOL     OW19816   0.457   4.029   4.487
 6306SOL    HW119817   0.368   4.006   4.447
 6306SOL    HW219818   0.529   4.006   4.422
 6307SOL     OW19819   3.645   4.206   4.765
 6307SOL    HW119820   3.721   4.142   4.753
 6307SOL    HW219821   3.631   4.223   4.863
 6308SOL     OW19822   2.203   2.107   4.590
 6308SOL    HW119823   2.219   2.186   4.530
 6308SOL    HW219824   2.151   2.136   4.670
 6309SOL     OW19825   6.160   4.956   5.050
 6309SOL    HW119826   6.099   4.877   5.060
 6309SOL    HW219827   6.134   5.026   5.116
 6310SOL     OW19828   2.179   5.642   2.671
 6310SOL    HW119829   2.163   5.643   2.770
 6310SOL    HW219830   2.121   5.710   2.627
 6311SOL     OW19831   5.107   1.438   5.533
 6311SOL    HW119832   5.151   1.356   5.568
 6311SOL    HW219833   5.009   1.435   5.556
 6312SOL     OW19834   6.834   6.768   5.382
 6312SOL    HW119835   6.857   6.848   5.437
 6312SOL    HW219836   6.758   6.790   5.321
 6313SOL     OW19837   6.546   6.012   4.180
 6313SOL    HW119838   6.527   5.917   4.207
 6313SOL    HW219839   6.624   6.046   4.232
 6314SOL     OW19840   3.934   0.023   1.524
 6314SOL    HW119841   3.838   7.026   1.511
 6314SOL    HW219842   3.943   0.121   1.542
 6315SOL     OW19843   2.120   2.685   5.384
 6315SOL    HW119844   2.152   2.686   5.479
 6315SOL    HW219845   2.189   2.728   5.326
 6316SOL     OW19846   5.181   2.060   6.752
 6316SOL    HW119847   5.279   2.056   6.773
 6316SOL    HW219848   5.165   2.129   6.681
 6317SOL     OW19849   4.358   5.122   1.458
 6317SOL    HW119850   4.261   5.141   1.441
 6317SOL    HW219851   4.383   5.037   1.412
 6318SOL     OW19852   3.892   0.061   5.995
 6318SOL    HW119853   3.980   0.018   6.016
 6318SOL    HW219854   3.897   0.102   5.904
 6319SOL     OW19855   6.566   1.761   5.030
 6319SOL    HW119856   6.657   1.734   5.061
 6319SOL    HW219857   6.572   1.797   4.936
 6320SOL     OW19858   6.493   6.308   5.165
 6320SOL    HW119859   6.423   6.271   5.226
 6320SOL    HW219860   6.482   6.268   5.074
 6321SOL     OW19861   3.805   3.887   0.789
 6321SOL    HW119862   3.901   3.869   0.811
 6321SOL    HW219863   3.800   3.940   0.705
 6322SOL     OW19864   2.012   2.982   0.598
 6322SOL    HW119865   1.998   2.894   0.554
 6322SOL    HW219866   2.009   2.971   0.698
 6323SOL     OW19867   2.244   2.071   1.443
 6323SOL    HW119868   2.217   1.976   1.427
 6323SOL    HW219869   2.269   2.114   1.356
 6324SOL     OW19870   5.031   1.205   0.845
 6324SOL    HW119871   5.097   1.154   0.791
 6324SOL    HW219872   5.000   1.149   0.922
 6325SOL     OW19873   2.011   2.956   2.543
 6325SOL    HW119874   2.065   2.931   2.623
 6325SOL    HW219875   1.970   2.874   2.504
 6326SOL     OW19876   5.340   4.730   1.562
 6326SOL    HW119877   5.305   4.712   1.654
 6326SOL    HW219878   5.379   4.646   1.524
 6327SOL     OW19879   0.764   1.030   5.026
 6327SOL    HW119880   0.667   1.055   5.030
 6327SOL    HW219881   0.816   1.087   5.089
 6328SOL     OW19882   3.488   3.609   0.180
 6328SOL    HW119883   3.394   3.626   0.153
 6328SOL    HW219884   3.550   3.661   0.120
 6329SOL     OW19885   1.587   2.647   3.140
 6329SOL    HW119886   1.597   2.648   3.041
 6329SOL    HW219887   1.551   2.736   3.171
 6330SOL     OW19888   5.701   0.107   1.533
 6330SOL    HW119889   5.693   0.008   1.540
 6330SOL    HW219890   5.631   0.142   1.471
 6331SOL     OW19891   6.118   2.620   5.161
 6331SOL    HW119892   6.124   2.704   5.216
 6331SOL    HW219893   6.187   2.555   5.192
 6332SOL     OW19894   0.267   2.940   0.894
 6332SOL    HW119895   0.278   2.847   0.860
 6332SOL    HW219896   0.185   2.946   0.951
 6333SOL     OW19897   4.659   6.420   5.167
 6333SOL    HW119898   4.683   6.495   5.105
 6333SOL    HW219899   4.691   6.333   5.129
 6334SOL     OW19900   2.533   1.231   2.567
 6334SOL    HW119901   2.559   1.318   2.610
 6334SOL    HW219902   2.436   1.234   2.543
 6335SOL     OW19903   4.447   0.757   0.662
 6335SOL    HW119904   4.493   0.779   0.575
 6335SOL    HW219905   4.484   0.672   0.699
 6336SOL     OW19906   1.212   2.708   6.791
 6336SOL    HW119907   1.292   2.730   6.846
 6336SOL    HW219908   1.179   2.790   6.745
 6337SOL     OW19909   4.916   4.829   5.130
 6337SOL    HW119910   4.823   4.858   5.107
 6337SOL    HW219911   4.939   4.746   5.079
 6338SOL     OW19912   3.328   2.132   4.143
 6338SOL    HW119913   3.340   2.100   4.238
 6338SOL    HW219914   3.256   2.079   4.099
 6339SOL     OW19915   0.707   3.835   3.428
 6339SOL    HW119916   0.749   3.918   3.391
 6339SOL    HW219917   0.739   3.755   3.376
 6340SOL     OW19918   1.574   5.218   1.590
 6340SOL    HW119919   1.474   5.214   1.599
 6340SOL    HW219920   1.602   5.310   1.563
 6341SOL     OW19921   7.004   3.912   4.622
 6341SOL    HW119922   6.906   3.934   4.619
 6341SOL    HW219923   7.016   3.813   4.618
 6342SOL     OW19924   2.581   0.883   2.045
 6342SOL    HW119925   2.629   0.942   1.980
 6342SOL    HW219926   2.573   0.791   2.007
 6343SOL     OW19927   4.598   1.618   6.085
 6343SOL    HW119928   4.551   1.703   6.108
 6343SOL    HW219929   4.579   1.593   5.990
 6344SOL     OW19930   5.152   2.243   4.610
 6344SOL    HW119931   5.080   2.302   4.574
 6344SOL    HW219932   5.222   2.299   4.653
 6345SOL     OW19933   5.820   3.058   2.512
 6345SOL    HW119934   5.864   3.099   2.591
 6345SOL    HW219935   5.789   2.966   2.536
 6346SOL     OW19936   6.667   5.560   4.023
 6346SOL    HW119937   6.669   5.522   4.116
 6346SOL    HW219938   6.576   5.548   3.984
 6347SOL     OW19939   1.913   0.928   1.127
 6347SOL    HW119940   1.860   0.979   1.060
 6347SOL    HW219941   1.994   0.889   1.084
 6348SOL     OW19942   1.475   2.886   5.862
 6348SOL    HW119943   1.474   2.791   5.893
 6348SOL    HW219944   1.491   2.947   5.940
 6349SOL     OW19945   2.230   0.609   1.251
 6349SOL    HW119946   2.247   0.707   1.244
 6349SOL    HW219947   2.207   0.586   1.346
 6350SOL     OW19948   0.624   5.107   3.844
 6350SOL    HW119949   0.585   5.186   3.796
 6350SOL    HW219950   0.620   5.123   3.943
 6351SOL     OW19951   6.148   3.412   3.866
 6351SOL    HW119952   6.161   3.318   3.832
 6351SOL    HW219953   6.238   3.456   3.876
 6352SOL     OW19954   3.350   6.704   4.705
 6352SOL    HW119955   3.303   6.791   4.690
 6352SOL    HW219956   3.386   6.670   4.618
 6353SOL     OW19957   1.199   6.869   5.903
 6353SOL    HW119958   1.219   6.810   5.825
 6353SOL    HW219959   1.100   6.879   5.912
 6354SOL     OW19960   2.550   4.985   3.084
 6354SOL    HW119961   2.608   4.936   3.150
 6354SOL    HW219962   2.478   5.035   3.133
 6355SOL     OW19963   1.577   5.095   6.798
 6355SOL    HW119964   1.513   5.169   6.816
 6355SOL    HW219965   1.529   5.008   6.798
 6356SOL     OW19966   4.807   5.872   1.769
 6356SOL    HW119967   4.871   5.927   1.715
 6356SOL    HW219968   4.849   5.850   1.857
 6357SOL     OW19969   6.428   3.792   2.772
 6357SOL    HW119970   6.332   3.815   2.755
 6357SOL    HW219971   6.487   3.851   2.716
 6358SOL     OW19972   0.387   2.202   6.850
 6358SOL    HW119973   0.342   2.144   6.782
 6358SOL    HW219974   0.480   2.169   6.865
 6359SOL     OW19975   6.194   0.617   0.321
 6359SOL    HW119976   6.223   0.654   0.409
 6359SOL    HW219977   6.274   0.602   0.263
 6360SOL     OW19978   1.351   4.209   4.385
 6360SOL    HW119979   1.329   4.229   4.289
 6360SOL    HW219980   1.313   4.119   4.409
 6361SOL     OW19981   1.197   6.626   0.891
 6361SOL    HW119982   1.133   6.635   0.815
 6361SOL    HW219983   1.255   6.707   0.897
 6362SOL     OW19984   0.424   6.038   0.021
 6362SOL    HW119985   0.338   6.073   7.009
 6362SOL    HW219986   0.406   5.954   0.072
 6363SOL     OW19987   2.043   5.387   3.733
 6363SOL    HW119988   2.114   5.317   3.735
 6363SOL    HW219989   2.009   5.398   3.639
 6364SOL     OW19990   2.531   1.948   5.536
 6364SOL    HW119991   2.461   1.964   5.466
 6364SOL    HW219992   2.598   2.022   5.534
 6365SOL     OW19993   5.489   0.076   4.165
 6365SOL    HW119994   5.572   0.057   4.113
 6365SOL    HW219995   5.506   0.152   4.227
 6366SOL     OW19996   0.975   5.947   5.341
 6366SOL    HW119997   1.039   5.937   5.417
 6366SOL    HW219998   0.903   6.012   5.367
 6367SOL     OW19999   4.009   1.423   4.777
 6367SOL    HW120000   3.963   1.475   4.849
 6367SOL    HW220001   4.031   1.484   4.701
 6368SOL     OW20002   3.591   4.986   3.500
 6368SOL    HW120003   3.497   5.004   3.472
 6368SOL    HW220004   3.626   5.064   3.552
 6369SOL     OW20005   2.515   6.468   4.386
 6369SOL    HW120006   2.473   6.434   4.302
 6369SOL    HW220007   2.582   6.539   4.363
 6370SOL     OW20008   0.170   2.900   3.720
 6370SOL    HW120009   0.215   2.982   3.685
 6370SOL    HW220010   0.088   2.881   3.665
 6371SOL     OW20011   4.836   4.588   3.104
 6371SOL    HW120012   4.821   4.490   3.094
 6371SOL    HW220013   4.934   4.608   3.094
 6372SOL     OW20014   1.482   0.986   1.448
 6372SOL    HW120015   1.396   1.019   1.411
 6372SOL    HW220016   1.548   0.972   1.374
 6373SOL     OW20017   4.597   4.316   2.335
 6373SOL    HW120018   4.663   4.246   2.359
 6373SOL    HW220019   4.582   4.316   2.236
 6374SOL     OW20020   4.095   3.776   3.123
 6374SOL    HW120021   4.125   3.762   3.029
 6374SOL    HW220022   4.055   3.867   3.132
 6375SOL     OW20023   0.037   1.692   3.143
 6375SOL    HW120024   7.001   1.753   3.094
 6375SOL    HW220025   7.010   1.623   3.192
 6376SOL     OW20026   5.248   2.596   5.185
 6376SOL    HW120027   5.231   2.605   5.086
 6376SOL    HW220028   5.195   2.665   5.234
 6377SOL     OW20029   0.187   1.452   5.153
 6377SOL    HW120030   0.250   1.469   5.229
 6377SOL    HW220031   0.222   1.376   5.097
 6378SOL     OW20032   4.503   4.721   3.859
 6378SOL    HW120033   4.551   4.641   3.894
 6378SOL    HW220034   4.569   4.786   3.822
 6379SOL     OW20035   1.489   3.977   4.673
 6379SOL    HW120036   1.537   3.907   4.726
 6379SOL    HW220037   1.529   4.067   4.693
 6380SOL     OW20038   0.591   1.816   5.044
 6380SOL    HW120039   0.616   1.742   5.107
 6380SOL    HW220040   0.656   1.819   4.968
 6381SOL     OW20041   3.992   2.950   1.714
 6381SOL    HW120042   3.900   2.939   1.750
 6381SOL    HW220043   4.038   2.861   1.710
 6382SOL     OW20044   2.613   1.729   0.689
 6382SOL    HW120045   2.616   1.686   0.778
 6382SOL    HW220046   2.519   1.729   0.654
 6383SOL     OW20047   2.063   2.459   3.016
 6383SOL    HW120048   1.969   2.426   3.009
 6383SOL    HW220049   2.065   2.558   3.002
 6384SOL     OW20050   5.907   3.922   3.219
 6384SOL    HW120051   5.987   3.881   3.177
 6384SOL    HW220052   5.902   4.019   3.194
 6385SOL     OW20053   6.974   3.975   3.291
 6385SOL    HW120054   6.937   3.949   3.380
 6385SOL    HW220055   7.005   4.070   3.294
 6386SOL     OW20056   1.746   4.087   5.985
 6386SOL    HW120057   1.815   4.071   5.914
 6386SOL    HW220058   1.659   4.110   5.942
 6387SOL     OW20059   6.818   1.756   6.261
 6387SOL    HW120060   6.763   1.694   6.206
 6387SOL    HW220061   6.816   1.727   6.356
 6388SOL     OW20062   3.840   6.530   2.087
 6388SOL    HW120063   3.881   6.620   2.104
 6388SOL    HW220064   3.813   6.523   1.991
 6389SOL     OW20065   6.966   5.475   2.166
 6389SOL    HW120066   0.021   5.417   2.171
 6389SOL    HW220067   6.939   5.502   2.259
 6390SOL     OW20068   0.625   0.829   5.891
 6390SOL    HW120069   0.563   0.844   5.969
 6390SOL    HW220070   0.586   0.871   5.809
 6391SOL     OW20071   2.680   0.235   5.818
 6391SOL    HW120072   2.678   0.241   5.917
 6391SOL    HW220073   2.590   0.210   5.784
 6392SOL     OW20074   2.809   5.859   2.960
 6392SOL    HW120075   2.752   5.786   3.000
 6392SOL    HW220076   2.888   5.875   3.019
 6393SOL     OW20077   0.130   6.163   1.903
 6393SOL    HW120078   0.179   6.113   1.974
 6393SOL    HW220079   0.128   6.109   1.819
 6394SOL     OW20080   2.643   5.271   0.733
 6394SOL    HW120081   2.697   5.327   0.670
 6394SOL    HW220082   2.553   5.312   0.746
 6395SOL     OW20083   0.212   2.692   1.722
 6395SOL    HW120084   0.226   2.649   1.633
 6395SOL    HW220085   0.114   2.711   1.735
 6396SOL     OW20086   5.352   3.343   6.605
 6396SOL    HW120087   5.288   3.408   6.646
 6396SOL    HW220088   5.429   3.392   6.564
 6397SOL     OW20089   6.011   1.283   1.360
 6397SOL    HW120090   5.926   1.243   1.392
 6397SOL    HW220091   5.992   1.345   1.283
 6398SOL     OW20092   2.632   6.882   1.720
 6398SOL    HW120093   2.642   6.806   1.784
 6398SOL    HW220094   2.636   6.846   1.626
 6399SOL     OW20095   1.728   6.636   6.456
 6399SOL    HW120096   1.638   6.672   6.429
 6399SOL    HW220097   1.755   6.675   6.544
 6400SOL     OW20098   3.013   5.428   1.854
 6400SOL    HW120099   2.974   5.388   1.772
 6400SOL    HW220100   3.043   5.356   1.916
 6401SOL     OW20101   5.403   6.062   3.544
 6401SOL    HW120102   5.499   6.037   3.557
 6401SOL    HW220103   5.362   6.084   3.633
 6402SOL     OW20104   2.693   2.229   3.008
 6402SOL    HW120105   2.612   2.245   3.065
 6402SOL    HW220106   2.727   2.316   2.973
 6403SOL     OW20107   6.943   5.619   6.290
 6403SOL    HW120108   0.008   5.593   6.321
 6403SOL    HW220109   6.941   5.623   6.190
 6404SOL     OW20110   4.129   0.686   2.535
 6404SOL    HW120111   4.139   0.736   2.621
 6404SOL    HW220112   4.036   0.649   2.528
 6405SOL     OW20113   3.388   0.160   4.090
 6405SOL    HW120114   3.314   0.117   4.038
 6405SOL    HW220115   3.465   0.180   4.029
 6406SOL     OW20116   1.000   2.970   2.776
 6406SOL    HW120117   0.928   2.901   2.762
 6406SOL    HW220118   1.081   2.945   2.724
 6407SOL     OW20119   2.551   6.771   3.730
 6407SOL    HW120120   2.573   6.699   3.664
 6407SOL    HW220121   2.620   6.774   3.802
 6408SOL     OW20122   5.651   1.143   0.600
 6408SOL    HW120123   5.699   1.142   0.688
 6408SOL    HW220124   5.707   1.097   0.531
 6409SOL     OW20125   6.331   4.392   3.529
 6409SOL    HW120126   6.243   4.346   3.540
 6409SOL    HW220127   6.323   4.464   3.460
 6410SOL     OW20128   1.950   1.086   6.813
 6410SOL    HW120129   1.884   1.153   6.845
 6410SOL    HW220130   2.001   1.050   6.891
 6411SOL     OW20131   0.814   3.234   3.267
 6411SOL    HW120132   0.815   3.273   3.175
 6411SOL    HW220133   0.720   3.207   3.290
 6412SOL     OW20134   1.059   1.863   4.611
 6412SOL    HW120135   1.074   1.948   4.561
 6412SOL    HW220136   1.088   1.785   4.555
 6413SOL     OW20137   3.793   4.857   3.628
 6413SOL    HW120138   3.722   4.888   3.565
 6413SOL    HW220139   3.871   4.821   3.577
 6414SOL     OW20140   5.776   1.034   7.007
 6414SOL    HW120141   5.753   0.963   0.047
 6414SOL    HW220142   5.789   1.121   0.028
 6415SOL     OW20143   2.078   3.181   2.974
 6415SOL    HW120144   2.112   3.272   2.998
 6415SOL    HW220145   2.025   3.187   2.890
 6416SOL     OW20146   0.862   1.133   6.662
 6416SOL    HW120147   0.776   1.180   6.639
 6416SOL    HW220148   0.842   1.052   6.716
 6417SOL     OW20149   5.827   5.240   0.674
 6417SOL    HW120150   5.854   5.196   0.588
 6417SOL    HW220151   5.882   5.204   0.749
 6418SOL     OW20152   4.871   3.817   1.952
 6418SOL    HW120153   4.781   3.803   1.911
 6418SOL    HW220154   4.939   3.830   1.880
 6419SOL     OW20155   1.307   4.727   3.210
 6419SOL    HW120156   1.358   4.802   3.252
 6419SOL    HW220157   1.219   4.717   3.256
 6420SOL     OW20158   2.524   6.004   4.225
 6420SOL    HW120159   2.583   6.045   4.155
 6420SOL    HW220160   2.431   5.995   4.189
 6421SOL     OW20161   4.962   0.149   3.304
 6421SOL    HW120162   4.952   0.107   3.214
 6421SOL    HW220163   4.876   0.142   3.354
 6422SOL     OW20164   0.149   1.102   4.572
 6422SOL    HW120165   0.097   1.184   4.551
 6422SOL    HW220166   0.230   1.098   4.512
 6423SOL     OW20167   5.257   5.246   3.404
 6423SOL    HW120168   5.160   5.239   3.427
 6423SOL    HW220169   5.269   5.308   3.326
 6424SOL     OW20170   0.333   5.171   6.084
 6424SOL    HW120171   0.417   5.158   6.031
 6424SOL    HW220172   0.263   5.107   6.051
 6425SOL     OW20173   6.440   6.067   3.256
 6425SOL    HW120174   6.489   6.103   3.176
 6425SOL    HW220175   6.371   6.133   3.285
 6426SOL     OW20176   1.457   5.071   3.435
 6426SOL    HW120177   1.475   5.028   3.346
 6426SOL    HW220178   1.359   5.091   3.443
 6427SOL     OW20179   3.312   4.172   4.368
 6427SOL    HW120180   3.245   4.233   4.411
 6427SOL    HW220181   3.390   4.161   4.430
 6428SOL     OW20182   5.986   3.581   5.884
 6428SOL    HW120183   5.898   3.582   5.837
 6428SOL    HW220184   5.982   3.519   5.963
 6429SOL     OW20185   1.182   2.000   5.837
 6429SOL    HW120186   1.116   1.966   5.770
 6429SOL    HW220187   1.257   2.046   5.789
 6430SOL     OW20188   6.031   1.122   3.374
 6430SOL    HW120189   6.001   1.078   3.290
 6430SOL    HW220190   6.081   1.206   3.352
 6431SOL     OW20191   5.064   6.965   4.082
 6431SOL    HW120192   4.965   6.982   4.088
 6431SOL    HW220193   5.095   6.977   3.988
 6432SOL     OW20194   4.324   4.567   5.674
 6432SOL    HW120195   4.360   4.514   5.752
 6432SOL    HW220196   4.300   4.659   5.705
 6433SOL     OW20197   1.538   5.523   5.874
 6433SOL    HW120198   1.559   5.440   5.926
 6433SOL    HW220199   1.505   5.594   5.937
 6434SOL     OW20200   2.461   5.387   6.335
 6434SOL    HW120201   2.472   5.327   6.256
 6434SOL    HW220202   2.370   5.373   6.374
 6435SOL     OW20203   4.923   6.686   0.892
 6435SOL    HW120204   4.879   6.664   0.805
 6435SOL    HW220205   4.992   6.757   0.878
 6436SOL     OW20206   1.415   3.138   3.297
 6436SOL    HW120207   1.412   3.131   3.396
 6436SOL    HW220208   1.382   3.228   3.268
 6437SOL     OW20209   2.312   1.358   0.634
 6437SOL    HW120210   2.363   1.302   0.700
 6437SOL    HW220211   2.371   1.431   0.599
 6438SOL     OW20212   6.282   4.294   5.485
 6438SOL    HW120213   6.292   4.376   5.429
 6438SOL    HW220214   6.204   4.241   5.454
 6439SOL     OW20215   5.542   1.235   1.890
 6439SOL    HW120216   5.582   1.258   1.801
 6439SOL    HW220217   5.539   1.135   1.900
 6440SOL     OW20218   2.372   1.809   6.213
 6440SOL    HW120219   2.297   1.781   6.273
 6440SOL    HW220220   2.389   1.738   6.144
 6441SOL     OW20221   6.976   6.801   2.176
 6441SOL    HW120222   6.898   6.776   2.119
 6441SOL    HW220223   6.985   6.900   2.178
 6442SOL     OW20224   2.373   1.200   4.631
 6442SOL    HW120225   2.390   1.105   4.605
 6442SOL    HW220226   2.350   1.253   4.550
 6443SOL     OW20227   4.025   2.135   5.474
 6443SOL    HW120228   4.045   2.060   5.411
 6443SOL    HW220229   3.929   2.162   5.466
 6444SOL     OW20230   5.327   2.901   4.688
 6444SOL    HW120231   5.311   2.864   4.780
 6444SOL    HW220232   5.260   2.972   4.668
 6445SOL     OW20233   3.741   2.975   4.823
 6445SOL    HW120234   3.652   2.935   4.802
 6445SOL    HW220235   3.741   3.009   4.917
 6446SOL     OW20236   1.235   1.151   0.262
 6446SOL    HW120237   1.296   1.223   0.296
 6446SOL    HW220238   1.151   1.149   0.316
 6447SOL     OW20239   5.357   4.917   3.871
 6447SOL    HW120240   5.358   4.929   3.970
 6447SOL    HW220241   5.263   4.924   3.837
 6448SOL     OW20242   4.236   5.603   2.139
 6448SOL    HW120243   4.199   5.648   2.220
 6448SOL    HW220244   4.238   5.669   2.063
 6449SOL     OW20245   3.629   6.181   1.166
 6449SOL    HW120246   3.706   6.123   1.192
 6449SOL    HW220247   3.597   6.231   1.246
 6450SOL     OW20248   0.699   3.893   1.307
 6450SOL    HW120249   0.699   3.804   1.353
 6450SOL    HW220250   0.784   3.941   1.328
 6451SOL     OW20251   2.125   0.625   4.919
 6451SOL    HW120252   2.110   0.646   4.823
 6451SOL    HW220253   2.120   0.526   4.934
 6452SOL     OW20254   4.563   5.321   3.536
 6452SOL    HW120255   4.505   5.383   3.589
 6452SOL    HW220256   4.570   5.233   3.584
 6453SOL     OW20257   2.410   6.279   1.859
 6453SOL    HW120258   2.484   6.232   1.811
 6453SOL    HW220259   2.363   6.341   1.796
 6454SOL     OW20260   1.059   2.124   2.790
 6454SOL    HW120261   1.078   2.167   2.878
 6454SOL    HW220262   0.961   2.109   2.780
 6455SOL     OW20263   6.784   3.485   3.712
 6455SOL    HW120264   6.852   3.412   3.711
 6455SOL    HW220265   6.695   3.450   3.683
 6456SOL     OW20266   0.975   0.940   3.470
 6456SOL    HW120267   1.004   0.853   3.511
 6456SOL    HW220268   1.055   0.998   3.455
 6457SOL     OW20269   5.105   1.742   1.648
 6457SOL    HW120270   5.018   1.776   1.614
 6457SOL    HW220271   5.153   1.814   1.698
 6458SOL     OW20272   0.964   6.361   4.512
 6458SOL    HW120273   0.866   6.368   4.493
 6458SOL    HW220274   1.003   6.453   4.521
 6459SOL     OW20275   6.312   3.101   1.399
 6459SOL    HW120276   6.234   3.136   1.451
 6459SOL    HW220277   6.304   3.129   1.303
 6460SOL     OW20278   5.708   6.314   6.275
 6460SOL    HW120279   5.698   6.386   6.344
 6460SOL    HW220280   5.669   6.345   6.188
 6461SOL     OW20281   1.981   4.684   6.113
 6461SOL    HW120282   2.003   4.739   6.032
 6461SOL    HW220283   1.944   4.596   6.084
 6462SOL     OW20284   2.518   2.563   4.498
 6462SOL    HW120285   2.512   2.598   4.591
 6462SOL    HW220286   2.470   2.625   4.436
 6463SOL     OW20287   6.120   2.492   0.028
 6463SOL    HW120288   6.183   2.469   0.102
 6463SOL    HW220289   6.171   2.529   6.976
 6464SOL     OW20290   1.025   5.151   5.269
 6464SOL    HW120291   1.105   5.145   5.210
 6464SOL    HW220292   1.034   5.230   5.330
 6465SOL     OW20293   6.736   2.907   2.793
 6465SOL    HW120294   6.741   2.811   2.767
 6465SOL    HW220295   6.786   2.962   2.726
 6466SOL     OW20296   0.491   1.245   6.105
 6466SOL    HW120297   0.447   1.229   6.194
 6466SOL    HW220298   0.589   1.230   6.112
 6467SOL     OW20299   3.502   1.691   0.132
 6467SOL    HW120300   3.505   1.710   0.034
 6467SOL    HW220301   3.415   1.648   0.155
 6468SOL     OW20302   3.123   6.709   0.741
 6468SOL    HW120303   3.215   6.671   0.749
 6468SOL    HW220304   3.069   6.653   0.678
 6469SOL     OW20305   4.394   1.633   4.189
 6469SOL    HW120306   4.335   1.560   4.226
 6469SOL    HW220307   4.379   1.717   4.241
 6470SOL     OW20308   5.994   2.774   0.780
 6470SOL    HW120309   6.035   2.683   0.785
 6470SOL    HW220310   6.041   2.828   0.710
 6471SOL     OW20311   6.686   6.637   6.216
 6471SOL    HW120312   6.703   6.618   6.119
 6471SOL    HW220313   6.692   6.736   6.232
 6472SOL     OW20314   0.187   5.664   2.119
 6472SOL    HW120315   0.254   5.659   2.044
 6472SOL    HW220316   0.232   5.640   2.205
 6473SOL     OW20317   3.208   1.765   4.616
 6473SOL    HW120318   3.142   1.697   4.584
 6473SOL    HW220319   3.197   1.779   4.714
 6474SOL     OW20320   2.922   4.803   5.524
 6474SOL    HW120321   2.962   4.718   5.559
 6474SOL    HW220322   2.833   4.818   5.567
 6475SOL     OW20323   5.754   5.199   3.936
 6475SOL    HW120324   5.725   5.199   4.031
 6475SOL    HW220325   5.814   5.278   3.919
 6476SOL     OW20326   4.220   3.420   1.082
 6476SOL    HW120327   4.266   3.344   1.128
 6476SOL    HW220328   4.239   3.416   0.984
 6477SOL     OW20329   5.834   4.881   1.096
 6477SOL    HW120330   5.928   4.874   1.132
 6477SOL    HW220331   5.790   4.792   1.101
 6478SOL     OW20332   3.439   0.335   1.643
 6478SOL    HW120333   3.412   0.397   1.569
 6478SOL    HW220334   3.398   0.245   1.629
 6479SOL     OW20335   4.306   4.977   3.503
 6479SOL    HW120336   4.251   5.060   3.499
 6479SOL    HW220337   4.346   4.960   3.413
 6480SOL     OW20338   3.089   1.330   6.511
 6480SOL    HW120339   3.091   1.239   6.470
 6480SOL    HW220340   3.164   1.385   6.474
 6481SOL     OW20341   3.442   2.026   2.049
 6481SOL    HW120342   3.378   2.050   2.122
 6481SOL    HW220343   3.503   2.103   2.030
 6482SOL     OW20344   6.748   0.778   5.974
 6482SOL    HW120345   6.735   0.874   5.948
 6482SOL    HW220346   6.814   0.772   6.049
 6483SOL     OW20347   1.175   6.543   2.780
 6483SOL    HW120348   1.242   6.537   2.707
 6483SOL    HW220349   1.083   6.538   2.741
 6484SOL     OW20350   3.041   0.180   1.048
 6484SOL    HW120351   3.029   0.140   0.956
 6484SOL    HW220352   3.016   0.276   1.045
 6485SOL     OW20353   2.142   5.132   3.793
 6485SOL    HW120354   2.114   5.050   3.844
 6485SOL    HW220355   2.230   5.164   3.827
 6486SOL     OW20356   2.166   4.566   3.231
 6486SOL    HW120357   2.072   4.598   3.246
 6486SOL    HW220358   2.227   4.644   3.223
 6487SOL     OW20359   0.593   6.782   5.306
 6487SOL    HW120360   0.657   6.817   5.374
 6487SOL    HW220361   0.503   6.824   5.320
 6488SOL     OW20362   3.642   5.710   4.466
 6488SOL    HW120363   3.588   5.779   4.419
 6488SOL    HW220364   3.608   5.698   4.559
 6489SOL     OW20365   3.166   2.820   6.145
 6489SOL    HW120366   3.264   2.808   6.127
 6489SOL    HW220367   3.119   2.733   6.138
 6490SOL     OW20368   3.944   0.813   6.835
 6490SOL    HW120369   3.963   0.860   6.921
 6490SOL    HW220370   3.883   0.735   6.852
 6491SOL     OW20371   4.317   1.145   0.729
 6491SOL    HW120372   4.224   1.116   0.754
 6491SOL    HW220373   4.343   1.103   0.642
 6492SOL     OW20374   4.036   4.476   6.512
 6492SOL    HW120375   3.940   4.457   6.531
 6492SOL    HW220376   4.090   4.392   6.521
 6493SOL     OW20377   1.388   4.417   4.843
 6493SOL    HW120378   1.348   4.504   4.817
 6493SOL    HW220379   1.383   4.406   4.943
 6494SOL     OW20380   0.081   0.397   3.685
 6494SOL    HW120381   0.070   0.299   3.700
 6494SOL    HW220382   0.166   0.414   3.634
 6495SOL     OW20383   6.162   0.369   4.736
 6495SOL    HW120384   6.256   0.402   4.747
 6495SOL    HW220385   6.143   0.300   4.806
 6496SOL     OW20386   6.440   0.801   3.016
 6496SOL    HW120387   6.538   0.809   3.033
 6496SOL    HW220388   6.398   0.741   3.084
 6497SOL     OW20389   1.235   1.541   0.860
 6497SOL    HW120390   1.302   1.590   0.804
 6497SOL    HW220391   1.240   1.575   0.954
 6498SOL     OW20392   1.708   3.282   4.065
 6498SOL    HW120393   1.802   3.248   4.055
 6498SOL    HW220394   1.704   3.377   4.033
 6499SOL     OW20395   5.517   3.315   5.405
 6499SOL    HW120396   5.510   3.395   5.345
 6499SOL    HW220397   5.602   3.266   5.385
 6500SOL     OW20398   6.951   3.920   4.221
 6500SOL    HW120399   6.941   3.943   4.318
 6500SOL    HW220400   0.010   3.957   4.186
 6501SOL     OW20401   6.877   1.930   6.505
 6501SOL    HW120402   6.848   1.881   6.587
 6501SOL    HW220403   6.820   1.902   6.428
 6502SOL     OW20404   6.790   1.941   2.111
 6502SOL    HW120405   6.764   1.933   2.014
 6502SOL    HW220406   6.715   1.983   2.162
 6503SOL     OW20407   5.399   0.882   3.544
 6503SOL    HW120408   5.362   0.791   3.526
 6503SOL    HW220409   5.353   0.921   3.624
 6504SOL     OW20410   4.345   6.372   5.445
 6504SOL    HW120411   4.304   6.287   5.411
 6504SOL    HW220412   4.356   6.436   5.369
 6505SOL     OW20413   5.242   6.184   0.190
 6505SOL    HW120414   5.143   6.178   0.205
 6505SOL    HW220415   5.271   6.108   0.132
 6506SOL     OW20416   6.572   2.484   2.891
 6506SOL    HW120417   6.516   2.555   2.934
 6506SOL    HW220418   6.631   2.526   2.821
 6507SOL     OW20419   1.193   5.208   5.551
 6507SOL    HW120420   1.215   5.142   5.623
 6507SOL    HW220421   1.258   5.198   5.475
 6508SOL     OW20422   1.805   0.546   2.540
 6508SOL    HW120423   1.860   0.563   2.458
 6508SOL    HW220424   1.708   0.549   2.517
 6509SOL     OW20425   3.441   1.789   4.485
 6509SOL    HW120426   3.525   1.764   4.533
 6509SOL    HW220427   3.362   1.770   4.543
 6510SOL     OW20428   6.069   5.312   0.120
 6510SOL    HW120429   5.976   5.287   0.091
 6510SOL    HW220430   6.136   5.269   0.060
 6511SOL     OW20431   3.921   1.774   4.412
 6511SOL    HW120432   3.923   1.874   4.421
 6511SOL    HW220433   3.858   1.736   4.479
 6512SOL     OW20434   4.063   6.744   2.455
 6512SOL    HW120435   4.148   6.773   2.499
 6512SOL    HW220436   4.034   6.656   2.493
 6513SOL     OW20437   2.478   4.997   2.781
 6513SOL    HW120438   2.382   4.977   2.762
 6513SOL    HW220439   2.484   5.073   2.846
 6514SOL     OW20440   6.516   0.920   3.651
 6514SOL    HW120441   6.580   0.997   3.643
 6514SOL    HW220442   6.508   0.892   3.747
 6515SOL     OW20443   0.098   4.613   4.182
 6515SOL    HW120444   0.141   4.703   4.192
 6515SOL    HW220445   0.132   4.569   4.099
 6516SOL     OW20446   0.319   3.433   1.370
 6516SOL    HW120447   0.295   3.406   1.463
 6516SOL    HW220448   0.247   3.491   1.332
 6517SOL     OW20449   6.200   1.094   1.344
 6517SOL    HW120450   6.211   1.078   1.246
 6517SOL    HW220451   6.124   1.158   1.359
 6518SOL     OW20452   0.155   0.543   0.192
 6518SOL    HW120453   0.055   0.536   0.196
 6518SOL    HW220454   0.186   0.618   0.250
 6519SOL     OW20455   1.083   2.400   3.348
 6519SOL    HW120456   1.124   2.436   3.432
 6519SOL    HW220457   1.151   2.403   3.275
 6520SOL     OW20458   5.804   5.588   1.644
 6520SOL    HW120459   5.824   5.569   1.740
 6520SOL    HW220460   5.858   5.527   1.586
 6521SOL     OW20461   1.975   2.505   3.751
 6521SOL    HW120462   1.908   2.496   3.676
 6521SOL    HW220463   1.936   2.468   3.835
 6522SOL     OW20464   2.879   5.364   6.104
 6522SOL    HW120465   2.867   5.433   6.176
 6522SOL    HW220466   2.975   5.361   6.077
 6523SOL     OW20467   3.895   1.208   6.450
 6523SOL    HW120468   3.962   1.229   6.521
 6523SOL    HW220469   3.915   1.262   6.368
 6524SOL     OW20470   3.606   3.676   1.715
 6524SOL    HW120471   3.641   3.706   1.804
 6524SOL    HW220472   3.526   3.731   1.691
 6525SOL     OW20473   2.739   5.072   2.648
 6525SOL    HW120474   2.819   5.101   2.595
 6525SOL    HW220475   2.667   5.140   2.641
 6526SOL     OW20476   2.067   0.372   6.667
 6526SOL    HW120477   2.120   0.437   6.612
 6526SOL    HW220478   2.107   0.366   6.759
 6527SOL     OW20479   0.571   2.044   4.758
 6527SOL    HW120480   0.575   2.143   4.752
 6527SOL    HW220481   0.618   2.003   4.679
 6528SOL     OW20482   0.160   0.831   5.962
 6528SOL    HW120483   0.205   0.914   5.995
 6528SOL    HW220484   0.193   0.810   5.870
 6529SOL     OW20485   1.599   0.994   2.651
 6529SOL    HW120486   1.695   0.979   2.675
 6529SOL    HW220487   1.557   1.054   2.719
 6530SOL     OW20488   6.725   3.372   0.414
 6530SOL    HW120489   6.631   3.382   0.446
 6530SOL    HW220490   6.728   3.306   0.338
 6531SOL     OW20491   5.331   3.178   5.112
 6531SOL    HW120492   5.409   3.238   5.132
 6531SOL    HW220493   5.310   3.182   5.014
 6532SOL     OW20494   6.820   1.408   0.957
 6532SOL    HW120495   6.897   1.407   1.021
 6532SOL    HW220496   6.741   1.364   0.999
 6533SOL     OW20497   4.562   6.768   1.072
 6533SOL    HW120498   4.654   6.806   1.074
 6533SOL    HW220499   4.560   6.681   1.120
 6534SOL     OW20500   4.193   4.623   1.433
 6534SOL    HW120501   4.149   4.642   1.345
 6534SOL    HW220502   4.249   4.540   1.425
 6535SOL     OW20503   6.134   3.688   4.093
 6535SOL    HW120504   6.099   3.596   4.075
 6535SOL    HW220505   6.097   3.752   4.026
 6536SOL     OW20506   1.098   0.886   5.812
 6536SOL    HW120507   1.101   0.986   5.806
 6536SOL    HW220508   1.191   0.851   5.819
 6537SOL     OW20509   6.839   5.457   0.032
 6537SOL    HW120510   6.823   5.425   0.125
 6537SOL    HW220511   6.817   5.555   0.026
 6538SOL     OW20512   2.580   3.913   6.454
 6538SOL    HW120513   2.511   3.985   6.463
 6538SOL    HW220514   2.540   3.825   6.480
 6539SOL     OW20515   4.235   0.556   5.926
 6539SOL    HW120516   4.200   0.512   5.843
 6539SOL    HW220517   4.187   0.642   5.940
 6540SOL     OW20518   4.634   2.079   5.858
 6540SOL    HW120519   4.692   2.053   5.935
 6540SOL    HW220520   4.561   2.012   5.846
 6541SOL     OW20521   4.565   2.687   4.835
 6541SOL    HW120522   4.597   2.676   4.929
 6541SOL    HW220523   4.471   2.721   4.835
 6542SOL     OW20524   6.388   3.553   3.940
 6542SOL    HW120525   6.385   3.606   4.025
 6542SOL    HW220526   6.468   3.579   3.887
 6543SOL     OW20527   5.127   2.708   5.746
 6543SOL    HW120528   5.150   2.738   5.653
 6543SOL    HW220529   5.179   2.762   5.812
 6544SOL     OW20530   0.926   6.245   3.273
 6544SOL    HW120531   0.886   6.189   3.200
 6544SOL    HW220532   0.934   6.340   3.242
 6545SOL     OW20533   3.897   2.197   0.374
 6545SOL    HW120534   3.870   2.163   0.283
 6545SOL    HW220535   3.835   2.159   0.443
 6546SOL     OW20536   2.615   4.504   0.183
 6546SOL    HW120537   2.628   4.574   0.113
 6546SOL    HW220538   2.517   4.487   0.196
 6547SOL     OW20539   4.633   1.129   5.709
 6547SOL    HW120540   4.597   1.177   5.789
 6547SOL    HW220541   4.692   1.054   5.739
 6548SOL     OW20542   0.647   3.952   0.583
 6548SOL    HW120543   0.723   3.937   0.520
 6548SOL    HW220544   0.632   4.051   0.593
 6549SOL     OW20545   4.995   0.989   1.651
 6549SOL    HW120546   5.076   1.045   1.637
 6549SOL    HW220547   4.927   1.011   1.581
 6550SOL     OW20548   0.104   6.287   4.158
 6550SOL    HW120549   0.060   6.209   4.112
 6550SOL    HW220550   0.117   6.361   4.093
 6551SOL     OW20551   1.789   4.956   2.321
 6551SOL    HW120552   1.868   4.988   2.270
 6551SOL    HW220553   1.719   5.027   2.322
 6552SOL     OW20554   1.835   6.939   6.723
 6552SOL    HW120555   1.863   6.888   6.642
 6552SOL    HW220556   1.826   0.010   6.699
 6553SOL     OW20557   0.131   1.983   3.332
 6553SOL    HW120558   0.115   1.891   3.367
 6553SOL    HW220559   0.158   1.979   3.236
 6554SOL     OW20560   0.702   0.590   4.506
 6554SOL    HW120561   0.716   0.535   4.589
 6554SOL    HW220562   0.790   0.624   4.473
 6555SOL     OW20563   6.153   1.795   3.155
 6555SOL    HW120564   6.185   1.887   3.135
 6555SOL    HW220565   6.053   1.792   3.150
 6556SOL     OW20566   5.434   4.585   4.736
 6556SOL    HW120567   5.464   4.679   4.717
 6556SOL    HW220568   5.334   4.582   4.737
 6557SOL     OW20569   3.234   6.734   2.525
 6557SOL    HW120570   3.272   6.701   2.611
 6557SOL    HW220571   3.280   6.689   2.449
 6558SOL     OW20572   6.989   5.231   6.996
 6558SOL    HW120573   6.946   5.169   0.035
 6558SOL    HW220574   6.946   5.321   7.002
 6559SOL     OW20575   0.532   3.158   6.323
 6559SOL    HW120576   0.593   3.218   6.374
 6559SOL    HW220577   0.586   3.104   6.258
 6560SOL     OW20578   4.502   5.380   1.332
 6560SOL    HW120579   4.443   5.368   1.252
 6560SOL    HW220580   4.508   5.293   1.382
 6561SOL     OW20581   3.189   3.883   1.183
 6561SOL    HW120582   3.110   3.834   1.146
 6561SOL    HW220583   3.272   3.848   1.140
 6562SOL     OW20584   5.815   3.449   1.031
 6562SOL    HW120585   5.765   3.394   1.098
 6562SOL    HW220586   5.901   3.404   1.007
 6563SOL     OW20587   5.607   6.497   6.957
 6563SOL    HW120588   5.681   6.556   6.991
 6563SOL    HW220589   5.644   6.406   6.937
 6564SOL     OW20590   6.700   4.470   3.077
 6564SOL    HW120591   6.788   4.490   3.120
 6564SOL    HW220592   6.714   4.445   2.982
 6565SOL     OW20593   5.621   1.787   3.499
 6565SOL    HW120594   5.593   1.705   3.448
 6565SOL    HW220595   5.699   1.764   3.557
 6566SOL     OW20596   3.603   6.067   2.614
 6566SOL    HW120597   3.555   6.149   2.585
 6566SOL    HW220598   3.678   6.092   2.675
 6567SOL     OW20599   4.277   0.951   2.570
 6567SOL    HW120600   4.359   0.900   2.548
 6567SOL    HW220601   4.198   0.908   2.527
 6568SOL     OW20602   3.547   0.892   3.460
 6568SOL    HW120603   3.546   0.834   3.541
 6568SOL    HW220604   3.501   0.846   3.385
 6569SOL     OW20605   3.086   3.723   6.096
 6569SOL    HW120606   3.012   3.733   6.163
 6569SOL    HW220607   3.049   3.732   6.004
 6570SOL     OW20608   3.966   0.742   1.901
 6570SOL    HW120609   3.995   0.668   1.962
 6570SOL    HW220610   3.974   0.830   1.950
 6571SOL     OW20611   2.876   5.650   1.466
 6571SOL    HW120612   2.958   5.599   1.441
 6571SOL    HW220613   2.829   5.604   1.542
 6572SOL     OW20614   6.226   5.038   5.861
 6572SOL    HW120615   6.251   5.135   5.859
 6572SOL    HW220616   6.200   5.008   5.769
 6573SOL     OW20617   1.832   1.700   2.060
 6573SOL    HW120618   1.789   1.764   1.996
 6573SOL    HW220619   1.763   1.660   2.120
 6574SOL     OW20620   3.170   5.540   2.614
 6574SOL    HW120621   3.150   5.462   2.555
 6574SOL    HW220622   3.119   5.620   2.584
 6575SOL     OW20623   0.978   6.630   3.011
 6575SOL    HW120624   1.064   6.663   2.973
 6575SOL    HW220625   0.944   6.553   2.957
 6576SOL     OW20626   2.219   6.130   6.262
 6576SOL    HW120627   2.225   6.165   6.356
 6576SOL    HW220628   2.184   6.036   6.265
 6577SOL     OW20629   0.603   1.075   4.618
 6577SOL    HW120630   0.519   1.097   4.669
 6577SOL    HW220631   0.664   1.021   4.676
 6578SOL     OW20632   1.147   5.078   3.330
 6578SOL    HW120633   1.198   5.149   3.281
 6578SOL    HW220634   1.080   5.036   3.268
 6579SOL     OW20635   6.818   3.714   4.878
 6579SOL    HW120636   6.848   3.668   4.794
 6579SOL    HW220637   6.887   3.782   4.905
 6580SOL     OW20638   0.758   2.542   0.971
 6580SOL    HW120639   0.728   2.508   1.061
 6580SOL    HW220640   0.854   2.569   0.975
 6581SOL     OW20641   2.842   0.681   6.926
 6581SOL    HW120642   2.870   0.732   7.007
 6581SOL    HW220643   2.823   0.586   6.952
 6582SOL     OW20644   0.806   1.485   1.880
 6582SOL    HW120645   0.823   1.391   1.849
 6582SOL    HW220646   0.735   1.526   1.823
 6583SOL     OW20647   4.442   0.967   5.124
 6583SOL    HW120648   4.348   0.991   5.098
 6583SOL    HW220649   4.467   0.880   5.082
 6584SOL     OW20650   4.666   2.801   1.121
 6584SOL    HW120651   4.729   2.726   1.142
 6584SOL    HW220652   4.637   2.795   1.026
 6585SOL     OW20653   5.249   7.012   0.285
 6585SOL    HW120654   5.343   6.985   0.307
 6585SOL    HW220655   5.233   7.002   0.187
 6586SOL     OW20656   0.337   1.931   4.974
 6586SOL    HW120657   0.257   1.881   5.008
 6586SOL    HW220658   0.421   1.885   5.007
 6587SOL     OW20659   1.870   6.606   4.788
 6587SOL    HW120660   1.894   6.538   4.718
 6587SOL    HW220661   1.834   6.688   4.744
 6588SOL     OW20662   0.792   3.520   1.629
 6588SOL    HW120663   0.866   3.503   1.694
 6588SOL    HW220664   0.735   3.439   1.622
 6589SOL     OW20665   5.383   1.375   0.172
 6589SOL    HW120666   5.469   1.358   0.218
 6589SOL    HW220667   5.352   1.293   0.124
 6590SOL     OW20668   0.998   0.904   6.200
 6590SOL    HW120669   0.934   0.853   6.257
 6590SOL    HW220670   1.044   0.974   6.254
 6591SOL     OW20671   5.191   5.369   2.608
 6591SOL    HW120672   5.228   5.417   2.528
 6591SOL    HW220673   5.266   5.323   2.657
 6592SOL     OW20674   5.788   0.314   3.681
 6592SOL    HW120675   5.844   0.259   3.743
 6592SOL    HW220676   5.847   0.374   3.627
 6593SOL     OW20677   2.091   2.291   2.397
 6593SOL    HW120678   2.150   2.221   2.354
 6593SOL    HW220679   2.149   2.365   2.433
 6594SOL     OW20680   3.488   1.752   6.899
 6594SOL    HW120681   3.392   1.766   6.877
 6594SOL    HW220682   3.543   1.762   6.816
 6595SOL     OW20683   0.558   3.850   6.723
 6595SOL    HW120684   0.617   3.855   6.642
 6595SOL    HW220685   0.599   3.789   6.790
 6596SOL     OW20686   3.451   6.110   4.154
 6596SOL    HW120687   3.450   6.163   4.239
 6596SOL    HW220688   3.468   6.172   4.077
 6597SOL     OW20689   1.700   5.184   1.356
 6597SOL    HW120690   1.639   5.184   1.435
 6597SOL    HW220691   1.752   5.099   1.354
 6598SOL     OW20692   1.530   6.135   4.522
 6598SOL    HW120693   1.586   6.164   4.445
 6598SOL    HW220694   1.588   6.124   4.603
 6599SOL     OW20695   4.594   6.859   6.303
 6599SOL    HW120696   4.580   6.866   6.402
 6599SOL    HW220697   4.648   6.776   6.284
 6600SOL     OW20698   5.088   4.961   4.924
 6600SOL    HW120699   5.025   4.956   5.001
 6600SOL    HW220700   5.100   4.870   4.884
 6601SOL     OW20701   1.143   1.952   5.420
 6601SOL    HW120702   1.107   1.904   5.500
 6601SOL    HW220703   1.158   1.887   5.346
 6602SOL     OW20704   1.148   0.828   2.359
 6602SOL    HW120705   1.067   0.887   2.352
 6602SOL    HW220706   1.179   0.804   2.267
 6603SOL     OW20707   6.690   2.757   3.828
 6603SOL    HW120708   6.629   2.834   3.807
 6603SOL    HW220709   6.742   2.778   3.911
 6604SOL     OW20710   2.120   0.168   0.827
 6604SOL    HW120711   2.043   0.105   0.824
 6604SOL    HW220712   2.102   0.239   0.895
 6605SOL     OW20713   5.500   3.975   1.610
 6605SOL    HW120714   5.513   4.045   1.680
 6605SOL    HW220715   5.558   3.896   1.630
 6606SOL     OW20716   6.748   6.318   1.749
 6606SOL    HW120717   6.764   6.234   1.698
 6606SOL    HW220718   6.829   6.339   1.804
 6607SOL     OW20719   1.833   3.226   2.203
 6607SOL    HW120720   1.779   3.219   2.119
 6607SOL    HW220721   1.910   3.288   2.189
 6608SOL     OW20722   5.820   6.343   1.255
 6608SOL    HW120723   5.851   6.254   1.289
 6608SOL    HW220724   5.749   6.380   1.316
 6609SOL     OW20725   4.742   0.879   5.733
 6609SOL    HW120726   4.661   0.836   5.694
 6609SOL    HW220727   4.822   0.823   5.714
 6610SOL     OW20728   3.104   0.077   6.767
 6610SOL    HW120729   3.022   0.041   6.811
 6610SOL    HW220730   3.112   0.175   6.787
 6611SOL     OW20731   4.994   2.843   3.653
 6611SOL    HW120732   5.002   2.766   3.716
 6611SOL    HW220733   5.085   2.883   3.638
 6612SOL     OW20734   5.980   2.164   5.909
 6612SOL    HW120735   6.069   2.165   5.954
 6612SOL    HW220736   5.919   2.100   5.956
 6613SOL     OW20737   6.703   6.035   4.940
 6613SOL    HW120738   6.642   6.054   4.863
 6613SOL    HW220739   6.796   6.066   4.917
 6614SOL     OW20740   5.560   6.533   0.830
 6614SOL    HW120741   5.657   6.554   0.819
 6614SOL    HW220742   5.505   6.605   0.786
 6615SOL     OW20743   1.354   5.203   2.383
 6615SOL    HW120744   1.287   5.155   2.327
 6615SOL    HW220745   1.308   5.250   2.458
 6616SOL     OW20746   4.168   0.829   5.947
 6616SOL    HW120747   4.208   0.836   5.855
 6616SOL    HW220748   4.072   0.859   5.944
 6617SOL     OW20749   4.414   4.894   3.260
 6617SOL    HW120750   4.497   4.858   3.219
 6617SOL    HW220751   4.336   4.878   3.199
 6618SOL     OW20752   1.428   2.407   2.294
 6618SOL    HW120753   1.389   2.360   2.215
 6618SOL    HW220754   1.517   2.367   2.316
 6619SOL     OW20755   6.249   6.916   3.994
 6619SOL    HW120756   6.284   6.974   3.920
 6619SOL    HW220757   6.252   6.820   3.966
 6620SOL     OW20758   1.732   3.129   5.228
 6620SOL    HW120759   1.792   3.073   5.172
 6620SOL    HW220760   1.717   3.218   5.183
 6621SOL     OW20761   3.013   3.045   6.026
 6621SOL    HW120762   3.048   2.959   6.065
 6621SOL    HW220763   3.087   3.093   5.980
 6622SOL     OW20764   5.699   6.969   0.905
 6622SOL    HW120765   5.626   6.937   0.965
 6622SOL    HW220766   5.785   6.925   0.932
 6623SOL     OW20767   3.192   2.975   5.591
 6623SOL    HW120768   3.137   3.045   5.545
 6623SOL    HW220769   3.288   3.002   5.589
 6624SOL     OW20770   0.518   5.174   6.310
 6624SOL    HW120771   0.500   5.084   6.350
 6624SOL    HW220772   0.438   5.203   6.257
 6625SOL     OW20773   5.179   2.016   5.368
 6625SOL    HW120774   5.121   1.935   5.359
 6625SOL    HW220775   5.244   2.003   5.442
 6626SOL     OW20776   4.772   5.127   5.187
 6626SOL    HW120777   4.870   5.123   5.206
 6626SOL    HW220778   4.754   5.084   5.099
 6627SOL     OW20779   2.166   6.395   4.880
 6627SOL    HW120780   2.210   6.464   4.822
 6627SOL    HW220781   2.101   6.440   4.940
 6628SOL     OW20782   4.737   4.718   4.859
 6628SOL    HW120783   4.720   4.654   4.934
 6628SOL    HW220784   4.751   4.810   4.896
 6629SOL     OW20785   4.326   6.252   6.863
 6629SOL    HW120786   4.339   6.253   6.764
 6629SOL    HW220787   4.239   6.208   6.884
 6630SOL     OW20788   4.216   1.277   1.774
 6630SOL    HW120789   4.301   1.248   1.819
 6630SOL    HW220790   4.238   1.328   1.691
 6631SOL     OW20791   2.771   5.481   3.428
 6631SOL    HW120792   2.818   5.521   3.507
 6631SOL    HW220793   2.828   5.411   3.387
 6632SOL     OW20794   0.399   6.939   1.331
 6632SOL    HW120795   0.424   6.856   1.281
 6632SOL    HW220796   0.446   6.941   1.419
 6633SOL     OW20797   1.074   4.534   6.083
 6633SOL    HW120798   1.014   4.482   6.143
 6633SOL    HW220799   1.056   4.510   5.987
 6634SOL     OW20800   5.245   2.182   3.990
 6634SOL    HW120801   5.270   2.111   3.924
 6634SOL    HW220802   5.187   2.250   3.946
 6635SOL     OW20803   4.645   4.776   3.152
 6635SOL    HW120804   4.709   4.700   3.135
 6635SOL    HW220805   4.620   4.818   3.065
 6636SOL     OW20806   5.078   2.403   5.724
 6636SOL    HW120807   5.027   2.411   5.810
 6636SOL    HW220808   5.016   2.422   5.648
 6637SOL     OW20809   1.473   0.143   6.681
 6637SOL    HW120810   1.410   0.219   6.694
 6637SOL    HW220811   1.528   0.130   6.764
 6638SOL     OW20812   3.110   3.628   3.817
 6638SOL    HW120813   3.205   3.600   3.826
 6638SOL    HW220814   3.095   3.712   3.870
 6639SOL     OW20815   5.307   4.552   6.609
 6639SOL    HW120816   5.352   4.489   6.546
 6639SOL    HW220817   5.235   4.503   6.659
 6640SOL     OW20818   1.680   1.570   5.127
 6640SOL    HW120819   1.775   1.595   5.111
 6640SOL    HW220820   1.635   1.553   5.039
 6641SOL     OW20821   1.796   2.270   6.564
 6641SOL    HW120822   1.815   2.197   6.629
 6641SOL    HW220823   1.822   2.240   6.472
 6642SOL     OW20824   2.297   5.659   6.724
 6642SOL    HW120825   2.369   5.590   6.730
 6642SOL    HW220826   2.214   5.618   6.686
 6643SOL     OW20827   5.916   5.024   0.496
 6643SOL    HW120828   5.913   5.009   0.397
 6643SOL    HW220829   5.922   4.936   0.543
 6644SOL     OW20830   2.366   5.344   1.924
 6644SOL    HW120831   2.448   5.382   1.967
 6644SOL    HW220832   2.291   5.346   1.990
 6645SOL     OW20833   6.542   5.011   0.565
 6645SOL    HW120834   6.548   5.065   0.649
 6645SOL    HW220835   6.466   5.044   0.509
 6646SOL     OW20836   4.553   0.471   4.512
 6646SOL    HW120837   4.558   0.545   4.445
 6646SOL    HW220838   4.643   0.427   4.519
 6647SOL     OW20839   5.158   1.219   1.540
 6647SOL    HW120840   5.172   1.217   1.442
 6647SOL    HW220841   5.170   1.313   1.574
 6648SOL     OW20842   4.629   6.437   3.536
 6648SOL    HW120843   4.686   6.461   3.615
 6648SOL    HW220844   4.538   6.476   3.547
 6649SOL     OW20845   4.765   1.014   6.585
 6649SOL    HW120846   4.802   1.074   6.656
 6649SOL    HW220847   4.785   0.919   6.608
 6650SOL     OW20848   3.911   1.419   5.165
 6650SOL    HW120849   3.837   1.352   5.163
 6650SOL    HW220850   3.900   1.484   5.090
 6651SOL     OW20851   2.090   2.033   5.436
 6651SOL    HW120852   1.999   2.003   5.464
 6651SOL    HW220853   2.095   2.035   5.337
 6652SOL     OW20854   0.802   4.395   0.646
 6652SOL    HW120855   0.848   4.430   0.727
 6652SOL    HW220856   0.845   4.432   0.564
 6653SOL     OW20857   2.944   3.609   2.481
 6653SOL    HW120858   2.887   3.691   2.483
 6653SOL    HW220859   2.997   3.603   2.565
 6654SOL     OW20860   1.150   4.865   1.141
 6654SOL    HW120861   1.114   4.806   1.069
 6654SOL    HW220862   1.158   4.813   1.226
 6655SOL     OW20863   0.967   6.877   3.625
 6655SOL    HW120864   1.009   6.805   3.679
 6655SOL    HW220865   0.939   6.842   3.536
 6656SOL     OW20866   5.624   1.810   4.167
 6656SOL    HW120867   5.666   1.823   4.257
 6656SOL    HW220868   5.675   1.741   4.116
 6657SOL     OW20869   5.693   5.743   6.471
 6657SOL    HW120870   5.681   5.660   6.526
 6657SOL    HW220871   5.651   5.729   6.381
 6658SOL     OW20872   6.804   1.458   4.327
 6658SOL    HW120873   6.768   1.374   4.285
 6658SOL    HW220874   6.807   1.531   4.258
 6659SOL     OW20875   2.098   2.477   0.421
 6659SOL    HW120876   2.021   2.433   0.375
 6659SOL    HW220877   2.172   2.411   0.433
 6660SOL     OW20878   1.098   4.799   1.425
 6660SOL    HW120879   1.083   4.896   1.440
 6660SOL    HW220880   1.098   4.751   1.513
 6661SOL     OW20881   0.787   6.425   5.071
 6661SOL    HW120882   0.855   6.370   5.120
 6661SOL    HW220883   0.700   6.377   5.068
 6662SOL     OW20884   0.996   0.645   7.003
 6662SOL    HW120885   1.041   0.706   6.938
 6662SOL    HW220886   0.966   0.696   0.057
 6663SOL     OW20887   6.496   4.588   4.071
 6663SOL    HW120888   6.593   4.577   4.093
 6663SOL    HW220889   6.470   4.524   3.999
 6664SOL     OW20890   1.930   6.220   0.441
 6664SOL    HW120891   1.874   6.292   0.483
 6664SOL    HW220892   1.937   6.142   0.503
 6665SOL     OW20893   1.808   6.053   4.391
 6665SOL    HW120894   1.827   6.129   4.453
 6665SOL    HW220895   1.852   5.970   4.426
 6666SOL     OW20896   6.558   0.041   5.437
 6666SOL    HW120897   6.599   7.008   5.367
 6666SOL    HW220898   6.505   0.113   5.393
 6667SOL     OW20899   6.657   5.827   6.555
 6667SOL    HW120900   6.617   5.888   6.487
 6667SOL    HW220901   6.752   5.853   6.571
 6668SOL     OW20902   0.036   5.066   1.315
 6668SOL    HW120903   0.102   4.990   1.318
 6668SOL    HW220904   0.050   5.125   1.395
 6669SOL     OW20905   1.780   2.624   3.337
 6669SOL    HW120906   1.724   2.614   3.255
 6669SOL    HW220907   1.737   2.688   3.400
 6670SOL     OW20908   3.472   1.750   5.558
 6670SOL    HW120909   3.393   1.809   5.543
 6670SOL    HW220910   3.539   1.766   5.486
 6671SOL     OW20911   6.006   6.157   0.658
 6671SOL    HW120912   6.056   6.121   0.736
 6671SOL    HW220913   5.922   6.202   0.690
 6672SOL     OW20914   6.429   2.019   6.456
 6672SOL    HW120915   6.477   2.003   6.542
 6672SOL    HW220916   6.408   2.117   6.448
 6673SOL     OW20917   4.570   5.396   4.285
 6673SOL    HW120918   4.592   5.419   4.190
 6673SOL    HW220919   4.627   5.451   4.346
 6674SOL     OW20920   0.544   4.586   6.335
 6674SOL    HW120921   0.510   4.568   6.243
 6674SOL    HW220922   0.643   4.604   6.331
 6675SOL     OW20923   4.538   3.477   1.403
 6675SOL    HW120924   4.440   3.467   1.386
 6675SOL    HW220925   4.552   3.530   1.487
 6676SOL     OW20926   0.128   3.495   5.545
 6676SOL    HW120927   0.221   3.530   5.543
 6676SOL    HW220928   0.070   3.555   5.600
 6677SOL     OW20929   1.548   1.311   6.382
 6677SOL    HW120930   1.555   1.326   6.480
 6677SOL    HW220931   1.626   1.355   6.336
 6678SOL     OW20932   3.408   3.164   6.414
 6678SOL    HW120933   3.331   3.225   6.398
 6678SOL    HW220934   3.447   3.183   6.504
 6679SOL     OW20935   3.146   1.060   4.128
 6679SOL    HW120936   3.228   1.114   4.108
 6679SOL    HW220937   3.067   1.121   4.132
 6680SOL     OW20938   4.831   6.505   6.890
 6680SOL    HW120939   4.790   6.585   6.846
 6680SOL    HW220940   4.760   6.438   6.910
 6681SOL     OW20941   3.818   6.220   1.726
 6681SOL    HW120942   3.769   6.165   1.794
 6681SOL    HW220943   3.880   6.161   1.674
 6682SOL     OW20944   0.268   4.787   2.730
 6682SOL    HW120945   0.281   4.884   2.752
 6682SOL    HW220946   0.356   4.746   2.708
 6683SOL     OW20947   5.753   3.154   5.320
 6683SOL    HW120948   5.727   3.169   5.224
 6683SOL    HW220949   5.853   3.158   5.329
 6684SOL     OW20950   2.874   0.589   1.193
 6684SOL    HW120951   2.959   0.641   1.179
 6684SOL    HW220952   2.887   0.522   1.266
 6685SOL     OW20953   6.828   3.526   5.507
 6685SOL    HW120954   6.847   3.562   5.598
 6685SOL    HW220955   6.891   3.568   5.441
 6686SOL     OW20956   5.394   5.877   4.696
 6686SOL    HW120957   5.402   5.780   4.675
 6686SOL    HW220958   5.302   5.909   4.673
 6687SOL     OW20959   0.909   3.548   0.360
 6687SOL    HW120960   0.927   3.647   0.355
 6687SOL    HW220961   0.967   3.507   0.430
 6688SOL     OW20962   0.301   4.060   2.561
 6688SOL    HW120963   0.289   4.063   2.660
 6688SOL    HW220964   0.245   4.131   2.519
 6689SOL     OW20965   4.528   2.826   0.337
 6689SOL    HW120966   4.565   2.920   0.339
 6689SOL    HW220967   4.594   2.766   0.291
 6690SOL     OW20968   1.983   1.228   0.636
 6690SOL    HW120969   2.012   1.230   0.731
 6690SOL    HW220970   2.064   1.237   0.577
 6691SOL     OW20971   2.655   6.409   2.032
 6691SOL    HW120972   2.567   6.367   2.051
 6691SOL    HW220973   2.717   6.341   1.992
 6692SOL     OW20974   4.027   3.925   5.209
 6692SOL    HW120975   3.946   3.905   5.263
 6692SOL    HW220976   4.106   3.938   5.270
 6693SOL     OW20977   4.113   3.584   4.890
 6693SOL    HW120978   4.169   3.580   4.973
 6693SOL    HW220979   4.112   3.494   4.846
 6694SOL     OW20980   3.643   5.861   1.219
 6694SOL    HW120981   3.691   5.778   1.249
 6694SOL    HW220982   3.666   5.880   1.124
 6695SOL     OW20983   3.124   1.832   0.490
 6695SOL    HW120984   3.222   1.838   0.476
 6695SOL    HW220985   3.084   1.770   0.423
 6696SOL     OW20986   2.312   3.210   5.588
 6696SOL    HW120987   2.266   3.187   5.673
 6696SOL    HW220988   2.299   3.136   5.522
 6697SOL     OW20989   4.549   2.482   2.830
 6697SOL    HW120990   4.623   2.422   2.802
 6697SOL    HW220991   4.580   2.542   2.904
 6698SOL     OW20992   2.748   2.730   1.708
 6698SOL    HW120993   2.729   2.752   1.612
 6698SOL    HW220994   2.682   2.663   1.740
 6699SOL     OW20995   2.314   5.867   6.065
 6699SOL    HW120996   2.218   5.842   6.079
 6699SOL    HW220997   2.354   5.891   6.154
 6700SOL     OW20998   6.760   6.771   1.275
 6700SOL    HW120999   6.795   6.698   1.335
 6700SOL    HW221000   6.664   6.788   1.296
 6701SOL     OW21001   5.549   3.305   1.792
 6701SOL    HW121002   5.477   3.298   1.861
 6701SOL    HW221003   5.627   3.250   1.820
 6702SOL     OW21004   3.553   1.711   1.761
 6702SOL    HW121005   3.524   1.628   1.714
 6702SOL    HW221006   3.610   1.687   1.840
 6703SOL     OW21007   6.006   1.964   6.470
 6703SOL    HW121008   5.973   1.922   6.385
 6703SOL    HW221009   5.928   1.986   6.529
 6704SOL     OW21010   2.976   1.736   3.710
 6704SOL    HW121011   3.063   1.692   3.734
 6704SOL    HW221012   2.985   1.780   3.620
 6705SOL     OW21013   6.606   2.990   1.756
 6705SOL    HW121014   6.554   3.059   1.706
 6705SOL    HW221015   6.556   2.904   1.755
 6706SOL     OW21016   1.225   3.820   2.101
 6706SOL    HW121017   1.234   3.721   2.110
 6706SOL    HW221018   1.292   3.865   2.159
 6707SOL     OW21019   6.877   5.798   3.298
 6707SOL    HW121020   6.919   5.758   3.380
 6707SOL    HW221021   6.778   5.791   3.305
 6708SOL     OW21022   5.929   5.348   1.866
 6708SOL    HW121023   6.001   5.347   1.797
 6708SOL    HW221024   5.970   5.362   1.956
 6709SOL     OW21025   2.603   6.265   3.135
 6709SOL    HW121026   2.681   6.212   3.168
 6709SOL    HW221027   2.518   6.223   3.169
 6710SOL     OW21028   3.543   1.031   5.961
 6710SOL    HW121029   3.555   1.111   5.903
 6710SOL    HW221030   3.631   1.001   5.997
 6711SOL     OW21031   4.674   5.335   6.360
 6711SOL    HW121032   4.638   5.338   6.453
 6711SOL    HW221033   4.671   5.241   6.325
 6712SOL     OW21034   5.610   4.070   0.005
 6712SOL    HW121035   5.708   4.075   0.023
 6712SOL    HW221036   5.561   4.135   0.064
 6713SOL     OW21037   2.163   0.403   2.643
 6713SOL    HW121038   2.262   0.415   2.646
 6713SOL    HW221039   2.127   0.444   2.559
 6714SOL     OW21040   6.121   0.981   6.090
 6714SOL    HW121041   6.130   0.931   6.176
 6714SOL    HW221042   6.149   1.076   6.103
 6715SOL     OW21043   0.448   7.019   0.104
 6715SOL    HW121044   0.414   0.058   0.172
 6715SOL    HW221045   0.392   6.936   0.106
 6716SOL     OW21046   0.486   5.892   1.465
 6716SOL    HW121047   0.388   5.889   1.447
 6716SOL    HW221048   0.506   5.844   1.550
 6717SOL     OW21049   4.353   3.187   6.696
 6717SOL    HW121050   4.355   3.130   6.778
 6717SOL    HW221051   4.300   3.141   6.625
 6718SOL     OW21052   4.889   0.625   0.466
 6718SOL    HW121053   4.795   0.596   0.448
 6718SOL    HW221054   4.946   0.545   0.484
 6719SOL     OW21055   2.582   0.347   6.745
 6719SOL    HW121056   2.506   0.411   6.731
 6719SOL    HW221057   2.637   0.377   6.823
 6720SOL     OW21058   1.028   6.771   4.245
 6720SOL    HW121059   1.014   6.737   4.152
 6720SOL    HW221060   1.124   6.765   4.269
 6721SOL     OW21061   6.554   0.282   6.269
 6721SOL    HW121062   6.586   0.318   6.181
 6721SOL    HW221063   6.529   0.358   6.329
 6722SOL     OW21064   6.633   2.803   1.500
 6722SOL    HW121065   6.618   2.706   1.521
 6722SOL    HW221066   6.711   2.837   1.552
 6723SOL     OW21067   2.398   6.685   3.258
 6723SOL    HW121068   2.392   6.739   3.174
 6723SOL    HW221069   2.474   6.621   3.252
 6724SOL     OW21070   1.442   3.443   5.692
 6724SOL    HW121071   1.366   3.469   5.633
 6724SOL    HW221072   1.458   3.345   5.685
 6725SOL     OW21073   0.300   3.681   1.588
 6725SOL    HW121074   0.356   3.703   1.668
 6725SOL    HW221075   0.320   3.746   1.514
 6726SOL     OW21076   0.589   2.126   5.026
 6726SOL    HW121077   0.520   2.195   5.048
 6726SOL    HW221078   0.546   2.052   4.974
 6727SOL     OW21079   6.608   4.271   5.220
 6727SOL    HW121080   6.628   4.336   5.146
 6727SOL    HW221081   6.643   4.307   5.306
 6728SOL     OW21082   3.958   1.661   3.288
 6728SOL    HW121083   4.012   1.617   3.360
 6728SOL    HW221084   3.874   1.699   3.326
 6729SOL     OW21085   6.833   1.082   3.016
 6729SOL    HW121086   6.838   1.181   2.997
 6729SOL    HW221087   6.741   1.058   3.046
 6730SOL     OW21088   2.401   6.784   0.129
 6730SOL    HW121089   2.493   6.805   0.096
 6730SOL    HW221090   2.336   6.848   0.089
 6731SOL     OW21091   0.754   5.949   2.023
 6731SOL    HW121092   0.669   5.961   1.972
 6731SOL    HW221093   0.735   5.905   2.110
 6732SOL     OW21094   5.598   5.276   5.384
 6732SOL    HW121095   5.644   5.238   5.304
 6732SOL    HW221096   5.522   5.215   5.410
 6733SOL     OW21097   4.223   5.057   0.032
 6733SOL    HW121098   4.323   5.067   0.035
 6733SOL    HW221099   4.182   5.145   0.010
 6734SOL     OW21100   6.302   1.991   5.034
 6734SOL    HW121101   6.388   1.955   4.998
 6734SOL    HW221102   6.235   1.998   4.961
 6735SOL     OW21103   6.727   4.233   4.818
 6735SOL    HW121104   6.656   4.180   4.773
 6735SOL    HW221105   6.793   4.171   4.861
 6736SOL     OW21106   3.390   3.714   6.818
 6736SOL    HW121107   3.484   3.689   6.838
 6736SOL    HW221108   3.365   3.681   6.727
 6737SOL     OW21109   2.099   2.290   0.778
 6737SOL    HW121110   2.059   2.198   0.787
 6737SOL    HW221111   2.142   2.299   0.688
 6738SOL     OW21112   1.596   5.190   2.292
 6738SOL    HW121113   1.629   5.271   2.245
 6738SOL    HW221114   1.511   5.211   2.339
 6739SOL     OW21115   3.799   6.104   5.540
 6739SOL    HW121116   3.780   6.079   5.445
 6739SOL    HW221117   3.719   6.149   5.579
 6740SOL     OW21118   1.823   0.674   4.149
 6740SOL    HW121119   1.895   0.707   4.088
 6740SOL    HW221120   1.814   0.735   4.227
 6741SOL     OW21121   4.369   1.119   5.603
 6741SOL    HW121122   4.465   1.133   5.624
 6741SOL    HW221123   4.353   1.139   5.506
 6742SOL     OW21124   6.294   5.619   3.058
 6742SOL    HW121125   6.252   5.703   3.092
 6742SOL    HW221126   6.345   5.575   3.132
 6743SOL     OW21127   3.856   4.833   0.411
 6743SOL    HW121128   3.932   4.845   0.347
 6743SOL    HW221129   3.774   4.877   0.374
 6744SOL     OW21130   5.796   4.206   6.624
 6744SOL    HW121131   5.783   4.306   6.627
 6744SOL    HW221132   5.832   4.180   6.535
 6745SOL     OW21133   6.930   0.469   2.941
 6745SOL    HW121134   7.001   0.414   2.986
 6745SOL    HW221135   6.972   0.526   2.870
 6746SOL     OW21136   1.420   1.162   3.174
 6746SOL    HW121137   1.424   1.064   3.195
 6746SOL    HW221138   1.475   1.212   3.241
 6747SOL     OW21139   5.827   1.160   4.846
 6747SOL    HW121140   5.907   1.198   4.800
 6747SOL    HW221141   5.855   1.116   4.931
 6748SOL     OW21142   1.400   0.647   3.335
 6748SOL    HW121143   1.438   0.711   3.402
 6748SOL    HW221144   1.459   0.567   3.328
 6749SOL     OW21145   2.428   6.519   0.229
 6749SOL    HW121146   2.408   6.609   0.191
 6749SOL    HW221147   2.498   6.474   0.173
 6750SOL     OW21148   4.040   2.169   5.132
 6750SOL    HW121149   3.943   2.188   5.151
 6750SOL    HW221150   4.083   2.251   5.095
 6751SOL     OW21151   4.322   0.295   3.666
 6751SOL    HW121152   4.420   0.293   3.644
 6751SOL    HW221153   4.270   0.257   3.590
 6752SOL     OW21154   0.548   2.496   2.893
 6752SOL    HW121155   0.476   2.489   2.962
 6752SOL    HW221156   0.510   2.535   2.809
 6753SOL     OW21157   4.260   1.176   6.284
 6753SOL    HW121158   4.335   1.221   6.234
 6753SOL    HW221159   4.293   1.149   6.374
 6754SOL     OW21160   0.411   1.724   0.327
 6754SOL    HW121161   0.468   1.742   0.246
 6754SOL    HW221162   0.317   1.752   0.308
 6755SOL     OW21163   3.711   0.658   3.390
 6755SOL    HW121164   3.617   0.664   3.357
 6755SOL    HW221165   3.716   0.691   3.484
 6756SOL     OW21166   3.854   5.507   5.506
 6756SOL    HW121167   3.888   5.587   5.457
 6756SOL    HW221168   3.790   5.457   5.448
 6757SOL     OW21169   4.325   0.221   1.842
 6757SOL    HW121170   4.314   0.213   1.942
 6757SOL    HW221171   4.236   0.207   1.798
 6758SOL     OW21172   0.073   2.292   1.598
 6758SOL    HW121173   0.007   2.366   1.585
 6758SOL    HW221174   0.038   2.228   1.667
 6759SOL     OW21175   0.925   4.654   4.005
 6759SOL    HW121176   0.869   4.734   3.983
 6759SOL    HW221177   0.915   4.585   3.933
 6760SOL     OW21178   6.682   4.639   3.332
 6760SOL    HW121179   6.714   4.638   3.427
 6760SOL    HW221180   6.670   4.546   3.300
 6761SOL     OW21181   6.246   2.291   5.983
 6761SOL    HW121182   6.333   2.327   5.950
 6761SOL    HW221183   6.229   2.327   6.075
 6762SOL     OW21184   0.261   5.354   3.602
 6762SOL    HW121185   0.303   5.266   3.578
 6762SOL    HW221186   0.266   5.416   3.524
 6763SOL     OW21187   0.281   4.786   3.034
 6763SOL    HW121188   0.258   4.703   2.984
 6763SOL    HW221189   0.276   4.769   3.133
 6764SOL     OW21190   2.270   5.322   6.841
 6764SOL    HW121191   2.338   5.391   6.817
 6764SOL    HW221192   2.188   5.335   6.784
 6765SOL     OW21193   5.046   4.696   3.889
 6765SOL    HW121194   5.071   4.787   3.854
 6765SOL    HW221195   5.126   4.654   3.932
 6766SOL     OW21196   4.897   6.788   6.263
 6766SOL    HW121197   4.947   6.862   6.218
 6766SOL    HW221198   4.947   6.758   6.344
 6767SOL     OW21199   1.309   2.099   0.665
 6767SOL    HW121200   1.302   2.036   0.588
 6767SOL    HW221201   1.337   2.050   0.747
 6768SOL     OW21202   1.125   6.164   3.431
 6768SOL    HW121203   1.143   6.066   3.422
 6768SOL    HW221204   1.045   6.188   3.375
 6769SOL     OW21205   2.832   0.087   5.605
 6769SOL    HW121206   2.770   0.049   5.537
 6769SOL    HW221207   2.783   0.153   5.662
 6770SOL     OW21208   5.274   1.849   3.635
 6770SOL    HW121209   5.283   1.930   3.693
 6770SOL    HW221210   5.321   1.864   3.549
 6771SOL     OW21211   4.112   1.350   2.064
 6771SOL    HW121212   4.136   1.417   1.994
 6771SOL    HW221213   4.118   1.258   2.026
 6772SOL     OW21214   4.755   2.326   2.698
 6772SOL    HW121215   4.804   2.296   2.616
 6772SOL    HW221216   4.737   2.248   2.756
 6773SOL     OW21217   0.151   6.621   2.071
 6773SOL    HW121218   0.148   6.531   2.113
 6773SOL    HW221219   0.087   6.682   2.118
 6774SOL     OW21220   1.273   3.339   4.713
 6774SOL    HW121221   1.362   3.319   4.754
 6774SOL    HW221222   1.250   3.268   4.646
 6775SOL     OW21223   0.898   2.195   3.247
 6775SOL    HW121224   0.968   2.262   3.272
 6775SOL    HW221225   0.931   2.103   3.268
 6776SOL     OW21226   4.301   3.952   1.038
 6776SOL    HW121227   4.265   3.870   1.082
 6776SOL    HW221228   4.401   3.951   1.041
 6777SOL     OW21229   4.391   5.757   0.913
 6777SOL    HW121230   4.304   5.709   0.903
 6777SOL    HW221231   4.434   5.731   1.000
 6778SOL     OW21232   6.087   3.685   1.946
 6778SOL    HW121233   6.089   3.647   1.853
 6778SOL    HW221234   6.164   3.747   1.959
 6779SOL     OW21235   5.233   4.334   6.068
 6779SOL    HW121236   5.147   4.381   6.089
 6779SOL    HW221237   5.249   4.262   6.135
 6780SOL     OW21238   0.866   3.340   3.008
 6780SOL    HW121239   0.918   3.314   2.926
 6780SOL    HW221240   0.910   3.419   3.052
 6781SOL     OW21241   6.968   2.132   4.191
 6781SOL    HW121242   0.004   2.183   4.250
 6781SOL    HW221243   6.956   2.180   4.105
 6782SOL     OW21244   0.749   1.368   3.358
 6782SOL    HW121245   0.815   1.303   3.322
 6782SOL    HW221246   0.782   1.461   3.342
 6783SOL     OW21247   1.027   2.802   6.202
 6783SOL    HW121248   1.051   2.705   6.197
 6783SOL    HW221249   1.066   2.849   6.123
 6784SOL     OW21250   2.384   3.695   0.759
 6784SOL    HW121251   2.405   3.619   0.821
 6784SOL    HW221252   2.468   3.747   0.741
 6785SOL     OW21253   5.688   5.120   5.157
 6785SOL    HW121254   5.650   5.038   5.200
 6785SOL    HW221255   5.752   5.093   5.085
 6786SOL     OW21256   0.799   2.812   6.984
 6786SOL    HW121257   0.734   2.738   6.967
 6786SOL    HW221258   0.752   2.900   6.974
 6787SOL     OW21259   3.260   2.112   1.178
 6787SOL    HW121260   3.263   2.212   1.175
 6787SOL    HW221261   3.246   2.082   1.273
 6788SOL     OW21262   0.196   4.610   2.030
 6788SOL    HW121263   0.212   4.628   2.127
 6788SOL    HW221264   0.123   4.541   2.020
 6789SOL     OW21265   0.280   4.485   3.989
 6789SOL    HW121266   0.378   4.466   3.985
 6789SOL    HW221267   0.231   4.402   4.012
 6790SOL     OW21268   0.655   4.086   0.033
 6790SOL    HW121269   0.747   4.123   0.050
 6790SOL    HW221270   0.645   3.999   0.081
 6791SOL     OW21271   4.221   2.179   2.706
 6791SOL    HW121272   4.246   2.261   2.756
 6791SOL    HW221273   4.211   2.201   2.609
 6792SOL     OW21274   5.516   0.185   5.713
 6792SOL    HW121275   5.554   0.094   5.699
 6792SOL    HW221276   5.416   0.180   5.709
 6793SOL     OW21277   3.639   0.687   6.659
 6793SOL    HW121278   3.650   0.667   6.757
 6793SOL    HW221279   3.670   0.780   6.640
 6794SOL     OW21280   5.668   1.286   5.038
 6794SOL    HW121281   5.717   1.260   4.955
 6794SOL    HW221282   5.573   1.258   5.031
 6795SOL     OW21283   1.071   6.102   0.344
 6795SOL    HW121284   0.999   6.141   0.287
 6795SOL    HW221285   1.113   6.024   0.297
 6796SOL     OW21286   6.111   6.980   2.418
 6796SOL    HW121287   6.114   0.038   2.472
 6796SOL    HW221288   6.071   6.999   2.328
 6797SOL     OW21289   6.368   1.574   1.166
 6797SOL    HW121290   6.335   1.667   1.184
 6797SOL    HW221291   6.312   1.508   1.216
 6798SOL     OW21292   6.497   0.366   1.710
 6798SOL    HW121293   6.455   0.451   1.740
 6798SOL    HW221294   6.550   0.327   1.785
 6799SOL     OW21295   6.093   6.751   2.555
 6799SOL    HW121296   6.021   6.771   2.622
 6799SOL    HW221297   6.109   6.832   2.499
 6800SOL     OW21298   2.395   2.546   2.007
 6800SOL    HW121299   2.416   2.530   1.910
 6800SOL    HW221300   2.458   2.493   2.063
 6801SOL     OW21301   0.923   6.775   3.993
 6801SOL    HW121302   0.849   6.840   3.975
 6801SOL    HW221303   0.885   6.683   3.997
 6802SOL     OW21304   3.632   6.178   1.483
 6802SOL    HW121305   3.549   6.160   1.536
 6802SOL    HW221306   3.690   6.241   1.534
 6803SOL     OW21307   3.911   4.205   6.613
 6803SOL    HW121308   3.997   4.159   6.634
 6803SOL    HW221309   3.872   4.244   6.696
 6804SOL     OW21310   4.140   5.001   3.160
 6804SOL    HW121311   4.193   5.086   3.155
 6804SOL    HW221312   4.080   5.004   3.240
 6805SOL     OW21313   0.573   5.291   6.846
 6805SOL    HW121314   0.597   5.259   6.754
 6805SOL    HW221315   0.626   5.373   6.867
 6806SOL     OW21316   7.023   0.889   4.212
 6806SOL    HW121317   6.965   0.918   4.137
 6806SOL    HW221318   7.013   0.952   4.289
 6807SOL     OW21319   3.839   3.927   2.818
 6807SOL    HW121320   3.866   3.915   2.913
 6807SOL    HW221321   3.755   3.874   2.801
 6808SOL     OW21322   0.017   1.209   5.403
 6808SOL    HW121323   7.018   1.112   5.406
 6808SOL    HW221324   7.000   1.252   5.324
 6809SOL     OW21325   6.496   3.200   0.688
 6809SOL    HW121326   6.477   3.161   0.778
 6809SOL    HW221327   6.442   3.153   0.619
 6810SOL     OW21328   2.806   0.988   2.222
 6810SOL    HW121329   2.888   1.044   2.217
 6810SOL    HW221330   2.731   1.042   2.261
 6811SOL     OW21331   6.158   3.281   2.431
 6811SOL    HW121332   6.141   3.322   2.341
 6811SOL    HW221333   6.168   3.182   2.421
 6812SOL     OW21334   3.888   4.122   5.044
 6812SOL    HW121335   3.924   4.051   5.105
 6812SOL    HW221336   3.888   4.087   4.950
 6813SOL     OW21337   5.808   3.297   2.384
 6813SOL    HW121338   5.813   3.209   2.431
 6813SOL    HW221339   5.869   3.362   2.430
 6814SOL     OW21340   4.794   1.900   6.607
 6814SOL    HW121341   4.701   1.935   6.595
 6814SOL    HW221342   4.796   1.839   6.686
 6815SOL     OW21343   2.549   6.667   6.684
 6815SOL    HW121344   2.494   6.608   6.743
 6815SOL    HW221345   2.614   6.612   6.632
 6816SOL     OW21346   0.026   1.431   5.534
 6816SOL    HW121347   7.002   1.429   5.620
 6816SOL    HW221348   0.026   1.340   5.493
 6817SOL     OW21349   2.225   2.698   3.846
 6817SOL    HW121350   2.173   2.633   3.791
 6817SOL    HW221351   2.187   2.700   3.939
 6818SOL     OW21352   1.948   6.868   0.371
 6818SOL    HW121353   1.909   6.935   0.308
 6818SOL    HW221354   1.877   6.802   0.398
 6819SOL     OW21355   4.425   1.386   2.984
 6819SOL    HW121356   4.501   1.331   3.018
 6819SOL    HW221357   4.447   1.421   2.893
 6820SOL     OW21358   1.295   5.862   1.444
 6820SOL    HW121359   1.357   5.871   1.367
 6820SOL    HW221360   1.288   5.766   1.471
 6821SOL     OW21361   4.176   2.696   5.330
 6821SOL    HW121362   4.126   2.663   5.410
 6821SOL    HW221363   4.154   2.639   5.251
 6822SOL     OW21364   5.587   2.315   5.759
 6822SOL    HW121365   5.620   2.280   5.671
 6822SOL    HW221366   5.493   2.347   5.749
 6823SOL     OW21367   5.711   4.322   6.081
 6823SOL    HW121368   5.740   4.400   6.135
 6823SOL    HW221369   5.788   4.288   6.026
 6824SOL     OW21370   1.339   1.562   0.524
 6824SOL    HW121371   1.423   1.614   0.511
 6824SOL    HW221372   1.266   1.624   0.552
 6825SOL     OW21373   6.063   0.198   0.263
 6825SOL    HW121374   5.999   0.205   0.186
 6825SOL    HW221375   6.083   0.101   0.280
 6826SOL     OW21376   1.780   3.888   3.268
 6826SOL    HW121377   1.821   3.942   3.343
 6826SOL    HW221378   1.696   3.932   3.238
 6827SOL     OW21379   5.286   5.393   6.367
 6827SOL    HW121380   5.343   5.340   6.430
 6827SOL    HW221381   5.241   5.467   6.417
 6828SOL     OW21382   3.850   1.763   2.592
 6828SOL    HW121383   3.867   1.696   2.665
 6828SOL    HW221384   3.811   1.846   2.631
 6829SOL     OW21385   5.521   6.665   5.022
 6829SOL    HW121386   5.585   6.741   5.017
 6829SOL    HW221387   5.571   6.580   5.040
 6830SOL     OW21388   5.088   0.594   3.827
 6830SOL    HW121389   5.156   0.522   3.822
 6830SOL    HW221390   5.011   0.564   3.884
 6831SOL     OW21391   2.029   1.129   5.778
 6831SOL    HW121392   1.941   1.094   5.810
 6831SOL    HW221393   2.077   1.172   5.854
 6832SOL     OW21394   2.551   3.994   0.475
 6832SOL    HW121395   2.506   4.067   0.527
 6832SOL    HW221396   2.574   3.919   0.537
 6833SOL     OW21397   2.218   4.665   6.250
 6833SOL    HW121398   2.130   4.665   6.204
 6833SOL    HW221399   2.290   4.688   6.185
 6834SOL     OW21400   6.326   6.989   0.491
 6834SOL    HW121401   6.295   7.008   0.398
 6834SOL    HW221402   6.312   0.043   0.548
 6835SOL     OW21403   3.613   1.353   4.479
 6835SOL    HW121404   3.677   1.417   4.436
 6835SOL    HW221405   3.646   1.329   4.571
 6836SOL     OW21406   2.528   4.307   6.362
 6836SOL    HW121407   2.569   4.263   6.441
 6836SOL    HW221408   2.597   4.321   6.291
 6837SOL     OW21409   0.775   1.901   2.910
 6837SOL    HW121410   0.861   1.903   2.962
 6837SOL    HW221411   0.788   1.844   2.828
 6838SOL     OW21412   2.711   4.619   6.311
 6838SOL    HW121413   2.716   4.698   6.251
 6838SOL    HW221414   2.617   4.607   6.344
 6839SOL     OW21415   5.181   1.212   5.015
 6839SOL    HW121416   5.183   1.116   4.986
 6839SOL    HW221417   5.114   1.262   4.961
 6840SOL     OW21418   3.163   6.550   5.192
 6840SOL    HW121419   3.154   6.616   5.267
 6840SOL    HW221420   3.222   6.588   5.121
 6841SOL     OW21421   3.863   4.933   0.729
 6841SOL    HW121422   3.874   4.834   0.741
 6841SOL    HW221423   3.923   4.981   0.791
 6842SOL     OW21424   2.514   2.737   0.254
 6842SOL    HW121425   2.418   2.711   0.243
 6842SOL    HW221426   2.530   2.825   0.210
 6843SOL     OW21427   5.544   0.178   2.190
 6843SOL    HW121428   5.565   0.229   2.106
 6843SOL    HW221429   5.628   0.135   2.224
 6844SOL     OW21430   6.008   6.655   3.947
 6844SOL    HW121431   5.985   6.713   4.025
 6844SOL    HW221432   6.016   6.560   3.978
 6845SOL     OW21433   5.451   4.130   2.487
 6845SOL    HW121434   5.362   4.175   2.498
 6845SOL    HW221435   5.450   4.073   2.405
 6846SOL     OW21436   4.255   3.207   1.524
 6846SOL    HW121437   4.278   3.218   1.427
 6846SOL    HW221438   4.301   3.279   1.577
 6847SOL     OW21439   6.874   4.380   2.385
 6847SOL    HW121440   6.898   4.284   2.379
 6847SOL    HW221441   6.954   4.436   2.361
 6848SOL     OW21442   2.896   6.486   3.331
 6848SOL    HW121443   2.896   6.490   3.431
 6848SOL    HW221444   2.983   6.449   3.300
 6849SOL     OW21445   3.145   5.757   4.813
 6849SOL    HW121446   3.226   5.796   4.768
 6849SOL    HW221447   3.066   5.817   4.796
 6850SOL     OW21448   5.189   3.490   2.380
 6850SOL    HW121449   5.275   3.516   2.336
 6850SOL    HW221450   5.209   3.432   2.459
 6851SOL     OW21451   1.401   2.844   3.955
 6851SOL    HW121452   1.346   2.922   3.986
 6851SOL    HW221453   1.346   2.761   3.962
 6852SOL     OW21454   1.612   4.801   0.838
 6852SOL    HW121455   1.553   4.725   0.865
 6852SOL    HW221456   1.700   4.793   0.885
 6853SOL     OW21457   6.877   3.819   6.783
 6853SOL    HW121458   6.785   3.832   6.746
 6853SOL    HW221459   6.945   3.851   6.717
 6854SOL     OW21460   6.107   1.858   5.774
 6854SOL    HW121461   6.080   1.827   5.683
 6854SOL    HW221462   6.154   1.783   5.822
 6855SOL     OW21463   3.220   5.885   2.840
 6855SOL    HW121464   3.244   5.924   2.751
 6855SOL    HW221465   3.197   5.960   2.903
 6856SOL     OW21466   5.416   4.821   5.616
 6856SOL    HW121467   5.378   4.741   5.661
 6856SOL    HW221468   5.345   4.867   5.562
 6857SOL     OW21469   3.261   1.607   0.210
 6857SOL    HW121470   3.242   1.519   0.253
 6857SOL    HW221471   3.186   1.630   0.147
 6858SOL     OW21472   3.856   3.344   4.030
 6858SOL    HW121473   3.786   3.415   4.021
 6858SOL    HW221474   3.828   3.278   4.099
 6859SOL     OW21475   1.346   0.035   1.180
 6859SOL    HW121476   1.325   6.996   1.253
 6859SOL    HW221477   1.282   0.112   1.185
 6860SOL     OW21478   5.894   5.466   1.433
 6860SOL    HW121479   5.903   5.379   1.383
 6860SOL    HW221480   5.886   5.541   1.367
 6861SOL     OW21481   6.025   4.529   0.891
 6861SOL    HW121482   6.027   4.627   0.911
 6861SOL    HW221483   5.931   4.501   0.869
 6862SOL     OW21484   2.120   4.858   5.054
 6862SOL    HW121485   2.197   4.921   5.066
 6862SOL    HW221486   2.036   4.902   5.084
 6863SOL     OW21487   6.036   1.476   5.067
 6863SOL    HW121488   6.058   1.482   4.970
 6863SOL    HW221489   6.094   1.540   5.118
 6864SOL     OW21490   3.576   5.751   3.965
 6864SOL    HW121491   3.535   5.667   3.932
 6864SOL    HW221492   3.652   5.777   3.906
 6865SOL     OW21493   6.897   5.553   2.691
 6865SOL    HW121494   6.922   5.624   2.756
 6865SOL    HW221495   6.800   5.531   2.701
 6866SOL     OW21496   6.573   4.573   2.098
 6866SOL    HW121497   6.558   4.557   2.195
 6866SOL    HW221498   6.663   4.613   2.084
 6867SOL     OW21499   1.526   4.881   1.311
 6867SOL    HW121500   1.438   4.928   1.326
 6867SOL    HW221501   1.600   4.947   1.319
 6868SOL     OW21502   0.852   5.400   5.804
 6868SOL    HW121503   0.821   5.411   5.899
 6868SOL    HW221504   0.945   5.435   5.796
 6869SOL     OW21505   6.341   0.983   5.202
 6869SOL    HW121506   6.308   1.067   5.160
 6869SOL    HW221507   6.285   0.906   5.171
 6870SOL     OW21508   6.732   5.268   2.077
 6870SOL    HW121509   6.680   5.335   2.024
 6870SOL    HW221510   6.739   5.297   2.172
 6871SOL     OW21511   5.966   4.331   2.525
 6871SOL    HW121512   6.046   4.286   2.484
 6871SOL    HW221513   5.887   4.269   2.521
 6872SOL     OW21514   0.982   3.475   1.192
 6872SOL    HW121515   0.943   3.490   1.283
 6872SOL    HW221516   0.956   3.385   1.158
 6873SOL     OW21517   6.508   3.888   4.961
 6873SOL    HW121518   6.424   3.870   5.013
 6873SOL    HW221519   6.577   3.925   5.023
 6874SOL     OW21520   0.888   4.892   2.611
 6874SOL    HW121521   0.962   4.881   2.678
 6874SOL    HW221522   0.818   4.822   2.626
 6875SOL     OW21523   1.169   2.440   3.611
 6875SOL    HW121524   1.141   2.377   3.684
 6875SOL    HW221525   1.114   2.523   3.615
 6876SOL     OW21526   4.189   6.401   5.087
 6876SOL    HW121527   4.258   6.445   5.146
 6876SOL    HW221528   4.232   6.324   5.039
 6877SOL     OW21529   2.522   4.757   6.630
 6877SOL    HW121530   2.507   4.681   6.567
 6877SOL    HW221531   2.609   4.743   6.678
 6878SOL     OW21532   2.727   2.407   5.290
 6878SOL    HW121533   2.824   2.412   5.314
 6878SOL    HW221534   2.716   2.348   5.210
 6879SOL     OW21535   1.128   2.183   0.378
 6879SOL    HW121536   1.166   2.212   0.290
 6879SOL    HW221537   1.161   2.245   0.450
 6880SOL     OW21538   1.873   3.552   5.033
 6880SOL    HW121539   1.849   3.611   5.110
 6880SOL    HW221540   1.947   3.593   4.981
 6881SOL     OW21541   0.829   4.054   2.424
 6881SOL    HW121542   0.817   3.993   2.503
 6881SOL    HW221543   0.898   4.015   2.363
 6882SOL     OW21544   3.268   0.390   6.133
 6882SOL    HW121545   3.304   0.383   6.040
 6882SOL    HW221546   3.294   0.478   6.173
 6883SOL     OW21547   3.858   2.021   0.648
 6883SOL    HW121548   3.790   1.989   0.714
 6883SOL    HW221549   3.869   2.120   0.658
 6884SOL     OW21550   1.983   3.973   4.583
 6884SOL    HW121551   1.939   4.061   4.600
 6884SOL    HW221552   1.939   3.902   4.638
 6885SOL     OW21553   4.176   6.119   4.927
 6885SOL    HW121554   4.110   6.128   5.001
 6885SOL    HW221555   4.181   6.024   4.898
 6886SOL     OW21556   0.102   0.592   3.890
 6886SOL    HW121557   0.068   0.520   3.830
 6886SOL    HW221558   0.114   0.676   3.839
 6887SOL     OW21559   5.522   6.719   5.485
 6887SOL    HW121560   5.473   6.716   5.398
 6887SOL    HW221561   5.557   6.628   5.506
 6888SOL     OW21562   5.067   6.670   6.991
 6888SOL    HW121563   4.978   6.653   6.949
 6888SOL    HW221564   5.136   6.612   6.947
 6889SOL     OW21565   1.733   2.688   5.309
 6889SOL    HW121566   1.639   2.658   5.323
 6889SOL    HW221567   1.777   2.701   5.398
 6890SOL     OW21568   3.524   6.828   0.877
 6890SOL    HW121569   3.537   6.926   0.868
 6890SOL    HW221570   3.472   6.808   0.960
 6891SOL     OW21571   2.316   4.315   4.382
 6891SOL    HW121572   2.221   4.316   4.350
 6891SOL    HW221573   2.319   4.335   4.480
 6892SOL     OW21574   3.353   1.470   3.207
 6892SOL    HW121575   3.440   1.431   3.176
 6892SOL    HW221576   3.371   1.546   3.270
 6893SOL     OW21577   5.530   5.042   6.884
 6893SOL    HW121578   5.546   5.010   6.977
 6893SOL    HW221579   5.433   5.060   6.871
 6894SOL     OW21580   6.301   4.786   0.441
 6894SOL    HW121581   6.317   4.847   0.363
 6894SOL    HW221582   6.387   4.741   0.466
 6895SOL     OW21583   2.435   5.914   6.296
 6895SOL    HW121584   2.456   5.819   6.320
 6895SOL    HW221585   2.431   5.969   6.379
 6896SOL     OW21586   1.562   6.655   3.801
 6896SOL    HW121587   1.568   6.586   3.873
 6896SOL    HW221588   1.650   6.703   3.795
 6897SOL     OW21589   2.895   3.587   0.137
 6897SOL    HW121590   2.813   3.619   0.185
 6897SOL    HW221591   2.913   3.492   0.161
 6898SOL     OW21592   3.808   1.543   2.399
 6898SOL    HW121593   3.830   1.611   2.468
 6898SOL    HW221594   3.729   1.574   2.345
 6899SOL     OW21595   5.126   6.801   1.427
 6899SOL    HW121596   5.062   6.746   1.373
 6899SOL    HW221597   5.204   6.745   1.455
 6900SOL     OW21598   6.622   0.470   5.423
 6900SOL    HW121599   6.573   0.398   5.374
 6900SOL    HW221600   6.570   0.494   5.506
 6901SOL     OW21601   0.410   0.005   5.779
 6901SOL    HW121602   0.351   6.956   5.750
 6901SOL    HW221603   0.460   7.005   5.861
 6902SOL     OW21604   5.732   6.816   0.555
 6902SOL    HW121605   5.789   6.851   0.481
 6902SOL    HW221606   5.790   6.767   0.620
 6903SOL     OW21607   4.192   5.329   4.806
 6903SOL    HW121608   4.286   5.345   4.834
 6903SOL    HW221609   4.190   5.298   4.710
 6904SOL     OW21610   5.930   2.024   3.962
 6904SOL    HW121611   5.956   2.116   3.931
 6904SOL    HW221612   5.990   1.996   4.036
 6905SOL     OW21613   5.926   6.350   6.795
 6905SOL    HW121614   5.956   6.264   6.837
 6905SOL    HW221615   5.990   6.423   6.820
 6906SOL     OW21616   4.519   0.976   4.174
 6906SOL    HW121617   4.502   1.035   4.095
 6906SOL    HW221618   4.492   0.882   4.151
 6907SOL     OW21619   5.301   1.861   1.177
 6907SOL    HW121620   5.286   1.821   1.086
 6907SOL    HW221621   5.238   1.937   1.191
 6908SOL     OW21622   1.282   6.272   5.830
 6908SOL    HW121623   1.341   6.315   5.762
 6908SOL    HW221624   1.335   6.205   5.883
 6909SOL     OW21625   6.100   4.288   1.679
 6909SOL    HW121626   6.167   4.230   1.634
 6909SOL    HW221627   6.034   4.231   1.729
 6910SOL     OW21628   0.281   2.088   3.975
 6910SOL    HW121629   0.305   2.003   4.022
 6910SOL    HW221630   0.182   2.103   3.983
 6911SOL     OW21631   5.131   6.377   3.694
 6911SOL    HW121632   5.052   6.390   3.753
 6911SOL    HW221633   5.157   6.465   3.653
 6912SOL     OW21634   4.086   5.027   0.531
 6912SOL    HW121635   3.994   5.011   0.568
 6912SOL    HW221636   4.150   4.964   0.574
 6913SOL     OW21637   5.206   4.954   5.487
 6913SOL    HW121638   5.193   5.044   5.445
 6913SOL    HW221639   5.201   4.884   5.416
 6914SOL     OW21640   5.577   4.446   6.877
 6914SOL    HW121641   5.514   4.374   6.847
 6914SOL    HW221642   5.526   4.515   6.929
 6915SOL     OW21643   6.326   3.912   1.625
 6915SOL    HW121644   6.347   4.007   1.602
 6915SOL    HW221645   6.342   3.854   1.545
 6916SOL     OW21646   6.367   3.692   6.843
 6916SOL    HW121647   6.325   3.780   6.822
 6916SOL    HW221648   6.302   3.618   6.822
 6917SOL     OW21649   3.409   5.681   1.025
 6917SOL    HW121650   3.458   5.766   1.011
 6917SOL    HW221651   3.343   5.692   1.100
 6918SOL     OW21652   0.665   3.250   4.285
 6918SOL    HW121653   0.700   3.344   4.281
 6918SOL    HW221654   0.742   3.186   4.284
 6919SOL     OW21655   0.549   6.380   2.788
 6919SOL    HW121656   0.514   6.371   2.881
 6919SOL    HW221657   0.500   6.454   2.741
 6920SOL     OW21658   4.267   5.539   5.452
 6920SOL    HW121659   4.360   5.509   5.431
 6920SOL    HW221660   4.239   5.501   5.540
 6921SOL     OW21661   5.360   6.286   3.299
 6921SOL    HW121662   5.366   6.269   3.201
 6921SOL    HW221663   5.390   6.205   3.349
 6922SOL     OW21664   1.978   5.611   6.422
 6922SOL    HW121665   2.046   5.559   6.474
 6922SOL    HW221666   2.023   5.673   6.359
 6923SOL     OW21667   4.988   5.246   3.439
 6923SOL    HW121668   4.930   5.169   3.411
 6923SOL    HW221669   4.936   5.305   3.501
 6924SOL     OW21670   1.222   4.300   6.679
 6924SOL    HW121671   1.155   4.362   6.719
 6924SOL    HW221672   1.263   4.244   6.752
 6925SOL     OW21673   3.838   6.119   4.781
 6925SOL    HW121674   3.899   6.197   4.767
 6925SOL    HW221675   3.750   6.136   4.736
 6926SOL     OW21676   2.900   3.468   2.073
 6926SOL    HW121677   2.934   3.555   2.038
 6926SOL    HW221678   2.800   3.473   2.082
 6927SOL     OW21679   5.496   3.127   6.373
 6927SOL    HW121680   5.396   3.124   6.382
 6927SOL    HW221681   5.520   3.187   6.297
 6928SOL     OW21682   6.125   6.269   0.459
 6928SOL    HW121683   6.114   6.361   0.497
 6928SOL    HW221684   6.090   6.202   0.525
 6929SOL     OW21685   4.893   5.411   1.242
 6929SOL    HW121686   4.816   5.472   1.220
 6929SOL    HW221687   4.979   5.457   1.220
 6930SOL     OW21688   6.819   0.188   2.737
 6930SOL    HW121689   6.913   0.192   2.702
 6930SOL    HW221690   6.814   0.120   2.810
 6931SOL     OW21691   2.206   0.969   2.370
 6931SOL    HW121692   2.297   0.955   2.331
 6931SOL    HW221693   2.193   0.910   2.449
 6932SOL     OW21694   3.965   6.999   0.726
 6932SOL    HW121695   4.055   0.012   0.703
 6932SOL    HW221696   3.943   7.020   0.821
 6933SOL     OW21697   3.351   5.946   5.165
 6933SOL    HW121698   3.429   5.897   5.205
 6933SOL    HW221699   3.320   6.017   5.228
 6934SOL     OW21700   4.906   4.317   5.893
 6934SOL    HW121701   4.898   4.364   5.982
 6934SOL    HW221702   4.910   4.219   5.907
 6935SOL     OW21703   4.443   6.202   3.445
 6935SOL    HW121704   4.542   6.195   3.433
 6935SOL    HW221705   4.421   6.197   3.542
 6936SOL     OW21706   6.666   2.465   3.264
 6936SOL    HW121707   6.695   2.558   3.286
 6936SOL    HW221708   6.570   2.465   3.234
 6937SOL     OW21709   6.879   6.119   0.483
 6937SOL    HW121710   6.797   6.160   0.524
 6937SOL    HW221711   6.862   6.100   0.387
 6938SOL     OW21712   5.186   3.524   5.901
 6938SOL    HW121713   5.104   3.491   5.946
 6938SOL    HW221714   5.263   3.465   5.924
 6939SOL     OW21715   0.148   4.042   1.370
 6939SOL    HW121716   0.227   4.082   1.322
 6939SOL    HW221717   0.074   4.109   1.373
 6940SOL     OW21718   4.647   1.514   0.831
 6940SOL    HW121719   4.590   1.517   0.749
 6940SOL    HW221720   4.624   1.432   0.884
 6941SOL     OW21721   3.396   3.041   3.169
 6941SOL    HW121722   3.485   3.005   3.199
 6941SOL    HW221723   3.363   2.987   3.091
 6942SOL     OW21724   5.996   2.495   1.300
 6942SOL    HW121725   6.026   2.562   1.368
 6942SOL    HW221726   5.931   2.432   1.341
 6943SOL     OW21727   5.067   6.065   6.442
 6943SOL    HW121728   5.095   6.028   6.353
 6943SOL    HW221729   5.031   5.991   6.499
 6944SOL     OW21730   1.887   3.968   6.193
 6944SOL    HW121731   1.839   3.980   6.106
 6944SOL    HW221732   1.843   4.024   6.264
 6945SOL     OW21733   6.055   3.237   5.925
 6945SOL    HW121734   6.092   3.163   5.981
 6945SOL    HW221735   6.010   3.304   5.983
 6946SOL     OW21736   6.144   6.606   1.418
 6946SOL    HW121737   6.113   6.699   1.398
 6946SOL    HW221738   6.175   6.601   1.513
 6947SOL     OW21739   3.654   6.444   5.786
 6947SOL    HW121740   3.724   6.433   5.856
 6947SOL    HW221741   3.620   6.538   5.788
 6948SOL     OW21742   5.837   0.481   6.467
 6948SOL    HW121743   5.894   0.553   6.428
 6948SOL    HW221744   5.857   0.471   6.564
 6949SOL     OW21745   5.152   6.922   3.839
 6949SOL    HW121746   5.233   6.971   3.805
 6949SOL    HW221747   5.070   6.957   3.793
 6950SOL     OW21748   2.267   0.088   3.868
 6950SOL    HW121749   2.256   7.015   3.881
 6950SOL    HW221750   2.364   0.111   3.866
 6951SOL     OW21751   6.477   6.425   5.867
 6951SOL    HW121752   6.474   6.512   5.817
 6951SOL    HW221753   6.540   6.363   5.821
 6952SOL     OW21754   6.878   5.761   3.968
 6952SOL    HW121755   6.832   5.686   4.016
 6952SOL    HW221756   6.966   5.729   3.933
 6953SOL     OW21757   4.664   0.533   6.937
 6953SOL    HW121758   4.585   0.472   6.930
 6953SOL    HW221759   4.645   0.604   7.005
 6954SOL     OW21760   0.134   3.770   3.865
 6954SOL    HW121761   0.078   3.727   3.936
 6954SOL    HW221762   0.170   3.700   3.803
 6955SOL     OW21763   6.098   0.614   1.796
 6955SOL    HW121764   6.139   0.524   1.813
 6955SOL    HW221765   6.006   0.601   1.758
 6956SOL     OW21766   4.732   6.209   3.416
 6956SOL    HW121767   4.717   6.303   3.448
 6956SOL    HW221768   4.809   6.170   3.466
 6957SOL     OW21769   5.897   5.113   0.912
 6957SOL    HW121770   5.852   5.054   0.980
 6957SOL    HW221771   5.977   5.156   0.954
 6958SOL     OW21772   2.865   3.885   5.102
 6958SOL    HW121773   2.784   3.928   5.062
 6958SOL    HW221774   2.939   3.884   5.035
 6959SOL     OW21775   2.404   1.227   4.918
 6959SOL    HW121776   2.405   1.236   4.818
 6959SOL    HW221777   2.470   1.291   4.958
 6960SOL     OW21778   1.486   5.662   1.209
 6960SOL    HW121779   1.465   5.737   1.146
 6960SOL    HW221780   1.407   5.645   1.267
 6961SOL     OW21781   6.408   2.708   3.979
 6961SOL    HW121782   6.383   2.634   4.043
 6961SOL    HW221783   6.375   2.685   3.888
 6962SOL     OW21784   5.793   6.021   2.093
 6962SOL    HW121785   5.875   6.015   2.036
 6962SOL    HW221786   5.819   6.039   2.187
 6963SOL     OW21787   6.249   5.346   0.827
 6963SOL    HW121788   6.157   5.374   0.800
 6963SOL    HW221789   6.314   5.419   0.806
 6964SOL     OW21790   3.582   6.639   4.836
 6964SOL    HW121791   3.563   6.562   4.897
 6964SOL    HW221792   3.496   6.672   4.797
 6965SOL     OW21793   0.249   3.351   6.673
 6965SOL    HW121794   0.316   3.419   6.702
 6965SOL    HW221795   0.235   3.285   6.747
 6966SOL     OW21796   6.929   1.803   3.491
 6966SOL    HW121797   6.850   1.810   3.430
 6966SOL    HW221798   6.952   1.894   3.526
 6967SOL     OW21799   1.526   0.262   5.778
 6967SOL    HW121800   1.573   0.269   5.690
 6967SOL    HW221801   1.457   0.190   5.773
 6968SOL     OW21802   4.678   6.556   2.892
 6968SOL    HW121803   4.607   6.607   2.942
 6968SOL    HW221804   4.753   6.535   2.955
 6969SOL     OW21805   2.583   2.466   1.416
 6969SOL    HW121806   2.623   2.384   1.457
 6969SOL    HW221807   2.483   2.459   1.419
 6970SOL     OW21808   3.200   4.047   6.672
 6970SOL    HW121809   3.183   4.137   6.713
 6970SOL    HW221810   3.298   4.039   6.652
 6971SOL     OW21811   6.384   4.685   1.277
 6971SOL    HW121812   6.423   4.726   1.195
 6971SOL    HW221813   6.322   4.611   1.251
 6972SOL     OW21814   5.864   4.537   3.403
 6972SOL    HW121815   5.805   4.535   3.322
 6972SOL    HW221816   5.808   4.548   3.485
 6973SOL     OW21817   0.618   3.051   5.620
 6973SOL    HW121818   0.567   3.057   5.534
 6973SOL    HW221819   0.685   3.124   5.624
 6974SOL     OW21820   3.366   2.901   2.886
 6974SOL    HW121821   3.330   2.887   2.794
 6974SOL    HW221822   3.446   2.961   2.882
 6975SOL     OW21823   1.856   6.046   6.297
 6975SOL    HW121824   1.858   6.108   6.377
 6975SOL    HW221825   1.818   6.095   6.219
 6976SOL     OW21826   4.447   5.410   4.897
 6976SOL    HW121827   4.492   5.435   4.811
 6976SOL    HW221828   4.442   5.489   4.957
 6977SOL     OW21829   4.363   2.474   1.817
 6977SOL    HW121830   4.278   2.521   1.793
 6977SOL    HW221831   4.441   2.531   1.790
 6978SOL     OW21832   4.590   1.954   2.615
 6978SOL    HW121833   4.521   1.882   2.613
 6978SOL    HW221834   4.574   2.017   2.539
 6979SOL     OW21835   1.406   4.146   0.989
 6979SOL    HW121836   1.338   4.115   1.056
 6979SOL    HW221837   1.371   4.131   0.897
 6980SOL     OW21838   1.500   1.379   3.589
 6980SOL    HW121839   1.513   1.478   3.579
 6980SOL    HW221840   1.542   1.332   3.512
 6981SOL     OW21841   3.887   3.316   5.940
 6981SOL    HW121842   3.938   3.333   6.024
 6981SOL    HW221843   3.929   3.240   5.891
 6982SOL     OW21844   1.475   0.394   4.417
 6982SOL    HW121845   1.450   0.332   4.342
 6982SOL    HW221846   1.476   0.488   4.383
 6983SOL     OW21847   4.320   2.073   4.195
 6983SOL    HW121848   4.227   2.102   4.215
 6983SOL    HW221849   4.337   2.081   4.097
 6984SOL     OW21850   2.368   1.634   4.056
 6984SOL    HW121851   2.325   1.709   4.007
 6984SOL    HW221852   2.463   1.656   4.076
 6985SOL     OW21853   4.020   5.917   1.622
 6985SOL    HW121854   4.116   5.925   1.594
 6985SOL    HW221855   3.961   5.938   1.544
 6986SOL     OW21856   2.461   6.498   6.221
 6986SOL    HW121857   2.492   6.563   6.290
 6986SOL    HW221858   2.362   6.508   6.207
 6987SOL     OW21859   0.496   1.878   6.511
 6987SOL    HW121860   0.484   1.816   6.433
 6987SOL    HW221861   0.591   1.873   6.543
 6988SOL     OW21862   6.850   1.195   5.724
 6988SOL    HW121863   6.906   1.146   5.791
 6988SOL    HW221864   6.863   1.294   5.736
 6989SOL     OW21865   0.544   3.548   3.863
 6989SOL    HW121866   0.537   3.637   3.819
 6989SOL    HW221867   0.614   3.493   3.817
 6990SOL     OW21868   5.008   2.502   1.700
 6990SOL    HW121869   5.014   2.491   1.601
 6990SOL    HW221870   4.932   2.447   1.735
 6991SOL     OW21871   3.279   4.925   4.082
 6991SOL    HW121872   3.192   4.877   4.092
 6991SOL    HW221873   3.288   4.960   3.989
 6992SOL     OW21874   5.450   6.403   5.405
 6992SOL    HW121875   5.537   6.407   5.453
 6992SOL    HW221876   5.424   6.307   5.393
 6993SOL     OW21877   6.722   0.810   3.018
 6993SOL    HW121878   6.745   0.746   3.091
 6993SOL    HW221879   6.779   0.892   3.025
 6994SOL     OW21880   0.425   2.658   4.653
 6994SOL    HW121881   0.325   2.654   4.648
 6994SOL    HW221882   0.464   2.636   4.563
 6995SOL     OW21883   6.845   4.656   5.747
 6995SOL    HW121884   6.796   4.665   5.660
 6995SOL    HW221885   6.921   4.721   5.749
 6996SOL     OW21886   2.553   0.730   0.094
 6996SOL    HW121887   2.577   0.636   0.120
 6996SOL    HW221888   2.628   0.768   0.039
 6997SOL     OW21889   6.270   6.209   5.318
 6997SOL    HW121890   6.194   6.186   5.378
 6997SOL    HW221891   6.242   6.281   5.255
 6998SOL     OW21892   1.570   1.825   1.377
 6998SOL    HW121893   1.621   1.896   1.426
 6998SOL    HW221894   1.595   1.735   1.415
 6999SOL     OW21895   2.479   2.701   6.027
 6999SOL    HW121896   2.450   2.795   6.046
 6999SOL    HW221897   2.401   2.647   5.996
 7000SOL     OW21898   6.465   6.005   1.904
 7000SOL    HW121899   6.447   6.043   1.813
 7000SOL    HW221900   6.470   6.080   1.971
 7001SOL     OW21901   2.304   3.065   5.359
 7001SOL    HW121902   2.371   3.062   5.285
 7001SOL    HW221903   2.231   2.999   5.341
 7002SOL     OW21904   2.770   4.913   3.674
 7002SOL    HW121905   2.720   4.885   3.756
 7002SOL    HW221906   2.730   4.997   3.638
 7003SOL     OW21907   3.909   5.601   0.080
 7003SOL    HW121908   3.850   5.625   0.003
 7003SOL    HW221909   3.924   5.502   0.081
 7004SOL     OW21910   1.345   4.836   2.141
 7004SOL    HW121911   1.436   4.817   2.179
 7004SOL    HW221912   1.275   4.794   2.199
 7005SOL     OW21913   1.518   6.924   0.284
 7005SOL    HW121914   1.467   7.002   0.321
 7005SOL    HW221915   1.493   6.841   0.335
 7006SOL     OW21916   4.580   4.815   4.174
 7006SOL    HW121917   4.505   4.829   4.109
 7006SOL    HW221918   4.566   4.729   4.223
 7007SOL     OW21919   4.579   0.275   3.876
 7007SOL    HW121920   4.590   0.179   3.903
 7007SOL    HW221921   4.604   0.334   3.952
 7008SOL     OW21922   0.990   4.432   4.882
 7008SOL    HW121923   0.960   4.344   4.920
 7008SOL    HW221924   1.052   4.477   4.945
 7009SOL     OW21925   6.514   6.109   2.356
 7009SOL    HW121926   6.533   6.020   2.315
 7009SOL    HW221927   6.435   6.102   2.417
 7010SOL     OW21928   5.293   4.750   4.989
 7010SOL    HW121929   5.286   4.654   5.018
 7010SOL    HW221930   5.255   4.809   5.060
 7011SOL     OW21931   3.737   6.853   6.331
 7011SOL    HW121932   3.667   6.913   6.292
 7011SOL    HW221933   3.826   6.897   6.324
 7012SOL     OW21934   1.715   1.895   1.898
 7012SOL    HW121935   1.663   1.911   1.814
 7012SOL    HW221936   1.764   1.979   1.924
 7013SOL     OW21937   0.699   0.484   0.857
 7013SOL    HW121938   0.683   0.578   0.888
 7013SOL    HW221939   0.655   0.470   0.768
 7014SOL     OW21940   4.259   3.202   1.260
 7014SOL    HW121941   4.159   3.199   1.252
 7014SOL    HW221942   4.296   3.112   1.236
 7015SOL     OW21943   5.547   4.399   1.998
 7015SOL    HW121944   5.614   4.438   2.061
 7015SOL    HW221945   5.476   4.351   2.049
 7016SOL     OW21946   3.444   4.760   1.640
 7016SOL    HW121947   3.498   4.686   1.681
 7016SOL    HW221948   3.501   4.842   1.633
 7017SOL     OW21949   2.595   5.746   2.269
 7017SOL    HW121950   2.564   5.685   2.196
 7017SOL    HW221951   2.615   5.836   2.231
 7018SOL     OW21952   6.167   4.475   3.814
 7018SOL    HW121953   6.197   4.498   3.721
 7018SOL    HW221954   6.104   4.545   3.846
 7019SOL     OW21955   2.394   4.089   6.545
 7019SOL    HW121956   2.414   4.064   6.640
 7019SOL    HW221957   2.340   4.174   6.544
 7020SOL     OW21958   5.542   0.005   6.737
 7020SOL    HW121959   5.530   6.953   6.676
 7020SOL    HW221960   5.639   0.023   6.750
 7021SOL     OW21961   1.366   1.267   6.197
 7021SOL    HW121962   1.373   1.175   6.158
 7021SOL    HW221963   1.448   1.287   6.250
 7022SOL     OW21964   4.577   6.262   0.277
 7022SOL    HW121965   4.600   6.169   0.249
 7022SOL    HW221966   4.482   6.265   0.309
 7023SOL     OW21967   0.574   1.630   3.119
 7023SOL    HW121968   0.594   1.691   3.196
 7023SOL    HW221969   0.505   1.673   3.060
 7024SOL     OW21970   1.690   4.322   5.237
 7024SOL    HW121971   1.775   4.326   5.288
 7024SOL    HW221972   1.672   4.411   5.196
 7025SOL     OW21973   2.635   0.726   6.598
 7025SOL    HW121974   2.561   0.677   6.644
 7025SOL    HW221975   2.696   0.765   6.667
 7026SOL     OW21976   3.433   1.991   1.773
 7026SOL    HW121977   3.432   2.006   1.872
 7026SOL    HW221978   3.395   1.901   1.753
 7027SOL     OW21979   2.605   4.949   4.212
 7027SOL    HW121980   2.623   4.876   4.277
 7027SOL    HW221981   2.608   5.037   4.259
 7028SOL     OW21982   4.381   0.414   3.991
 7028SOL    HW121983   4.425   0.342   3.937
 7028SOL    HW221984   4.375   0.385   4.087
 7029SOL     OW21985   5.076   4.904   6.274
 7029SOL    HW121986   5.141   4.859   6.335
 7029SOL    HW221987   5.112   4.905   6.181
 7030SOL     OW21988   1.109   1.528   4.977
 7030SOL    HW121989   1.197   1.567   4.951
 7030SOL    HW221990   1.044   1.602   4.997
 7031SOL     OW21991   2.095   6.716   5.178
 7031SOL    HW121992   2.180   6.720   5.231
 7031SOL    HW221993   2.109   6.762   5.090
 7032SOL     OW21994   3.482   0.796   2.721
 7032SOL    HW121995   3.408   0.759   2.665
 7032SOL    HW221996   3.520   0.878   2.677
 7033SOL     OW21997   1.733   2.762   3.614
 7033SOL    HW121998   1.684   2.846   3.637
 7033SOL    HW221999   1.671   2.684   3.620
 7034SOL     OW22000   6.082   0.516   2.999
 7034SOL    HW122001   6.025   0.590   3.036
 7034SOL    HW222002   6.165   0.556   2.958
 7035SOL     OW22003   1.865   6.742   1.582
 7035SOL    HW122004   1.867   6.837   1.553
 7035SOL    HW222005   1.956   6.715   1.615
 7036SOL     OW22006   0.607   0.355   2.848
 7036SOL    HW122007   0.602   0.428   2.780
 7036SOL    HW222008   0.703   0.333   2.865
 7037SOL     OW22009   1.872   0.838   6.247
 7037SOL    HW122010   1.797   0.791   6.294
 7037SOL    HW222011   1.838   0.923   6.207
 7038SOL     OW22012   1.540   3.491   4.456
 7038SOL    HW122013   1.491   3.513   4.372
 7038SOL    HW222014   1.482   3.510   4.535
 7039SOL     OW22015   2.914   4.735   1.505
 7039SOL    HW122016   3.005   4.775   1.507
 7039SOL    HW222017   2.874   4.737   1.597
 7040SOL     OW22018   6.549   1.811   4.766
 7040SOL    HW122019   6.515   1.903   4.743
 7040SOL    HW222020   6.638   1.797   4.724
 7041SOL     OW22021   0.337   2.234   1.961
 7041SOL    HW122022   0.249   2.221   2.007
 7041SOL    HW222023   0.361   2.151   1.910
 7042SOL     OW22024   5.429   5.092   5.732
 7042SOL    HW122025   5.440   4.995   5.709
 7042SOL    HW222026   5.514   5.127   5.771
 7043SOL     OW22027   2.111   3.387   2.389
 7043SOL    HW122028   2.049   3.447   2.440
 7043SOL    HW222029   2.158   3.327   2.454
 7044SOL     OW22030   4.831   5.025   3.370
 7044SOL    HW122031   4.811   5.007   3.274
 7044SOL    HW222032   4.795   4.951   3.426
 7045SOL     OW22033   5.353   5.433   3.195
 7045SOL    HW122034   5.272   5.474   3.154
 7045SOL    HW222035   5.429   5.499   3.193
 7046SOL     OW22036   3.431   1.689   2.922
 7046SOL    HW122037   3.437   1.755   2.998
 7046SOL    HW222038   3.381   1.730   2.846
 7047SOL     OW22039   0.863   2.757   2.695
 7047SOL    HW122040   0.936   2.693   2.672
 7047SOL    HW222041   0.776   2.723   2.658
 7048SOL     OW22042   6.485   6.147   3.004
 7048SOL    HW122043   6.394   6.111   2.988
 7048SOL    HW222044   6.478   6.233   3.056
 7049SOL     OW22045   3.549   1.483   0.845
 7049SOL    HW122046   3.507   1.573   0.858
 7049SOL    HW222047   3.477   1.413   0.845
 7050SOL     OW22048   3.873   4.079   1.799
 7050SOL    HW122049   3.785   4.116   1.830
 7050SOL    HW222050   3.856   4.000   1.740
 7051SOL     OW22051   6.907   0.570   1.791
 7051SOL    HW122052   6.860   0.561   1.704
 7051SOL    HW222053   6.843   0.599   1.862
 7052SOL     OW22054   5.238   2.586   3.970
 7052SOL    HW122055   5.305   2.639   4.022
 7052SOL    HW222056   5.283   2.507   3.930
 7053SOL     OW22057   0.605   3.341   4.750
 7053SOL    HW122058   0.614   3.396   4.833
 7053SOL    HW222059   0.604   3.244   4.774
 7054SOL     OW22060   0.251   6.793   0.676
 7054SOL    HW122061   0.163   6.815   0.718
 7054SOL    HW222062   0.257   6.835   0.586
 7055SOL     OW22063   3.670   6.451   5.442
 7055SOL    HW122064   3.618   6.492   5.517
 7055SOL    HW222065   3.728   6.520   5.399
 7056SOL     OW22066   6.657   5.866   2.258
 7056SOL    HW122067   6.671   5.851   2.356
 7056SOL    HW222068   6.743   5.894   2.216
 7057SOL     OW22069   1.384   5.578   4.054
 7057SOL    HW122070   1.429   5.537   3.975
 7057SOL    HW222071   1.404   5.523   4.135
 7058SOL     OW22072   6.168   5.399   6.156
 7058SOL    HW122073   6.174   5.414   6.255
 7058SOL    HW222074   6.106   5.467   6.117
 7059SOL     OW22075   6.695   1.180   3.910
 7059SOL    HW122076   6.597   1.182   3.927
 7059SOL    HW222077   6.712   1.159   3.814
 7060SOL     OW22078   4.021   6.830   1.840
 7060SOL    HW122079   4.011   6.766   1.917
 7060SOL    HW222080   4.115   6.863   1.837
 7061SOL     OW22081   1.392   3.058   3.627
 7061SOL    HW122082   1.321   2.994   3.597
 7061SOL    HW222083   1.451   3.013   3.693
 7062SOL     OW22084   4.555   1.341   5.244
 7062SOL    HW122085   4.564   1.383   5.334
 7062SOL    HW222086   4.640   1.293   5.221
 7063SOL     OW22087   1.043   0.302   2.005
 7063SOL    HW122088   1.040   0.373   2.076
 7063SOL    HW222089   0.951   0.268   1.988
 7064SOL     OW22090   3.920   2.329   1.251
 7064SOL    HW122091   3.980   2.329   1.332
 7064SOL    HW222092   3.828   2.358   1.278
 7065SOL     OW22093   3.951   3.991   6.184
 7065SOL    HW122094   3.988   4.082   6.200
 7065SOL    HW222095   3.971   3.932   6.262
 7066SOL     OW22096   4.505   0.182   0.554
 7066SOL    HW122097   4.483   0.087   0.578
 7066SOL    HW222098   4.605   0.192   0.550
 7067SOL     OW22099   2.140   1.845   5.091
 7067SOL    HW122100   2.144   1.944   5.107
 7067SOL    HW222101   2.082   1.803   5.160
 7068SOL     OW22102   0.573   4.156   4.027
 7068SOL    HW122103   0.557   4.063   4.061
 7068SOL    HW222104   0.666   4.161   3.989
 7069SOL     OW22105   5.828   1.374   4.580
 7069SOL    HW122106   5.766   1.397   4.655
 7069SOL    HW222107   5.906   1.323   4.617
 7070SOL     OW22108   6.879   6.133   5.193
 7070SOL    HW122109   6.792   6.086   5.173
 7070SOL    HW222110   6.935   6.136   5.110
 7071SOL     OW22111   2.421   6.276   6.581
 7071SOL    HW122112   2.326   6.250   6.567
 7071SOL    HW222113   2.477   6.193   6.588
 7072SOL     OW22114   1.589   6.203   6.823
 7072SOL    HW122115   1.617   6.239   6.912
 7072SOL    HW222116   1.501   6.242   6.798
 7073SOL     OW22117   5.084   6.899   4.434
 7073SOL    HW122118   5.021   6.961   4.480
 7073SOL    HW222119   5.143   6.951   4.371
 7074SOL     OW22120   4.513   2.447   2.519
 7074SOL    HW122121   4.544   2.436   2.614
 7074SOL    HW222122   4.546   2.535   2.484
 7075SOL     OW22123   1.856   4.755   4.886
 7075SOL    HW122124   1.952   4.735   4.864
 7075SOL    HW222125   1.820   4.685   4.948
 7076SOL     OW22126   5.416   1.743   6.594
 7076SOL    HW122127   5.489   1.801   6.557
 7076SOL    HW222128   5.328   1.790   6.585
 7077SOL     OW22129   2.335   4.310   4.115
 7077SOL    HW122130   2.352   4.289   4.211
 7077SOL    HW222131   2.269   4.244   4.078
 7078SOL     OW22132   0.143   0.324   1.944
 7078SOL    HW122133   0.180   0.278   1.864
 7078SOL    HW222134   0.214   0.380   1.986
 7079SOL     OW22135   6.654   6.257   4.744
 7079SOL    HW122136   6.714   6.335   4.761
 7079SOL    HW222137   6.664   6.227   4.649
 7080SOL     OW22138   2.672   2.113   4.232
 7080SOL    HW122139   2.629   2.046   4.292
 7080SOL    HW222140   2.643   2.099   4.138
 7081SOL     OW22141   3.045   0.492   0.058
 7081SOL    HW122142   2.969   0.510   0.121
 7081SOL    HW222143   3.116   0.440   0.106
 7082SOL     OW22144   6.499   4.332   6.656
 7082SOL    HW122145   6.490   4.365   6.750
 7082SOL    HW222146   6.544   4.242   6.657
 7083SOL     OW22147   2.789   7.022   0.817
 7083SOL    HW122148   2.889   0.003   0.815
 7083SOL    HW222149   2.761   6.974   0.900
 7084SOL     OW22150   0.198   6.443   6.091
 7084SOL    HW122151   0.224   6.494   6.010
 7084SOL    HW222152   0.106   6.406   6.079
 7085SOL     OW22153   0.711   1.905   1.888
 7085SOL    HW122154   0.674   1.934   1.977
 7085SOL    HW222155   0.810   1.896   1.895
 7086SOL     OW22156   5.528   0.779   5.453
 7086SOL    HW122157   5.476   0.863   5.435
 7086SOL    HW222158   5.527   0.721   5.371
 7087SOL     OW22159   6.202   2.963   3.913
 7087SOL    HW122160   6.168   2.988   4.003
 7087SOL    HW222161   6.222   2.865   3.911
 7088SOL     OW22162   5.667   3.011   3.725
 7088SOL    HW122163   5.655   2.975   3.632
 7088SOL    HW222164   5.761   3.044   3.735
 7089SOL     OW22165   2.922   2.194   4.918
 7089SOL    HW122166   3.009   2.194   4.968
 7089SOL    HW222167   2.918   2.113   4.859
 7090SOL     OW22168   2.549   0.452   0.208
 7090SOL    HW122169   2.590   0.434   0.297
 7090SOL    HW222170   2.450   0.461   0.217
 7091SOL     OW22171   0.556   1.598   6.896
 7091SOL    HW122172   0.478   1.606   6.834
 7091SOL    HW222173   0.606   1.514   6.876
 7092SOL     OW22174   4.654   2.799   5.845
 7092SOL    HW122175   4.683   2.834   5.756
 7092SOL    HW222176   4.624   2.876   5.902
 7093SOL     OW22177   3.142   3.646   3.192
 7093SOL    HW122178   3.119   3.630   3.288
 7093SOL    HW222179   3.112   3.737   3.164
 7094SOL     OW22180   0.082   6.244   5.870
 7094SOL    HW122181   0.081   6.145   5.883
 7094SOL    HW222182   0.027   6.288   5.941
 7095SOL     OW22183   3.607   3.872   5.913
 7095SOL    HW122184   3.633   3.950   5.856
 7095SOL    HW222185   3.562   3.905   5.996
 7096SOL     OW22186   6.522   0.772   3.888
 7096SOL    HW122187   6.576   0.689   3.872
 7096SOL    HW222188   6.553   0.817   3.972
 7097SOL     OW22189   6.034   1.404   0.811
 7097SOL    HW122190   5.995   1.495   0.796
 7097SOL    HW222191   6.120   1.413   0.862
 7098SOL     OW22192   1.611   0.018   5.172
 7098SOL    HW122193   1.677   6.980   5.132
 7098SOL    HW222194   1.656   0.072   5.244
 7099SOL     OW22195   3.355   1.128   5.415
 7099SOL    HW122196   3.271   1.154   5.463
 7099SOL    HW222197   3.418   1.205   5.413
 7100SOL     OW22198   5.040   2.648   1.057
 7100SOL    HW122199   4.959   2.598   1.026
 7100SOL    HW222200   5.099   2.669   0.979
 7101SOL     OW22201   2.091   0.770   4.681
 7101SOL    HW122202   2.071   0.851   4.735
 7101SOL    HW222203   2.167   0.789   4.618
 7102SOL     OW22204   5.391   6.907   0.811
 7102SOL    HW122205   5.387   6.826   0.753
 7102SOL    HW222206   5.430   6.984   0.760
 7103SOL     OW22207   4.690   4.596   1.568
 7103SOL    HW122208   4.736   4.508   1.576
 7103SOL    HW222209   4.625   4.593   1.492
 7104SOL     OW22210   0.317   2.643   3.661
 7104SOL    HW122211   0.303   2.739   3.684
 7104SOL    HW222212   0.237   2.608   3.611
 7105SOL     OW22213   2.845   2.815   5.417
 7105SOL    HW122214   2.849   2.775   5.508
 7105SOL    HW222215   2.938   2.831   5.383
 7106SOL     OW22216   3.552   3.896   2.823
 7106SOL    HW122217   3.496   3.966   2.778
 7106SOL    HW222218   3.543   3.905   2.922
 7107SOL     OW22219   3.939   1.778   0.613
 7107SOL    HW122220   3.911   1.874   0.616
 7107SOL    HW222221   3.875   1.727   0.555
 7108SOL     OW22222   4.661   5.739   3.160
 7108SOL    HW122223   4.569   5.750   3.122
 7108SOL    HW222224   4.668   5.649   3.203
 7109SOL     OW22225   3.264   0.963   6.052
 7109SOL    HW122226   3.172   0.985   6.017
 7109SOL    HW222227   3.314   1.048   6.067
 7110SOL     OW22228   3.022   5.829   4.444
 7110SOL    HW122229   2.956   5.877   4.502
 7110SOL    HW222230   2.974   5.784   4.369
 7111SOL     OW22231   1.590   2.396   4.532
 7111SOL    HW122232   1.651   2.319   4.551
 7111SOL    HW222233   1.513   2.394   4.597
 7112SOL     OW22234   1.385   5.279   4.753
 7112SOL    HW122235   1.481   5.252   4.751
 7112SOL    HW222236   1.363   5.334   4.673
 7113SOL     OW22237   4.104   3.690   4.576
 7113SOL    HW122238   4.091   3.601   4.533
 7113SOL    HW222239   4.101   3.679   4.676
 7114SOL     OW22240   3.755   6.899   1.810
 7114SOL    HW122241   3.853   6.882   1.802
 7114SOL    HW222242   3.739   6.997   1.818
 7115SOL     OW22243   5.433   2.876   1.452
 7115SOL    HW122244   5.342   2.915   1.442
 7115SOL    HW222245   5.499   2.949   1.468
 7116SOL     OW22246   6.588   4.292   3.589
 7116SOL    HW122247   6.588   4.199   3.553
 7116SOL    HW222248   6.509   4.342   3.552
 7117SOL     OW22249   0.317   6.504   5.169
 7117SOL    HW122250   0.245   6.487   5.237
 7117SOL    HW222251   0.349   6.416   5.133
 7118SOL     OW22252   2.441   3.891   1.227
 7118SOL    HW122253   2.502   3.965   1.198
 7118SOL    HW222254   2.474   3.852   1.313
 7119SOL     OW22255   5.057   2.229   2.979
 7119SOL    HW122256   4.975   2.238   3.035
 7119SOL    HW222257   5.068   2.309   2.921
 7120SOL     OW22258   3.541   1.579   2.314
 7120SOL    HW122259   3.466   1.517   2.291
 7120SOL    HW222260   3.510   1.645   2.382
 7121SOL     OW22261   1.346   6.870   3.406
 7121SOL    HW122262   1.295   6.839   3.326
 7121SOL    HW222263   1.391   6.792   3.450
 7122SOL     OW22264   0.642   0.243   6.122
 7122SOL    HW122265   0.574   0.308   6.157
 7122SOL    HW222266   0.606   0.199   6.040
 7123SOL     OW22267   1.916   4.641   3.277
 7123SOL    HW122268   1.893   4.644   3.374
 7123SOL    HW222269   1.867   4.714   3.229
 7124SOL     OW22270   6.978   2.225   1.249
 7124SOL    HW122271   7.012   2.275   1.329
 7124SOL    HW222272   6.907   2.161   1.277
 7125SOL     OW22273   7.000   6.906   1.258
 7125SOL    HW122274   6.930   6.844   1.292
 7125SOL    HW222275   6.956   6.983   1.211
 7126SOL     OW22276   3.228   5.186   6.958
 7126SOL    HW122277   3.249   5.088   6.962
 7126SOL    HW222278   3.230   5.225   0.024
 7127SOL     OW22279   1.146   5.449   5.355
 7127SOL    HW122280   1.217   5.407   5.411
 7127SOL    HW222281   1.103   5.523   5.407
 7128SOL     OW22282   3.332   4.917   7.019
 7128SOL    HW122283   3.261   4.881   6.958
 7128SOL    HW222284   3.348   4.852   0.068
 7129SOL     OW22285   2.092   1.871   6.600
 7129SOL    HW122286   2.020   1.935   6.626
 7129SOL    HW222287   2.080   1.785   6.649
 7130SOL     OW22288   4.145   5.826   5.265
 7130SOL    HW122289   4.161   5.814   5.363
 7130SOL    HW222290   4.061   5.778   5.239
 7131SOL     OW22291   2.632   0.650   1.332
 7131SOL    HW122292   2.726   0.632   1.305
 7131SOL    HW222293   2.614   0.608   1.421
 7132SOL     OW22294   3.468   4.291   6.769
 7132SOL    HW122295   3.370   4.308   6.781
 7132SOL    HW222296   3.481   4.212   6.709
 7133SOL     OW22297   5.128   5.755   5.989
 7133SOL    HW122298   5.142   5.658   5.970
 7133SOL    HW222299   5.192   5.809   5.933
 7134SOL     OW22300   5.505   6.931   2.415
 7134SOL    HW122301   5.455   6.850   2.445
 7134SOL    HW222302   5.448   6.983   2.351
 7135SOL     OW22303   1.556   3.428   3.353
 7135SOL    HW122304   1.578   3.526   3.354
 7135SOL    HW222305   1.593   3.385   3.434
 7136SOL     OW22306   2.444   2.924   1.123
 7136SOL    HW122307   2.356   2.971   1.115
 7136SOL    HW222308   2.473   2.923   1.219
 7137SOL     OW22309   3.445   0.143   6.732
 7137SOL    HW122310   3.403   0.072   6.675
 7137SOL    HW222311   3.453   0.109   6.826
 7138SOL     OW22312   1.470   2.319   0.049
 7138SOL    HW122313   1.431   2.306   6.984
 7138SOL    HW222314   1.526   2.402   0.050
 7139SOL     OW22315   5.844   4.062   1.362
 7139SOL    HW122316   5.851   4.068   1.461
 7139SOL    HW222317   5.786   3.984   1.337
 7140SOL     OW22318   5.845   4.179   3.577
 7140SOL    HW122319   5.889   4.090   3.565
 7140SOL    HW222320   5.776   4.192   3.506
 7141SOL     OW22321   3.344   5.844   1.589
 7141SOL    HW122322   3.265   5.877   1.641
 7141SOL    HW222323   3.406   5.920   1.570
 7142SOL     OW22324   3.968   0.323   3.647
 7142SOL    HW122325   3.927   0.394   3.703
 7142SOL    HW222326   3.998   0.362   3.560
 7143SOL     OW22327   1.601   2.541   5.904
 7143SOL    HW122328   1.574   2.565   5.997
 7143SOL    HW222329   1.520   2.515   5.851
 7144SOL     OW22330   1.894   2.401   2.017
 7144SOL    HW122331   1.891   2.457   1.934
 7144SOL    HW222332   1.978   2.420   2.068
 7145SOL     OW22333   4.788   0.338   0.523
 7145SOL    HW122334   4.884   0.367   0.523
 7145SOL    HW222335   4.747   0.359   0.434
 7146SOL     OW22336   2.078   0.228   1.157
 7146SOL    HW122337   2.014   0.262   1.226
 7146SOL    HW222338   2.100   0.302   1.094
 7147SOL     OW22339   0.505   0.216   3.434
 7147SOL    HW122340   0.494   0.186   3.529
 7147SOL    HW222341   0.586   0.275   3.427
 7148SOL     OW22342   0.692   5.874   0.938
 7148SOL    HW122343   0.718   5.896   0.844
 7148SOL    HW222344   0.666   5.958   0.986
 7149SOL     OW22345   6.375   6.663   2.918
 7149SOL    HW122346   6.396   6.654   2.821
 7149SOL    HW222347   6.310   6.737   2.931
 7150SOL     OW22348   3.104   2.086   2.090
 7150SOL    HW122349   3.101   2.021   2.014
 7150SOL    HW222350   3.037   2.158   2.075
 7151SOL     OW22351   2.098   6.290   1.036
 7151SOL    HW122352   2.078   6.346   0.955
 7151SOL    HW222353   2.189   6.311   1.070
 7152SOL     OW22354   0.946   0.551   5.217
 7152SOL    HW122355   1.006   0.585   5.288
 7152SOL    HW222356   0.916   0.627   5.159
 7153SOL     OW22357   3.601   5.705   1.899
 7153SOL    HW122358   3.677   5.662   1.947
 7153SOL    HW222359   3.635   5.781   1.844
 7154SOL     OW22360   3.497   0.277   3.258
 7154SOL    HW122361   3.525   0.253   3.165
 7154SOL    HW222362   3.576   0.315   3.308
 7155SOL     OW22363   1.688   3.774   1.197
 7155SOL    HW122364   1.786   3.754   1.195
 7155SOL    HW222365   1.668   3.847   1.132
 7156SOL     OW22366   0.116   3.449   3.877
 7156SOL    HW122367   0.203   3.453   3.927
 7156SOL    HW222368   0.130   3.485   3.785
 7157SOL     OW22369   0.099   3.793   1.844
 7157SOL    HW122370   0.021   3.740   1.811
 7157SOL    HW222371   0.121   3.865   1.779
 7158SOL     OW22372   1.159   6.949   3.923
 7158SOL    HW122373   1.199   6.948   4.014
 7158SOL    HW222374   1.076   6.894   3.922
 7159SOL     OW22375   0.593   4.906   2.559
 7159SOL    HW122376   0.547   4.824   2.593
 7159SOL    HW222377   0.627   4.960   2.636
 7160SOL     OW22378   5.718   0.014   2.920
 7160SOL    HW122379   5.755   0.005   3.012
 7160SOL    HW222380   5.785   0.058   2.861
 7161SOL     OW22381   3.045   3.906   4.022
 7161SOL    HW122382   3.031   3.965   4.101
 7161SOL    HW222383   3.002   3.817   4.038
 7162SOL     OW22384   1.172   5.705   6.124
 7162SOL    HW122385   1.208   5.614   6.102
 7162SOL    HW222386   1.120   5.700   6.209
 7163SOL     OW22387   2.906   6.369   3.029
 7163SOL    HW122388   2.838   6.441   3.022
 7163SOL    HW222389   2.861   6.283   3.054
 7164SOL     OW22390   2.058   0.496   3.613
 7164SOL    HW122391   2.130   0.440   3.655
 7164SOL    HW222392   2.054   0.477   3.515
 7165SOL     OW22393   6.618   1.006   2.366
 7165SOL    HW122394   6.580   1.096   2.388
 7165SOL    HW222395   6.717   1.008   2.377
 7166SOL     OW22396   6.051   2.367   0.658
 7166SOL    HW122397   6.104   2.391   0.576
 7166SOL    HW222398   6.112   2.364   0.737
 7167SOL     OW22399   5.384   3.289   4.047
 7167SOL    HW122400   5.315   3.358   4.068
 7167SOL    HW222401   5.339   3.206   4.014
 7168SOL     OW22402   1.405   2.509   3.323
 7168SOL    HW122403   1.419   2.607   3.306
 7168SOL    HW222404   1.478   2.475   3.383
 7169SOL     OW22405   0.006   2.219   4.824
 7169SOL    HW122406   0.045   2.129   4.809
 7169SOL    HW222407   0.062   2.269   4.890
 7170SOL     OW22408   4.780   6.966   4.086
 7170SOL    HW122409   4.766   6.876   4.128
 7170SOL    HW222410   4.715   6.978   4.011
 7171SOL     OW22411   5.524   3.805   6.987
 7171SOL    HW122412   5.551   3.901   6.979
 7171SOL    HW222413   5.432   3.799   7.025
 7172SOL     OW22414   1.510   0.408   5.303
 7172SOL    HW122415   1.602   0.422   5.266
 7172SOL    HW222416   1.446   0.470   5.256
 7173SOL     OW22417   6.844   4.616   6.034
 7173SOL    HW122418   6.879   4.620   5.940
 7173SOL    HW222419   6.771   4.684   6.045
 7174SOL     OW22420   0.583   4.371   0.196
 7174SOL    HW122421   0.632   4.447   0.154
 7174SOL    HW222422   0.486   4.377   0.171
 7175SOL     OW22423   5.794   2.471   6.789
 7175SOL    HW122424   5.862   2.540   6.767
 7175SOL    HW222425   5.758   2.430   6.705
 7176SOL     OW22426   0.438   0.185   2.992
 7176SOL    HW122427   0.369   0.143   2.933
 7176SOL    HW222428   0.512   0.221   2.935
 7177SOL     OW22429   1.608   5.177   4.654
 7177SOL    HW122430   1.617   5.136   4.563
 7177SOL    HW222431   1.698   5.211   4.684
 7178SOL     OW22432   2.022   2.065   6.163
 7178SOL    HW122433   2.057   2.120   6.238
 7178SOL    HW222434   2.063   2.097   6.077
 7179SOL     OW22435   2.142   3.664   4.876
 7179SOL    HW122436   2.160   3.572   4.842
 7179SOL    HW222437   2.174   3.671   4.971
 7180SOL     OW22438   2.653   5.536   0.364
 7180SOL    HW122439   2.598   5.591   0.427
 7180SOL    HW222440   2.714   5.476   0.415
 7181SOL     OW22441   2.138   6.683   0.126
 7181SOL    HW122442   2.078   6.749   0.170
 7181SOL    HW222443   2.234   6.710   0.140
 7182SOL     OW22444   1.067   2.578   4.779
 7182SOL    HW122445   0.984   2.540   4.820
 7182SOL    HW222446   1.136   2.506   4.769
 7183SOL     OW22447   2.330   6.153   6.845
 7183SOL    HW122448   2.309   6.201   6.931
 7183SOL    HW222449   2.408   6.092   6.860
 7184SOL     OW22450   6.878   0.871   3.567
 7184SOL    HW122451   6.818   0.793   3.550
 7184SOL    HW222452   6.963   0.839   3.608
 7185SOL     OW22453   5.923   0.318   5.416
 7185SOL    HW122454   5.934   0.299   5.514
 7185SOL    HW222455   6.012   0.314   5.371
 7186SOL     OW22456   6.828   1.707   0.378
 7186SOL    HW122457   6.826   1.786   0.439
 7186SOL    HW222458   6.830   1.622   0.432
 7187SOL     OW22459   3.731   4.786   6.323
 7187SOL    HW122460   3.719   4.884   6.305
 7187SOL    HW222461   3.707   4.734   6.241
 7188SOL     OW22462   6.258   1.004   0.706
 7188SOL    HW122463   6.288   1.055   0.625
 7188SOL    HW222464   6.160   0.985   0.698
 7189SOL     OW22465   0.603   1.765   6.244
 7189SOL    HW122466   0.515   1.784   6.201
 7189SOL    HW222467   0.651   1.694   6.193
 7190SOL     OW22468   0.381   3.382   2.974
 7190SOL    HW122469   0.382   3.439   2.892
 7190SOL    HW222470   0.374   3.286   2.947
 7191SOL     OW22471   0.750   4.489   2.525
 7191SOL    HW122472   0.679   4.419   2.529
 7191SOL    HW222473   0.773   4.518   2.618
 7192SOL     OW22474   3.156   4.996   5.771
 7192SOL    HW122475   3.255   4.999   5.765
 7192SOL    HW222476   3.117   4.993   5.679
 7193SOL     OW22477   1.001   2.470   1.898
 7193SOL    HW122478   0.937   2.433   1.830
 7193SOL    HW222479   1.092   2.429   1.884
 7194SOL     OW22480   2.588   1.840   0.206
 7194SOL    HW122481   2.491   1.822   0.222
 7194SOL    HW222482   2.616   1.920   0.259
 7195SOL     OW22483   0.099   4.547   0.002
 7195SOL    HW122484   0.021   4.511   0.053
 7195SOL    HW222485   0.082   4.642   7.004
 7196SOL     OW22486   3.427   4.252   0.610
 7196SOL    HW122487   3.370   4.323   0.569
 7196SOL    HW222488   3.479   4.206   0.539
 7197SOL     OW22489   0.583   2.610   5.858
 7197SOL    HW122490   0.560   2.519   5.824
 7197SOL    HW222491   0.511   2.675   5.832
 7198SOL     OW22492   0.004   0.440   0.470
 7198SOL    HW122493   7.001   0.492   0.389
 7198SOL    HW222494   0.046   0.503   0.536
 7199SOL     OW22495   1.772   1.120   2.433
 7199SOL    HW122496   1.806   1.072   2.513
 7199SOL    HW222497   1.692   1.073   2.397
 7200SOL     OW22498   2.502   2.438   0.149
 7200SOL    HW122499   2.499   2.420   0.051
 7200SOL    HW222500   2.551   2.523   0.166
 7201SOL     OW22501   0.657   5.545   4.750
 7201SOL    HW122502   0.591   5.548   4.825
 7201SOL    HW222503   0.705   5.458   4.752
 7202SOL     OW22504   4.902   0.308   6.422
 7202SOL    HW122505   4.855   0.396   6.418
 7202SOL    HW222506   4.935   0.293   6.516
 7203SOL     OW22507   0.645   1.585   1.012
 7203SOL    HW122508   0.733   1.577   0.966
 7203SOL    HW222509   0.596   1.498   1.006
 7204SOL     OW22510   0.837   0.293   5.489
 7204SOL    HW122511   0.837   0.270   5.392
 7204SOL    HW222512   0.932   0.303   5.520
 7205SOL     OW22513   1.087   5.254   4.416
 7205SOL    HW122514   1.024   5.204   4.475
 7205SOL    HW222515   1.036   5.298   4.342
 7206SOL     OW22516   1.282   6.880   1.366
 7206SOL    HW122517   1.231   6.932   1.435
 7206SOL    HW222518   1.232   6.796   1.345
 7207SOL     OW22519   3.663   0.241   2.748
 7207SOL    HW122520   3.643   0.161   2.805
 7207SOL    HW222521   3.760   0.240   2.723
 7208SOL     OW22522   4.031   0.331   3.015
 7208SOL    HW122523   4.054   0.294   2.925
 7208SOL    HW222524   3.949   0.389   3.008
 7209SOL     OW22525   2.969   4.017   1.764
 7209SOL    HW122526   3.052   3.962   1.755
 7209SOL    HW222527   2.889   3.961   1.741
 7210SOL     OW22528   4.728   0.779   3.794
 7210SOL    HW122529   4.770   0.725   3.722
 7210SOL    HW222530   4.652   0.832   3.756
 7211SOL     OW22531   3.275   6.493   4.012
 7211SOL    HW122532   3.178   6.482   4.032
 7211SOL    HW222533   3.291   6.587   3.981
 7212SOL     OW22534   0.533   6.157   4.843
 7212SOL    HW122535   0.611   6.144   4.781
 7212SOL    HW222536   0.501   6.068   4.875
 7213SOL     OW22537   5.100   6.180   0.445
 7213SOL    HW122538   5.195   6.210   0.451
 7213SOL    HW222539   5.039   6.258   0.454
 7214SOL     OW22540   6.961   5.944   5.570
 7214SOL    HW122541   6.908   5.914   5.490
 7214SOL    HW222542   6.907   5.930   5.653
 7215SOL     OW22543   6.922   4.086   4.961
 7215SOL    HW122544   6.983   4.141   5.018
 7215SOL    HW222545   6.968   4.001   4.935
 7216SOL     OW22546   3.779   6.479   6.517
 7216SOL    HW122547   3.861   6.470   6.574
 7216SOL    HW222548   3.761   6.575   6.499
 7217SOL     OW22549   2.799   4.803   2.612
 7217SOL    HW122550   2.742   4.759   2.681
 7217SOL    HW222551   2.782   4.902   2.611
 7218SOL     OW22552   5.061   3.017   5.132
 7218SOL    HW122553   4.989   3.070   5.177
 7218SOL    HW222554   5.150   3.057   5.151
 7219SOL     OW22555   4.593   0.335   3.614
 7219SOL    HW122556   4.584   0.319   3.712
 7219SOL    HW222557   4.651   0.415   3.598
 7220SOL     OW22558   0.470   5.084   4.805
 7220SOL    HW122559   0.507   5.045   4.890
 7220SOL    HW222560   0.372   5.099   4.815
 7221SOL     OW22561   3.585   6.149   4.636
 7221SOL    HW122562   3.568   6.116   4.543
 7221SOL    HW222563   3.531   6.231   4.653
 7222SOL     OW22564   5.783   0.473   3.313
 7222SOL    HW122565   5.697   0.519   3.292
 7222SOL    HW222566   5.806   0.410   3.239
 7223SOL     OW22567   2.950   1.499   1.491
 7223SOL    HW122568   2.985   1.588   1.520
 7223SOL    HW222569   3.027   1.441   1.463
 7224SOL     OW22570   5.370   2.023   3.823
 7224SOL    HW122571   5.404   1.973   3.902
 7224SOL    HW222572   5.444   2.075   3.781
 7225SOL     OW22573   0.640   5.726   0.250
 7225SOL    HW122574   0.702   5.803   0.239
 7225SOL    HW222575   0.692   5.644   0.274
 7226SOL     OW22576   6.583   1.142   0.598
 7226SOL    HW122577   6.679   1.150   0.626
 7226SOL    HW222578   6.559   1.046   0.589
 7227SOL     OW22579   1.709   1.455   0.643
 7227SOL    HW122580   1.654   1.443   0.560
 7227SOL    HW222581   1.805   1.470   0.618
 7228SOL     OW22582   0.752   1.458   2.520
 7228SOL    HW122583   0.737   1.484   2.425
 7228SOL    HW222584   0.691   1.511   2.579
 7229SOL     OW22585   1.552   6.200   5.902
 7229SOL    HW122586   1.586   6.155   5.819
 7229SOL    HW222587   1.481   6.144   5.944
 7230SOL     OW22588   4.314   5.320   4.322
 7230SOL    HW122589   4.254   5.385   4.274
 7230SOL    HW222590   4.408   5.333   4.290
 7231SOL     OW22591   4.519   1.060   0.884
 7231SOL    HW122592   4.537   0.966   0.911
 7231SOL    HW222593   4.430   1.066   0.840
 7232SOL     OW22594   5.258   5.057   2.867
 7232SOL    HW122595   5.284   5.154   2.863
 7232SOL    HW222596   5.184   5.040   2.802
 7233SOL     OW22597   6.989   1.557   3.992
 7233SOL    HW122598   0.032   1.485   3.984
 7233SOL    HW222599   0.007   1.642   4.021
 7234SOL     OW22600   5.472   3.468   3.552
 7234SOL    HW122601   5.538   3.483   3.479
 7234SOL    HW222602   5.509   3.402   3.617
 7235SOL     OW22603   6.514   3.944   2.065
 7235SOL    HW122604   6.542   3.975   1.974
 7235SOL    HW222605   6.557   4.000   2.135
 7236SOL     OW22606   2.358   2.034   1.789
 7236SOL    HW122607   2.263   2.030   1.820
 7236SOL    HW222608   2.406   1.952   1.819
 7237SOL     OW22609   5.027   1.110   4.544
 7237SOL    HW122610   5.043   1.034   4.481
 7237SOL    HW222611   5.002   1.074   4.634
 7238SOL     OW22612   3.266   1.535   0.649
 7238SOL    HW122613   3.289   1.444   0.683
 7238SOL    HW222614   3.232   1.591   0.725
 7239SOL     OW22615   1.413   2.809   2.339
 7239SOL    HW122616   1.484   2.741   2.357
 7239SOL    HW222617   1.323   2.769   2.354
 7240SOL     OW22618   2.424   5.626   5.970
 7240SOL    HW122619   2.400   5.596   5.877
 7240SOL    HW222620   2.373   5.709   5.992
 7241SOL     OW22621   1.898   0.762   0.637
 7241SOL    HW122622   1.804   0.782   0.665
 7241SOL    HW222623   1.930   0.834   0.576
 7242SOL     OW22624   6.422   6.017   0.360
 7242SOL    HW122625   6.399   5.949   0.430
 7242SOL    HW222626   6.413   6.109   0.397
 7243SOL     OW22627   6.610   4.772   6.125
 7243SOL    HW122628   6.560   4.707   6.068
 7243SOL    HW222629   6.545   4.833   6.172
 7244SOL     OW22630   5.837   0.543   1.759
 7244SOL    HW122631   5.851   0.464   1.699
 7244SOL    HW222632   5.775   0.517   1.833
 7245SOL     OW22633   0.882   2.212   4.654
 7245SOL    HW122634   0.854   2.136   4.597
 7245SOL    HW222635   0.866   2.190   4.751
 7246SOL     OW22636   6.359   0.570   3.986
 7246SOL    HW122637   6.424   0.513   4.036
 7246SOL    HW222638   6.396   0.662   3.976
 7247SOL     OW22639   3.000   6.819   3.881
 7247SOL    HW122640   2.948   6.793   3.963
 7247SOL    HW222641   2.937   6.826   3.804
 7248SOL     OW22642   2.858   1.608   3.899
 7248SOL    HW122643   2.899   1.663   3.826
 7248SOL    HW222644   2.840   1.516   3.866
 7249SOL     OW22645   6.602   4.208   2.171
 7249SOL    HW122646   6.583   4.281   2.238
 7249SOL    HW222647   6.613   4.248   2.081
 7250SOL     OW22648   4.143   7.016   6.093
 7250SOL    HW122649   4.226   0.045   6.104
 7250SOL    HW222650   4.166   6.932   6.044
 7251SOL     OW22651   0.708   0.068   5.894
 7251SOL    HW122652   0.644   0.095   5.822
 7251SOL    HW222653   0.685   7.003   5.927
 7252SOL     OW22654   3.003   3.269   2.715
 7252SOL    HW122655   2.998   3.181   2.762
 7252SOL    HW222656   3.020   3.254   2.618
 7253SOL     OW22657   2.685   6.619   6.099
 7253SOL    HW122658   2.619   6.565   6.151
 7253SOL    HW222659   2.747   6.558   6.050
 7254SOL     OW22660   4.213   5.170   4.000
 7254SOL    HW122661   4.256   5.215   3.922
 7254SOL    HW222662   4.191   5.076   3.976
 7255SOL     OW22663   3.243   3.620   0.408
 7255SOL    HW122664   3.293   3.699   0.444
 7255SOL    HW222665   3.207   3.565   0.483
 7256SOL     OW22666   3.967   4.885   4.250
 7256SOL    HW122667   3.902   4.843   4.314
 7256SOL    HW222668   4.034   4.939   4.300
 7257SOL     OW22669   4.909   2.809   4.029
 7257SOL    HW122670   4.894   2.894   3.978
 7257SOL    HW222671   4.931   2.735   3.965
 7258SOL     OW22672   4.235   1.091   3.052
 7258SOL    HW122673   4.308   1.057   2.992
 7258SOL    HW222674   4.192   1.170   3.009
 7259SOL     OW22675   2.983   3.287   1.199
 7259SOL    HW122676   2.972   3.278   1.100
 7259SOL    HW222677   3.015   3.200   1.237
 7260SOL     OW22678   3.028   1.824   2.665
 7260SOL    HW122679   3.123   1.797   2.682
 7260SOL    HW222680   3.025   1.888   2.588
 7261SOL     OW22681   1.391   3.182   1.422
 7261SOL    HW122682   1.313   3.182   1.360
 7261SOL    HW222683   1.433   3.273   1.422
 7262SOL     OW22684   5.140   1.665   5.392
 7262SOL    HW122685   5.066   1.725   5.422
 7262SOL    HW222686   5.144   1.585   5.453
 7263SOL     OW22687   0.635   6.480   1.177
 7263SOL    HW122688   0.622   6.545   1.252
 7263SOL    HW222689   0.590   6.514   1.095
 7264SOL     OW22690   5.517   1.348   5.849
 7264SOL    HW122691   5.531   1.446   5.833
 7264SOL    HW222692   5.468   1.335   5.935
 7265SOL     OW22693   5.429   5.389   6.135
 7265SOL    HW122694   5.368   5.418   6.061
 7265SOL    HW222695   5.380   5.395   6.222
 7266SOL     OW22696   5.520   0.204   1.348
 7266SOL    HW122697   5.515   0.241   1.256
 7266SOL    HW222698   5.451   0.132   1.359
 7267SOL     OW22699   7.007   6.171   5.429
 7267SOL    HW122700   6.962   6.172   5.340
 7267SOL    HW222701   6.967   6.099   5.486
 7268SOL     OW22702   4.957   4.899   3.111
 7268SOL    HW122703   5.048   4.942   3.114
 7268SOL    HW222704   4.893   4.962   3.067
 7269SOL     OW22705   6.824   6.149   1.270
 7269SOL    HW122706   6.833   6.144   1.171
 7269SOL    HW222707   6.874   6.073   1.312
 7270SOL     OW22708   0.673   3.197   5.138
 7270SOL    HW122709   0.598   3.251   5.175
 7270SOL    HW222710   0.660   3.101   5.163
 7271SOL     OW22711   0.394   5.675   4.043
 7271SOL    HW122712   0.477   5.707   4.088
 7271SOL    HW222713   0.393   5.575   4.042
 7272SOL     OW22714   5.468   5.203   2.323
 7272SOL    HW122715   5.498   5.108   2.319
 7272SOL    HW222716   5.482   5.239   2.415
 7273SOL     OW22717   5.429   4.533   1.776
 7273SOL    HW122718   5.418   4.479   1.860
 7273SOL    HW222719   5.514   4.585   1.782
 7274SOL     OW22720   1.215   6.203   7.003
 7274SOL    HW122721   1.163   6.289   7.012
 7274SOL    HW222722   1.228   6.183   6.906
 7275SOL     OW22723   6.904   0.773   2.764
 7275SOL    HW122724   6.919   0.677   2.742
 7275SOL    HW222725   6.849   0.780   2.848
 7276SOL     OW22726   3.645   1.487   2.917
 7276SOL    HW122727   3.617   1.417   2.983
 7276SOL    HW222728   3.572   1.554   2.906
 7277SOL     OW22729   4.382   0.761   4.106
 7277SOL    HW122730   4.320   0.788   4.032
 7277SOL    HW222731   4.344   0.683   4.155
 7278SOL     OW22732   3.522   2.237   1.696
 7278SOL    HW122733   3.586   2.273   1.764
 7278SOL    HW222734   3.502   2.141   1.717
 7279SOL     OW22735   4.443   3.362   6.496
 7279SOL    HW122736   4.443   3.297   6.421
 7279SOL    HW222737   4.428   3.314   6.583
 7280SOL     OW22738   0.103   1.811   4.033
 7280SOL    HW122739   0.202   1.815   4.047
 7280SOL    HW222740   0.082   1.820   3.936
 7281SOL     OW22741   1.611   0.618   0.365
 7281SOL    HW122742   1.668   0.579   0.437
 7281SOL    HW222743   1.516   0.590   0.380
 7282SOL     OW22744   5.907   6.861   1.023
 7282SOL    HW122745   5.859   6.809   1.093
 7282SOL    HW222746   6.002   6.831   1.018
 7283SOL     OW22747   3.394   0.044   1.738
 7283SOL    HW122748   3.357   6.992   1.688
 7283SOL    HW222749   3.332   0.068   1.813
 7284SOL     OW22750   6.859   2.255   5.073
 7284SOL    HW122751   6.896   2.236   4.982
 7284SOL    HW222752   6.934   2.266   5.138
 7285SOL     OW22753   5.642   3.421   1.485
 7285SOL    HW122754   5.548   3.443   1.509
 7285SOL    HW222755   5.654   3.426   1.386
 7286SOL     OW22756   0.784   0.266   1.365
 7286SOL    HW122757   0.827   0.183   1.400
 7286SOL    HW222758   0.707   0.241   1.306
 7287SOL     OW22759   6.488   3.015   4.669
 7287SOL    HW122760   6.527   2.933   4.709
 7287SOL    HW222761   6.554   3.090   4.675
 7288SOL     OW22762   1.330   2.040   1.766
 7288SOL    HW122763   1.326   2.137   1.789
 7288SOL    HW222764   1.336   1.986   1.850
 7289SOL     OW22765   6.142   1.648   3.554
 7289SOL    HW122766   6.128   1.709   3.632
 7289SOL    HW222767   6.213   1.685   3.495
 7290SOL     OW22768   2.908   0.862   5.154
 7290SOL    HW122769   2.877   0.934   5.093
 7290SOL    HW222770   2.961   0.902   5.229
 7291SOL     OW22771   2.513   0.421   0.967
 7291SOL    HW122772   2.422   0.434   1.006
 7291SOL    HW222773   2.582   0.434   1.039
 7292SOL     OW22774   3.000   6.867   2.536
 7292SOL    HW122775   2.943   6.842   2.458
 7292SOL    HW222776   3.096   6.849   2.515
 7293SOL     OW22777   1.655   1.482   6.209
 7293SOL    HW122778   1.607   1.460   6.124
 7293SOL    HW222779   1.598   1.541   6.266
 7294SOL     OW22780   3.475   4.660   0.411
 7294SOL    HW122781   3.486   4.706   0.499
 7294SOL    HW222782   3.434   4.570   0.424
 7295SOL     OW22783   6.994   4.547   1.244
 7295SOL    HW122784   6.926   4.491   1.197
 7295SOL    HW222785   0.060   4.519   1.216
 7296SOL     OW22786   4.481   5.042   2.670
 7296SOL    HW122787   4.485   4.956   2.618
 7296SOL    HW222788   4.565   5.093   2.655
 7297SOL     OW22789   2.303   0.283   1.643
 7297SOL    HW122790   2.243   0.233   1.705
 7297SOL    HW222791   2.388   0.231   1.631
 7298SOL     OW22792   5.473   4.751   6.713
 7298SOL    HW122793   5.421   4.676   6.673
 7298SOL    HW222794   5.483   4.824   6.646
 7299SOL     OW22795   0.629   1.875   0.981
 7299SOL    HW122796   0.722   1.908   0.967
 7299SOL    HW222797   0.621   1.784   0.940
 7300SOL     OW22798   0.541   6.260   2.422
 7300SOL    HW122799   0.489   6.287   2.341
 7300SOL    HW222800   0.485   6.272   2.504
 7301SOL     OW22801   6.552   2.238   5.460
 7301SOL    HW122802   6.515   2.158   5.507
 7301SOL    HW222803   6.476   2.299   5.434
 7302SOL     OW22804   0.346   2.508   6.141
 7302SOL    HW122805   0.280   2.504   6.216
 7302SOL    HW222806   0.299   2.532   6.056
 7303SOL     OW22807   3.713   0.658   6.329
 7303SOL    HW122808   3.674   0.670   6.421
 7303SOL    HW222809   3.764   0.741   6.303
 7304SOL     OW22810   3.139   5.659   1.870
 7304SOL    HW122811   3.075   5.582   1.874
 7304SOL    HW222812   3.222   5.632   1.820
 7305SOL     OW22813   5.304   2.038   1.419
 7305SOL    HW122814   5.253   2.018   1.503
 7305SOL    HW222815   5.340   1.953   1.381
 7306SOL     OW22816   3.662   1.942   1.631
 7306SOL    HW122817   3.585   1.954   1.693
 7306SOL    HW222818   3.628   1.928   1.538
 7307SOL     OW22819   4.316   6.858   2.562
 7307SOL    HW122820   4.310   6.897   2.470
 7307SOL    HW222821   4.409   6.871   2.597
 7308SOL     OW22822   6.503   1.508   4.188
 7308SOL    HW122823   6.414   1.466   4.170
 7308SOL    HW222824   6.572   1.436   4.199
 7309SOL     OW22825   3.496   6.750   1.124
 7309SOL    HW122826   3.501   6.650   1.134
 7309SOL    HW222827   3.440   6.788   1.198
 7310SOL     OW22828   2.379   3.799   0.155
 7310SOL    HW122829   2.292   3.834   0.118
 7310SOL    HW222830   2.423   3.743   0.086
 7311SOL     OW22831   1.354   0.539   0.461
 7311SOL    HW122832   1.410   0.457   0.450
 7311SOL    HW222833   1.257   0.514   0.459
 7312SOL     OW22834   1.330   1.668   4.906
 7312SOL    HW122835   1.368   1.754   4.940
 7312SOL    HW222836   1.323   1.671   4.806
 7313SOL     OW22837   2.215   1.491   0.907
 7313SOL    HW122838   2.311   1.489   0.937
 7313SOL    HW222839   2.189   1.401   0.874
 7314SOL     OW22840   6.946   4.000   6.174
 7314SOL    HW122841   6.941   4.099   6.165
 7314SOL    HW222842   7.002   3.963   6.100
 7315SOL     OW22843   4.901   5.797   2.017
 7315SOL    HW122844   4.939   5.706   2.004
 7315SOL    HW222845   4.852   5.801   2.104
 7316SOL     OW22846   3.130   3.019   6.325
 7316SOL    HW122847   3.158   2.946   6.263
 7316SOL    HW222848   3.148   2.992   6.419
 7317SOL     OW22849   4.013   1.998   2.133
 7317SOL    HW122850   3.958   2.008   2.051
 7317SOL    HW222851   3.956   1.961   2.207
 7318SOL     OW22852   3.182   0.068   3.019
 7318SOL    HW122853   3.106   0.017   2.976
 7318SOL    HW222854   3.144   0.140   3.077
 7319SOL     OW22855   5.750   2.988   6.776
 7319SOL    HW122856   5.675   3.046   6.744
 7319SOL    HW222857   5.808   2.963   6.699
 7320SOL     OW22858   0.415   3.106   1.020
 7320SOL    HW122859   0.467   3.154   0.949
 7320SOL    HW222860   0.364   3.031   0.978
 7321SOL     OW22861   2.322   6.750   6.005
 7321SOL    HW122862   2.369   6.812   6.068
 7321SOL    HW222863   2.388   6.686   5.966
 7322SOL     OW22864   0.143   2.261   3.147
 7322SOL    HW122865   0.072   2.283   3.081
 7322SOL    HW222866   0.156   2.162   3.152
 7323SOL     OW22867   2.580   3.097   1.645
 7323SOL    HW122868   2.535   3.136   1.564
 7323SOL    HW222869   2.515   3.040   1.695
 7324SOL     OW22870   5.484   4.374   2.380
 7324SOL    HW122871   5.394   4.409   2.352
 7324SOL    HW222872   5.472   4.290   2.433
 7325SOL     OW22873   3.066   0.257   5.341
 7325SOL    HW122874   3.132   0.333   5.340
 7325SOL    HW222875   2.975   0.292   5.322
 7326SOL     OW22876   3.512   6.281   6.059
 7326SOL    HW122877   3.595   6.335   6.072
 7326SOL    HW222878   3.536   6.187   6.033
 7327SOL     OW22879   5.887   2.526   4.454
 7327SOL    HW122880   5.797   2.566   4.439
 7327SOL    HW222881   5.906   2.523   4.553
 7328SOL     OW22882   4.810   6.625   5.620
 7328SOL    HW122883   4.821   6.590   5.527
 7328SOL    HW222884   4.713   6.630   5.642
 7329SOL     OW22885   0.848   3.758   0.630
 7329SOL    HW122886   0.885   3.678   0.677
 7329SOL    HW222887   0.759   3.782   0.669
 7330SOL     OW22888   2.441   3.279   1.097
 7330SOL    HW122889   2.514   3.211   1.089
 7330SOL    HW222890   2.469   3.350   1.161
 7331SOL     OW22891   5.687   6.512   1.902
 7331SOL    HW122892   5.667   6.419   1.933
 7331SOL    HW222893   5.735   6.509   1.814
 7332SOL     OW22894   2.716   4.137   6.530
 7332SOL    HW122895   2.670   4.050   6.520
 7332SOL    HW222896   2.734   4.155   6.627
 7333SOL     OW22897   6.505   3.336   2.782
 7333SOL    HW122898   6.521   3.237   2.786
 7333SOL    HW222899   6.447   3.357   2.704
 7334SOL     OW22900   2.667   6.056   6.187
 7334SOL    HW122901   2.635   6.146   6.157
 7334SOL    HW222902   2.593   6.008   6.235
 7335SOL     OW22903   6.977   2.950   3.564
 7335SOL    HW122904   6.896   3.000   3.595
 7335SOL    HW222905   7.011   2.990   3.479
 7336SOL     OW22906   2.418   6.646   1.702
 7336SOL    HW122907   2.460   6.729   1.664
 7336SOL    HW222908   2.473   6.566   1.678
 7337SOL     OW22909   2.403   3.252   1.480
 7337SOL    HW122910   2.391   3.171   1.423
 7337SOL    HW222911   2.344   3.245   1.561
 7338SOL     OW22912   5.197   2.007   1.708
 7338SOL    HW122913   5.278   2.022   1.764
 7338SOL    HW222914   5.121   2.059   1.745
 7339SOL     OW22915   6.991   0.584   5.198
 7339SOL    HW122916   7.005   0.514   5.269
 7339SOL    HW222917   6.894   0.606   5.193
 7340SOL     OW22918   3.673   1.422   0.119
 7340SOL    HW122919   3.594   1.467   0.077
 7340SOL    HW222920   3.670   1.436   0.218
 7341SOL     OW22921   1.039   4.886   4.842
 7341SOL    HW122922   1.066   4.982   4.832
 7341SOL    HW222923   1.070   4.835   4.762
 7342SOL     OW22924   6.338   6.295   6.945
 7342SOL    HW122925   6.322   6.393   6.934
 7342SOL    HW222926   6.252   6.245   6.937
 7343SOL     OW22927   5.266   3.650   1.366
 7343SOL    HW122928   5.225   3.732   1.407
 7343SOL    HW222929   5.320   3.602   1.435
 7344SOL     OW22930   2.497   0.528   6.175
 7344SOL    HW122931   2.414   0.484   6.208
 7344SOL    HW222932   2.568   0.523   6.245
 7345SOL     OW22933   4.951   6.514   5.835
 7345SOL    HW122934   4.885   6.497   5.908
 7345SOL    HW222935   4.904   6.548   5.754
 7346SOL     OW22936   3.603   4.464   1.358
 7346SOL    HW122937   3.692   4.508   1.372
 7346SOL    HW222938   3.607   4.369   1.390
 7347SOL     OW22939   6.951   3.029   0.622
 7347SOL    HW122940   7.016   2.954   0.635
 7347SOL    HW222941   6.938   3.046   0.525
 7348SOL     OW22942   1.410   3.329   3.630
 7348SOL    HW122943   1.400   3.230   3.624
 7348SOL    HW222944   1.505   3.354   3.613
 7349SOL     OW22945   4.368   1.986   1.091
 7349SOL    HW122946   4.334   1.893   1.076
 7349SOL    HW222947   4.371   2.005   1.189
 7350SOL     OW22948   1.717   3.808   4.225
 7350SOL    HW122949   1.684   3.868   4.299
 7350SOL    HW222950   1.767   3.863   4.158
 7351SOL     OW22951   4.746   5.811   5.312
 7351SOL    HW122952   4.775   5.898   5.350
 7351SOL    HW222953   4.646   5.808   5.308
 7352SOL     OW22954   1.539   3.210   2.566
 7352SOL    HW122955   1.555   3.265   2.648
 7352SOL    HW222956   1.626   3.196   2.518
 7353SOL     OW22957   0.131   0.517   5.934
 7353SOL    HW122958   0.211   0.522   5.994
 7353SOL    HW222959   0.074   0.598   5.947
 7354SOL     OW22960   1.158   1.692   6.912
 7354SOL    HW122961   1.102   1.743   6.847
 7354SOL    HW222962   1.100   1.634   6.968
 7355SOL     OW22963   1.730   1.168   0.557
 7355SOL    HW122964   1.706   1.252   0.508
 7355SOL    HW222965   1.806   1.187   0.619
 7356SOL     OW22966   4.959   2.929   6.432
 7356SOL    HW122967   5.049   2.890   6.449
 7356SOL    HW222968   4.962   2.990   6.353
 7357SOL     OW22969   4.351   0.834   1.560
 7357SOL    HW122970   4.327   0.814   1.655
 7357SOL    HW222971   4.447   0.809   1.543
 7358SOL     OW22972   1.352   2.860   2.080
 7358SOL    HW122973   1.367   2.844   2.178
 7358SOL    HW222974   1.280   2.799   2.047
 7359SOL     OW22975   2.911   2.877   0.455
 7359SOL    HW122976   2.867   2.794   0.421
 7359SOL    HW222977   3.000   2.854   0.495
 7360SOL     OW22978   3.183   3.426   5.711
 7360SOL    HW122979   3.197   3.383   5.622
 7360SOL    HW222980   3.095   3.474   5.711
 7361SOL     OW22981   3.976   0.426   2.388
 7361SOL    HW122982   3.932   0.515   2.401
 7361SOL    HW222983   4.064   0.425   2.436
 7362SOL     OW22984   0.694   6.443   4.470
 7362SOL    HW122985   0.626   6.402   4.530
 7362SOL    HW222986   0.709   6.539   4.496
 7363SOL     OW22987   4.199   1.434   1.003
 7363SOL    HW122988   4.135   1.360   1.027
 7363SOL    HW222989   4.165   1.521   1.040
 7364SOL     OW22990   4.284   0.311   1.456
 7364SOL    HW122991   4.358   0.247   1.476
 7364SOL    HW222992   4.225   0.274   1.384
 7365SOL     OW22993   1.424   6.239   1.622
 7365SOL    HW122994   1.455   6.309   1.686
 7365SOL    HW222995   1.325   6.236   1.622
 7366SOL     OW22996   2.118   5.571   0.443
 7366SOL    HW122997   2.067   5.637   0.389
 7366SOL    HW222998   2.215   5.594   0.441
 7367SOL     OW22999   4.933   4.136   1.102
 7367SOL    HW123000   4.881   4.207   1.055
 7367SOL    HW223001   5.000   4.178   1.163
 7368SOL     OW23002   3.871   2.974   3.777
 7368SOL    HW123003   3.783   2.973   3.824
 7368SOL    HW223004   3.915   3.063   3.789
 7369SOL     OW23005   4.749   3.008   0.350
 7369SOL    HW123006   4.806   2.966   0.420
 7369SOL    HW223007   4.729   3.103   0.376
 7370SOL     OW23008   2.890   0.501   5.244
 7370SOL    HW123009   2.863   0.544   5.330
 7370SOL    HW223010   2.816   0.510   5.177
 7371SOL     OW23011   2.011   5.804   4.165
 7371SOL    HW123012   2.064   5.806   4.080
 7371SOL    HW223013   2.011   5.711   4.203
 7372SOL     OW23014   2.754   1.449   5.519
 7372SOL    HW123015   2.731   1.428   5.613
 7372SOL    HW223016   2.692   1.400   5.457
 7373SOL     OW23017   5.470   0.762   4.354
 7373SOL    HW123018   5.432   0.853   4.368
 7373SOL    HW223019   5.560   0.757   4.396
 7374SOL     OW23020   2.573   2.445   5.567
 7374SOL    HW123021   2.641   2.476   5.633
 7374SOL    HW223022   2.618   2.429   5.479
 7375SOL     OW23023   1.954   2.721   2.957
 7375SOL    HW123024   1.892   2.705   2.881
 7375SOL    HW223025   1.916   2.791   3.018
 7376SOL     OW23026   3.998   1.595   6.697
 7376SOL    HW123027   3.956   1.670   6.645
 7376SOL    HW223028   4.049   1.633   6.774
 7377SOL     OW23029   5.255   5.240   1.481
 7377SOL    HW123030   5.219   5.303   1.550
 7377SOL    HW223031   5.352   5.260   1.466
 7378SOL     OW23032   0.279   1.487   5.407
 7378SOL    HW123033   0.183   1.481   5.434
 7378SOL    HW223034   0.330   1.412   5.450
 7379SOL     OW23035   3.639   2.093   2.928
 7379SOL    HW123036   3.735   2.124   2.924
 7379SOL    HW223037   3.623   2.047   3.015
 7380SOL     OW23038   6.667   3.356   5.035
 7380SOL    HW123039   6.738   3.381   5.101
 7380SOL    HW223040   6.658   3.428   4.966
 7381SOL     OW23041   5.234   3.999   2.019
 7381SOL    HW123042   5.175   3.982   1.940
 7381SOL    HW223043   5.224   3.926   2.085
 7382SOL     OW23044   0.040   5.976   5.885
 7382SOL    HW123045   0.029   5.979   5.786
 7382SOL    HW223046   0.098   5.899   5.910
 7383SOL     OW23047   0.764   6.362   0.788
 7383SOL    HW123048   0.785   6.460   0.788
 7383SOL    HW223049   0.702   6.341   0.712
 7384SOL     OW23050   5.693   0.441   2.670
 7384SOL    HW123051   5.690   0.484   2.580
 7384SOL    HW223052   5.788   0.436   2.701
 7385SOL     OW23053   3.902   6.126   2.003
 7385SOL    HW123054   3.985   6.120   2.058
 7385SOL    HW223055   3.824   6.092   2.056
 7386SOL     OW23056   0.227   1.892   5.416
 7386SOL    HW123057   0.217   1.855   5.508
 7386SOL    HW223058   0.265   1.985   5.421
 7387SOL     OW23059   4.369   6.287   4.323
 7387SOL    HW123060   4.324   6.361   4.373
 7387SOL    HW223061   4.467   6.305   4.317
 7388SOL     OW23062   0.244   5.082   2.727
 7388SOL    HW123063   0.274   5.109   2.818
 7388SOL    HW223064   0.144   5.074   2.726
 7389SOL     OW23065   0.685   4.032   6.151
 7389SOL    HW123066   0.714   4.122   6.185
 7389SOL    HW223067   0.616   3.994   6.213
 7390SOL     OW23068   2.279   1.413   6.858
 7390SOL    HW123069   2.246   1.348   6.926
 7390SOL    HW223070   2.203   1.466   6.822
 7391SOL     OW23071   4.961   4.141   4.839
 7391SOL    HW123072   4.992   4.057   4.884
 7391SOL    HW223073   5.013   4.219   4.874
 7392SOL     OW23074   2.578   6.006   6.908
 7392SOL    HW123075   2.672   5.973   6.903
 7392SOL    HW223076   2.516   5.931   6.932
 7393SOL     OW23077   5.547   4.907   1.469
 7393SOL    HW123078   5.568   4.969   1.545
 7393SOL    HW223079   5.460   4.860   1.488
 7394SOL     OW23080   3.193   2.778   5.827
 7394SOL    HW123081   3.198   2.845   5.753
 7394SOL    HW223082   3.248   2.810   5.904
 7395SOL     OW23083   2.648   1.569   0.183
 7395SOL    HW123084   2.586   1.515   0.127
 7395SOL    HW223085   2.622   1.665   0.180
 7396SOL     OW23086   0.455   6.662   0.240
 7396SOL    HW123087   0.404   6.642   0.324
 7396SOL    HW223088   0.394   6.651   0.161
 7397SOL     OW23089   4.483   5.038   4.969
 7397SOL    HW123090   4.432   5.109   5.017
 7397SOL    HW223091   4.461   5.040   4.872
 7398SOL     OW23092   3.045   5.223   4.653
 7398SOL    HW123093   2.966   5.168   4.628
 7398SOL    HW223094   3.097   5.176   4.725
 7399SOL     OW23095   0.965   3.021   5.617
 7399SOL    HW123096   1.044   3.036   5.558
 7399SOL    HW223097   0.934   2.926   5.607
 7400SOL     OW23098   3.613   3.338   5.855
 7400SOL    HW123099   3.707   3.334   5.890
 7400SOL    HW223100   3.578   3.431   5.862
 7401SOL     OW23101   1.283   0.795   4.126
 7401SOL    HW123102   1.342   0.876   4.118
 7401SOL    HW223103   1.215   0.810   4.198
 7402SOL     OW23104   2.686   5.778   5.691
 7402SOL    HW123105   2.633   5.762   5.608
 7402SOL    HW223106   2.623   5.799   5.766
 7403SOL     OW23107   1.684   4.061   2.723
 7403SOL    HW123108   1.667   4.145   2.774
 7403SOL    HW223109   1.743   4.000   2.776
 7404SOL     OW23110   3.016   4.907   1.160
 7404SOL    HW123111   3.021   4.910   1.060
 7404SOL    HW223112   2.948   4.840   1.188
 7405SOL     OW23113   3.334   4.922   4.401
 7405SOL    HW123114   3.274   4.997   4.374
 7405SOL    HW223115   3.334   4.852   4.330
 7406SOL     OW23116   0.542   3.004   3.677
 7406SOL    HW123117   0.632   3.048   3.674
 7406SOL    HW223118   0.540   2.937   3.751
 7407SOL     OW23119   0.160   6.090   4.745
 7407SOL    HW123120   0.105   6.060   4.667
 7407SOL    HW223121   0.253   6.053   4.737
 7408SOL     OW23122   1.206   3.011   6.348
 7408SOL    HW123123   1.123   2.961   6.323
 7408SOL    HW223124   1.253   3.041   6.265
 7409SOL     OW23125   0.773   1.351   5.848
 7409SOL    HW123126   0.692   1.311   5.805
 7409SOL    HW223127   0.827   1.400   5.779
 7410SOL     OW23128   0.608   5.116   1.229
 7410SOL    HW123129   0.557   5.083   1.149
 7410SOL    HW223130   0.655   5.201   1.206
 7411SOL     OW23131   2.651   6.734   4.251
 7411SOL    HW123132   2.574   6.709   4.192
 7411SOL    HW223133   2.629   6.816   4.303
 7412SOL     OW23134   4.184   0.250   2.761
 7412SOL    HW123135   4.263   0.266   2.820
 7412SOL    HW223136   4.198   0.299   2.674
 7413SOL     OW23137   4.885   5.440   5.274
 7413SOL    HW123138   4.807   5.410   5.220
 7413SOL    HW223139   4.853   5.488   5.356
 7414SOL     OW23140   0.142   6.818   4.100
 7414SOL    HW123141   0.192   6.902   4.076
 7414SOL    HW223142   0.165   6.792   4.194
 7415SOL     OW23143   1.197   3.431   3.129
 7415SOL    HW123144   1.169   3.337   3.108
 7415SOL    HW223145   1.235   3.434   3.221
 7416SOL     OW23146   3.210   1.402   4.019
 7416SOL    HW123147   3.281   1.331   4.014
 7416SOL    HW223148   3.129   1.365   4.064
 7417SOL     OW23149   2.298   0.891   6.290
 7417SOL    HW123150   2.296   0.875   6.192
 7417SOL    HW223151   2.344   0.814   6.335
 7418SOL     OW23152   3.859   5.617   0.788
 7418SOL    HW123153   3.952   5.651   0.770
 7418SOL    HW223154   3.835   5.549   0.719
 7419SOL     OW23155   5.885   2.575   4.980
 7419SOL    HW123156   5.944   2.566   5.060
 7419SOL    HW223157   5.798   2.527   4.997
 7420SOL     OW23158   0.176   0.129   1.703
 7420SOL    HW123159   0.209   0.046   1.748
 7420SOL    HW223160   0.162   0.111   1.606
 7421SOL     OW23161   3.512   3.476   0.859
 7421SOL    HW123162   3.577   3.511   0.926
 7421SOL    HW223163   3.538   3.383   0.833
 7422SOL     OW23164   0.102   2.930   2.587
 7422SOL    HW123165   0.143   3.011   2.544
 7422SOL    HW223166   0.120   2.850   2.530
 7423SOL     OW23167   6.712   4.719   5.503
 7423SOL    HW123168   6.758   4.654   5.442
 7423SOL    HW223169   6.744   4.811   5.483
 7424SOL     OW23170   0.413   0.644   4.972
 7424SOL    HW123171   0.386   0.627   5.067
 7424SOL    HW223172   0.416   0.557   4.922
 7425SOL     OW23173   5.095   5.611   6.232
 7425SOL    HW123174   5.081   5.683   6.163
 7425SOL    HW223175   5.057   5.525   6.199
 7426SOL     OW23176   1.861   1.563   6.594
 7426SOL    HW123177   1.898   1.471   6.578
 7426SOL    HW223178   1.762   1.558   6.602
 7427SOL     OW23179   3.440   6.272   3.939
 7427SOL    HW123180   3.378   6.202   3.904
 7427SOL    HW223181   3.388   6.355   3.958
 7428SOL     OW23182   3.835   1.467   5.890
 7428SOL    HW123183   3.804   1.436   5.980
 7428SOL    HW223184   3.767   1.528   5.850
 7429SOL     OW23185   6.747   6.485   3.163
 7429SOL    HW123186   6.828   6.428   3.145
 7429SOL    HW223187   6.776   6.578   3.182
 7430SOL     OW23188   0.016   3.858   6.560
 7430SOL    HW123189   0.074   3.883   6.483
 7430SOL    HW223190   0.016   3.758   6.570
 7431SOL     OW23191   0.254   2.856   2.819
 7431SOL    HW123192   0.217   2.777   2.869
 7431SOL    HW223193   0.196   2.875   2.740
 7432SOL     OW23194   0.080   0.180   3.388
 7432SOL    HW123195   0.168   0.197   3.345
 7432SOL    HW223196   0.016   0.253   3.364
 7433SOL     OW23197   5.430   4.716   7.001
 7433SOL    HW123198   5.505   4.770   0.012
 7433SOL    HW223199   5.441   4.706   6.903
 7434SOL     OW23200   4.946   0.227   5.933
 7434SOL    HW123201   5.018   0.213   6.001
 7434SOL    HW223202   4.903   0.317   5.948
 7435SOL     OW23203   4.109   5.763   0.771
 7435SOL    HW123204   4.096   5.783   0.674
 7435SOL    HW223205   4.103   5.848   0.823
 7436SOL     OW23206   5.900   2.909   6.564
 7436SOL    HW123207   5.973   2.953   6.513
 7436SOL    HW223208   5.817   2.906   6.508
 7437SOL     OW23209   0.249   5.880   0.615
 7437SOL    HW123210   0.243   5.812   0.688
 7437SOL    HW223211   0.337   5.928   0.621
 7438SOL     OW23212   0.719   5.203   0.235
 7438SOL    HW123213   0.698   5.300   0.241
 7438SOL    HW223214   0.676   5.155   0.312
 7439SOL     OW23215   1.342   6.160   4.787
 7439SOL    HW123216   1.371   6.164   4.882
 7439SOL    HW223217   1.404   6.101   4.735
 7440SOL     OW23218   0.399   3.301   4.316
 7440SOL    HW123219   0.498   3.290   4.304
 7440SOL    HW223220   0.372   3.391   4.284
 7441SOL     OW23221   4.936   5.769   4.752
 7441SOL    HW123222   4.993   5.817   4.819
 7441SOL    HW223223   4.904   5.835   4.684
 7442SOL     OW23224   0.670   1.274   6.527
 7442SOL    HW123225   0.644   1.348   6.465
 7442SOL    HW223226   0.594   1.256   6.589
 7443SOL     OW23227   0.486   0.569   2.350
 7443SOL    HW123228   0.523   0.661   2.337
 7443SOL    HW223229   0.539   0.504   2.296
 7444SOL     OW23230   6.275   3.111   4.497
 7444SOL    HW123231   6.231   3.112   4.587
 7444SOL    HW223232   6.371   3.083   4.508
 7445SOL     OW23233   3.041   1.104   1.129
 7445SOL    HW123234   2.974   1.115   1.055
 7445SOL    HW223235   3.127   1.068   1.092
 7446SOL     OW23236   5.487   4.101   0.964
 7446SOL    HW123237   5.417   4.087   0.894
 7446SOL    HW223238   5.564   4.152   0.925
 7447SOL     OW23239   0.931   2.904   5.922
 7447SOL    HW123240   1.004   2.922   5.855
 7447SOL    HW223241   0.877   2.987   5.934
 7448SOL     OW23242   6.559   6.669   5.391
 7448SOL    HW123243   6.550   6.597   5.322
 7448SOL    HW223244   6.575   6.757   5.346
 7449SOL     OW23245   6.708   2.665   2.115
 7449SOL    HW123246   6.797   2.668   2.161
 7449SOL    HW223247   6.714   2.604   2.036
 7450SOL     OW23248   5.550   1.666   4.565
 7450SOL    HW123249   5.520   1.753   4.527
 7450SOL    HW223250   5.613   1.621   4.501
 7451SOL     OW23251   0.764   6.583   3.479
 7451SOL    HW123252   0.683   6.642   3.477
 7451SOL    HW223253   0.736   6.489   3.459
 7452SOL     OW23254   0.541   6.287   5.068
 7452SOL    HW123255   0.546   6.254   4.974
 7452SOL    HW223256   0.541   6.209   5.130
 7453SOL     OW23257   4.948   6.016   5.727
 7453SOL    HW123258   5.007   6.083   5.682
 7453SOL    HW223259   4.853   6.031   5.699
 7454SOL     OW23260   1.324   2.366   1.792
 7454SOL    HW123261   1.376   2.449   1.812
 7454SOL    HW223262   1.347   2.334   1.700
 7455SOL     OW23263   7.005   1.986   2.305
 7455SOL    HW123264   6.911   2.018   2.293
 7455SOL    HW223265   7.016   1.947   2.397
 7456SOL     OW23266   0.460   2.070   4.395
 7456SOL    HW123267   0.521   2.030   4.326
 7456SOL    HW223268   0.374   2.019   4.396
 7457SOL     OW23269   4.199   0.772   5.335
 7457SOL    HW123270   4.218   0.738   5.243
 7457SOL    HW223271   4.178   0.870   5.330
 7458SOL     OW23272   2.461   6.937   6.184
 7458SOL    HW123273   2.527   6.952   6.111
 7458SOL    HW223274   2.492   6.985   6.267
 7459SOL     OW23275   5.043   0.656   1.752
 7459SOL    HW123276   4.985   0.576   1.735
 7459SOL    HW223277   5.127   0.648   1.699
 7460SOL     OW23278   1.957   5.079   1.014
 7460SOL    HW123279   2.053   5.088   0.987
 7460SOL    HW223280   1.919   5.169   1.031
 7461SOL     OW23281   6.457   1.534   5.840
 7461SOL    HW123282   6.506   1.580   5.766
 7461SOL    HW223283   6.430   1.442   5.811
 7462SOL     OW23284   1.329   4.204   2.904
 7462SOL    HW123285   1.343   4.105   2.909
 7462SOL    HW223286   1.417   4.250   2.902
 7463SOL     OW23287   3.190   4.821   0.537
 7463SOL    HW123288   3.120   4.750   0.551
 7463SOL    HW223289   3.256   4.817   0.612
 7464SOL     OW23290   4.578   0.231   6.499
 7464SOL    HW123291   4.489   0.187   6.492
 7464SOL    HW223292   4.586   0.302   6.428
 7465SOL     OW23293   1.105   6.888   0.055
 7465SOL    HW123294   1.178   6.862   7.018
 7465SOL    HW223295   1.137   6.961   0.116
 7466SOL     OW23296   0.205   0.519   6.216
 7466SOL    HW123297   0.286   0.462   6.201
 7466SOL    HW223298   0.162   0.492   6.302
 7467SOL     OW23299   6.836   1.905   0.578
 7467SOL    HW123300   6.878   1.918   0.668
 7467SOL    HW223301   6.824   1.993   0.534
 7468SOL     OW23302   6.736   2.313   3.055
 7468SOL    HW123303   6.726   2.373   3.134
 7468SOL    HW223304   6.666   2.335   2.987
 7469SOL     OW23305   0.071   0.939   0.603
 7469SOL    HW123306   0.061   0.894   0.692
 7469SOL    HW223307   0.152   0.999   0.605
 7470SOL     OW23308   0.025   3.005   3.951
 7470SOL    HW123309   0.091   3.034   4.020
 7470SOL    HW223310   0.071   2.948   3.883
 7471SOL     OW23311   6.745   6.607   5.956
 7471SOL    HW123312   6.753   6.685   5.894
 7471SOL    HW223313   6.687   6.538   5.913
 7472SOL     OW23314   6.273   0.035   4.218
 7472SOL    HW123315   6.371   0.015   4.215
 7472SOL    HW223316   6.229   7.024   4.136
 7473SOL     OW23317   6.476   4.619   2.507
 7473SOL    HW123318   6.446   4.681   2.435
 7473SOL    HW223319   6.405   4.613   2.577
 7474SOL     OW23320   1.970   1.515   5.587
 7474SOL    HW123321   2.028   1.576   5.534
 7474SOL    HW223322   1.904   1.568   5.640
 7475SOL     OW23323   4.000   1.235   2.753
 7475SOL    HW123324   4.060   1.273   2.823
 7475SOL    HW223325   4.053   1.213   2.672
 7476SOL     OW23326   3.476   5.520   3.895
 7476SOL    HW123327   3.462   5.519   3.796
 7476SOL    HW223328   3.399   5.474   3.939
 7477SOL     OW23329   6.935   1.372   5.157
 7477SOL    HW123330   7.016   1.429   5.169
 7477SOL    HW223331   6.916   1.362   5.059
 7478SOL     OW23332   4.605   4.799   6.356
 7478SOL    HW123333   4.657   4.883   6.372
 7478SOL    HW223334   4.648   4.723   6.404
 7479SOL     OW23335   4.049   2.333   1.489
 7479SOL    HW123336   4.126   2.315   1.428
 7479SOL    HW223337   4.052   2.270   1.567
 7480SOL     OW23338   6.907   3.684   1.727
 7480SOL    HW123339   6.840   3.611   1.743
 7480SOL    HW223340   6.860   3.767   1.699
 7481SOL     OW23341   6.096   5.417   1.604
 7481SOL    HW123342   6.030   5.434   1.530
 7481SOL    HW223343   6.105   5.319   1.619
 7482SOL     OW23344   4.386   1.971   3.782
 7482SOL    HW123345   4.290   1.966   3.810
 7482SOL    HW223346   4.393   2.021   3.696
 7483SOL     OW23347   4.715   2.718   5.052
 7483SOL    HW123348   4.778   2.790   5.023
 7483SOL    HW223349   4.760   2.656   5.115
 7484SOL     OW23350   0.998   1.196   3.575
 7484SOL    HW123351   0.932   1.129   3.539
 7484SOL    HW223352   0.949   1.270   3.620
 7485SOL     OW23353   3.597   0.610   4.926
 7485SOL    HW123354   3.510   0.561   4.927
 7485SOL    HW223355   3.600   0.670   4.847
 7486SOL     OW23356   2.745   0.485   5.736
 7486SOL    HW123357   2.685   0.526   5.804
 7486SOL    HW223358   2.755   0.387   5.754
 7487SOL     OW23359   2.102   5.867   2.352
 7487SOL    HW123360   2.140   5.946   2.402
 7487SOL    HW223361   2.060   5.804   2.417
 7488SOL     OW23362   1.761   6.515   4.241
 7488SOL    HW123363   1.793   6.470   4.158
 7488SOL    HW223364   1.670   6.481   4.266
 7489SOL     OW23365   5.490   2.526   4.823
 7489SOL    HW123366   5.542   2.494   4.745
 7489SOL    HW223367   5.540   2.508   4.908
 7490SOL     OW23368   0.364   0.847   1.667
 7490SOL    HW123369   0.310   0.799   1.598
 7490SOL    HW223370   0.414   0.922   1.624
 7491SOL     OW23371   6.062   3.217   5.660
 7491SOL    HW123372   6.077   3.230   5.758
 7491SOL    HW223373   5.970   3.247   5.636
 7492SOL     OW23374   1.899   0.651   3.822
 7492SOL    HW123375   1.904   0.595   3.740
 7492SOL    HW223376   1.819   0.625   3.876
 7493SOL     OW23377   6.563   3.808   0.308
 7493SOL    HW123378   6.508   3.734   0.345
 7493SOL    HW223379   6.631   3.772   0.245
 7494SOL     OW23380   5.148   0.846   2.750
 7494SOL    HW123381   5.071   0.837   2.686
 7494SOL    HW223382   5.221   0.784   2.722
 7495SOL     OW23383   1.793   1.066   0.305
 7495SOL    HW123384   1.747   0.978   0.305
 7495SOL    HW223385   1.784   1.109   0.394
 7496SOL     OW23386   0.242   3.229   5.701
 7496SOL    HW123387   0.292   3.316   5.702
 7496SOL    HW223388   0.156   3.241   5.651
 7497SOL     OW23389   2.417   5.083   0.722
 7497SOL    HW123390   2.363   5.096   0.639
 7497SOL    HW223391   2.496   5.144   0.720
 7498SOL     OW23392   2.434   1.486   5.531
 7498SOL    HW123393   2.394   1.410   5.581
 7498SOL    HW223394   2.470   1.454   5.444
 7499SOL     OW23395   3.904   2.131   2.969
 7499SOL    HW123396   3.970   2.205   2.982
 7499SOL    HW223397   3.900   2.075   3.053
 7500SOL     OW23398   3.308   5.152   4.229
 7500SOL    HW123399   3.400   5.189   4.237
 7500SOL    HW223400   3.310   5.068   4.175
 7501SOL     OW23401   5.782   3.936   3.855
 7501SOL    HW123402   5.751   3.846   3.885
 7501SOL    HW223403   5.745   3.955   3.764
 7502SOL     OW23404   1.764   6.917   4.682
 7502SOL    HW123405   1.798   6.955   4.596
 7502SOL    HW223406   1.704   6.839   4.662
 7503SOL     OW23407   2.922   1.792   0.804
 7503SOL    HW123408   2.904   1.763   0.710
 7503SOL    HW223409   2.923   1.892   0.808
 7504SOL     OW23410   1.887   0.160   2.902
 7504SOL    HW123411   1.970   0.120   2.864
 7504SOL    HW223412   1.838   0.209   2.830
 7505SOL     OW23413   2.041   2.128   5.889
 7505SOL    HW123414   2.108   2.061   5.922
 7505SOL    HW223415   2.074   2.168   5.803
 7506SOL     OW23416   4.908   0.041   3.037
 7506SOL    HW123417   4.809   0.030   3.028
 7506SOL    HW223418   4.949   6.981   3.067
 7507SOL     OW23419   0.800   0.431   2.455
 7507SOL    HW123420   0.829   0.527   2.458
 7507SOL    HW223421   0.832   0.384   2.537
 7508SOL     OW23422   0.364   6.348   1.949
 7508SOL    HW123423   0.337   6.439   1.917
 7508SOL    HW223424   0.288   6.284   1.934
 7509SOL     OW23425   5.694   4.446   0.341
 7509SOL    HW123426   5.674   4.376   0.272
 7509SOL    HW223427   5.626   4.519   0.335
 7510SOL     OW23428   3.687   4.363   5.268
 7510SOL    HW123429   3.782   4.336   5.249
 7510SOL    HW223430   3.627   4.325   5.198
 7511SOL     OW23431   2.146   6.746   3.642
 7511SOL    HW123432   2.119   6.841   3.632
 7511SOL    HW223433   2.092   6.689   3.579
 7512SOL     OW23434   2.951   5.736   6.780
 7512SOL    HW123435   3.009   5.654   6.782
 7512SOL    HW223436   2.978   5.797   6.854
 7513SOL     OW23437   2.186   0.935   1.811
 7513SOL    HW123438   2.161   1.010   1.750
 7513SOL    HW223439   2.138   0.945   1.898
 7514SOL     OW23440   2.365   5.571   1.055
 7514SOL    HW123441   2.308   5.504   1.009
 7514SOL    HW223442   2.326   5.593   1.145
 7515SOL     OW23443   6.908   4.999   2.054
 7515SOL    HW123444   6.963   4.947   2.119
 7515SOL    HW223445   6.886   5.088   2.092
 7516SOL     OW23446   6.725   5.823   5.703
 7516SOL    HW123447   6.690   5.846   5.793
 7516SOL    HW223448   6.649   5.815   5.638
 7517SOL     OW23449   6.813   3.092   0.881
 7517SOL    HW123450   6.872   3.082   0.961
 7517SOL    HW223451   6.867   3.084   0.798
 7518SOL     OW23452   4.290   5.230   3.211
 7518SOL    HW123453   4.296   5.308   3.148
 7518SOL    HW223454   4.371   5.227   3.269
 7519SOL     OW23455   6.676   6.991   4.118
 7519SOL    HW123456   6.720   6.923   4.058
 7519SOL    HW223457   6.680   6.959   4.212
 7520SOL     OW23458   3.754   0.644   2.293
 7520SOL    HW123459   3.773   0.640   2.195
 7520SOL    HW223460   3.715   0.733   2.315
 7521SOL     OW23461   4.977   4.400   6.149
 7521SOL    HW123462   4.978   4.500   6.153
 7521SOL    HW223463   4.915   4.365   6.219
 7522SOL     OW23464   2.384   0.514   6.683
 7522SOL    HW123465   2.328   0.516   6.766
 7522SOL    HW223466   2.332   0.555   6.608
 7523SOL     OW23467   6.064   0.136   6.063
 7523SOL    HW123468   6.139   0.187   6.021
 7523SOL    HW223469   6.005   0.199   6.113
 7524SOL     OW23470   1.817   2.187   6.038
 7524SOL    HW123471   1.878   2.136   6.099
 7524SOL    HW223472   1.860   2.198   5.949
 7525SOL     OW23473   3.400   0.723   6.060
 7525SOL    HW123474   3.341   0.794   6.097
 7525SOL    HW223475   3.435   0.751   5.971
 7526SOL     OW23476   2.947   3.419   1.603
 7526SOL    HW123477   3.005   3.338   1.610
 7526SOL    HW223478   2.859   3.401   1.648
 7527SOL     OW23479   3.904   5.866   3.095
 7527SOL    HW123480   3.831   5.838   3.034
 7527SOL    HW223481   3.947   5.949   3.059
 7528SOL     OW23482   5.444   1.635   0.085
 7528SOL    HW123483   5.443   1.537   0.104
 7528SOL    HW223484   5.509   1.654   0.012
 7529SOL     OW23485   5.573   0.512   4.655
 7529SOL    HW123486   5.654   0.531   4.600
 7529SOL    HW223487   5.502   0.470   4.598
 7530SOL     OW23488   0.828   3.892   2.651
 7530SOL    HW123489   0.922   3.860   2.655
 7530SOL    HW223490   0.767   3.816   2.629
 7531SOL     OW23491   4.518   2.534   4.263
 7531SOL    HW123492   4.583   2.609   4.246
 7531SOL    HW223493   4.430   2.557   4.220
 7532SOL     OW23494   5.450   4.825   0.936
 7532SOL    HW123495   5.533   4.774   0.913
 7532SOL    HW223496   5.475   4.917   0.968
 7533SOL     OW23497   2.382   2.086   2.143
 7533SOL    HW123498   2.424   2.098   2.053
 7533SOL    HW223499   2.405   2.164   2.201
 7534SOL     OW23500   4.675   6.033   5.638
 7534SOL    HW123501   4.676   6.121   5.685
 7534SOL    HW223502   4.593   5.982   5.664
 7535SOL     OW23503   2.445   0.179   5.691
 7535SOL    HW123504   2.447   0.090   5.646
 7535SOL    HW223505   2.436   0.251   5.622
 7536SOL     OW23506   4.753   4.349   4.560
 7536SOL    HW123507   4.733   4.318   4.652
 7536SOL    HW223508   4.851   4.369   4.551
 7537SOL     OW23509   3.378   5.389   2.733
 7537SOL    HW123510   3.311   5.441   2.680
 7537SOL    HW223511   3.348   5.385   2.829
 7538SOL     OW23512   2.821   2.959   1.515
 7538SOL    HW123513   2.760   3.034   1.542
 7538SOL    HW223514   2.766   2.883   1.481
 7539SOL     OW23515   0.984   2.878   4.100
 7539SOL    HW123516   0.999   2.851   4.005
 7539SOL    HW223517   1.071   2.899   4.144
 7540SOL     OW23518   4.725   0.096   5.203
 7540SOL    HW123519   4.819   0.104   5.169
 7540SOL    HW223520   4.717   0.014   5.260
 7541SOL     OW23521   6.933   4.457   4.255
 7541SOL    HW123522   6.978   4.369   4.268
 7541SOL    HW223523   7.001   4.527   4.236
 7542SOL     OW23524   1.002   5.592   0.120
 7542SOL    HW123525   0.957   5.514   0.075
 7542SOL    HW223526   0.961   5.677   0.088
 7543SOL     OW23527   3.349   2.295   6.986
 7543SOL    HW123528   3.370   2.282   0.056
 7543SOL    HW223529   3.291   2.220   6.954
 7544SOL     OW23530   0.382   1.981   2.757
 7544SOL    HW123531   0.337   2.070   2.765
 7544SOL    HW223532   0.424   1.957   2.845
 7545SOL     OW23533   6.430   5.891   1.344
 7545SOL    HW123534   6.402   5.953   1.417
 7545SOL    HW223535   6.457   5.803   1.383
 7546SOL     OW23536   3.189   1.725   1.990
 7546SOL    HW123537   3.134   1.788   1.936
 7546SOL    HW223538   3.277   1.768   2.012
 7547SOL     OW23539   4.921   1.314   0.509
 7547SOL    HW123540   4.871   1.281   0.589
 7547SOL    HW223541   4.905   1.412   0.498
 7548SOL     OW23542   3.755   2.090   0.135
 7548SOL    HW123543   3.678   2.031   0.157
 7548SOL    HW223544   3.784   2.073   0.041
 7549SOL     OW23545   5.546   1.966   1.102
 7549SOL    HW123546   5.453   1.959   1.139
 7549SOL    HW223547   5.600   2.027   1.161
 7550SOL     OW23548   2.512   4.554   2.477
 7550SOL    HW123549   2.536   4.591   2.566
 7550SOL    HW223550   2.587   4.570   2.413
 7551SOL     OW23551   5.236   3.900   6.063
 7551SOL    HW123552   5.238   3.959   6.144
 7551SOL    HW223553   5.169   3.935   5.998
 7552SOL     OW23554   0.986   5.314   2.941
 7552SOL    HW123555   0.936   5.257   3.006
 7552SOL    HW223556   0.993   5.265   2.853
 7553SOL     OW23557   4.421   6.221   5.148
 7553SOL    HW123558   4.359   6.195   5.222
 7553SOL    HW223559   4.514   6.196   5.173
 7554SOL     OW23560   4.414   1.789   1.325
 7554SOL    HW123561   4.393   1.701   1.281
 7554SOL    HW223562   4.510   1.812   1.309
 7555SOL     OW23563   2.004   5.180   5.570
 7555SOL    HW123564   1.984   5.105   5.507
 7555SOL    HW223565   1.996   5.147   5.664
 7556SOL     OW23566   1.061   2.874   0.108
 7556SOL    HW123567   0.977   2.831   0.076
 7556SOL    HW223568   1.108   2.917   0.031
 7557SOL     OW23569   5.142   2.506   6.055
 7557SOL    HW123570   5.093   2.538   6.136
 7557SOL    HW223571   5.229   2.556   6.047
 7558SOL     OW23572   1.806   2.676   4.404
 7558SOL    HW123573   1.763   2.683   4.313
 7558SOL    HW223574   1.888   2.732   4.406
 7559SOL     OW23575   5.459   4.391   6.398
 7559SOL    HW123576   5.487   4.298   6.373
 7559SOL    HW223577   5.466   4.451   6.319
 7560SOL     OW23578   4.904   6.504   1.117
 7560SOL    HW123579   4.942   6.528   1.207
 7560SOL    HW223580   4.942   6.565   1.048
 7561SOL     OW23581   1.245   3.470   6.783
 7561SOL    HW123582   1.203   3.462   6.692
 7561SOL    HW223583   1.323   3.408   6.789
 7562SOL     OW23584   6.514   6.106   3.923
 7562SOL    HW123585   6.470   6.032   3.871
 7562SOL    HW223586   6.535   6.074   4.015
 7563SOL     OW23587   2.173   6.670   0.818
 7563SOL    HW123588   2.266   6.661   0.783
 7563SOL    HW223589   2.174   6.671   0.918
 7564SOL     OW23590   4.777   0.723   3.125
 7564SOL    HW123591   4.746   0.716   3.030
 7564SOL    HW223592   4.871   0.758   3.127
 7565SOL     OW23593   6.060   3.320   0.456
 7565SOL    HW123594   6.031   3.386   0.526
 7565SOL    HW223595   6.149   3.347   0.420
 7566SOL     OW23596   6.511   4.558   2.848
 7566SOL    HW123597   6.579   4.486   2.855
 7566SOL    HW223598   6.431   4.524   2.799
 7567SOL     OW23599   1.479   2.222   5.172
 7567SOL    HW123600   1.438   2.146   5.122
 7567SOL    HW223601   1.425   2.240   5.255
 7568SOL     OW23602   5.794   6.250   2.708
 7568SOL    HW123603   5.724   6.227   2.776
 7568SOL    HW223604   5.842   6.166   2.681
 7569SOL     OW23605   4.110   6.119   6.096
 7569SOL    HW123606   4.122   6.195   6.031
 7569SOL    HW223607   4.198   6.076   6.114
 7570SOL     OW23608   5.625   4.415   4.882
 7570SOL    HW123609   5.565   4.490   4.856
 7570SOL    HW223610   5.720   4.448   4.887
 7571SOL     OW23611   5.222   5.465   3.686
 7571SOL    HW123612   5.231   5.368   3.707
 7571SOL    HW223613   5.305   5.498   3.641
 7572SOL     OW23614   4.427   0.955   1.953
 7572SOL    HW123615   4.360   0.910   1.895
 7572SOL    HW223616   4.472   1.028   1.902
 7573SOL     OW23617   0.304   6.942   4.954
 7573SOL    HW123618   0.348   6.853   4.966
 7573SOL    HW223619   0.353   6.995   4.885
 7574SOL     OW23620   6.457   0.531   4.636
 7574SOL    HW123621   6.478   0.580   4.552
 7574SOL    HW223622   6.512   0.448   4.642
 7575SOL     OW23623   4.362   0.176   6.148
 7575SOL    HW123624   4.409   0.261   6.125
 7575SOL    HW223625   4.426   0.099   6.140
 7576SOL     OW23626   4.771   4.593   6.417
 7576SOL    HW123627   4.809   4.625   6.331
 7576SOL    HW223628   4.772   4.493   6.420
 7577SOL     OW23629   0.116   6.734   6.848
 7577SOL    HW123630   0.067   6.819   6.869
 7577SOL    HW223631   0.202   6.755   6.803
 7578SOL     OW23632   2.532   5.600   2.045
 7578SOL    HW123633   2.521   5.692   2.007
 7578SOL    HW223634   2.597   5.549   1.989
 7579SOL     OW23635   6.018   1.349   1.901
 7579SOL    HW123636   5.937   1.336   1.842
 7579SOL    HW223637   6.099   1.362   1.843
 7580SOL     OW23638   0.945   3.627   3.630
 7580SOL    HW123639   0.877   3.576   3.577
 7580SOL    HW223640   0.950   3.721   3.596
 7581SOL     OW23641   6.620   0.967   1.059
 7581SOL    HW123642   6.534   0.947   1.012
 7581SOL    HW223643   6.675   0.883   1.062
 7582SOL     OW23644   3.309   1.321   0.839
 7582SOL    HW123645   3.226   1.334   0.893
 7582SOL    HW223646   3.307   1.231   0.796
 7583SOL     OW23647   6.075   2.725   1.121
 7583SOL    HW123648   6.017   2.807   1.114
 7583SOL    HW223649   6.053   2.676   1.205
 7584SOL     OW23650   2.547   0.148   1.661
 7584SOL    HW123651   2.609   0.155   1.583
 7584SOL    HW223652   2.582   0.080   1.725
 7585SOL     OW23653   1.488   2.698   6.582
 7585SOL    HW123654   1.569   2.735   6.538
 7585SOL    HW223655   1.468   2.750   6.665
 7586SOL     OW23656   3.051   0.849   3.821
 7586SOL    HW123657   3.090   0.789   3.891
 7586SOL    HW223658   3.117   0.860   3.746
 7587SOL     OW23659   2.289   1.831   0.036
 7587SOL    HW123660   2.242   1.862   0.119
 7587SOL    HW223661   2.332   1.909   7.017
 7588SOL     OW23662   1.493   2.930   2.596
 7588SOL    HW123663   1.519   3.026   2.584
 7588SOL    HW223664   1.470   2.890   2.508
 7589SOL     OW23665   0.661   6.996   2.097
 7589SOL    HW123666   0.681   0.042   2.031
 7589SOL    HW223667   0.747   6.952   2.125
 7590SOL     OW23668   4.924   1.868   6.370
 7590SOL    HW123669   4.927   1.958   6.327
 7590SOL    HW223670   4.881   1.875   6.460
 7591SOL     OW23671   6.863   3.662   0.423
 7591SOL    HW123672   6.793   3.614   0.474
 7591SOL    HW223673   6.829   3.683   0.331
 7592SOL     OW23674   6.984   4.272   5.799
 7592SOL    HW123675   6.996   4.319   5.711
 7592SOL    HW223676   6.949   4.179   5.783
 7593SOL     OW23677   5.921   3.163   1.173
 7593SOL    HW123678   5.822   3.171   1.184
 7593SOL    HW223679   5.952   3.078   1.216
 7594SOL     OW23680   0.929   5.296   2.366
 7594SOL    HW123681   0.942   5.208   2.321
 7594SOL    HW223682   1.012   5.352   2.357
 7595SOL     OW23683   0.258   2.059   5.845
 7595SOL    HW123684   0.268   2.125   5.919
 7595SOL    HW223685   0.170   2.012   5.854
 7596SOL     OW23686   4.421   5.697   3.954
 7596SOL    HW123687   4.480   5.621   3.978
 7596SOL    HW223688   4.398   5.693   3.857
 7597SOL     OW23689   3.650   6.158   3.075
 7597SOL    HW123690   3.699   6.106   3.145
 7597SOL    HW223691   3.634   6.252   3.108
 7598SOL     OW23692   6.299   1.195   3.144
 7598SOL    HW123693   6.271   1.269   3.205
 7598SOL    HW223694   6.399   1.197   3.133
 7599SOL     OW23695   5.344   1.781   2.571
 7599SOL    HW123696   5.363   1.828   2.656
 7599SOL    HW223697   5.331   1.683   2.589
 7600SOL     OW23698   2.295   1.570   2.679
 7600SOL    HW123699   2.240   1.630   2.621
 7600SOL    HW223700   2.240   1.539   2.757
 7601SOL     OW23701   2.052   5.380   3.110
 7601SOL    HW123702   2.027   5.334   3.195
 7601SOL    HW223703   2.145   5.415   3.117
 7602SOL     OW23704   1.009   4.455   5.827
 7602SOL    HW123705   0.996   4.465   5.729
 7602SOL    HW223706   0.933   4.403   5.866
 7603SOL     OW23707   1.469   5.719   6.065
 7603SOL    HW123708   1.398   5.719   6.135
 7603SOL    HW223709   1.550   5.767   6.099
 7604SOL     OW23710   1.389   4.669   4.650
 7604SOL    HW123711   1.415   4.592   4.591
 7604SOL    HW223712   1.470   4.702   4.699
 7605SOL     OW23713   0.430   0.103   1.151
 7605SOL    HW123714   0.530   0.113   1.148
 7605SOL    HW223715   0.407   0.026   1.211
 7606SOL     OW23716   5.812   3.553   4.420
 7606SOL    HW123717   5.907   3.580   4.405
 7606SOL    HW223718   5.761   3.563   4.334
 7607SOL     OW23719   3.663   4.615   6.862
 7607SOL    HW123720   3.654   4.707   6.900
 7607SOL    HW223721   3.637   4.616   6.766
 7608SOL     OW23722   3.907   3.711   2.562
 7608SOL    HW123723   3.930   3.616   2.542
 7608SOL    HW223724   3.855   3.750   2.486
 7609SOL     OW23725   1.143   3.283   4.262
 7609SOL    HW123726   1.126   3.372   4.219
 7609SOL    HW223727   1.107   3.283   4.355
 7610SOL     OW23728   5.199   6.429   6.849
 7610SOL    HW123729   5.184   6.407   6.945
 7610SOL    HW223730   5.191   6.345   6.794
 7611SOL     OW23731   0.138   2.226   0.866
 7611SOL    HW123732   0.152   2.266   0.775
 7611SOL    HW223733   0.051   2.258   0.903
 7612SOL     OW23734   5.070   3.137   3.779
 7612SOL    HW123735   5.106   3.150   3.687
 7612SOL    HW223736   5.136   3.088   3.835
 7613SOL     OW23737   6.250   3.206   1.109
 7613SOL    HW123738   6.166   3.243   1.068
 7613SOL    HW223739   6.328   3.263   1.081
 7614SOL     OW23740   4.968   3.279   0.758
 7614SOL    HW123741   5.039   3.303   0.825
 7614SOL    HW223742   5.010   3.265   0.668
 7615SOL     OW23743   3.730   4.979   6.596
 7615SOL    HW123744   3.771   5.023   6.517
 7615SOL    HW223745   3.752   5.031   6.679
 7616SOL     OW23746   5.980   5.089   4.821
 7616SOL    HW123747   6.046   5.151   4.779
 7616SOL    HW223748   6.017   5.054   4.907
 7617SOL     OW23749   4.065   4.995   2.600
 7617SOL    HW123750   4.003   5.020   2.675
 7617SOL    HW223751   4.086   5.077   2.547
 7618SOL     OW23752   0.476   1.585   5.804
 7618SOL    HW123753   0.474   1.684   5.817
 7618SOL    HW223754   0.523   1.563   5.719
 7619SOL     OW23755   6.019   3.171   5.370
 7619SOL    HW123756   6.064   3.199   5.455
 7619SOL    HW223757   6.086   3.127   5.310
 7620SOL     OW23758   4.098   5.637   1.133
 7620SOL    HW123759   4.109   5.732   1.103
 7620SOL    HW223760   4.130   5.576   1.060
 7621SOL     OW23761   6.799   2.032   1.271
 7621SOL    HW123762   6.827   1.938   1.254
 7621SOL    HW223763   6.709   2.048   1.231
 7622SOL     OW23764   4.129   5.904   1.067
 7622SOL    HW123765   4.037   5.941   1.051
 7622SOL    HW223766   4.197   5.975   1.049
 7623SOL     OW23767   4.669   4.591   6.675
 7623SOL    HW123768   4.569   4.592   6.670
 7623SOL    HW223769   4.707   4.575   6.584
 7624SOL     OW23770   6.940   3.703   5.339
 7624SOL    HW123771   0.009   3.721   5.316
 7624SOL    HW223772   6.890   3.678   5.256
 7625SOL     OW23773   4.553   0.615   1.739
 7625SOL    HW123774   4.634   0.590   1.792
 7625SOL    HW223775   4.579   0.676   1.665
 7626SOL     OW23776   5.635   7.013   4.592
 7626SOL    HW123777   5.689   0.034   4.523
 7626SOL    HW223778   5.554   6.973   4.550
 7627SOL     OW23779   4.898   2.635   0.449
 7627SOL    HW123780   4.987   2.627   0.494
 7627SOL    HW223781   4.910   2.632   0.349
 7628SOL     OW23782   3.737   1.231   2.808
 7628SOL    HW123783   3.829   1.225   2.769
 7628SOL    HW223784   3.701   1.323   2.796
 7629SOL     OW23785   7.026   6.008   3.270
 7629SOL    HW123786   6.994   6.056   3.351
 7629SOL    HW223787   6.975   5.923   3.259
 7630SOL     OW23788   6.771   6.972   1.099
 7630SOL    HW123789   6.843   6.963   1.030
 7630SOL    HW223790   6.766   6.888   1.153
 7631SOL     OW23791   1.114   1.312   6.277
 7631SOL    HW123792   1.209   1.298   6.250
 7631SOL    HW223793   1.054   1.269   6.209
 7632SOL     OW23794   3.055   2.885   1.659
 7632SOL    HW123795   3.038   2.792   1.690
 7632SOL    HW223796   2.971   2.923   1.620
 7633SOL     OW23797   5.127   0.425   1.334
 7633SOL    HW123798   5.160   0.433   1.240
 7633SOL    HW223799   5.045   0.367   1.336
 7634SOL     OW23800   1.435   2.149   2.603
 7634SOL    HW123801   1.350   2.156   2.551
 7634SOL    HW223802   1.416   2.117   2.696
 7635SOL     OW23803   3.560   5.494   4.913
 7635SOL    HW123804   3.607   5.406   4.911
 7635SOL    HW223805   3.559   5.530   5.006
 7636SOL     OW23806   1.598   2.643   3.866
 7636SOL    HW123807   1.660   2.721   3.876
 7636SOL    HW223808   1.535   2.660   3.791
 7637SOL     OW23809   2.107   5.089   2.388
 7637SOL    HW123810   2.019   5.136   2.377
 7637SOL    HW223811   2.179   5.144   2.344
 7638SOL     OW23812   3.509   6.212   0.929
 7638SOL    HW123813   3.471   6.127   0.892
 7638SOL    HW223814   3.548   6.195   1.019
 7639SOL     OW23815   1.678   2.821   0.950
 7639SOL    HW123816   1.666   2.804   1.047
 7639SOL    HW223817   1.745   2.894   0.937
 7640SOL     OW23818   3.003   1.954   6.046
 7640SOL    HW123819   3.058   2.037   6.054
 7640SOL    HW223820   2.908   1.975   6.066
 7641SOL     OW23821   1.170   5.071   2.238
 7641SOL    HW123822   1.216   5.008   2.176
 7641SOL    HW223823   1.085   5.030   2.270
 7642SOL     OW23824   3.747   0.735   2.766
 7642SOL    HW123825   3.818   0.805   2.757
 7642SOL    HW223826   3.658   0.775   2.745
 7643SOL     OW23827   5.114   2.884   4.191
 7643SOL    HW123828   5.137   2.868   4.287
 7643SOL    HW223829   5.052   2.812   4.159
 7644SOL     OW23830   5.909   2.429   2.572
 7644SOL    HW123831   5.862   2.441   2.484
 7644SOL    HW223832   5.863   2.356   2.624
 7645SOL     OW23833   4.270   3.942   5.346
 7645SOL    HW123834   4.249   4.019   5.406
 7645SOL    HW223835   4.362   3.955   5.307
 7646SOL     OW23836   1.069   3.845   2.943
 7646SOL    HW123837   1.165   3.866   2.959
 7646SOL    HW223838   1.060   3.795   2.858
 7647SOL     OW23839   6.438   3.667   3.203
 7647SOL    HW123840   6.453   3.659   3.104
 7647SOL    HW223841   6.525   3.683   3.249
 7648SOL     OW23842   2.521   1.449   2.743
 7648SOL    HW123843   2.524   1.411   2.835
 7648SOL    HW223844   2.440   1.506   2.734
 7649SOL     OW23845   1.020   0.700   2.656
 7649SOL    HW123846   1.119   0.687   2.662
 7649SOL    HW223847   0.974   0.623   2.701
 7650SOL     OW23848   4.784   1.965   1.078
 7650SOL    HW123849   4.799   1.883   1.024
 7650SOL    HW223850   4.702   2.012   1.045
 7651SOL     OW23851   2.217   0.656   4.124
 7651SOL    HW123852   2.200   0.559   4.144
 7651SOL    HW223853   2.236   0.667   4.027
 7652SOL     OW23854   6.100   3.759   4.798
 7652SOL    HW123855   6.172   3.793   4.858
 7652SOL    HW223856   6.048   3.688   4.846
 7653SOL     OW23857   0.858   2.128   6.978
 7653SOL    HW123858   0.849   2.147   0.049
 7653SOL    HW223859   0.897   2.207   6.931
 7654SOL     OW23860   4.724   2.809   3.672
 7654SOL    HW123861   4.817   2.842   3.660
 7654SOL    HW223862   4.700   2.813   3.769
 7655SOL     OW23863   4.493   0.085   3.103
 7655SOL    HW123864   4.557   0.156   3.135
 7655SOL    HW223865   4.524   0.049   3.015
 7656SOL     OW23866   2.708   4.283   6.135
 7656SOL    HW123867   2.742   4.368   6.096
 7656SOL    HW223868   2.652   4.235   6.068
 7657SOL     OW23869   1.377   2.953   4.526
 7657SOL    HW123870   1.405   2.922   4.618
 7657SOL    HW223871   1.439   3.025   4.495
 7658SOL     OW23872   3.798   6.751   5.854
 7658SOL    HW123873   3.780   6.846   5.881
 7658SOL    HW223874   3.714   6.711   5.817
 7659SOL     OW23875   5.351   5.766   6.675
 7659SOL    HW123876   5.424   5.829   6.648
 7659SOL    HW223877   5.282   5.762   6.603
 7660SOL     OW23878   0.581   5.821   4.152
 7660SOL    HW123879   0.646   5.897   4.147
 7660SOL    HW223880   0.544   5.815   4.245
 7661SOL     OW23881   6.165   2.459   4.385
 7661SOL    HW123882   6.074   2.490   4.411
 7661SOL    HW223883   6.157   2.382   4.321
 7662SOL     OW23884   1.379   3.518   2.882
 7662SOL    HW123885   1.435   3.569   2.948
 7662SOL    HW223886   1.352   3.431   2.923
 7663SOL     OW23887   0.628   5.600   5.435
 7663SOL    HW123888   0.648   5.503   5.420
 7663SOL    HW223889   0.573   5.611   5.518
 7664SOL     OW23890   3.651   0.081   1.490
 7664SOL    HW123891   3.570   0.111   1.440
 7664SOL    HW223892   3.631   0.079   1.588
 7665SOL     OW23893   5.646   6.880   4.906
 7665SOL    HW123894   5.744   6.900   4.911
 7665SOL    HW223895   5.616   6.882   4.811
 7666SOL     OW23896   0.513   5.804   1.737
 7666SOL    HW123897   0.414   5.792   1.728
 7666SOL    HW223898   0.532   5.880   1.799
 7667SOL     OW23899   5.341   6.134   2.347
 7667SOL    HW123900   5.303   6.198   2.279
 7667SOL    HW223901   5.436   6.157   2.364
 7668SOL     OW23902   2.968   4.615   6.982
 7668SOL    HW123903   2.930   4.523   6.969
 7668SOL    HW223904   3.002   4.624   0.050
 7669SOL     OW23905   4.734   1.836   5.643
 7669SOL    HW123906   4.692   1.758   5.689
 7669SOL    HW223907   4.668   1.911   5.637
 7670SOL     OW23908   0.835   5.086   6.455
 7670SOL    HW123909   0.750   5.038   6.477
 7670SOL    HW223910   0.872   5.128   6.539
 7671SOL     OW23911   4.406   1.154   2.712
 7671SOL    HW123912   4.365   1.074   2.669
 7671SOL    HW223913   4.410   1.229   2.646
 7672SOL     OW23914   0.380   6.911   3.328
 7672SOL    HW123915   0.417   6.974   3.260
 7672SOL    HW223916   0.307   6.857   3.286
 7673SOL     OW23917   1.575   5.607   0.149
 7673SOL    HW123918   1.586   5.559   0.062
 7673SOL    HW223919   1.648   5.581   0.211
 7674SOL     OW23920   5.308   1.239   3.538
 7674SOL    HW123921   5.391   1.225   3.484
 7674SOL    HW223922   5.228   1.221   3.480
 7675SOL     OW23923   6.465   6.627   2.385
 7675SOL    HW123924   6.478   6.583   2.296
 7675SOL    HW223925   6.544   6.683   2.406
 7676SOL     OW23926   2.159   1.844   0.303
 7676SOL    HW123927   2.150   1.744   0.297
 7676SOL    HW223928   2.130   1.875   0.394
 7677SOL     OW23929   0.483   4.754   1.827
 7677SOL    HW123930   0.535   4.812   1.889
 7677SOL    HW223931   0.400   4.802   1.798
 7678SOL     OW23932   2.179   2.575   4.381
 7678SOL    HW123933   2.259   2.624   4.346
 7678SOL    HW223934   2.127   2.635   4.442
 7679SOL     OW23935   2.877   5.584   6.309
 7679SOL    HW123936   2.834   5.647   6.245
 7679SOL    HW223937   2.809   5.548   6.373
 7680SOL     OW23938   1.498   1.014   0.613
 7680SOL    HW123939   1.592   1.025   0.583
 7680SOL    HW223940   1.438   1.072   0.557
 7681SOL     OW23941   2.044   0.565   0.789
 7681SOL    HW123942   2.016   0.657   0.761
 7681SOL    HW223943   1.964   0.506   0.794
 7682SOL     OW23944   3.445   0.227   2.198
 7682SOL    HW123945   3.514   0.254   2.264
 7682SOL    HW223946   3.396   0.146   2.231
 7683SOL     OW23947   5.154   1.548   4.447
 7683SOL    HW123948   5.196   1.635   4.420
 7683SOL    HW223949   5.151   1.486   4.368
 7684SOL     OW23950   3.508   2.239   1.425
 7684SOL    HW123951   3.517   2.245   1.525
 7684SOL    HW223952   3.429   2.293   1.395
 7685SOL     OW23953   2.730   2.047   6.116
 7685SOL    HW123954   2.670   2.126   6.102
 7685SOL    HW223955   2.731   2.024   6.213
 7686SOL     OW23956   0.142   6.836   3.257
 7686SOL    HW123957   0.062   6.895   3.269
 7686SOL    HW223958   0.134   6.756   3.316
 7687SOL     OW23959   5.441   5.361   3.997
 7687SOL    HW123960   5.452   5.269   3.958
 7687SOL    HW223961   5.507   5.375   4.070
 7688SOL     OW23962   1.336   6.012   5.939
 7688SOL    HW123963   1.237   6.009   5.953
 7688SOL    HW223964   1.362   5.940   5.875
 7689SOL     OW23965   6.176   6.293   2.359
 7689SOL    HW123966   6.230   6.263   2.438
 7689SOL    HW223967   6.108   6.361   2.390
 7690SOL     OW23968   5.344   5.021   0.556
 7690SOL    HW123969   5.418   5.066   0.607
 7690SOL    HW223970   5.262   5.018   0.613
 7691SOL     OW23971   5.217   3.613   4.786
 7691SOL    HW123972   5.235   3.567   4.873
 7691SOL    HW223973   5.119   3.629   4.777
 7692SOL     OW23974   0.234   5.965   2.058
 7692SOL    HW123975   0.193   5.874   2.054
 7692SOL    HW223976   0.253   5.989   2.154
 7693SOL     OW23977   4.117   6.973   1.163
 7693SOL    HW123978   4.102   6.874   1.164
 7693SOL    HW223979   4.202   6.992   1.115
 7694SOL     OW23980   0.272   4.697   4.995
 7694SOL    HW123981   0.282   4.777   5.054
 7694SOL    HW223982   0.196   4.711   4.932
 7695SOL     OW23983   4.348   0.130   1.259
 7695SOL    HW123984   4.385   0.068   1.189
 7695SOL    HW223985   4.252   0.149   1.238
 7696SOL     OW23986   0.064   1.012   5.076
 7696SOL    HW123987   6.993   1.021   5.098
 7696SOL    HW223988   0.077   1.013   4.977
 7697SOL     OW23989   2.869   6.509   2.202
 7697SOL    HW123990   2.835   6.587   2.255
 7697SOL    HW223991   2.792   6.461   2.160
 7698SOL     OW23992   6.439   1.532   3.723
 7698SOL    HW123993   6.364   1.566   3.780
 7698SOL    HW223994   6.407   1.454   3.668
 7699SOL     OW23995   3.896   6.056   6.931
 7699SOL    HW123996   3.937   6.147   6.923
 7699SOL    HW223997   3.834   6.042   6.853
 7700SOL     OW23998   5.026   6.069   3.868
 7700SOL    HW123999   5.042   6.006   3.792
 7700SOL    HW224000   5.106   6.128   3.881
 7701SOL     OW24001   6.762   1.884   6.781
 7701SOL    HW124002   6.784   1.791   6.813
 7701SOL    HW224003   6.834   1.947   6.810
 7702SOL     OW24004   3.466   6.854   5.294
 7702SOL    HW124005   3.393   6.853   5.226
 7702SOL    HW224006   3.552   6.828   5.251
 7703SOL     OW24007   6.133   0.120   6.411
 7703SOL    HW124008   6.055   0.167   6.371
 7703SOL    HW224009   6.135   0.137   6.510
 7704SOL     OW24010   5.749   5.678   4.761
 7704SOL    HW124011   5.684   5.611   4.725
 7704SOL    HW224012   5.842   5.653   4.733
 7705SOL     OW24013   3.783   5.733   6.873
 7705SOL    HW124014   3.849   5.751   6.800
 7705SOL    HW224015   3.705   5.795   6.864
 7706SOL     OW24016   4.683   3.185   5.398
 7706SOL    HW124017   4.701   3.154   5.491
 7706SOL    HW224018   4.584   3.190   5.383
 7707SOL     OW24019   6.981   5.176   6.074
 7707SOL    HW124020   0.016   5.100   6.096
 7707SOL    HW224021   6.888   5.142   6.061
 7708SOL     OW24022   0.188   0.192   5.831
 7708SOL    HW124023   0.277   0.149   5.813
 7708SOL    HW224024   0.199   0.291   5.836
 7709SOL     OW24025   5.848   5.129   2.053
 7709SOL    HW124026   5.760   5.153   2.012
 7709SOL    HW224027   5.905   5.083   1.985
 7710SOL     OW24028   2.696   1.146   0.233
 7710SOL    HW124029   2.696   1.210   0.310
 7710SOL    HW224030   2.718   1.196   0.149
 7711SOL     OW24031   6.327   6.725   6.131
 7711SOL    HW124032   6.387   6.802   6.154
 7711SOL    HW224033   6.234   6.747   6.160
 7712SOL     OW24034   5.824   5.291   2.300
 7712SOL    HW124035   5.773   5.212   2.336
 7712SOL    HW224036   5.854   5.271   2.207
 7713SOL     OW24037   1.731   3.942   0.564
 7713SOL    HW124038   1.697   4.032   0.593
 7713SOL    HW224039   1.664   3.872   0.587
 7714SOL     OW24040   5.948   4.307   5.593
 7714SOL    HW124041   5.965   4.298   5.692
 7714SOL    HW224042   6.003   4.239   5.544
 7715SOL     OW24043   3.760   2.427   0.186
 7715SOL    HW124044   3.841   2.406   0.242
 7715SOL    HW224045   3.787   2.430   0.089
 7716SOL     OW24046   5.882   4.296   2.831
 7716SOL    HW124047   5.782   4.302   2.834
 7716SOL    HW224048   5.913   4.302   2.737
 7717SOL     OW24049   1.799   0.953   4.895
 7717SOL    HW124050   1.747   0.877   4.856
 7717SOL    HW224051   1.794   0.948   4.995
 7718SOL     OW24052   1.176   2.888   3.519
 7718SOL    HW124053   1.114   2.891   3.597
 7718SOL    HW224054   1.163   2.969   3.462
 7719SOL     OW24055   6.924   4.558   5.113
 7719SOL    HW124056   6.900   4.653   5.130
 7719SOL    HW224057   6.854   4.514   5.058
 7720SOL     OW24058   6.897   1.456   0.556
 7720SOL    HW124059   6.917   1.364   0.589
 7720SOL    HW224060   6.951   1.522   0.609
 7721SOL     OW24061   0.458   5.628   2.635
 7721SOL    HW124062   0.412   5.539   2.632
 7721SOL    HW224063   0.392   5.698   2.663
 7722SOL     OW24064   1.467   4.761   3.581
 7722SOL    HW124065   1.482   4.793   3.674
 7722SOL    HW224066   1.555   4.743   3.537
 7723SOL     OW24067   4.734   3.378   6.939
 7723SOL    HW124068   4.742   3.285   6.905
 7723SOL    HW224069   4.653   3.385   6.997
 7724SOL     OW24070   3.361   3.806   0.588
 7724SOL    HW124071   3.364   3.900   0.624
 7724SOL    HW224072   3.444   3.758   0.615
 7725SOL     OW24073   6.581   1.181   3.122
 7725SOL    HW124074   6.647   1.234   3.069
 7725SOL    HW224075   6.602   1.190   3.219
 7726SOL     OW24076   1.571   5.662   5.458
 7726SOL    HW124077   1.547   5.567   5.437
 7726SOL    HW224078   1.528   5.723   5.392
 7727SOL     OW24079   0.385   0.715   2.684
 7727SOL    HW124080   0.373   0.812   2.661
 7727SOL    HW224081   0.397   0.705   2.783
 7728SOL     OW24082   1.216   4.608   3.555
 7728SOL    HW124083   1.152   4.641   3.486
 7728SOL    HW224084   1.285   4.678   3.573
 7729SOL     OW24085   5.552   3.196   0.556
 7729SOL    HW124086   5.587   3.244   0.637
 7729SOL    HW224087   5.483   3.129   0.584
 7730SOL     OW24088   5.829   5.989   0.505
 7730SOL    HW124089   5.901   6.043   0.549
 7730SOL    HW224090   5.748   6.047   0.491
 7731SOL     OW24091   6.773   1.121   0.321
 7731SOL    HW124092   6.781   1.111   0.420
 7731SOL    HW224093   6.682   1.092   0.291
 7732SOL     OW24094   4.605   6.655   0.637
 7732SOL    HW124095   4.609   6.558   0.613
 7732SOL    HW224096   4.530   6.670   0.701
 7733SOL     OW24097   4.941   6.351   2.944
 7733SOL    HW124098   4.855   6.308   2.973
 7733SOL    HW224099   4.935   6.375   2.847
 7734SOL     OW24100   2.528   4.640   3.054
 7734SOL    HW124101   2.478   4.724   3.073
 7734SOL    HW224102   2.566   4.604   3.139
 7735SOL     OW24103   4.695   0.003   6.582
 7735SOL    HW124104   4.616   6.970   6.572
 7735SOL    HW224105   4.672   0.094   6.546
 7736SOL     OW24106   3.573   3.600   6.392
 7736SOL    HW124107   3.620   3.540   6.456
 7736SOL    HW224108   3.591   3.570   6.298
 7737SOL     OW24109   2.990   6.699   2.739
 7737SOL    HW124110   2.986   6.775   2.674
 7737SOL    HW224111   3.036   6.621   2.696
 7738SOL     OW24112   3.257   6.092   6.853
 7738SOL    HW124113   3.163   6.125   6.859
 7738SOL    HW224114   3.320   6.166   6.874
 7739SOL     OW24115   0.584   2.572   1.484
 7739SOL    HW124116   0.609   2.517   1.563
 7739SOL    HW224117   0.487   2.558   1.463
 7740SOL     OW24118   2.251   1.306   2.493
 7740SOL    HW124119   2.241   1.400   2.463
 7740SOL    HW224120   2.190   1.247   2.441
 7741SOL     OW24121   0.878   5.024   5.649
 7741SOL    HW124122   0.905   5.120   5.643
 7741SOL    HW224123   0.790   5.011   5.604
 7742SOL     OW24124   4.429   2.470   3.717
 7742SOL    HW124125   4.377   2.489   3.801
 7742SOL    HW224126   4.371   2.423   3.652
 7743SOL     OW24127   5.712   1.424   6.490
 7743SOL    HW124128   5.702   1.328   6.515
 7743SOL    HW224129   5.805   1.455   6.509
 7744SOL     OW24130   0.856   6.256   4.051
 7744SOL    HW124131   0.783   6.322   4.069
 7744SOL    HW224132   0.866   6.244   3.952
 7745SOL     OW24133   3.736   1.166   6.822
 7745SOL    HW124134   3.650   1.203   6.858
 7745SOL    HW224135   3.753   1.206   6.732
 7746SOL     OW24136   1.473   0.285   0.446
 7746SOL    HW124137   1.519   0.255   0.529
 7746SOL    HW224138   1.510   0.235   0.367
 7747SOL     OW24139   5.199   5.716   0.755
 7747SOL    HW124140   5.296   5.718   0.778
 7747SOL    HW224141   5.186   5.737   0.658
 7748SOL     OW24142   3.346   4.064   4.727
 7748SOL    HW124143   3.422   4.125   4.707
 7748SOL    HW224144   3.274   4.077   4.658
 7749SOL     OW24145   2.802   3.170   6.196
 7749SOL    HW124146   2.873   3.117   6.149
 7749SOL    HW224147   2.777   3.249   6.140
 7750SOL     OW24148   0.081   6.210   1.505
 7750SOL    HW124149   0.143   6.236   1.430
 7750SOL    HW224150   0.111   6.124   1.545
 7751SOL     OW24151   1.716   2.432   2.212
 7751SOL    HW124152   1.766   2.414   2.128
 7751SOL    HW224153   1.636   2.488   2.192
 7752SOL     OW24154   5.884   6.633   5.642
 7752SOL    HW124155   5.983   6.618   5.651
 7752SOL    HW224156   5.865   6.731   5.639
 7753SOL     OW24157   2.505   0.835   3.918
 7753SOL    HW124158   2.485   0.808   4.012
 7753SOL    HW224159   2.466   0.767   3.856
 7754SOL     OW24160   3.124   6.272   2.055
 7754SOL    HW124161   3.089   6.294   1.964
 7754SOL    HW224162   3.108   6.175   2.075
 7755SOL     OW24163   2.038   2.449   5.445
 7755SOL    HW124164   2.067   2.535   5.404
 7755SOL    HW224165   1.995   2.468   5.534
 7756SOL     OW24166   2.278   6.298   2.566
 7756SOL    HW124167   2.184   6.332   2.558
 7756SOL    HW224168   2.290   6.255   2.655
 7757SOL     OW24169   5.304   4.769   0.278
 7757SOL    HW124170   5.272   4.706   0.207
 7757SOL    HW224171   5.326   4.857   0.236
 7758SOL     OW24172   2.368   0.833   5.497
 7758SOL    HW124173   2.335   0.895   5.567
 7758SOL    HW224174   2.458   0.862   5.465
 7759SOL     OW24175   1.935   2.565   5.675
 7759SOL    HW124176   1.921   2.495   5.745
 7759SOL    HW224177   2.007   2.627   5.705
 7760SOL     OW24178   5.928   3.452   2.662
 7760SOL    HW124179   5.839   3.483   2.694
 7760SOL    HW224180   5.999   3.486   2.724
 7761SOL     OW24181   6.833   0.177   4.472
 7761SOL    HW124182   6.736   0.190   4.492
 7761SOL    HW224183   6.858   0.230   4.391
 7762SOL     OW24184   2.470   0.436   3.876
 7762SOL    HW124185   2.418   0.519   3.898
 7762SOL    HW224186   2.436   0.398   3.790
 7763SOL     OW24187   2.205   0.290   6.911
 7763SOL    HW124188   2.158   0.270   6.997
 7763SOL    HW224189   2.241   0.383   6.914
 7764SOL     OW24190   3.612   3.632   4.674
 7764SOL    HW124191   3.661   3.708   4.632
 7764SOL    HW224192   3.532   3.608   4.619
 7765SOL     OW24193   5.773   4.492   5.479
 7765SOL    HW124194   5.792   4.585   5.513
 7765SOL    HW224195   5.843   4.430   5.514
 7766SOL     OW24196   6.838   4.139   0.076
 7766SOL    HW124197   6.762   4.160   0.015
 7766SOL    HW224198   6.923   4.138   0.024
 7767SOL     OW24199   5.135   6.173   2.670
 7767SOL    HW124200   5.073   6.101   2.638
 7767SOL    HW224201   5.083   6.255   2.689
 7768SOL     OW24202   4.480   4.553   3.159
 7768SOL    HW124203   4.531   4.638   3.145
 7768SOL    HW224204   4.508   4.510   3.244
 7769SOL     OW24205   4.600   1.534   3.642
 7769SOL    HW124206   4.504   1.559   3.647
 7769SOL    HW224207   4.609   1.435   3.649
 7770SOL     OW24208   1.794   4.326   4.318
 7770SOL    HW124209   1.727   4.274   4.266
 7770SOL    HW224210   1.799   4.293   4.412
 7771SOL     OW24211   3.611   1.811   5.316
 7771SOL    HW124212   3.696   1.785   5.362
 7771SOL    HW224213   3.594   1.747   5.240
 7772SOL     OW24214   4.303   0.065   2.340
 7772SOL    HW124215   4.225   0.108   2.385
 7772SOL    HW224216   4.387   0.090   2.387
 7773SOL     OW24217   2.477   5.667   5.072
 7773SOL    HW124218   2.423   5.707   5.146
 7773SOL    HW224219   2.500   5.573   5.094
 7774SOL     OW24220   5.204   1.823   4.617
 7774SOL    HW124221   5.215   1.735   4.663
 7774SOL    HW224222   5.294   1.862   4.597
 7775SOL     OW24223   4.616   5.862   0.422
 7775SOL    HW124224   4.559   5.901   0.350
 7775SOL    HW224225   4.560   5.837   0.500
 7776SOL     OW24226   0.235   5.973   6.685
 7776SOL    HW124227   0.167   6.021   6.630
 7776SOL    HW224228   0.301   5.928   6.625
 7777SOL     OW24229   5.813   5.729   4.011
 7777SOL    HW124230   5.734   5.779   4.047
 7777SOL    HW224231   5.845   5.773   3.927
 7778SOL     OW24232   5.536   4.095   0.526
 7778SOL    HW124233   5.589   4.045   0.458
 7778SOL    HW224234   5.536   4.044   0.612
 7779SOL     OW24235   2.654   1.828   1.366
 7779SOL    HW124236   2.674   1.735   1.397
 7779SOL    HW224237   2.585   1.825   1.294
 7780SOL     OW24238   0.562   4.939   5.008
 7780SOL    HW124239   0.613   4.873   4.953
 7780SOL    HW224240   0.626   4.988   5.068
 7781SOL     OW24241   2.476   4.353   1.275
 7781SOL    HW124242   2.482   4.271   1.331
 7781SOL    HW224243   2.533   4.343   1.194
 7782SOL     OW24244   5.376   5.031   4.730
 7782SOL    HW124245   5.313   4.955   4.712
 7782SOL    HW224246   5.421   5.057   4.645
 7783SOL     OW24247   0.868   6.798   5.583
 7783SOL    HW124248   0.897   6.836   5.495
 7783SOL    HW224249   0.819   6.711   5.567
 7784SOL     OW24250   3.774   2.853   1.849
 7784SOL    HW124251   3.829   2.778   1.886
 7784SOL    HW224252   3.765   2.925   1.918
 7785SOL     OW24253   1.782   6.209   5.105
 7785SOL    HW124254   1.820   6.163   5.185
 7785SOL    HW224255   1.835   6.186   5.024
 7786SOL     OW24256   3.673   6.766   0.658
 7786SOL    HW124257   3.611   6.775   0.736
 7786SOL    HW224258   3.765   6.747   0.691
 7787SOL     OW24259   2.640   2.901   0.015
 7787SOL    HW124260   2.578   2.859   6.975
 7787SOL    HW224261   2.690   2.976   6.997
 7788SOL     OW24262   1.816   4.958   1.309
 7788SOL    HW124263   1.828   4.984   1.213
 7788SOL    HW224264   1.876   4.882   1.330
 7789SOL     OW24265   2.530   0.023   6.424
 7789SOL    HW124266   2.535   0.010   6.523
 7789SOL    HW224267   2.494   0.114   6.404
 7790SOL     OW24268   5.326   5.305   2.838
 7790SOL    HW124269   5.403   5.358   2.803
 7790SOL    HW224270   5.261   5.365   2.885
 7791SOL     OW24271   2.156   5.169   2.668
 7791SOL    HW124272   2.138   5.265   2.687
 7791SOL    HW224273   2.141   5.151   2.570
 7792SOL     OW24274   2.299   5.849   4.744
 7792SOL    HW124275   2.257   5.759   4.727
 7792SOL    HW224276   2.256   5.890   4.825
 7793SOL     OW24277   4.117   1.193   0.448
 7793SOL    HW124278   4.098   1.287   0.476
 7793SOL    HW224279   4.123   1.188   0.348
 7794SOL     OW24280   6.170   4.139   2.390
 7794SOL    HW124281   6.155   4.069   2.459
 7794SOL    HW224282   6.113   4.121   2.310
 7795SOL     OW24283   1.880   4.533   5.359
 7795SOL    HW124284   1.965   4.584   5.351
 7795SOL    HW224285   1.805   4.587   5.321
 7796SOL     OW24286   3.371   2.821   5.003
 7796SOL    HW124287   3.396   2.860   4.914
 7796SOL    HW224288   3.339   2.727   4.991
 7797SOL     OW24289   1.270   6.613   1.230
 7797SOL    HW124290   1.295   6.660   1.146
 7797SOL    HW224291   1.349   6.561   1.264
 7798SOL     OW24292   1.082   3.279   3.600
 7798SOL    HW124293   1.121   3.188   3.616
 7798SOL    HW224294   1.133   3.347   3.653
 7799SOL     OW24295   1.522   5.369   2.653
 7799SOL    HW124296   1.425   5.344   2.647
 7799SOL    HW224297   1.551   5.413   2.569
 7800SOL     OW24298   0.921   5.659   2.832
 7800SOL    HW124299   0.940   5.571   2.789
 7800SOL    HW224300   0.843   5.702   2.787
 7801SOL     OW24301   1.955   1.698   1.490
 7801SOL    HW124302   1.936   1.776   1.549
 7801SOL    HW224303   2.018   1.635   1.536
 7802SOL     OW24304   6.120   2.665   1.472
 7802SOL    HW124305   6.123   2.599   1.547
 7802SOL    HW224306   6.202   2.722   1.475
 7803SOL     OW24307   4.165   2.321   6.250
 7803SOL    HW124308   4.109   2.256   6.301
 7803SOL    HW224309   4.197   2.278   6.166
 7804SOL     OW24310   4.523   2.390   5.141
 7804SOL    HW124311   4.582   2.405   5.062
 7804SOL    HW224312   4.566   2.323   5.202
 7805SOL     OW24313   5.260   3.172   1.617
 7805SOL    HW124314   5.354   3.146   1.595
 7805SOL    HW224315   5.197   3.116   1.562
 7806SOL     OW24316   6.067   1.405   6.199
 7806SOL    HW124317   5.985   1.354   6.227
 7806SOL    HW224318   6.149   1.356   6.229
 7807SOL     OW24319   1.034   3.998   6.223
 7807SOL    HW124320   0.966   4.035   6.285
 7807SOL    HW224321   0.990   3.966   6.139
 7808SOL     OW24322   6.042   3.063   4.128
 7808SOL    HW124323   5.972   3.090   4.062
 7808SOL    HW224324   6.054   3.135   4.196
 7809SOL     OW24325   4.423   5.061   4.708
 7809SOL    HW124326   4.410   5.157   4.682
 7809SOL    HW224327   4.451   5.008   4.628
 7810SOL     OW24328   3.707   6.920   5.052
 7810SOL    HW124329   3.778   6.924   4.981
 7810SOL    HW224330   3.618   6.945   5.011
 7811SOL     OW24331   1.307   5.190   1.630
 7811SOL    HW124332   1.274   5.233   1.714
 7811SOL    HW224333   1.273   5.241   1.551
 7812SOL     OW24334   0.726   2.797   4.393
 7812SOL    HW124335   0.772   2.726   4.339
 7812SOL    HW224336   0.725   2.770   4.489
 7813SOL     OW24337   4.208   2.095   0.698
 7813SOL    HW124338   4.211   1.995   0.699
 7813SOL    HW224339   4.197   2.129   0.791
 7814SOL     OW24340   6.827   3.203   2.998
 7814SOL    HW124341   6.826   3.303   2.998
 7814SOL    HW224342   6.879   3.170   3.077
 7815SOL     OW24343   5.860   1.826   4.365
 7815SOL    HW124344   5.918   1.872   4.298
 7815SOL    HW224345   5.900   1.837   4.456
 7816SOL     OW24346   1.390   2.439   6.544
 7816SOL    HW124347   1.456   2.499   6.590
 7816SOL    HW224348   1.380   2.467   6.449
 7817SOL     OW24349   4.650   4.376   4.287
 7817SOL    HW124350   4.688   4.409   4.373
 7817SOL    HW224351   4.565   4.424   4.267
 7818SOL     OW24352   5.176   0.134   2.476
 7818SOL    HW124353   5.205   0.085   2.394
 7818SOL    HW224354   5.252   0.190   2.509
 7819SOL     OW24355   0.052   4.041   3.823
 7819SOL    HW124356   0.002   4.065   3.906
 7819SOL    HW224357   0.077   3.944   3.825
 7820SOL     OW24358   1.148   1.298   5.696
 7820SOL    HW124359   1.207   1.218   5.687
 7820SOL    HW224360   1.204   1.381   5.694
 7821SOL     OW24361   5.423   5.458   0.124
 7821SOL    HW124362   5.443   5.473   0.027
 7821SOL    HW224363   5.476   5.381   0.158
 7822SOL     OW24364   0.764   1.345   0.172
 7822SOL    HW124365   0.744   1.379   0.264
 7822SOL    HW224366   0.690   1.286   0.140
 7823SOL     OW24367   2.984   3.749   5.839
 7823SOL    HW124368   2.954   3.673   5.782
 7823SOL    HW224369   3.021   3.822   5.781
 7824SOL     OW24370   5.818   1.139   3.860
 7824SOL    HW124371   5.783   1.054   3.819
 7824SOL    HW224372   5.917   1.143   3.848
 7825SOL     OW24373   1.173   3.409   0.957
 7825SOL    HW124374   1.272   3.394   0.966
 7825SOL    HW224375   1.152   3.437   0.864
 7826SOL     OW24376   6.255   1.810   6.436
 7826SOL    HW124377   6.310   1.893   6.449
 7826SOL    HW224378   6.170   1.819   6.488
 7827SOL     OW24379   3.061   4.333   0.812
 7827SOL    HW124380   3.120   4.412   0.823
 7827SOL    HW224381   3.010   4.341   0.726
 7828SOL     OW24382   0.733   5.455   0.325
 7828SOL    HW124383   0.812   5.423   0.379
 7828SOL    HW224384   0.649   5.416   0.363
 7829SOL     OW24385   2.308   3.136   7.008
 7829SOL    HW124386   2.234   3.175   6.953
 7829SOL    HW224387   2.380   3.101   6.948
 7830SOL     OW24388   4.267   3.691   5.810
 7830SOL    HW124389   4.248   3.734   5.722
 7830SOL    HW224390   4.186   3.641   5.841
 7831SOL     OW24391   2.023   5.729   0.926
 7831SOL    HW124392   1.957   5.752   0.997
 7831SOL    HW224393   2.028   5.629   0.916
 7832SOL     OW24394   3.837   1.445   4.283
 7832SOL    HW124395   3.794   1.379   4.221
 7832SOL    HW224396   3.932   1.462   4.254
 7833SOL     OW24397   0.268   1.006   0.082
 7833SOL    HW124398   0.263   1.106   0.081
 7833SOL    HW224399   0.181   0.969   0.116
 7834SOL     OW24400   0.374   1.090   3.798
 7834SOL    HW124401   0.335   1.098   3.890
 7834SOL    HW224402   0.301   1.103   3.730
 7835SOL     OW24403   2.090   2.562   5.009
 7835SOL    HW124404   2.106   2.656   4.978
 7835SOL    HW224405   2.010   2.561   5.069
 7836SOL     OW24406   3.128   2.810   5.366
 7836SOL    HW124407   3.187   2.730   5.352
 7836SOL    HW224408   3.151   2.854   5.453
 7837SOL     OW24409   6.784   5.688   1.290
 7837SOL    HW124410   6.843   5.754   1.243
 7837SOL    HW224411   6.832   5.601   1.299
 7838SOL     OW24412   4.242   6.207   0.212
 7838SOL    HW124413   4.151   6.167   0.222
 7838SOL    HW224414   4.236   6.291   0.157
 7839SOL     OW24415   6.085   4.479   5.117
 7839SOL    HW124416   6.065   4.424   5.036
 7839SOL    HW224417   6.159   4.436   5.169
 7840SOL     OW24418   5.067   2.990   4.672
 7840SOL    HW124419   5.028   2.959   4.759
 7840SOL    HW224420   5.024   3.077   4.646
 7841SOL     OW24421   4.539   1.505   6.572
 7841SOL    HW124422   4.622   1.466   6.611
 7841SOL    HW224423   4.536   1.486   6.473
 7842SOL     OW24424   2.060   1.759   2.710
 7842SOL    HW124425   1.981   1.819   2.724
 7842SOL    HW224426   2.033   1.679   2.657
 7843SOL     OW24427   4.904   4.606   1.876
 7843SOL    HW124428   4.815   4.561   1.879
 7843SOL    HW224429   4.976   4.537   1.885
 7844SOL     OW24430   4.677   6.806   3.522
 7844SOL    HW124431   4.671   6.863   3.440
 7844SOL    HW224432   4.585   6.792   3.560
 7845SOL     OW24433   6.084   1.515   4.253
 7845SOL    HW124434   6.005   1.484   4.199
 7845SOL    HW224435   6.070   1.610   4.280
 7846SOL     OW24436   1.163   1.324   2.040
 7846SOL    HW124437   1.175   1.269   1.957
 7846SOL    HW224438   1.066   1.335   2.059
 7847SOL     OW24439   6.531   1.497   2.306
 7847SOL    HW124440   6.509   1.527   2.399
 7847SOL    HW224441   6.624   1.459   2.305
 7848SOL     OW24442   2.825   2.783   0.799
 7848SOL    HW124443   2.781   2.799   0.887
 7848SOL    HW224444   2.853   2.687   0.793
 7849SOL     OW24445   4.992   3.855   3.400
 7849SOL    HW124446   5.078   3.854   3.451
 7849SOL    HW224447   4.930   3.787   3.437
 7850SOL     OW24448   1.006   1.960   4.019
 7850SOL    HW124449   1.044   1.965   3.926
 7850SOL    HW224450   1.022   2.047   4.066
 7851SOL     OW24451   6.524   0.460   1.062
 7851SOL    HW124452   6.490   0.509   1.142
 7851SOL    HW224453   6.623   0.449   1.069
 7852SOL     OW24454   3.012   0.910   5.868
 7852SOL    HW124455   2.945   0.879   5.935
 7852SOL    HW224456   3.078   0.836   5.851
 7853SOL     OW24457   4.432   1.380   2.085
 7853SOL    HW124458   4.363   1.440   2.125
 7853SOL    HW224459   4.387   1.304   2.037
 7854SOL     OW24460   2.935   3.329   0.209
 7854SOL    HW124461   2.890   3.242   0.232
 7854SOL    HW224462   3.029   3.312   0.181
 7855SOL     OW24463   3.085   5.885   5.853
 7855SOL    HW124464   3.145   5.952   5.897
 7855SOL    HW224465   3.041   5.927   5.774
 7856SOL     OW24466   5.456   5.274   5.113
 7856SOL    HW124467   5.372   5.236   5.074
 7856SOL    HW224468   5.534   5.219   5.081
 7857SOL     OW24469   6.176   2.821   5.341
 7857SOL    HW124470   6.169   2.880   5.421
 7857SOL    HW224471   6.244   2.750   5.358
 7858SOL     OW24472   5.263   5.191   3.736
 7858SOL    HW124473   5.229   5.119   3.797
 7858SOL    HW224474   5.226   5.178   3.644
 7859SOL     OW24475   5.970   2.787   5.754
 7859SOL    HW124476   5.928   2.860   5.809
 7859SOL    HW224477   5.997   2.824   5.665
 7860SOL     OW24478   4.411   0.293   2.917
 7860SOL    HW124479   4.501   0.267   2.882
 7860SOL    HW224480   4.407   0.279   3.016
 7861SOL     OW24481   4.144   5.146   1.762
 7861SOL    HW124482   4.136   5.200   1.678
 7861SOL    HW224483   4.143   5.207   1.841
 7862SOL     OW24484   3.047   4.268   1.700
 7862SOL    HW124485   3.046   4.173   1.731
 7862SOL    HW224486   3.012   4.327   1.772
 7863SOL     OW24487   6.749   6.260   3.886
 7863SOL    HW124488   6.682   6.186   3.879
 7863SOL    HW224489   6.738   6.321   3.808
 7864SOL     OW24490   0.262   6.599   5.571
 7864SOL    HW124491   0.337   6.538   5.548
 7864SOL    HW224492   0.178   6.568   5.525
 7865SOL     OW24493   5.364   6.914   4.542
 7865SOL    HW124494   5.297   6.952   4.477
 7865SOL    HW224495   5.353   6.815   4.546
 7866SOL     OW24496   2.201   2.258   6.811
 7866SOL    HW124497   2.217   2.354   6.837
 7866SOL    HW224498   2.128   2.220   6.868
 7867SOL     OW24499   5.591   6.601   2.577
 7867SOL    HW124500   5.622   6.621   2.669
 7867SOL    HW224501   5.491   6.611   2.572
 7868SOL     OW24502   6.045   6.510   2.477
 7868SOL    HW124503   6.067   6.603   2.507
 7868SOL    HW224504   5.949   6.490   2.498
 7869SOL     OW24505   5.513   3.136   6.711
 7869SOL    HW124506   5.457   3.104   6.788
 7869SOL    HW224507   5.459   3.195   6.652
 7870SOL     OW24508   4.561   5.096   4.103
 7870SOL    HW124509   4.497   5.027   4.068
 7870SOL    HW224510   4.603   5.063   4.187
 7871SOL     OW24511   5.527   3.228   2.830
 7871SOL    HW124512   5.545   3.312   2.778
 7871SOL    HW224513   5.611   3.196   2.872
 7872SOL     OW24514   2.376   4.293   2.687
 7872SOL    HW124515   2.313   4.370   2.677
 7872SOL    HW224516   2.460   4.325   2.731
 7873SOL     OW24517   6.046   0.693   5.449
 7873SOL    HW124518   6.121   0.690   5.515
 7873SOL    HW224519   5.987   0.771   5.469
 7874SOL     OW24520   5.222   1.792   0.908
 7874SOL    HW124521   5.278   1.806   0.826
 7874SOL    HW224522   5.223   1.695   0.933
 7875SOL     OW24523   4.916   2.639   6.534
 7875SOL    HW124524   4.983   2.619   6.463
 7875SOL    HW224525   4.870   2.725   6.513
 7876SOL     OW24526   0.033   6.975   5.643
 7876SOL    HW124527   6.978   7.002   5.591
 7876SOL    HW224528   0.074   0.029   5.685
 7877SOL     OW24529   6.857   2.803   3.047
 7877SOL    HW124530   6.861   2.850   2.959
 7877SOL    HW224531   6.858   2.704   3.032
 7878SOL     OW24532   4.859   4.846   4.180
 7878SOL    HW124533   4.908   4.769   4.221
 7878SOL    HW224534   4.761   4.824   4.176
 7879SOL     OW24535   4.240   5.647   3.259
 7879SOL    HW124536   4.304   5.715   3.224
 7879SOL    HW224537   4.256   5.560   3.213
 7880SOL     OW24538   2.299   5.463   1.466
 7880SOL    HW124539   2.265   5.393   1.403
 7880SOL    HW224540   2.395   5.447   1.486
 7881SOL     OW24541   6.021   4.223   4.758
 7881SOL    HW124542   5.989   4.225   4.853
 7881SOL    HW224543   5.967   4.157   4.706
 7882SOL     OW24544   1.214   3.573   2.651
 7882SOL    HW124545   1.295   3.570   2.710
 7882SOL    HW224546   1.242   3.563   2.556
 7883SOL     OW24547   1.364   6.848   0.950
 7883SOL    HW124548   1.361   6.912   1.026
 7883SOL    HW224549   1.458   6.813   0.940
 7884SOL     OW24550   1.838   3.913   3.965
 7884SOL    HW124551   1.911   3.845   3.954
 7884SOL    HW224552   1.874   3.993   4.013
 7885SOL     OW24553   5.841   6.557   1.672
 7885SOL    HW124554   5.918   6.620   1.662
 7885SOL    HW224555   5.875   6.464   1.685
 7886SOL     OW24556   3.881   5.438   1.090
 7886SOL    HW124557   3.935   5.517   1.063
 7886SOL    HW224558   3.785   5.455   1.069
 7887SOL     OW24559   3.322   2.582   5.360
 7887SOL    HW124560   3.411   2.625   5.347
 7887SOL    HW224561   3.311   2.507   5.296
 7888SOL     OW24562   6.997   0.571   4.927
 7888SOL    HW124563   7.013   0.654   4.873
 7888SOL    HW224564   0.001   0.587   5.021
 7889SOL     OW24565   0.934   4.700   6.976
 7889SOL    HW124566   0.926   4.749   6.889
 7889SOL    HW224567   1.024   4.717   7.016
 7890SOL     OW24568   0.589   3.081   3.274
 7890SOL    HW124569   0.493   3.102   3.292
 7890SOL    HW224570   0.607   2.985   3.295
 7891SOL     OW24571   2.028   4.243   4.712
 7891SOL    HW124572   2.087   4.162   4.701
 7891SOL    HW224573   2.085   4.323   4.731
 7892SOL     OW24574   1.818   1.840   4.248
 7892SOL    HW124575   1.853   1.918   4.197
 7892SOL    HW224576   1.861   1.756   4.216
 7893SOL     OW24577   6.166   6.720   1.872
 7893SOL    HW124578   6.250   6.667   1.860
 7893SOL    HW224579   6.115   6.684   1.950
 7894SOL     OW24580   3.233   0.511   0.981
 7894SOL    HW124581   3.148   0.461   0.995
 7894SOL    HW224582   3.214   0.597   0.933
 7895SOL     OW24583   4.948   0.636   5.029
 7895SOL    HW124584   5.039   0.675   5.017
 7895SOL    HW224585   4.891   0.700   5.080
 7896SOL     OW24586   4.357   2.762   0.908
 7896SOL    HW124587   4.444   2.785   0.866
 7896SOL    HW224588   4.283   2.811   0.862
 7897SOL     OW24589   3.288   2.344   1.319
 7897SOL    HW124590   3.319   2.410   1.251
 7897SOL    HW224591   3.226   2.389   1.383
 7898SOL     OW24592   3.840   6.953   3.935
 7898SOL    HW124593   3.835   6.985   3.840
 7898SOL    HW224594   3.889   7.020   3.990
 7899SOL     OW24595   5.888   0.119   1.099
 7899SOL    HW124596   5.873   0.198   1.041
 7899SOL    HW224597   5.870   0.035   1.048
 7900SOL     OW24598   1.081   5.489   1.499
 7900SOL    HW124599   1.014   5.451   1.435
 7900SOL    HW224600   1.061   5.585   1.515
 7901SOL     OW24601   3.736   0.934   6.612
 7901SOL    HW124602   3.798   0.913   6.537
 7901SOL    HW224603   3.789   0.959   6.693
 7902SOL     OW24604   6.371   6.553   1.847
 7902SOL    HW124605   6.391   6.471   1.902
 7902SOL    HW224606   6.415   6.545   1.758
 7903SOL     OW24607   4.620   1.868   3.308
 7903SOL    HW124608   4.640   1.881   3.406
 7903SOL    HW224609   4.628   1.771   3.285
 7904SOL     OW24610   6.005   6.428   2.762
 7904SOL    HW124611   5.923   6.372   2.749
 7904SOL    HW224612   6.027   6.475   2.677
 7905SOL     OW24613   5.793   2.463   0.716
 7905SOL    HW124614   5.837   2.404   0.648
 7905SOL    HW224615   5.860   2.492   0.784
 7906SOL     OW24616   0.732   5.148   0.664
 7906SOL    HW124617   0.794   5.082   0.708
 7906SOL    HW224618   0.780   5.197   0.592
 7907SOL     OW24619   5.689   2.069   3.615
 7907SOL    HW124620   5.685   1.996   3.683
 7907SOL    HW224621   5.653   2.037   3.528
 7908SOL     OW24622   1.830   0.626   5.927
 7908SOL    HW124623   1.796   0.716   5.899
 7908SOL    HW224624   1.754   0.561   5.931
 7909SOL     OW24625   5.031   4.353   3.989
 7909SOL    HW124626   5.097   4.426   3.970
 7909SOL    HW224627   5.075   4.281   4.042
 7910SOL     OW24628   2.382   3.400   0.129
 7910SOL    HW124629   2.352   3.326   0.069
 7910SOL    HW224630   2.331   3.397   0.215
 7911SOL     OW24631   0.669   4.133   0.312
 7911SOL    HW124632   0.641   4.203   0.245
 7911SOL    HW224633   0.658   4.170   0.404
 7912SOL     OW24634   6.590   4.492   0.935
 7912SOL    HW124635   6.490   4.491   0.926
 7912SOL    HW224636   6.615   4.464   1.028
 7913SOL     OW24637   1.238   4.432   1.599
 7913SOL    HW124638   1.221   4.427   1.698
 7913SOL    HW224639   1.317   4.375   1.576
 7914SOL     OW24640   0.264   4.787   0.628
 7914SOL    HW124641   0.190   4.721   0.635
 7914SOL    HW224642   0.227   4.880   0.631
 7915SOL     OW24643   4.732   2.405   1.792
 7915SOL    HW124644   4.733   2.366   1.885
 7915SOL    HW224645   4.672   2.350   1.734
 7916SOL     OW24646   0.034   6.700   5.945
 7916SOL    HW124647   7.017   6.666   5.861
 7916SOL    HW224648   6.989   6.733   6.007
 7917SOL     OW24649   3.163   2.976   5.143
 7917SOL    HW124650   3.167   2.923   5.227
 7917SOL    HW224651   3.215   2.929   5.071
 7918SOL     OW24652   0.243   1.295   4.765
 7918SOL    HW124653   0.218   1.230   4.693
 7918SOL    HW224654   0.215   1.387   4.738
 7919SOL     OW24655   1.163   4.439   3.105
 7919SOL    HW124656   1.210   4.358   3.070
 7919SOL    HW224657   1.229   4.515   3.112
 7920SOL     OW24658   6.820   0.287   0.181
 7920SOL    HW124659   6.774   0.252   0.263
 7920SOL    HW224660   6.894   0.225   0.156
 7921SOL     OW24661   5.887   6.299   1.784
 7921SOL    HW124662   5.843   6.295   1.874
 7921SOL    HW224663   5.985   6.281   1.794
 7922SOL     OW24664   6.975   6.125   1.030
 7922SOL    HW124665   6.974   6.118   0.930
 7922SOL    HW224666   0.043   6.135   1.062
 7923SOL     OW24667   4.085   0.776   6.570
 7923SOL    HW124668   4.038   0.799   6.655
 7923SOL    HW224669   4.183   0.776   6.585
 7924SOL     OW24670   5.483   0.292   2.607
 7924SOL    HW124671   5.562   0.339   2.646
 7924SOL    HW224672   5.425   0.257   2.681
 7925SOL     OW24673   0.721   0.250   0.277
 7925SOL    HW124674   0.667   0.333   0.288
 7925SOL    HW224675   0.705   0.211   0.187
 7926SOL     OW24676   4.229   1.674   6.517
 7926SOL    HW124677   4.202   1.589   6.562
 7926SOL    HW224678   4.245   1.745   6.586
 7927SOL     OW24679   4.330   6.128   3.093
 7927SOL    HW124680   4.402   6.130   3.024
 7927SOL    HW224681   4.322   6.218   3.135
 7928SOL     OW24682   1.575   1.751   4.382
 7928SOL    HW124683   1.654   1.785   4.329
 7928SOL    HW224684   1.494   1.805   4.358
 7929SOL     OW24685   4.519   4.094   5.269
 7929SOL    HW124686   4.576   4.105   5.351
 7929SOL    HW224687   4.578   4.095   5.188
 7930SOL     OW24688   4.277   5.159   5.164
 7930SOL    HW124689   4.194   5.122   5.207
 7930SOL    HW224690   4.250   5.218   5.087
 7931SOL     OW24691   3.239   3.046   6.798
 7931SOL    HW124692   3.208   3.050   6.893
 7931SOL    HW224693   3.232   3.136   6.757
 7932SOL     OW24694   1.050   6.869   6.517
 7932SOL    HW124695   1.079   6.781   6.479
 7932SOL    HW224696   1.100   6.943   6.473
 7933SOL     OW24697   6.933   6.572   6.778
 7933SOL    HW124698   6.912   6.596   6.683
 7933SOL    HW224699   7.014   6.622   6.808
 7934SOL     OW24700   1.190   4.919   6.324
 7934SOL    HW124701   1.267   4.929   6.260
 7934SOL    HW224702   1.104   4.924   6.273
 7935SOL     OW24703   5.776   6.072   1.341
 7935SOL    HW124704   5.770   6.044   1.437
 7935SOL    HW224705   5.699   6.032   1.291
 7936SOL     OW24706   3.273   5.835   2.032
 7936SOL    HW124707   3.217   5.780   1.969
 7936SOL    HW224708   3.366   5.799   2.034
 7937SOL     OW24709   6.512   5.830   3.912
 7937SOL    HW124710   6.584   5.761   3.909
 7937SOL    HW224711   6.445   5.807   3.983
 7938SOL     OW24712   6.239   5.911   3.802
 7938SOL    HW124713   6.219   5.823   3.846
 7938SOL    HW224714   6.222   5.985   3.867
 7939SOL     OW24715   1.864   2.379   4.454
 7939SOL    HW124716   1.818   2.465   4.430
 7939SOL    HW224717   1.931   2.397   4.526
 7940SOL     OW24718   1.403   4.046   1.919
 7940SOL    HW124719   1.455   4.000   1.992
 7940SOL    HW224720   1.432   4.142   1.913
 7941SOL     OW24721   6.180   6.856   1.078
 7941SOL    HW124722   6.263   6.867   1.024
 7941SOL    HW224723   6.198   6.883   1.173
 7942SOL     OW24724   6.711   5.037   2.288
 7942SOL    HW124725   6.688   5.041   2.191
 7942SOL    HW224726   6.688   5.125   2.331
 7943SOL     OW24727   0.486   3.940   6.300
 7943SOL    HW124728   0.417   3.988   6.353
 7943SOL    HW224729   0.456   3.846   6.283
 7944SOL     OW24730   1.029   2.604   0.925
 7944SOL    HW124731   1.087   2.538   0.878
 7944SOL    HW224732   1.036   2.693   0.881
 7945SOL     OW24733   6.413   5.276   1.376
 7945SOL    HW124734   6.380   5.272   1.470
 7945SOL    HW224735   6.370   5.204   1.322
 7946SOL     OW24736   4.092   0.295   5.911
 7946SOL    HW124737   4.047   0.338   5.989
 7946SOL    HW224738   4.174   0.246   5.942
 7947SOL     OW24739   3.663   1.157   5.730
 7947SOL    HW124740   3.719   1.200   5.660
 7947SOL    HW224741   3.684   1.059   5.734
 7948SOL     OW24742   1.394   6.222   1.217
 7948SOL    HW124743   1.352   6.285   1.152
 7948SOL    HW224744   1.492   6.240   1.222
 7949SOL     OW24745   4.855   4.348   5.442
 7949SOL    HW124746   4.847   4.297   5.357
 7949SOL    HW224747   4.947   4.384   5.452
 7950SOL     OW24748   4.901   5.247   3.752
 7950SOL    HW124749   4.999   5.248   3.768
 7950SOL    HW224750   4.852   5.247   3.839
 7951SOL     OW24751   2.151   4.665   2.295
 7951SOL    HW124752   2.065   4.679   2.245
 7951SOL    HW224753   2.142   4.587   2.355
 7952SOL     OW24754   6.772   3.389   6.378
 7952SOL    HW124755   6.800   3.385   6.282
 7952SOL    HW224756   6.680   3.353   6.387
 7953SOL     OW24757   3.246   2.096   3.334
 7953SOL    HW124758   3.232   2.132   3.242
 7953SOL    HW224759   3.337   2.123   3.367
 7954SOL     OW24760   3.468   4.384   5.842
 7954SOL    HW124761   3.536   4.392   5.915
 7954SOL    HW224762   3.379   4.360   5.882
 7955SOL     OW24763   2.826   0.894   6.732
 7955SOL    HW124764   2.807   0.891   6.830
 7955SOL    HW224765   2.904   0.836   6.711
 7956SOL     OW24766   4.779   6.129   1.981
 7956SOL    HW124767   4.683   6.138   2.004
 7956SOL    HW224768   4.788   6.080   1.894
 7957SOL     OW24769   1.049   0.642   1.555
 7957SOL    HW124770   1.009   0.551   1.558
 7957SOL    HW224771   1.034   0.689   1.642
 7958SOL     OW24772   3.954   4.896   5.358
 7958SOL    HW124773   3.864   4.855   5.341
 7958SOL    HW224774   3.982   4.950   5.278
 7959SOL     OW24775   4.960   5.566   0.580
 7959SOL    HW124776   5.037   5.541   0.522
 7959SOL    HW224777   4.881   5.510   0.556
 7960SOL     OW24778   2.417   1.666   5.974
 7960SOL    HW124779   2.496   1.720   5.945
 7960SOL    HW224780   2.335   1.698   5.927
 7961SOL     OW24781   6.911   1.670   0.903
 7961SOL    HW124782   6.845   1.743   0.921
 7961SOL    HW224783   6.873   1.582   0.931
 7962SOL     OW24784   1.617   0.457   5.935
 7962SOL    HW124785   1.570   0.399   5.868
 7962SOL    HW224786   1.639   0.402   6.016
 7963SOL     OW24787   6.396   6.487   4.551
 7963SOL    HW124788   6.465   6.525   4.613
 7963SOL    HW224789   6.311   6.470   4.602
 7964SOL     OW24790   0.037   3.961   2.746
 7964SOL    HW124791   0.006   4.048   2.784
 7964SOL    HW224792   6.984   3.905   2.721
 7965SOL     OW24793   3.975   2.576   5.824
 7965SOL    HW124794   3.987   2.518   5.904
 7965SOL    HW224795   3.903   2.644   5.843
 7966SOL     OW24796   2.223   2.871   6.074
 7966SOL    HW124797   2.169   2.788   6.082
 7966SOL    HW224798   2.178   2.945   6.124
 7967SOL     OW24799   3.706   6.452   2.493
 7967SOL    HW124800   3.686   6.540   2.450
 7967SOL    HW224801   3.743   6.389   2.425
 7968SOL     OW24802   1.268   2.613   3.975
 7968SOL    HW124803   1.301   2.564   4.055
 7968SOL    HW224804   1.304   2.571   3.892
 7969SOL     OW24805   4.454   5.809   0.647
 7969SOL    HW124806   4.416   5.783   0.736
 7969SOL    HW224807   4.483   5.905   0.650
 7970SOL     OW24808   6.443   2.664   2.447
 7970SOL    HW124809   6.535   2.643   2.414
 7970SOL    HW224810   6.442   2.758   2.482
 7971SOL     OW24811   3.128   1.981   0.979
 7971SOL    HW124812   3.175   2.033   1.050
 7971SOL    HW224813   3.061   2.039   0.933
 7972SOL     OW24814   1.923   3.128   0.269
 7972SOL    HW124815   1.925   3.228   0.266
 7972SOL    HW224816   2.017   3.093   0.273
 7973SOL     OW24817   4.241   4.825   4.532
 7973SOL    HW124818   4.297   4.764   4.588
 7973SOL    HW224819   4.186   4.884   4.591
 7974SOL     OW24820   5.854   1.018   5.100
 7974SOL    HW124821   5.805   1.056   5.178
 7974SOL    HW224822   5.792   0.962   5.046
 7975SOL     OW24823   5.995   1.516   2.126
 7975SOL    HW124824   5.897   1.527   2.115
 7975SOL    HW224825   6.033   1.470   2.045
 7976SOL     OW24826   0.531   0.403   6.383
 7976SOL    HW124827   0.458   0.363   6.329
 7976SOL    HW224828   0.520   0.378   6.480
 7977SOL     OW24829   5.014   5.774   2.703
 7977SOL    HW124830   4.969   5.730   2.781
 7977SOL    HW224831   4.949   5.779   2.626
 7978SOL     OW24832   5.845   2.976   5.931
 7978SOL    HW124833   5.793   2.938   6.007
 7978SOL    HW224834   5.803   3.062   5.902
 7979SOL     OW24835   4.157   6.164   5.813
 7979SOL    HW124836   4.184   6.250   5.769
 7979SOL    HW224837   4.058   6.164   5.827
 7980SOL     OW24838   3.109   5.727   0.154
 7980SOL    HW124839   3.157   5.703   0.239
 7980SOL    HW224840   3.139   5.667   0.080
 7981SOL     OW24841   0.613   4.875   2.026
 7981SOL    HW124842   0.671   4.947   1.987
 7981SOL    HW224843   0.643   4.854   2.119
 7982SOL     OW24844   1.798   1.338   6.850
 7982SOL    HW124845   1.798   1.426   6.802
 7982SOL    HW224846   1.732   1.341   6.925
 7983SOL     OW24847   6.717   1.954   1.859
 7983SOL    HW124848   6.643   1.901   1.817
 7983SOL    HW224849   6.800   1.945   1.804
 7984SOL     OW24850   1.188   1.291   0.764
 7984SOL    HW124851   1.206   1.219   0.831
 7984SOL    HW224852   1.207   1.380   0.806
 7985SOL     OW24853   3.523   0.724   4.653
 7985SOL    HW124854   3.520   0.626   4.633
 7985SOL    HW224855   3.587   0.769   4.591
 7986SOL     OW24856   3.002   1.099   6.361
 7986SOL    HW124857   2.937   1.053   6.422
 7986SOL    HW224858   3.080   1.039   6.344
 7987SOL     OW24859   1.798   2.385   0.092
 7987SOL    HW124860   1.805   2.428   0.182
 7987SOL    HW224861   1.721   2.424   0.043
 7988SOL     OW24862   0.328   2.129   3.444
 7988SOL    HW124863   0.267   2.195   3.488
 7988SOL    HW224864   0.275   2.060   3.397
 7989SOL     OW24865   2.921   3.254   6.702
 7989SOL    HW124866   3.008   3.305   6.705
 7989SOL    HW224867   2.884   3.257   6.609
 7990SOL     OW24868   0.854   4.664   4.366
 7990SOL    HW124869   0.811   4.576   4.387
 7990SOL    HW224870   0.951   4.660   4.391
 7991SOL     OW24871   5.410   6.978   3.659
 7991SOL    HW124872   5.427   0.044   3.623
 7991SOL    HW224873   5.478   6.915   3.622
 7992SOL     OW24874   0.698   6.941   0.804
 7992SOL    HW124875   0.601   6.936   0.826
 7992SOL    HW224876   0.727   0.011   0.799
 7993SOL     OW24877   0.386   0.275   0.501
 7993SOL    HW124878   0.466   0.248   0.554
 7993SOL    HW224879   0.336   0.347   0.549
 7994SOL     OW24880   4.026   6.819   3.462
 7994SOL    HW124881   4.120   6.837   3.491
 7994SOL    HW224882   4.024   6.805   3.363
 7995SOL     OW24883   5.538   6.069   3.945
 7995SOL    HW124884   5.557   6.156   3.901
 7995SOL    HW224885   5.505   6.003   3.877
 7996SOL     OW24886   2.780   7.015   4.947
 7996SOL    HW124887   2.701   6.954   4.941
 7996SOL    HW224888   2.843   6.982   5.017
 7997SOL     OW24889   0.472   1.396   1.308
 7997SOL    HW124890   0.431   1.480   1.342
 7997SOL    HW224891   0.499   1.338   1.385
 7998SOL     OW24892   2.860   6.899   0.353
 7998SOL    HW124893   2.875   6.997   0.343
 7998SOL    HW224894   2.896   6.850   0.273
 7999SOL     OW24895   0.646   0.634   6.089
 7999SOL    HW124896   0.664   0.684   6.174
 7999SOL    HW224897   0.622   0.698   6.017
 8000SOL     OW24898   4.803   0.377   0.235
 8000SOL    HW124899   4.843   0.289   0.208
 8000SOL    HW224900   4.873   0.449   0.229
 8001SOL     OW24901   4.474   6.370   1.423
 8001SOL    HW124902   4.526   6.315   1.488
 8001SOL    HW224903   4.533   6.395   1.346
 8002SOL     OW24904   1.811   1.131   6.185
 8002SOL    HW124905   1.882   1.195   6.215
 8002SOL    HW224906   1.816   1.119   6.086
 8003SOL     OW24907   3.038   5.114   2.134
 8003SOL    HW124908   3.098   5.038   2.159
 8003SOL    HW224909   3.090   5.182   2.081
 8004SOL     OW24910   2.217   3.161   2.510
 8004SOL    HW124911   2.144   3.092   2.512
 8004SOL    HW224912   2.282   3.138   2.438
 8005SOL     OW24913   2.776   1.078   2.568
 8005SOL    HW124914   2.700   1.109   2.511
 8005SOL    HW224915   2.862   1.083   2.517
 8006SOL     OW24916   2.117   6.674   5.816
 8006SOL    HW124917   2.035   6.657   5.871
 8006SOL    HW224918   2.194   6.695   5.877
 8007SOL     OW24919   6.531   0.802   4.759
 8007SOL    HW124920   6.519   0.704   4.771
 8007SOL    HW224921   6.462   0.836   4.694
 8008SOL     OW24922   4.659   5.739   6.449
 8008SOL    HW124923   4.646   5.672   6.376
 8008SOL    HW224924   4.669   5.692   6.537
 8009SOL     OW24925   5.886   0.331   1.606
 8009SOL    HW124926   5.817   0.267   1.572
 8009SOL    HW224927   5.945   0.361   1.530
 8010SOL     OW24928   1.741   1.602   5.719
 8010SOL    HW124929   1.707   1.696   5.716
 8010SOL    HW224930   1.695   1.549   5.648
 8011SOL     OW24931   3.182   2.598   0.791
 8011SOL    HW124932   3.203   2.517   0.735
 8011SOL    HW224933   3.085   2.600   0.811
 8012SOL     OW24934   1.933   3.953   0.411
 8012SOL    HW124935   1.976   3.880   0.464
 8012SOL    HW224936   1.835   3.955   0.432
 8013SOL     OW24937   1.447   5.077   3.714
 8013SOL    HW124938   1.514   5.048   3.782
 8013SOL    HW224939   1.462   5.028   3.628
 8014SOL     OW24940   1.119   6.421   5.050
 8014SOL    HW124941   1.041   6.380   5.095
 8014SOL    HW224942   1.180   6.461   5.119
 8015SOL     OW24943   3.607   0.545   6.094
 8015SOL    HW124944   3.664   0.583   6.166
 8015SOL    HW224945   3.518   0.591   6.093
 8016SOL     OW24946   5.123   0.419   5.488
 8016SOL    HW124947   5.194   0.350   5.475
 8016SOL    HW224948   5.055   0.385   5.553
 8017SOL     OW24949   5.827   0.155   0.460
 8017SOL    HW124950   5.838   0.081   0.526
 8017SOL    HW224951   5.916   0.192   0.436
 8018SOL     OW24952   3.185   2.238   6.576
 8018SOL    HW124953   3.097   2.245   6.529
 8018SOL    HW224954   3.182   2.292   6.661
 8019SOL     OW24955   2.238   4.848   0.028
 8019SOL    HW124956   2.168   4.915   0.049
 8019SOL    HW224957   2.212   4.759   0.066
 8020SOL     OW24958   6.036   0.434   0.409
 8020SOL    HW124959   6.032   0.352   0.351
 8020SOL    HW224960   6.093   0.503   0.365
 8021SOL     OW24961   1.695   3.024   1.136
 8021SOL    HW124962   1.780   3.052   1.180
 8021SOL    HW224963   1.681   3.078   1.053
 8022SOL     OW24964   6.056   0.009   2.867
 8022SOL    HW124965   6.129   0.062   2.824
 8022SOL    HW224966   5.967   0.048   2.840
 8023SOL     OW24967   5.571   5.137   2.946
 8023SOL    HW124968   5.583   5.190   3.029
 8023SOL    HW224969   5.474   5.117   2.933
 8024SOL     OW24970   1.349   4.371   5.851
 8024SOL    HW124971   1.265   4.320   5.832
 8024SOL    HW224972   1.334   4.434   5.927
 8025SOL     OW24973   2.169   5.913   6.823
 8025SOL    HW124974   2.203   5.833   6.774
 8025SOL    HW224975   2.213   5.995   6.786
 8026SOL     OW24976   6.971   3.992   0.259
 8026SOL    HW124977   6.983   3.899   0.225
 8026SOL    HW224978   6.922   4.046   0.190
 8027SOL     OW24979   4.721   0.475   4.960
 8027SOL    HW124980   4.807   0.513   4.995
 8027SOL    HW224981   4.645   0.505   5.018
 8028SOL     OW24982   4.130   5.903   5.651
 8028SOL    HW124983   4.043   5.885   5.605
 8028SOL    HW224984   4.149   6.001   5.649
 8029SOL     OW24985   4.633   2.834   0.838
 8029SOL    HW124986   4.724   2.874   0.831
 8029SOL    HW224987   4.601   2.805   0.748
 8030SOL     OW24988   3.980   4.686   0.611
 8030SOL    HW124989   3.985   4.588   0.589
 8030SOL    HW224990   3.919   4.732   0.547
 8031SOL     OW24991   6.841   6.389   2.832
 8031SOL    HW124992   6.929   6.406   2.788
 8031SOL    HW224993   6.810   6.472   2.878
 8032SOL     OW24994   6.200   4.332   1.357
 8032SOL    HW124995   6.103   4.351   1.375
 8032SOL    HW224996   6.222   4.240   1.389
 8033SOL     OW24997   5.343   1.590   6.191
 8033SOL    HW124998   5.399   1.533   6.252
 8033SOL    HW224999   5.391   1.676   6.173
 8034SOL     OW25000   4.755   0.415   4.325
 8034SOL    HW125001   4.827   0.473   4.288
 8034SOL    HW225002   4.779   0.319   4.314
 8035SOL     OW25003   4.910   1.614   4.567
 8035SOL    HW125004   4.927   1.669   4.649
 8035SOL    HW225005   4.996   1.579   4.531
 8036SOL     OW25006   6.922   4.143   3.622
 8036SOL    HW125007   6.865   4.196   3.684
 8036SOL    HW225008   6.992   4.094   3.674
 8037SOL     OW25009   1.621   3.416   0.320
 8037SOL    HW125010   1.640   3.508   0.356
 8037SOL    HW225011   1.585   3.359   0.394
 8038SOL     OW25012   4.619   6.824   2.277
 8038SOL    HW125013   4.687   6.763   2.237
 8038SOL    HW225014   4.540   6.831   2.217
 8039SOL     OW25015   0.929   1.726   5.058
 8039SOL    HW125016   0.852   1.689   5.111
 8039SOL    HW225017   0.896   1.801   5.001
 8040SOL     OW25018   1.298   5.533   0.093
 8040SOL    HW125019   1.355   5.598   0.143
 8040SOL    HW225020   1.203   5.541   0.124
 8041SOL     OW25021   2.783   1.441   2.918
 8041SOL    HW125022   2.786   1.541   2.917
 8041SOL    HW225023   2.800   1.408   3.011
 8042SOL     OW25024   3.102   3.016   4.106
 8042SOL    HW125025   3.074   3.109   4.084
 8042SOL    HW225026   3.108   3.005   4.205
 8043SOL     OW25027   3.648   6.558   1.420
 8043SOL    HW125028   3.587   6.553   1.341
 8043SOL    HW225029   3.729   6.612   1.396
 8044SOL     OW25030   4.237   2.223   1.287
 8044SOL    HW125031   4.319   2.193   1.334
 8044SOL    HW225032   4.253   2.314   1.248
 8045SOL     OW25033   5.611   2.036   3.366
 8045SOL    HW125034   5.604   1.938   3.383
 8045SOL    HW225035   5.520   2.078   3.371
 8046SOL     OW25036   0.599   4.828   1.496
 8046SOL    HW125037   0.524   4.786   1.445
 8046SOL    HW225038   0.662   4.757   1.527
 8047SOL     OW25039   4.436   5.748   5.280
 8047SOL    HW125040   4.413   5.708   5.369
 8047SOL    HW225041   4.354   5.786   5.238
 8048SOL     OW25042   5.025   1.517   5.845
 8048SOL    HW125043   5.092   1.537   5.774
 8048SOL    HW225044   5.065   1.536   5.935
 8049SOL     OW25045   0.356   0.584   0.489
 8049SOL    HW125046   0.426   0.621   0.428
 8049SOL    HW225047   0.270   0.634   0.474
 8050SOL     OW25048   1.903   3.057   3.611
 8050SOL    HW125049   1.928   3.075   3.706
 8050SOL    HW225050   1.959   3.114   3.551
 8051SOL     OW25051   4.563   5.888   4.124
 8051SOL    HW125052   4.512   5.812   4.085
 8051SOL    HW225053   4.501   5.964   4.144
 8052SOL     OW25054   3.934   1.301   1.031
 8052SOL    HW125055   3.892   1.374   1.084
 8052SOL    HW225056   3.882   1.286   0.947
 8053SOL     OW25057   2.981   3.268   4.061
 8053SOL    HW125058   2.923   3.319   4.125
 8053SOL    HW225059   2.949   3.282   3.968
 8054SOL     OW25060   6.505   5.532   5.097
 8054SOL    HW125061   6.455   5.449   5.120
 8054SOL    HW225062   6.458   5.612   5.135
 8055SOL     OW25063   0.546   0.342   5.256
 8055SOL    HW125064   0.612   0.398   5.308
 8055SOL    HW225065   0.593   0.264   5.216
 8056SOL     OW25066   2.277   0.975   3.635
 8056SOL    HW125067   2.367   0.943   3.604
 8056SOL    HW225068   2.209   0.904   3.616
 8057SOL     OW25069   3.047   1.885   2.952
 8057SOL    HW125070   3.078   1.899   2.859
 8057SOL    HW225071   2.969   1.944   2.971
 8058SOL     OW25072   3.828   0.096   3.298
 8058SOL    HW125073   3.756   0.072   3.232
 8058SOL    HW225074   3.814   0.043   3.382
 8059SOL     OW25075   2.792   1.977   5.170
 8059SOL    HW125076   2.864   1.945   5.232
 8059SOL    HW225077   2.803   2.076   5.155
 8060SOL     OW25078   6.483   2.033   5.643
 8060SOL    HW125079   6.471   1.948   5.592
 8060SOL    HW225080   6.438   2.025   5.732
 8061SOL     OW25081   0.105   0.718   3.023
 8061SOL    HW125082   0.073   0.797   2.972
 8061SOL    HW225083   0.165   0.662   2.966
 8062SOL     OW25084   3.579   5.058   4.413
 8062SOL    HW125085   3.576   5.040   4.315
 8062SOL    HW225086   3.498   5.020   4.457
 8063SOL     OW25087   2.119   1.992   1.898
 8063SOL    HW125088   2.041   2.054   1.896
 8063SOL    HW225089   2.141   1.967   1.992
 8064SOL     OW25090   6.179   3.073   1.764
 8064SOL    HW125091   6.207   3.121   1.848
 8064SOL    HW225092   6.239   2.994   1.749
 8065SOL     OW25093   2.413   5.638   4.387
 8065SOL    HW125094   2.365   5.574   4.327
 8065SOL    HW225095   2.423   5.597   4.478
 8066SOL     OW25096   1.204   1.507   5.342
 8066SOL    HW125097   1.281   1.443   5.341
 8066SOL    HW225098   1.125   1.466   5.298
 8067SOL     OW25099   5.045   2.692   2.446
 8067SOL    HW125100   4.963   2.677   2.390
 8067SOL    HW225101   5.087   2.779   2.420
 8068SOL     OW25102   6.983   4.094   1.644
 8068SOL    HW125103   6.913   4.068   1.577
 8068SOL    HW225104   0.042   4.047   1.622
 8069SOL     OW25105   3.023   5.938   1.173
 8069SOL    HW125106   3.043   5.959   1.077
 8069SOL    HW225107   2.927   5.956   1.192
 8070SOL     OW25108   4.287   3.444   0.819
 8070SOL    HW125109   4.365   3.488   0.775
 8070SOL    HW225110   4.203   3.489   0.790
 8071SOL     OW25111   3.361   6.307   4.457
 8071SOL    HW125112   3.451   6.342   4.432
 8071SOL    HW225113   3.335   6.343   4.546
 8072SOL     OW25114   3.851   1.707   0.882
 8072SOL    HW125115   3.888   1.699   0.789
 8072SOL    HW225116   3.774   1.770   0.882
 8073SOL     OW25117   2.945   5.447   5.030
 8073SOL    HW125118   2.981   5.478   4.942
 8073SOL    HW225119   2.918   5.351   5.023
 8074SOL     OW25120   3.165   2.793   0.475
 8074SOL    HW125121   3.234   2.722   0.464
 8074SOL    HW225122   3.208   2.878   0.504
 8075SOL     OW25123   6.992   0.190   0.525
 8075SOL    HW125124   7.007   0.177   0.623
 8075SOL    HW225125   7.005   0.286   0.501
 8076SOL     OW25126   6.420   0.902   5.446
 8076SOL    HW125127   6.507   0.857   5.427
 8076SOL    HW225128   6.383   0.939   5.361
 8077SOL     OW25129   3.111   6.133   2.531
 8077SOL    HW125130   3.196   6.089   2.559
 8077SOL    HW225131   3.130   6.200   2.459
 8078SOL     OW25132   6.873   2.207   0.713
 8078SOL    HW125133   6.780   2.172   0.701
 8078SOL    HW225134   6.880   2.252   0.802
 8079SOL     OW25135   5.752   1.871   3.807
 8079SOL    HW125136   5.819   1.918   3.864
 8079SOL    HW225137   5.750   1.774   3.832
 8080SOL     OW25138   1.416   2.716   1.211
 8080SOL    HW125139   1.474   2.791   1.243
 8080SOL    HW225140   1.321   2.745   1.208
 8081SOL     OW25141   6.357   5.585   5.701
 8081SOL    HW125142   6.387   5.491   5.713
 8081SOL    HW225143   6.386   5.640   5.779
 8082SOL     OW25144   4.331   6.825   2.839
 8082SOL    HW125145   4.407   6.889   2.822
 8082SOL    HW225146   4.283   6.807   2.753
 8083SOL     OW25147   4.981   2.571   3.094
 8083SOL    HW125148   4.909   2.638   3.108
 8083SOL    HW225149   4.973   2.531   3.003
 8084SOL     OW25150   3.741   6.484   6.847
 8084SOL    HW125151   3.707   6.399   6.807
 8084SOL    HW225152   3.678   6.515   6.918
 8085SOL     OW25153   6.798   6.263   2.233
 8085SOL    HW125154   6.784   6.175   2.189
 8085SOL    HW225155   6.817   6.250   2.330
 8086SOL     OW25156   5.626   0.330   2.942
 8086SOL    HW125157   5.630   0.230   2.949
 8086SOL    HW225158   5.621   0.356   2.846
 8087SOL     OW25159   2.264   0.860   6.719
 8087SOL    HW125160   2.270   0.938   6.657
 8087SOL    HW225161   2.212   0.786   6.675
 8088SOL     OW25162   5.556   1.866   1.631
 8088SOL    HW125163   5.656   1.859   1.638
 8088SOL    HW225164   5.527   1.839   1.539
 8089SOL     OW25165   5.882   3.105   0.818
 8089SOL    HW125166   5.892   3.015   0.860
 8089SOL    HW225167   5.936   3.109   0.734
 8090SOL     OW25168   4.380   2.320   0.058
 8090SOL    HW125169   4.469   2.274   0.056
 8090SOL    HW225170   4.353   2.346   6.991
 8091SOL     OW25171   2.212   3.675   5.150
 8091SOL    HW125172   2.265   3.598   5.186
 8091SOL    HW225173   2.230   3.756   5.206
 8092SOL     OW25174   5.794   2.155   5.003
 8092SOL    HW125175   5.795   2.210   5.087
 8092SOL    HW225176   5.713   2.096   5.002
 8093SOL     OW25177   3.933   5.126   2.997
 8093SOL    HW125178   3.975   5.157   2.912
 8093SOL    HW225179   3.975   5.040   3.025
 8094SOL     OW25180   0.957   3.285   4.892
 8094SOL    HW125181   1.048   3.292   4.932
 8094SOL    HW225182   0.945   3.359   4.826
 8095SOL     OW25183   0.798   4.895   3.934
 8095SOL    HW125184   0.836   4.941   4.015
 8095SOL    HW225185   0.721   4.947   3.899
 8096SOL     OW25186   1.974   6.563   3.527
 8096SOL    HW125187   1.924   6.572   3.441
 8096SOL    HW225188   2.028   6.478   3.525
 8097SOL     OW25189   3.905   0.053   4.187
 8097SOL    HW125190   3.860   6.998   4.223
 8097SOL    HW225191   4.003   0.047   4.201
 8098SOL     OW25192   1.523   6.593   3.239
 8098SOL    HW125193   1.434   6.613   3.199
 8098SOL    HW225194   1.513   6.579   3.338
 8099SOL     OW25195   3.846   6.588   4.777
 8099SOL    HW125196   3.748   6.603   4.765
 8099SOL    HW225197   3.865   6.563   4.872
 8100SOL     OW25198   6.640   1.306   1.105
 8100SOL    HW125199   6.715   1.249   1.139
 8100SOL    HW225200   6.555   1.282   1.153
 8101SOL     OW25201   1.979   6.292   2.476
 8101SOL    HW125202   1.947   6.386   2.469
 8101SOL    HW225203   1.958   6.244   2.391
 8102SOL     OW25204   1.411   4.165   3.427
 8102SOL    HW125205   1.321   4.132   3.398
 8102SOL    HW225206   1.405   4.262   3.451
 8103SOL     OW25207   2.711   6.831   1.461
 8103SOL    HW125208   2.713   6.927   1.434
 8103SOL    HW225209   2.649   6.781   1.402
 8104SOL     OW25210   2.976   0.464   6.182
 8104SOL    HW125211   3.071   0.433   6.173
 8104SOL    HW225212   2.968   0.522   6.263
 8105SOL     OW25213   0.862   2.813   3.470
 8105SOL    HW125214   0.771   2.810   3.429
 8105SOL    HW225215   0.908   2.898   3.443
 8106SOL     OW25216   2.492   5.780   2.844
 8106SOL    HW125217   2.563   5.735   2.898
 8106SOL    HW225218   2.443   5.846   2.902
 8107SOL     OW25219   0.785   4.936   4.406
 8107SOL    HW125220   0.797   4.842   4.373
 8107SOL    HW225221   0.718   4.938   4.480
 8108SOL     OW25222   5.872   2.757   5.458
 8108SOL    HW125223   5.937   2.829   5.432
 8108SOL    HW225224   5.921   2.670   5.466
 8109SOL     OW25225   0.827   3.852   4.663
 8109SOL    HW125226   0.877   3.796   4.598
 8109SOL    HW225227   0.807   3.799   4.746
 8110SOL     OW25228   3.413   5.984   0.813
 8110SOL    HW125229   3.383   5.907   0.756
 8110SOL    HW225230   3.383   5.969   0.907
 8111SOL     OW25231   5.244   0.971   4.959
 8111SOL    HW125232   5.337   1.002   4.975
 8111SOL    HW225233   5.226   0.888   5.011
 8112SOL     OW25234   2.558   2.332   4.074
 8112SOL    HW125235   2.567   2.373   4.165
 8112SOL    HW225236   2.542   2.404   4.007
 8113SOL     OW25237   1.879   3.670   0.318
 8113SOL    HW125238   1.781   3.691   0.327
 8113SOL    HW225239   1.924   3.682   0.406
 8114SOL     OW25240   1.355   3.876   2.907
 8114SOL    HW125241   1.372   3.867   2.809
 8114SOL    HW225242   1.395   3.799   2.955
 8115SOL     OW25243   3.839   0.545   0.541
 8115SOL    HW125244   3.799   0.455   0.522
 8115SOL    HW225245   3.803   0.612   0.476
 8116SOL     OW25246   4.441   5.059   6.130
 8116SOL    HW125247   4.441   5.001   6.049
 8116SOL    HW225248   4.351   5.054   6.174
 8117SOL     OW25249   1.728   0.088   3.321
 8117SOL    HW125250   1.633   0.119   3.312
 8117SOL    HW225251   1.730   7.015   3.331
 8118SOL     OW25252   5.474   4.642   5.907
 8118SOL    HW125253   5.556   4.609   5.859
 8118SOL    HW225254   5.394   4.626   5.850
 8119SOL     OW25255   5.092   5.228   6.312
 8119SOL    HW125256   5.118   5.132   6.313
 8119SOL    HW225257   5.173   5.285   6.302
 8120SOL     OW25258   3.149   5.076   0.475
 8120SOL    HW125259   3.169   4.979   0.484
 8120SOL    HW225260   3.128   5.114   0.565
 8121SOL     OW25261   0.357   5.322   1.798
 8121SOL    HW125262   0.388   5.336   1.704
 8121SOL    HW225263   0.268   5.365   1.810
 8122SOL     OW25264   0.666   5.581   3.149
 8122SOL    HW125265   0.614   5.632   3.081
 8122SOL    HW225266   0.763   5.581   3.124
 8123SOL     OW25267   6.896   1.005   6.411
 8123SOL    HW125268   6.871   1.043   6.500
 8123SOL    HW225269   6.980   0.950   6.420
 8124SOL     OW25270   5.906   6.562   1.110
 8124SOL    HW125271   5.895   6.487   1.174
 8124SOL    HW225272   5.968   6.536   1.036
 8125SOL     OW25273   1.628   1.272   3.371
 8125SOL    HW125274   1.689   1.194   3.361
 8125SOL    HW225275   1.658   1.346   3.311
 8126SOL     OW25276   4.888   4.553   2.615
 8126SOL    HW125277   4.936   4.472   2.646
 8126SOL    HW225278   4.797   4.528   2.582
 8127SOL     OW25279   2.434   4.572   6.419
 8127SOL    HW125280   2.341   4.568   6.382
 8127SOL    HW225281   2.486   4.492   6.388
 8128SOL     OW25282   2.553   1.288   1.589
 8128SOL    HW125283   2.538   1.373   1.639
 8128SOL    HW225284   2.524   1.210   1.645
 8129SOL     OW25285   4.384   0.804   6.523
 8129SOL    HW125286   4.402   0.819   6.620
 8129SOL    HW225287   4.416   0.883   6.471
 8130SOL     OW25288   6.998   3.248   6.183
 8130SOL    HW125289   0.046   3.248   6.250
 8130SOL    HW225290   6.945   3.164   6.192
 8131SOL     OW25291   3.366   2.016   0.800
 8131SOL    HW125292   3.385   2.113   0.790
 8131SOL    HW225293   3.277   2.004   0.845
 8132SOL     OW25294   5.985   6.645   6.173
 8132SOL    HW125295   5.997   6.607   6.082
 8132SOL    HW225296   6.026   6.736   6.177
 8133SOL     OW25297   3.164   4.856   1.379
 8133SOL    HW125298   3.238   4.923   1.391
 8133SOL    HW225299   3.136   4.855   1.283
 8134SOL     OW25300   6.488   2.632   5.629
 8134SOL    HW125301   6.466   2.637   5.532
 8134SOL    HW225302   6.421   2.575   5.676
 8135SOL     OW25303   2.804   6.360   1.619
 8135SOL    HW125304   2.843   6.362   1.527
 8135SOL    HW225305   2.876   6.379   1.686
 8136SOL     OW25306   4.554   5.278   3.279
 8136SOL    HW125307   4.556   5.276   3.379
 8136SOL    HW225308   4.621   5.345   3.246
 8137SOL     OW25309   2.955   2.129   5.445
 8137SOL    HW125310   3.022   2.197   5.415
 8137SOL    HW225311   2.977   2.100   5.539
 8138SOL     OW25312   5.711   1.491   6.870
 8138SOL    HW125313   5.788   1.471   6.810
 8138SOL    HW225314   5.734   1.464   6.964
 8139SOL     OW25315   6.799   1.492   2.609
 8139SOL    HW125316   6.877   1.495   2.671
 8139SOL    HW225317   6.765   1.398   2.601
 8140SOL     OW25318   4.881   0.632   1.093
 8140SOL    HW125319   4.922   0.681   1.016
 8140SOL    HW225320   4.932   0.650   1.176
 8141SOL     OW25321   4.850   6.332   4.933
 8141SOL    HW125322   4.852   6.263   4.861
 8141SOL    HW225323   4.901   6.297   5.012
 8142SOL     OW25324   1.136   5.192   6.844
 8142SOL    HW125325   1.218   5.163   6.894
 8142SOL    HW225326   1.130   5.292   6.846
 8143SOL     OW25327   6.577   4.197   1.371
 8143SOL    HW125328   6.667   4.232   1.398
 8143SOL    HW225329   6.589   4.118   1.311
 8144SOL     OW25330   6.411   6.666   6.462
 8144SOL    HW125331   6.432   6.674   6.365
 8144SOL    HW225332   6.477   6.606   6.506
 8145SOL     OW25333   5.640   5.675   1.426
 8145SOL    HW125334   5.570   5.740   1.458
 8145SOL    HW225335   5.700   5.650   1.501
 8146SOL     OW25336   5.012   0.704   4.762
 8146SOL    HW125337   4.997   0.664   4.671
 8146SOL    HW225338   4.968   0.647   4.831
 8147SOL     OW25339   6.292   1.819   1.200
 8147SOL    HW125340   6.207   1.845   1.245
 8147SOL    HW225341   6.307   1.879   1.121
 8148SOL     OW25342   5.020   4.202   0.802
 8148SOL    HW125343   4.963   4.120   0.798
 8148SOL    HW225344   4.994   4.257   0.882
 8149SOL     OW25345   3.180   6.288   2.326
 8149SOL    HW125346   3.160   6.260   2.232
 8149SOL    HW225347   3.177   6.387   2.333
 8150SOL     OW25348   2.091   4.228   1.014
 8150SOL    HW125349   2.132   4.151   1.063
 8150SOL    HW225350   2.084   4.205   0.917
 8151SOL     OW25351   5.729   2.895   1.662
 8151SOL    HW125352   5.733   2.806   1.615
 8151SOL    HW225353   5.714   2.881   1.759
 8152SOL     OW25354   6.789   2.165   2.582
 8152SOL    HW125355   6.777   2.067   2.566
 8152SOL    HW225356   6.703   2.204   2.611
 8153SOL     OW25357   2.024   6.767   3.981
 8153SOL    HW125358   2.045   6.863   3.965
 8153SOL    HW225359   2.059   6.739   4.070
 8154SOL     OW25360   3.388   5.138   1.933
 8154SOL    HW125361   3.472   5.188   1.909
 8154SOL    HW225362   3.410   5.064   1.996
 8155SOL     OW25363   1.551   3.987   2.170
 8155SOL    HW125364   1.617   4.040   2.116
 8155SOL    HW225365   1.563   3.889   2.150
 8156SOL     OW25366   5.552   0.078   0.732
 8156SOL    HW125367   5.608   0.025   0.795
 8156SOL    HW225368   5.544   0.172   0.764
 8157SOL     OW25369   6.812   5.417   6.427
 8157SOL    HW125370   6.782   5.469   6.507
 8157SOL    HW225371   6.884   5.467   6.379
 8158SOL     OW25372   4.660   5.292   0.664
 8158SOL    HW125373   4.688   5.266   0.756
 8158SOL    HW225374   4.568   5.332   0.666
 8159SOL     OW25375   2.796   5.870   2.656
 8159SOL    HW125376   2.725   5.815   2.612
 8159SOL    HW225377   2.793   5.857   2.755
 8160SOL     OW25378   5.424   0.762   3.825
 8160SOL    HW125379   5.362   0.684   3.826
 8160SOL    HW225380   5.372   0.846   3.839
 8161SOL     OW25381   5.773   1.685   6.160
 8161SOL    HW125382   5.787   1.587   6.174
 8161SOL    HW225383   5.678   1.709   6.180
 8162SOL     OW25384   5.595   6.371   6.026
 8162SOL    HW125385   5.610   6.301   5.956
 8162SOL    HW225386   5.518   6.428   5.999
 8163SOL     OW25387   2.531   4.181   5.359
 8163SOL    HW125388   2.621   4.194   5.318
 8163SOL    HW225389   2.491   4.095   5.327
 8164SOL     OW25390   5.417   2.952   0.635
 8164SOL    HW125391   5.466   2.893   0.700
 8164SOL    HW225392   5.421   2.911   0.544
 8165SOL     OW25393   0.823   3.037   6.437
 8165SOL    HW125394   0.823   3.080   6.528
 8165SOL    HW225395   0.809   2.939   6.447
 8166SOL     OW25396   1.470   0.310   2.919
 8166SOL    HW125397   1.474   0.226   2.972
 8166SOL    HW225398   1.374   0.341   2.913
 8167SOL     OW25399   6.380   0.011   4.689
 8167SOL    HW125400   6.338   0.072   4.622
 8167SOL    HW225401   6.334   0.020   4.777
 8168SOL     OW25402   2.172   1.565   3.597
 8168SOL    HW125403   2.080   1.605   3.596
 8168SOL    HW225404   2.167   1.469   3.622
 8169SOL     OW25405   5.155   2.114   0.816
 8169SOL    HW125406   5.138   2.030   0.869
 8169SOL    HW225407   5.244   2.106   0.771
 8170SOL     OW25408   1.212   4.989   2.653
 8170SOL    HW125409   1.230   4.931   2.574
 8170SOL    HW225410   1.296   4.999   2.707
 8171SOL     OW25411   1.475   1.798   6.477
 8171SOL    HW125412   1.444   1.710   6.440
 8171SOL    HW225413   1.533   1.843   6.409
 8172SOL     OW25414   0.939   2.037   2.130
 8172SOL    HW125415   0.881   2.104   2.083
 8172SOL    HW225416   1.020   2.083   2.167
 8173SOL     OW25417   5.132   0.685   2.053
 8173SOL    HW125418   5.138   0.782   2.027
 8173SOL    HW225419   5.082   0.635   1.982
 8174SOL     OW25420   6.031   3.277   0.975
 8174SOL    HW125421   5.985   3.236   1.053
 8174SOL    HW225422   5.985   3.251   0.891
 8175SOL     OW25423   0.028   2.325   5.649
 8175SOL    HW125424   6.958   2.326   5.622
 8175SOL    HW225425   0.069   2.238   5.621
 8176SOL     OW25426   2.870   5.004   1.911
 8176SOL    HW125427   2.925   5.056   1.976
 8176SOL    HW225428   2.787   5.056   1.888
 8177SOL     OW25429   2.898   6.342   3.795
 8177SOL    HW125430   2.903   6.337   3.895
 8177SOL    HW225431   2.988   6.366   3.759
 8178SOL     OW25432   2.747   5.836   6.628
 8178SOL    HW125433   2.760   5.929   6.595
 8178SOL    HW225434   2.818   5.813   6.694
 8179SOL     OW25435   4.866   2.144   5.506
 8179SOL    HW125436   4.821   2.066   5.463
 8179SOL    HW225437   4.805   2.184   5.574
 8180SOL     OW25438   6.541   0.284   4.829
 8180SOL    HW125439   6.462   0.294   4.890
 8180SOL    HW225440   6.617   0.338   4.864
 8181SOL     OW25441   1.736   1.345   0.967
 8181SOL    HW125442   1.653   1.380   0.924
 8181SOL    HW225443   1.812   1.408   0.951
 8182SOL     OW25444   4.455   3.277   6.105
 8182SOL    HW125445   4.400   3.221   6.167
 8182SOL    HW225446   4.396   3.341   6.056
 8183SOL     OW25447   7.005   2.605   4.519
 8183SOL    HW125448   7.017   2.549   4.437
 8183SOL    HW225449   6.936   2.676   4.501
 8184SOL     OW25450   5.488   1.622   5.886
 8184SOL    HW125451   5.443   1.624   5.975
 8184SOL    HW225452   5.587   1.629   5.898
 8185SOL     OW25453   2.261   6.530   0.451
 8185SOL    HW125454   2.326   6.519   0.376
 8185SOL    HW225455   2.217   6.620   0.445
 8186SOL     OW25456   3.885   5.853   5.528
 8186SOL    HW125457   3.869   5.815   5.619
 8186SOL    HW225458   3.850   5.946   5.524
 8187SOL     OW25459   1.527   2.437   5.488
 8187SOL    HW125460   1.522   2.512   5.421
 8187SOL    HW225461   1.473   2.360   5.455
 8188SOL     OW25462   5.511   3.062   2.589
 8188SOL    HW125463   5.534   3.111   2.673
 8188SOL    HW225464   5.419   3.024   2.596
 8189SOL     OW25465   4.610   4.497   2.824
 8189SOL    HW125466   4.639   4.415   2.774
 8189SOL    HW225467   4.512   4.492   2.843
 8190SOL     OW25468   3.844   5.298   3.730
 8190SOL    HW125469   3.771   5.264   3.671
 8190SOL    HW225470   3.904   5.223   3.757
 8191SOL     OW25471   3.365   6.547   2.349
 8191SOL    HW125472   3.422   6.522   2.271
 8191SOL    HW225473   3.276   6.579   2.316
 8192SOL     OW25474   3.697   5.304   0.764
 8192SOL    HW125475   3.794   5.320   0.781
 8192SOL    HW225476   3.643   5.344   0.839
 8193SOL     OW25477   0.123   6.593   4.560
 8193SOL    HW125478   0.177   6.521   4.515
 8193SOL    HW225479   0.092   6.658   4.491
 8194SOL     OW25480   5.957   2.500   0.978
 8194SOL    HW125481   5.986   2.541   1.064
 8194SOL    HW225482   5.876   2.444   0.994
 8195SOL     OW25483   1.111   0.025   1.519
 8195SOL    HW125484   1.120   0.008   1.617
 8195SOL    HW225485   1.022   7.019   1.487
 8196SOL     OW25486   3.732   6.612   6.176
 8196SOL    HW125487   3.763   6.652   6.089
 8196SOL    HW225488   3.694   6.684   6.234
 8197SOL     OW25489   4.285   1.362   6.512
 8197SOL    HW125490   4.361   1.362   6.577
 8197SOL    HW225491   4.321   1.356   6.419
 8198SOL     OW25492   3.523   6.588   3.524
 8198SOL    HW125493   3.496   6.684   3.511
 8198SOL    HW225494   3.600   6.567   3.464
 8199SOL     OW25495   6.085   2.934   6.087
 8199SOL    HW125496   6.000   2.940   6.035
 8199SOL    HW225497   6.090   3.010   6.151
 8200SOL     OW25498   4.690   3.887   1.579
 8200SOL    HW125499   4.704   3.973   1.628
 8200SOL    HW225500   4.620   3.901   1.508
 8201SOL     OW25501   5.846   0.423   4.126
 8201SOL    HW125502   5.891   0.352   4.180
 8201SOL    HW225503   5.787   0.381   4.058
 8202SOL     OW25504   0.205   5.676   4.673
 8202SOL    HW125505   0.135   5.693   4.604
 8202SOL    HW225506   0.295   5.674   4.630
 8203SOL     OW25507   4.443   2.487   0.792
 8203SOL    HW125508   4.372   2.451   0.851
 8203SOL    HW225509   4.493   2.560   0.839
 8204SOL     OW25510   2.728   5.640   0.128
 8204SOL    HW125511   2.826   5.638   0.109
 8204SOL    HW225512   2.710   5.601   0.218
 8205SOL     OW25513   0.563   4.521   0.848
 8205SOL    HW125514   0.550   4.600   0.788
 8205SOL    HW225515   0.489   4.455   0.833
 8206SOL     OW25516   4.673   2.479   5.880
 8206SOL    HW125517   4.669   2.569   5.836
 8206SOL    HW225518   4.596   2.470   5.943
 8207SOL     OW25519   3.644   4.205   5.493
 8207SOL    HW125520   3.620   4.242   5.404
 8207SOL    HW225521   3.743   4.192   5.499
 8208SOL     OW25522   1.619   7.001   1.472
 8208SOL    HW125523   1.601   6.905   1.453
 8208SOL    HW225524   1.717   7.016   1.483
 8209SOL     OW25525   1.081   1.389   5.955
 8209SOL    HW125526   1.088   1.351   5.862
 8209SOL    HW225527   1.002   1.349   6.001
 8210SOL     OW25528   2.594   1.068   1.116
 8210SOL    HW125529   2.594   0.988   1.176
 8210SOL    HW225530   2.629   1.147   1.166
 8211SOL     OW25531   3.879   3.959   3.087
 8211SOL    HW125532   3.832   4.046   3.095
 8211SOL    HW225533   3.815   3.884   3.104
 8212SOL     OW25534   3.157   1.629   0.871
 8212SOL    HW125535   3.150   1.596   0.965
 8212SOL    HW225536   3.077   1.686   0.850
 8213SOL     OW25537   5.485   4.868   2.280
 8213SOL    HW125538   5.548   4.897   2.352
 8213SOL    HW225539   5.432   4.789   2.312
 8214SOL     OW25540   0.818   5.328   4.202
 8214SOL    HW125541   0.863   5.407   4.161
 8214SOL    HW225542   0.776   5.355   4.289
 8215SOL     OW25543   3.128   5.818   6.570
 8215SOL    HW125544   3.055   5.757   6.600
 8215SOL    HW225545   3.202   5.816   6.637
 8216SOL     OW25546   5.098   6.311   3.358
 8216SOL    HW125547   5.197   6.307   3.342
 8216SOL    HW225548   5.081   6.336   3.454
 8217SOL     OW25549   2.113   3.818   2.440
 8217SOL    HW125550   2.015   3.838   2.442
 8217SOL    HW225551   2.130   3.740   2.381
 8218SOL     OW25552   1.127   6.730   4.856
 8218SOL    HW125553   1.209   6.778   4.888
 8218SOL    HW225554   1.151   6.667   4.783
 8219SOL     OW25555   3.979   3.066   1.433
 8219SOL    HW125556   3.976   3.003   1.510
 8219SOL    HW225557   4.014   3.019   1.353
 8220SOL     OW25558   3.074   3.837   4.907
 8220SOL    HW125559   3.102   3.932   4.925
 8220SOL    HW225560   3.155   3.781   4.891
 8221SOL     OW25561   6.461   5.322   3.282
 8221SOL    HW125562   6.506   5.407   3.254
 8221SOL    HW225563   6.370   5.343   3.317
 8222SOL     OW25564   4.841   2.117   1.551
 8222SOL    HW125565   4.800   2.035   1.593
 8222SOL    HW225566   4.804   2.129   1.459
 8223SOL     OW25567   0.686   4.399   5.240
 8223SOL    HW125568   0.776   4.375   5.202
 8223SOL    HW225569   0.654   4.484   5.199
 8224SOL     OW25570   5.510   2.734   1.974
 8224SOL    HW125571   5.466   2.785   1.900
 8224SOL    HW225572   5.597   2.776   1.997
 8225SOL     OW25573   3.780   1.420   1.581
 8225SOL    HW125574   3.695   1.456   1.619
 8225SOL    HW225575   3.781   1.433   1.482
 8226SOL     OW25576   3.195   0.319   0.372
 8226SOL    HW125577   3.241   0.407   0.384
 8226SOL    HW225578   3.251   0.247   0.413
 8227SOL     OW25579   6.956   1.653   2.427
 8227SOL    HW125580   6.944   1.638   2.329
 8227SOL    HW225581   6.901   1.586   2.478
 8228SOL     OW25582   0.856   1.775   5.966
 8228SOL    HW125583   0.809   1.694   6.001
 8228SOL    HW225584   0.808   1.808   5.884
 8229SOL     OW25585   3.628   4.258   1.052
 8229SOL    HW125586   3.555   4.249   0.985
 8229SOL    HW225587   3.592   4.294   1.137
 8230SOL     OW25588   3.847   0.344   5.513
 8230SOL    HW125589   3.814   0.436   5.491
 8230SOL    HW225590   3.941   0.333   5.482
 8231SOL     OW25591   3.275   2.359   1.659
 8231SOL    HW125592   3.354   2.308   1.696
 8231SOL    HW225593   3.308   2.437   1.606
 8232SOL     OW25594   5.537   1.882   2.080
 8232SOL    HW125595   5.496   1.853   2.167
 8232SOL    HW225596   5.605   1.953   2.097
 8233SOL     OW25597   1.368   6.949   6.557
 8233SOL    HW125598   1.408   0.004   6.600
 8233SOL    HW225599   1.291   6.976   6.500
 8234SOL     OW25600   2.993   4.204   7.022
 8234SOL    HW125601   3.004   4.107   0.020
 8234SOL    HW225602   2.914   4.241   0.044
 8235SOL     OW25603   7.024   3.422   6.662
 8235SOL    HW125604   0.080   3.364   6.661
 8235SOL    HW225605   7.020   3.472   6.749
 8236SOL     OW25606   6.670   4.906   6.740
 8236SOL    HW125607   6.736   4.873   6.806
 8236SOL    HW225608   6.659   5.005   6.749
 8237SOL     OW25609   4.928   6.108   6.107
 8237SOL    HW125610   5.019   6.110   6.150
 8237SOL    HW225611   4.903   6.013   6.089
 8238SOL     OW25612   0.673   5.926   6.942
 8238SOL    HW125613   0.622   5.987   7.003
 8238SOL    HW225614   0.608   5.872   6.887
 8239SOL     OW25615   1.275   0.932   5.060
 8239SOL    HW125616   1.247   1.026   5.044
 8239SOL    HW225617   1.282   0.883   4.972
 8240SOL     OW25618   2.982   3.862   3.085
 8240SOL    HW125619   3.052   3.930   3.102
 8240SOL    HW225620   2.931   3.844   3.169
 8241SOL     OW25621   2.740   5.037   5.780
 8241SOL    HW125622   2.831   5.073   5.795
 8241SOL    HW225623   2.672   5.096   5.825
 8242SOL     OW25624   0.750   3.704   4.876
 8242SOL    HW125625   0.696   3.624   4.899
 8242SOL    HW225626   0.699   3.787   4.899
 8243SOL     OW25627   0.022   3.637   0.941
 8243SOL    HW125628   0.076   3.701   0.997
 8243SOL    HW225629   7.006   3.569   1.001
 8244SOL     OW25630   0.832   0.013   4.051
 8244SOL    HW125631   0.896   0.013   4.127
 8244SOL    HW225632   0.870   0.065   3.975
 8245SOL     OW25633   3.970   2.007   2.735
 8245SOL    HW125634   3.930   2.044   2.819
 8245SOL    HW225635   4.052   2.060   2.711
 8246SOL     OW25636   0.261   4.467   6.826
 8246SOL    HW125637   0.202   4.492   6.902
 8246SOL    HW225638   0.239   4.522   6.746
 8247SOL     OW25639   2.101   6.081   3.198
 8247SOL    HW125640   2.200   6.090   3.207
 8247SOL    HW225641   2.059   6.076   3.289
 8248SOL     OW25642   0.628   4.711   4.578
 8248SOL    HW125643   0.569   4.653   4.633
 8248SOL    HW225644   0.722   4.676   4.581
 8249SOL     OW25645   2.410   1.394   5.894
 8249SOL    HW125646   2.402   1.492   5.911
 8249SOL    HW225647   2.485   1.357   5.948
 8250SOL     OW25648   2.821   2.084   1.219
 8250SOL    HW125649   2.835   1.985   1.221
 8250SOL    HW225650   2.858   2.125   1.303
 8251SOL     OW25651   5.215   1.619   4.810
 8251SOL    HW125652   5.290   1.652   4.868
 8251SOL    HW225653   5.193   1.525   4.835
 8252SOL     OW25654   4.146   1.672   6.901
 8252SOL    HW125655   4.079   1.668   6.976
 8252SOL    HW225656   4.187   1.763   6.899
 8253SOL     OW25657   3.737   6.030   6.699
 8253SOL    HW125658   3.644   5.995   6.701
 8253SOL    HW225659   3.785   5.992   6.620
 8254SOL     OW25660   4.649   4.535   5.367
 8254SOL    HW125661   4.716   4.462   5.385
 8254SOL    HW225662   4.557   4.501   5.388
 8255SOL     OW25663   1.112   0.092   5.452
 8255SOL    HW125664   1.076   0.076   5.544
 8255SOL    HW225665   1.203   0.134   5.459
 8256SOL     OW25666   0.132   6.409   3.067
 8256SOL    HW125667   0.161   6.450   3.153
 8256SOL    HW225668   0.056   6.346   3.083
 8257SOL     OW25669   5.347   3.996   3.810
 8257SOL    HW125670   5.381   3.904   3.833
 8257SOL    HW225671   5.393   4.030   3.728
 8258SOL     OW25672   4.750   2.819   1.794
 8258SOL    HW125673   4.695   2.902   1.809
 8258SOL    HW225674   4.809   2.803   1.873
 8259SOL     OW25675   3.762   2.140   5.500
 8259SOL    HW125676   3.732   2.151   5.405
 8259SOL    HW225677   3.690   2.097   5.554
 8260SOL     OW25678   1.765   6.587   1.774
 8260SOL    HW125679   1.795   6.648   1.701
 8260SOL    HW225680   1.819   6.503   1.772
 8261SOL     OW25681   5.252   6.459   2.957
 8261SOL    HW125682   5.165   6.418   2.932
 8261SOL    HW225683   5.241   6.558   2.965
 8262SOL     OW25684   0.934   4.955   0.688
 8262SOL    HW125685   0.945   4.925   0.594
 8262SOL    HW225686   1.017   4.935   0.740
 8263SOL     OW25687   6.983   3.088   6.519
 8263SOL    HW125688   6.922   3.139   6.580
 8263SOL    HW225689   0.031   3.147   6.488
 8264SOL     OW25690   0.825   6.397   1.337
 8264SOL    HW125691   0.889   6.468   1.365
 8264SOL    HW225692   0.780   6.425   1.252
 8265SOL     OW25693   5.372   0.364   2.348
 8265SOL    HW125694   5.423   0.318   2.275
 8265SOL    HW225695   5.402   0.328   2.436
 8266SOL     OW25696   2.439   0.943   4.569
 8266SOL    HW125697   2.416   0.849   4.544
 8266SOL    HW225698   2.523   0.971   4.521
 8267SOL     OW25699   1.427   4.584   2.011
 8267SOL    HW125700   1.422   4.683   2.016
 8267SOL    HW225701   1.346   4.544   2.055
 8268SOL     OW25702   3.260   5.838   6.287
 8268SOL    HW125703   3.222   5.765   6.229
 8268SOL    HW225704   3.228   5.826   6.380
 8269SOL     OW25705   4.639   2.626   3.041
 8269SOL    HW125706   4.620   2.603   3.136
 8269SOL    HW225707   4.703   2.703   3.038
 8270SOL     OW25708   2.845   5.886   5.153
 8270SOL    HW125709   2.840   5.811   5.087
 8270SOL    HW225710   2.841   5.849   5.245
 8271SOL     OW25711   6.657   6.425   3.421
 8271SOL    HW125712   6.562   6.457   3.425
 8271SOL    HW225713   6.695   6.445   3.330
 8272SOL     OW25714   6.173   1.139   2.513
 8272SOL    HW125715   6.105   1.116   2.443
 8272SOL    HW225716   6.253   1.181   2.469
 8273SOL     OW25717   3.079   0.836   0.313
 8273SOL    HW125718   3.049   0.858   0.220
 8273SOL    HW225719   3.074   0.737   0.326
 8274SOL     OW25720   4.073   5.193   5.625
 8274SOL    HW125721   4.037   5.103   5.650
 8274SOL    HW225722   4.156   5.181   5.570
 8275SOL     OW25723   6.026   0.632   3.857
 8275SOL    HW125724   6.093   0.646   3.784
 8275SOL    HW225725   6.006   0.534   3.866
 8276SOL     OW25726   0.247   2.152   5.568
 8276SOL    HW125727   0.282   2.244   5.550
 8276SOL    HW225728   0.247   2.135   5.666
 8277SOL     OW25729   1.072   5.931   5.588
 8277SOL    HW125730   1.053   6.017   5.636
 8277SOL    HW225731   1.065   5.855   5.652
 8278SOL     OW25732   3.229   1.746   6.856
 8278SOL    HW125733   3.162   1.724   6.927
 8278SOL    HW225734   3.188   1.730   6.766
 8279SOL     OW25735   6.584   5.892   5.131
 8279SOL    HW125736   6.624   5.956   5.066
 8279SOL    HW225737   6.487   5.880   5.111
 8280SOL     OW25738   3.621   2.570   0.555
 8280SOL    HW125739   3.695   2.635   0.535
 8280SOL    HW225740   3.550   2.616   0.609
 8281SOL     OW25741   2.323   4.446   2.013
 8281SOL    HW125742   2.285   4.513   1.949
 8281SOL    HW225743   2.340   4.360   1.965
 8282SOL     OW25744   2.992   3.905   0.038
 8282SOL    HW125745   3.004   3.864   6.974
 8282SOL    HW225746   3.007   3.835   0.109
 8283SOL     OW25747   1.447   4.565   4.230
 8283SOL    HW125748   1.420   4.661   4.225
 8283SOL    HW225749   1.479   4.544   4.322
 8284SOL     OW25750   1.726   4.151   2.040
 8284SOL    HW125751   1.795   4.081   2.022
 8284SOL    HW225752   1.770   4.232   2.079
 8285SOL     OW25753   4.324   3.503   5.562
 8285SOL    HW125754   4.266   3.575   5.599
 8285SOL    HW225755   4.368   3.535   5.478
 8286SOL     OW25756   5.457   1.823   4.811
 8286SOL    HW125757   5.519   1.811   4.733
 8286SOL    HW225758   5.404   1.906   4.798
 8287SOL     OW25759   0.884   5.052   4.143
 8287SOL    HW125760   0.872   5.151   4.136
 8287SOL    HW225761   0.822   5.016   4.213
 8288SOL     OW25762   1.436   2.435   2.847
 8288SOL    HW125763   1.468   2.518   2.801
 8288SOL    HW225764   1.346   2.409   2.812
 8289SOL     OW25765   6.022   0.203   6.768
 8289SOL    HW125766   6.078   0.166   6.842
 8289SOL    HW225767   6.032   0.302   6.765
 8290SOL     OW25768   4.904   1.846   1.490
 8290SOL    HW125769   4.852   1.788   1.426
 8290SOL    HW225770   4.946   1.921   1.439
 8291SOL     OW25771   5.936   5.838   6.428
 8291SOL    HW125772   6.002   5.763   6.423
 8291SOL    HW225773   5.846   5.801   6.452
 8292SOL     OW25774   2.497   5.462   6.784
 8292SOL    HW125775   2.561   5.395   6.745
 8292SOL    HW225776   2.533   5.495   6.871
 8293SOL     OW25777   1.609   4.621   1.413
 8293SOL    HW125778   1.601   4.708   1.364
 8293SOL    HW225779   1.622   4.638   1.510
 8294SOL     OW25780   6.276   3.574   4.549
 8294SOL    HW125781   6.345   3.502   4.548
 8294SOL    HW225782   6.314   3.656   4.589
 8295SOL     OW25783   4.839   3.374   3.238
 8295SOL    HW125784   4.834   3.367   3.338
 8295SOL    HW225785   4.823   3.469   3.210
 8296SOL     OW25786   3.237   5.661   0.393
 8296SOL    HW125787   3.271   5.741   0.442
 8296SOL    HW225788   3.311   5.596   0.378
 8297SOL     OW25789   6.605   3.190   2.360
 8297SOL    HW125790   6.581   3.104   2.404
 8297SOL    HW225791   6.695   3.220   2.392
 8298SOL     OW25792   6.769   0.621   0.784
 8298SOL    HW125793   6.866   0.642   0.767
 8298SOL    HW225794   6.761   0.528   0.818
 8299SOL     OW25795   0.396   2.983   1.454
 8299SOL    HW125796   0.317   2.922   1.463
 8299SOL    HW225797   0.375   3.053   1.386
 8300SOL     OW25798   6.927   7.023   4.681
 8300SOL    HW125799   6.943   0.055   4.760
 8300SOL    HW225800   6.900   0.053   4.603
 8301SOL     OW25801   4.611   0.749   0.116
 8301SOL    HW125802   4.655   0.838   0.127
 8301SOL    HW225803   4.648   0.686   0.184
 8302SOL     OW25804   5.003   6.945   5.569
 8302SOL    HW125805   4.908   6.975   5.574
 8302SOL    HW225806   5.022   6.912   5.477
 8303SOL     OW25807   6.958   0.388   3.299
 8303SOL    HW125808   0.010   0.403   3.238
 8303SOL    HW225809   6.874   0.383   3.244
 8304SOL     OW25810   5.352   4.866   1.840
 8304SOL    HW125811   5.354   4.949   1.895
 8304SOL    HW225812   5.442   4.852   1.799
 8305SOL     OW25813   4.230   4.734   4.283
 8305SOL    HW125814   4.218   4.757   4.380
 8305SOL    HW225815   4.141   4.734   4.238
 8306SOL     OW25816   6.375   1.083   3.421
 8306SOL    HW125817   6.365   0.994   3.466
 8306SOL    HW225818   6.361   1.071   3.322
 8307SOL     OW25819   3.659   5.478   1.652
 8307SOL    HW125820   3.713   5.481   1.567
 8307SOL    HW225821   3.618   5.567   1.669
 8308SOL     OW25822   2.157   5.363   0.610
 8308SOL    HW125823   2.176   5.276   0.564
 8308SOL    HW225824   2.106   5.423   0.548
 8309SOL     OW25825   6.093   5.245   2.926
 8309SOL    HW125826   6.183   5.215   2.959
 8309SOL    HW225827   6.029   5.169   2.929
 8310SOL     OW25828   1.663   5.192   0.589
 8310SOL    HW125829   1.673   5.152   0.680
 8310SOL    HW225830   1.615   5.280   0.596
 8311SOL     OW25831   6.064   0.700   4.396
 8311SOL    HW125832   6.105   0.689   4.305
 8311SOL    HW225833   6.011   0.785   4.399
 8312SOL     OW25834   5.173   1.174   6.701
 8312SOL    HW125835   5.246   1.147   6.639
 8312SOL    HW225836   5.113   1.240   6.656
 8313SOL     OW25837   5.404   0.471   5.885
 8313SOL    HW125838   5.420   0.566   5.911
 8313SOL    HW225839   5.470   0.444   5.815
 8314SOL     OW25840   6.173   6.822   6.529
 8314SOL    HW125841   6.080   6.793   6.506
 8314SOL    HW225842   6.237   6.747   6.508
 8315SOL     OW25843   3.924   3.128   2.795
 8315SOL    HW125844   3.917   3.212   2.849
 8315SOL    HW225845   3.898   3.050   2.852
 8316SOL     OW25846   1.977   3.380   1.156
 8316SOL    HW125847   1.944   3.310   1.220
 8316SOL    HW225848   2.064   3.416   1.189
 8317SOL     OW25849   1.775   1.816   3.088
 8317SOL    HW125850   1.836   1.884   3.048
 8317SOL    HW225851   1.815   1.781   3.173
 8318SOL     OW25852   4.201   1.702   5.994
 8318SOL    HW125853   4.187   1.665   6.086
 8318SOL    HW225854   4.185   1.631   5.926
 8319SOL     OW25855   1.255   0.292   0.656
 8319SOL    HW125856   1.299   0.263   0.572
 8319SOL    HW225857   1.178   0.231   0.676
 8320SOL     OW25858   3.291   3.905   3.414
 8320SOL    HW125859   3.389   3.923   3.420
 8320SOL    HW225860   3.267   3.878   3.321
 8321SOL     OW25861   6.960   6.934   6.929
 8321SOL    HW125862   6.983   7.009   6.991
 8321SOL    HW225863   6.877   6.956   6.879
 8322SOL     OW25864   6.677   1.817   0.921
 8322SOL    HW125865   6.630   1.745   0.870
 8322SOL    HW225866   6.662   1.905   0.876
 8323SOL     OW25867   3.812   4.629   1.447
 8323SOL    HW125868   3.788   4.667   1.536
 8323SOL    HW225869   3.908   4.645   1.429
 8324SOL     OW25870   5.270   0.609   0.547
 8324SOL    HW125871   5.326   0.662   0.483
 8324SOL    HW225872   5.198   0.667   0.585
 8325SOL     OW25873   0.562   3.840   5.260
 8325SOL    HW125874   0.650   3.887   5.267
 8325SOL    HW225875   0.518   3.865   5.174
 8326SOL     OW25876   4.496   4.023   6.478
 8326SOL    HW125877   4.564   4.028   6.405
 8326SOL    HW225878   4.486   3.928   6.508
 8327SOL     OW25879   0.914   0.683   5.664
 8327SOL    HW125880   0.853   0.606   5.685
 8327SOL    HW225881   0.964   0.709   5.747
 8328SOL     OW25882   2.655   6.433   6.562
 8328SOL    HW125883   2.559   6.408   6.550
 8328SOL    HW225884   2.706   6.407   6.479
 8329SOL     OW25885   0.278   2.273   5.246
 8329SOL    HW125886   0.345   2.209   5.283
 8329SOL    HW225887   0.298   2.290   5.149
 8330SOL     OW25888   3.453   1.426   6.722
 8330SOL    HW125889   3.537   1.409   6.671
 8330SOL    HW225890   3.425   1.521   6.708
 8331SOL     OW25891   3.595   0.872   0.544
 8331SOL    HW125892   3.521   0.858   0.479
 8331SOL    HW225893   3.682   0.882   0.495
 8332SOL     OW25894   5.701   5.524   1.949
 8332SOL    HW125895   5.784   5.475   1.922
 8332SOL    HW225896   5.647   5.466   2.010
 8333SOL     OW25897   1.452   4.408   6.566
 8333SOL    HW125898   1.517   4.351   6.617
 8333SOL    HW225899   1.360   4.395   6.603
 8334SOL     OW25900   3.103   2.213   6.042
 8334SOL    HW125901   3.057   2.265   5.970
 8334SOL    HW225902   3.195   2.249   6.057
 8335SOL     OW25903   3.867   1.882   6.998
 8335SOL    HW125904   3.936   1.954   7.009
 8335SOL    HW225905   3.894   1.801   0.023
 8336SOL     OW25906   0.563   3.763   3.062
 8336SOL    HW125907   0.582   3.695   2.991
 8336SOL    HW225908   0.642   3.823   3.073
 8337SOL     OW25909   0.319   0.030   4.281
 8337SOL    HW125910   0.321   0.001   4.185
 8337SOL    HW225911   0.362   6.987   4.338
 8338SOL     OW25912   3.824   5.445   1.433
 8338SOL    HW125913   3.849   5.521   1.375
 8338SOL    HW225914   3.757   5.387   1.386
 8339SOL     OW25915   0.001   0.986   1.773
 8339SOL    HW125916   0.020   1.077   1.812
 8339SOL    HW225917   0.023   0.916   1.840
 8340SOL     OW25918   5.189   3.709   1.052
 8340SOL    HW125919   5.208   3.771   1.128
 8340SOL    HW225920   5.091   3.704   1.036
 8341SOL     OW25921   3.772   0.329   6.906
 8341SOL    HW125922   3.739   0.276   6.985
 8341SOL    HW225923   3.817   0.267   6.842
 8342SOL     OW25924   4.081   6.509   0.191
 8342SOL    HW125925   3.992   6.529   0.149
 8342SOL    HW225926   4.067   6.482   0.287
 8343SOL     OW25927   6.802   5.435   3.390
 8343SOL    HW125928   6.824   5.357   3.332
 8343SOL    HW225929   6.798   5.406   3.485
 8344SOL     OW25930   6.719   4.980   4.695
 8344SOL    HW125931   6.629   4.954   4.731
 8344SOL    HW225932   6.732   4.938   4.606
 8345SOL     OW25933   4.206   2.240   3.428
 8345SOL    HW125934   4.243   2.302   3.359
 8345SOL    HW225935   4.190   2.150   3.387
 8346SOL     OW25936   4.039   4.475   6.866
 8346SOL    HW125937   3.951   4.441   6.832
 8346SOL    HW225938   4.024   4.534   6.945
 8347SOL     OW25939   3.263   6.459   5.889
 8347SOL    HW125940   3.271   6.360   5.873
 8347SOL    HW225941   3.310   6.483   5.974
 8348SOL     OW25942   2.134   1.048   1.484
 8348SOL    HW125943   2.058   1.112   1.491
 8348SOL    HW225944   2.220   1.098   1.471
 8349SOL     OW25945   1.059   6.604   2.332
 8349SOL    HW125946   1.103   6.676   2.278
 8349SOL    HW225947   1.083   6.515   2.294
 8350SOL     OW25948   3.075   6.592   6.399
 8350SOL    HW125949   3.112   6.518   6.344
 8350SOL    HW225950   3.009   6.556   6.465
 8351SOL     OW25951   5.450   5.474   4.852
 8351SOL    HW125952   5.384   5.512   4.787
 8351SOL    HW225953   5.409   5.396   4.900
 8352SOL     OW25954   1.233   6.778   3.162
 8352SOL    HW125955   1.187   6.859   3.125
 8352SOL    HW225956   1.284   6.732   3.089
 8353SOL     OW25957   0.888   3.285   0.788
 8353SOL    HW125958   0.806   3.241   0.751
 8353SOL    HW225959   0.968   3.257   0.735
 8354SOL     OW25960   3.382   7.010   4.290
 8354SOL    HW125961   3.363   0.039   4.208
 8354SOL    HW225962   3.416   6.920   4.262
 8355SOL     OW25963   1.831   1.337   4.458
 8355SOL    HW125964   1.870   1.428   4.469
 8355SOL    HW225965   1.757   1.324   4.524
 8356SOL     OW25966   1.385   5.950   1.145
 8356SOL    HW125967   1.396   6.044   1.176
 8356SOL    HW225968   1.408   5.943   1.048
 8357SOL     OW25969   3.620   7.019   5.794
 8357SOL    HW125970   3.553   0.045   5.847
 8357SOL    HW225971   3.703   0.049   5.781
 8358SOL     OW25972   0.977   3.258   4.477
 8358SOL    HW125973   1.054   3.201   4.507
 8358SOL    HW225974   0.913   3.203   4.425
 8359SOL     OW25975   2.852   1.580   5.078
 8359SOL    HW125976   2.828   1.667   5.034
 8359SOL    HW225977   2.891   1.598   5.168
 8360SOL     OW25978   4.696   6.950   0.880
 8360SOL    HW125979   4.775   6.981   0.828
 8360SOL    HW225980   4.618   7.010   0.861
 8361SOL     OW25981   3.502   0.696   0.734
 8361SOL    HW125982   3.566   0.698   0.811
 8361SOL    HW225983   3.531   0.762   0.665
 8362SOL     OW25984   5.385   2.178   0.597
 8362SOL    HW125985   5.415   2.262   0.643
 8362SOL    HW225986   5.314   2.200   0.531
 8363SOL     OW25987   5.044   2.350   0.085
 8363SOL    HW125988   5.133   2.362   0.128
 8363SOL    HW225989   4.973   2.347   0.156
 8364SOL     OW25990   6.929   2.600   4.087
 8364SOL    HW125991   6.897   2.689   4.056
 8364SOL    HW225992   6.851   2.545   4.118
 8365SOL     OW25993   1.885   2.069   2.443
 8365SOL    HW125994   1.941   2.150   2.462
 8365SOL    HW225995   1.864   2.022   2.529
 8366SOL     OW25996   3.017   5.258   1.233
 8366SOL    HW125997   3.000   5.166   1.197
 8366SOL    HW225998   2.993   5.326   1.164
 8367SOL     OW25999   3.534   5.647   5.129
 8367SOL    HW126000   3.584   5.730   5.104
 8367SOL    HW226001   3.436   5.661   5.112
 8368SOL     OW26002   0.893   6.078   0.071
 8368SOL    HW126003   0.950   6.024   0.010
 8368SOL    HW226004   0.874   6.167   0.030
 8369SOL     OW26005   0.858   0.806   6.705
 8369SOL    HW126006   0.940   0.828   6.757
 8369SOL    HW226007   0.838   0.708   6.714
 8370SOL     OW26008   2.214   1.175   6.231
 8370SOL    HW126009   2.182   1.178   6.136
 8370SOL    HW226010   2.225   1.080   6.259
 8371SOL     OW26011   2.630   3.841   0.685
 8371SOL    HW126012   2.690   3.884   0.752
 8371SOL    HW226013   2.673   3.758   0.650
 8372SOL     OW26014   1.449   5.926   1.879
 8372SOL    HW126015   1.507   5.991   1.927
 8372SOL    HW226016   1.359   5.967   1.861
 8373SOL     OW26017   1.872   6.801   4.384
 8373SOL    HW126018   1.805   6.745   4.432
 8373SOL    HW226019   1.849   6.803   4.286
 8374SOL     OW26020   0.365   0.095   4.704
 8374SOL    HW126021   0.354   0.194   4.699
 8374SOL    HW226022   0.291   0.050   4.655
 8375SOL     OW26023   3.973   6.566   5.787
 8375SOL    HW126024   4.012   6.536   5.874
 8375SOL    HW226025   3.895   6.626   5.805
 8376SOL     OW26026   1.418   1.296   3.876
 8376SOL    HW126027   1.511   1.288   3.840
 8376SOL    HW226028   1.379   1.205   3.888
 8377SOL     OW26029   5.919   6.209   0.144
 8377SOL    HW126030   5.884   6.278   0.207
 8377SOL    HW226031   5.955   6.132   0.195
 8378SOL     OW26032   3.647   4.925   3.231
 8378SOL    HW126033   3.624   4.939   3.327
 8378SOL    HW226034   3.564   4.934   3.175
 8379SOL     OW26035   4.886   3.124   1.813
 8379SOL    HW126036   4.827   3.152   1.737
 8379SOL    HW226037   4.838   3.057   1.869
 8380SOL     OW26038   0.126   0.077   0.287
 8380SOL    HW126039   0.070   0.095   0.368
 8380SOL    HW226040   0.207   0.135   0.289
 8381SOL     OW26041   0.053   1.925   3.788
 8381SOL    HW126042   0.028   1.964   3.699
 8381SOL    HW226043   0.051   1.996   3.858
 8382SOL     OW26044   2.144   6.677   1.730
 8382SOL    HW126045   2.115   6.592   1.774
 8382SOL    HW226046   2.240   6.669   1.702
 8383SOL     OW26047   3.066   0.020   5.854
 8383SOL    HW126048   3.017   0.086   5.910
 8383SOL    HW226049   3.136   0.068   5.800
 8384SOL     OW26050   6.029   1.673   1.687
 8384SOL    HW126051   6.070   1.594   1.733
 8384SOL    HW226052   6.099   1.717   1.629
 8385SOL     OW26053   4.290   2.436   6.864
 8385SOL    HW126054   4.365   2.397   6.811
 8385SOL    HW226055   4.233   2.493   6.803
 8386SOL     OW26056   2.080   6.279   1.592
 8386SOL    HW126057   2.039   6.320   1.510
 8386SOL    HW226058   2.139   6.203   1.565
 8387SOL     OW26059   1.307   1.831   1.283
 8387SOL    HW126060   1.404   1.836   1.307
 8387SOL    HW226061   1.253   1.878   1.353
 8388SOL     OW26062   2.094   6.382   0.758
 8388SOL    HW126063   2.140   6.337   0.681
 8388SOL    HW226064   2.096   6.481   0.745
 8389SOL     OW26065   0.233   3.033   4.110
 8389SOL    HW126066   0.327   3.036   4.075
 8389SOL    HW226067   0.236   3.028   4.210
 8390SOL     OW26068   3.849   6.607   0.121
 8390SOL    HW126069   3.761   6.574   0.087
 8390SOL    HW226070   3.835   6.686   0.181
 8391SOL     OW26071   4.650   5.200   1.114
 8391SOL    HW126072   4.578   5.134   1.092
 8391SOL    HW226073   4.609   5.286   1.144
 8392SOL     OW26074   6.937   5.645   5.457
 8392SOL    HW126075   6.879   5.724   5.435
 8392SOL    HW226076   6.957   5.595   5.373
 8393SOL     OW26077   0.607   0.058   3.848
 8393SOL    HW126078   0.649   0.054   3.939
 8393SOL    HW226079   0.597   0.154   3.820
 8394SOL     OW26080   0.272   3.402   1.624
 8394SOL    HW126081   0.289   3.496   1.597
 8394SOL    HW226082   0.218   3.400   1.708
 8395SOL     OW26083   1.543   5.826   4.040
 8395SOL    HW126084   1.468   5.763   4.061
 8395SOL    HW226085   1.619   5.774   4.000
 8396SOL     OW26086   4.640   4.524   2.518
 8396SOL    HW126087   4.629   4.454   2.447
 8396SOL    HW226088   4.568   4.514   2.586
 8397SOL     OW26089   2.715   1.100   3.500
 8397SOL    HW126090   2.700   1.110   3.402
 8397SOL    HW226091   2.805   1.135   3.524
 8398SOL     OW26092   4.264   2.548   6.359
 8398SOL    HW126093   4.347   2.519   6.407
 8398SOL    HW226094   4.215   2.467   6.326
 8399SOL     OW26095   5.890   0.192   0.053
 8399SOL    HW126096   5.817   0.126   0.041
 8399SOL    HW226097   5.973   0.159   0.008
 8400SOL     OW26098   1.363   0.528   3.664
 8400SOL    HW126099   1.441   0.587   3.647
 8400SOL    HW226100   1.330   0.544   3.757
 8401SOL     OW26101   3.283   1.921   6.261
 8401SOL    HW126102   3.210   1.852   6.262
 8401SOL    HW226103   3.344   1.905   6.184
 8402SOL     OW26104   4.063   1.880   5.362
 8402SOL    HW126105   3.972   1.843   5.383
 8402SOL    HW226106   4.098   1.837   5.279
 8403SOL     OW26107   1.028   1.935   3.038
 8403SOL    HW126108   1.038   1.956   3.135
 8403SOL    HW226109   1.086   1.997   2.985
 8404SOL     OW26110   4.339   5.973   6.185
 8404SOL    HW126111   4.317   5.886   6.141
 8404SOL    HW226112   4.411   5.959   6.252
 8405SOL     OW26113   2.370   0.957   5.735
 8405SOL    HW126114   2.456   0.906   5.731
 8405SOL    HW226115   2.385   1.050   5.703
 8406SOL     OW26116   5.080   6.902   0.833
 8406SOL    HW126117   5.178   6.896   0.816
 8406SOL    HW226118   5.038   6.965   0.768
 8407SOL     OW26119   4.618   6.384   4.335
 8407SOL    HW126120   4.665   6.379   4.422
 8407SOL    HW226121   4.659   6.456   4.278
 8408SOL     OW26122   4.936   3.099   2.316
 8408SOL    HW126123   4.878   3.174   2.284
 8408SOL    HW226124   4.994   3.067   2.242
 8409SOL     OW26125   6.369   3.015   3.495
 8409SOL    HW126126   6.428   2.940   3.467
 8409SOL    HW226127   6.418   3.102   3.482
 8410SOL     OW26128   4.876   0.446   1.696
 8410SOL    HW126129   4.930   0.362   1.686
 8410SOL    HW226130   4.812   0.453   1.619
 8411SOL     OW26131   0.703   5.613   6.918
 8411SOL    HW126132   0.736   5.704   6.944
 8411SOL    HW226133   0.690   5.609   6.819
 8412SOL     OW26134   3.851   2.077   1.897
 8412SOL    HW126135   3.834   2.042   1.805
 8412SOL    HW226136   3.772   2.131   1.927
 8413SOL     OW26137   4.067   5.322   0.046
 8413SOL    HW126138   4.131   5.360   0.112
 8413SOL    HW226139   3.996   5.270   0.095
 8414SOL     OW26140   4.303   5.421   3.033
 8414SOL    HW126141   4.394   5.431   2.992
 8414SOL    HW226142   4.238   5.477   2.982
 8415SOL     OW26143   6.541   5.587   3.278
 8415SOL    HW126144   6.636   5.559   3.287
 8415SOL    HW226145   6.532   5.684   3.300
 8416SOL     OW26146   5.604   3.781   2.664
 8416SOL    HW126147   5.646   3.707   2.716
 8416SOL    HW226148   5.629   3.772   2.568
 8417SOL     OW26149   1.228   5.409   6.171
 8417SOL    HW126150   1.292   5.336   6.196
 8417SOL    HW226151   1.145   5.401   6.226
 8418SOL     OW26152   5.905   5.251   1.242
 8418SOL    HW126153   5.965   5.260   1.163
 8418SOL    HW226154   5.848   5.170   1.232
 8419SOL     OW26155   5.266   1.406   2.802
 8419SOL    HW126156   5.308   1.408   2.893
 8419SOL    HW226157   5.283   1.317   2.759
 8420SOL     OW26158   4.443   6.925   0.540
 8420SOL    HW126159   4.510   6.864   0.498
 8420SOL    HW226160   4.353   6.907   0.501
 8421SOL     OW26161   3.115   5.989   0.649
 8421SOL    HW126162   3.190   5.924   0.662
 8421SOL    HW226163   3.051   5.953   0.581
 8422SOL     OW26164   4.676   0.714   1.277
 8422SOL    HW126165   4.616   0.635   1.292
 8422SOL    HW226166   4.753   0.687   1.219
 8423SOL     OW26167   3.864   4.664   5.784
 8423SOL    HW126168   3.785   4.610   5.813
 8423SOL    HW226169   3.909   4.703   5.864
 8424SOL     OW26170   2.288   2.809   2.509
 8424SOL    HW126171   2.273   2.855   2.421
 8424SOL    HW226172   2.274   2.874   2.583
 8425SOL     OW26173   5.514   5.590   0.562
 8425SOL    HW126174   5.429   5.566   0.515
 8425SOL    HW226175   5.592   5.562   0.507
 8426SOL     OW26176   3.256   3.334   4.040
 8426SOL    HW126177   3.157   3.330   4.028
 8426SOL    HW226178   3.290   3.423   4.009
 8427SOL     OW26179   2.764   3.302   5.219
 8427SOL    HW126180   2.716   3.230   5.268
 8427SOL    HW226181   2.808   3.264   5.138
 8428SOL     OW26182   0.296   4.241   1.773
 8428SOL    HW126183   0.319   4.279   1.862
 8428SOL    HW226184   0.380   4.219   1.723
 8429SOL     OW26185   2.255   4.232   3.544
 8429SOL    HW126186   2.181   4.281   3.498
 8429SOL    HW226187   2.261   4.262   3.639
 8430SOL     OW26188   3.529   5.330   4.330
 8430SOL    HW126189   3.556   5.237   4.354
 8430SOL    HW226190   3.461   5.363   4.396
 8431SOL     OW26191   3.064   5.215   0.715
 8431SOL    HW126192   3.011   5.298   0.731
 8431SOL    HW226193   3.151   5.220   0.764
 8432SOL     OW26194   5.650   0.092   6.326
 8432SOL    HW126195   5.597   0.142   6.258
 8432SOL    HW226196   5.691   0.011   6.283
 8433SOL     OW26197   6.063   1.734   0.538
 8433SOL    HW126198   6.126   1.665   0.574
 8433SOL    HW226199   5.986   1.688   0.493
 8434SOL     OW26200   3.432   6.998   4.976
 8434SOL    HW126201   3.446   7.015   4.878
 8434SOL    HW226202   3.399   0.056   5.020
 8435SOL     OW26203   5.816   0.620   1.125
 8435SOL    HW126204   5.873   0.630   1.043
 8435SOL    HW226205   5.723   0.649   1.103
 8436SOL     OW26206   3.167   0.243   4.368
 8436SOL    HW126207   3.124   0.238   4.278
 8436SOL    HW226208   3.111   0.299   4.429
 8437SOL     OW26209   1.767   0.474   3.459
 8437SOL    HW126210   1.850   0.434   3.420
 8437SOL    HW226211   1.753   0.438   3.551
 8438SOL     OW26212   2.567   4.925   2.049
 8438SOL    HW126213   2.481   4.904   2.095
 8438SOL    HW226214   2.610   4.840   2.019
 8439SOL     OW26215   6.125   5.061   2.389
 8439SOL    HW126216   6.044   5.028   2.341
 8439SOL    HW226217   6.165   4.985   2.442
 8440SOL     OW26218   1.064   1.956   3.316
 8440SOL    HW126219   1.154   1.994   3.332
 8440SOL    HW226220   1.056   1.868   3.363
 8441SOL     OW26221   5.854   6.857   0.308
 8441SOL    HW126222   5.951   6.879   0.298
 8441SOL    HW226223   5.799   6.921   0.254
 8442SOL     OW26224   2.920   2.333   5.841
 8442SOL    HW126225   2.821   2.327   5.824
 8442SOL    HW226226   2.947   2.429   5.845
 8443SOL     OW26227   1.495   5.833   3.767
 8443SOL    HW126228   1.479   5.913   3.709
 8443SOL    HW226229   1.511   5.864   3.861
 8444SOL     OW26230   3.323   6.055   3.768
 8444SOL    HW126231   3.304   6.122   3.696
 8444SOL    HW226232   3.239   6.035   3.819
 8445SOL     OW26233   3.594   5.758   1.581
 8445SOL    HW126234   3.626   5.800   1.497
 8445SOL    HW226235   3.495   5.771   1.591
 8446SOL     OW26236   5.021   4.689   6.864
 8446SOL    HW126237   5.042   4.757   6.794
 8446SOL    HW226238   4.928   4.703   6.898
 8447SOL     OW26239   5.381   2.477   1.945
 8447SOL    HW126240   5.291   2.517   1.965
 8447SOL    HW226241   5.451   2.547   1.958
 8448SOL     OW26242   4.973   5.490   4.248
 8448SOL    HW126243   4.951   5.466   4.343
 8448SOL    HW226244   5.068   5.520   4.242
 8449SOL     OW26245   6.551   2.934   4.043
 8449SOL    HW126246   6.497   2.851   4.055
 8449SOL    HW226247   6.548   2.962   3.947
 8450SOL     OW26248   1.071   5.862   1.621
 8450SOL    HW126249   1.144   5.896   1.563
 8450SOL    HW226250   0.985   5.906   1.596
 8451SOL     OW26251   4.538   2.728   0.613
 8451SOL    HW126252   4.488   2.796   0.561
 8451SOL    HW226253   4.574   2.658   0.551
 8452SOL     OW26254   6.533   1.073   2.794
 8452SOL    HW126255   6.511   0.979   2.819
 8452SOL    HW226256   6.546   1.128   2.877
 8453SOL     OW26257   0.198   4.231   6.251
 8453SOL    HW126258   0.231   4.204   6.160
 8453SOL    HW226259   0.098   4.234   6.250
 8454SOL     OW26260   0.109   6.593   1.024
 8454SOL    HW126261   0.016   6.565   1.049
 8454SOL    HW226262   0.157   6.518   0.979
 8455SOL     OW26263   5.736   2.298   1.747
 8455SOL    HW126264   5.643   2.296   1.710
 8455SOL    HW226265   5.777   2.388   1.727
 8456SOL     OW26266   4.903   5.659   2.939
 8456SOL    HW126267   4.826   5.690   2.995
 8456SOL    HW226268   4.871   5.592   2.872
 8457SOL     OW26269   0.065   6.728   4.905
 8457SOL    HW126270   0.149   6.782   4.908
 8457SOL    HW226271   7.013   6.789   4.919
 8458SOL     OW26272   2.688   1.428   6.694
 8458SOL    HW126273   2.706   1.365   6.770
 8458SOL    HW226274   2.609   1.397   6.642
 8459SOL     OW26275   3.138   6.568   2.211
 8459SOL    HW126276   3.152   6.600   2.117
 8459SOL    HW226277   3.046   6.527   2.218
 8460SOL     OW26278   4.876   3.170   5.733
 8460SOL    HW126279   4.926   3.139   5.652
 8460SOL    HW226280   4.782   3.138   5.728
 8461SOL     OW26281   0.255   4.070   3.230
 8461SOL    HW126282   0.185   4.140   3.216
 8461SOL    HW226283   0.249   4.034   3.323
 8462SOL     OW26284   3.700   2.291   6.676
 8462SOL    HW126285   3.679   2.201   6.712
 8462SOL    HW226286   3.625   2.354   6.696
 8463SOL     OW26287   6.107   6.929   0.292
 8463SOL    HW126288   6.163   6.992   0.238
 8463SOL    HW226289   6.160   6.847   0.314
 8464SOL     OW26290   5.717   3.520   5.833
 8464SOL    HW126291   5.705   3.573   5.916
 8464SOL    HW226292   5.631   3.478   5.807
 8465SOL     OW26293   2.030   2.938   0.861
 8465SOL    HW126294   2.002   2.874   0.932
 8465SOL    HW226295   2.128   2.956   0.869
 8466SOL     OW26296   0.583   0.055   5.421
 8466SOL    HW126297   0.526   7.007   5.457
 8466SOL    HW226298   0.595   0.042   5.323
 8467SOL     OW26299   4.086   0.247   1.267
 8467SOL    HW126300   4.075   0.346   1.274
 8467SOL    HW226301   3.996   0.204   1.263
 8468SOL     OW26302   4.419   2.390   0.380
 8468SOL    HW126303   4.445   2.434   0.294
 8468SOL    HW226304   4.494   2.399   0.446
 8469SOL     OW26305   3.810   1.380   5.432
 8469SOL    HW126306   3.822   1.288   5.470
 8469SOL    HW226307   3.876   1.394   5.358
 8470SOL     OW26308   0.889   4.791   0.208
 8470SOL    HW126309   0.798   4.779   0.246
 8470SOL    HW226310   0.884   4.792   0.108
 8471SOL     OW26311   4.087   0.343   4.285
 8471SOL    HW126312   4.103   0.300   4.374
 8471SOL    HW226313   4.079   0.272   4.215
 8472SOL     OW26314   6.678   0.827   5.401
 8472SOL    HW126315   6.748   0.896   5.417
 8472SOL    HW226316   6.701   0.744   5.452
 8473SOL     OW26317   6.500   6.183   0.913
 8473SOL    HW126318   6.436   6.117   0.875
 8473SOL    HW226319   6.534   6.150   1.001
 8474SOL     OW26320   3.451   3.204   2.638
 8474SOL    HW126321   3.503   3.286   2.663
 8474SOL    HW226322   3.481   3.171   2.548
 8475SOL     OW26323   6.990   2.069   3.556
 8475SOL    HW126324   6.918   2.129   3.591
 8475SOL    HW226325   7.010   2.093   3.462
 8476SOL     OW26326   6.563   2.285   0.927
 8476SOL    HW126327   6.620   2.362   0.895
 8476SOL    HW226328   6.471   2.318   0.948
 8477SOL     OW26329   4.592   6.912   2.571
 8477SOL    HW126330   4.657   6.847   2.610
 8477SOL    HW226331   4.619   6.935   2.478
 8478SOL     OW26332   1.399   0.295   6.460
 8478SOL    HW126333   1.466   0.264   6.527
 8478SOL    HW226334   1.346   0.370   6.499
 8479SOL     OW26335   0.683   2.454   1.205
 8479SOL    HW126336   0.646   2.375   1.254
 8479SOL    HW226337   0.677   2.535   1.264
 8480SOL     OW26338   5.035   2.514   6.722
 8480SOL    HW126339   4.993   2.578   6.658
 8480SOL    HW226340   4.964   2.465   6.772
 8481SOL     OW26341   4.948   2.896   4.902
 8481SOL    HW126342   4.987   2.805   4.904
 8481SOL    HW226343   4.987   2.951   4.976
 8482SOL     OW26344   4.841   6.205   2.454
 8482SOL    HW126345   4.784   6.124   2.437
 8482SOL    HW226346   4.904   6.218   2.378
 8483SOL     OW26347   4.009   6.573   1.654
 8483SOL    HW126348   3.962   6.661   1.639
 8483SOL    HW226349   3.997   6.546   1.750
 8484SOL     OW26350   7.011   6.018   3.681
 8484SOL    HW126351   0.068   5.962   3.678
 8484SOL    HW226352   6.931   5.958   3.681
 8485SOL     OW26353   3.075   2.518   0.310
 8485SOL    HW126354   3.172   2.500   0.297
 8485SOL    HW226355   3.063   2.609   0.350
 8486SOL     OW26356   2.491   1.650   2.083
 8486SOL    HW126357   2.503   1.725   2.018
 8486SOL    HW226358   2.525   1.679   2.173
 8487SOL     OW26359   6.101   1.198   5.271
 8487SOL    HW126360   6.089   1.125   5.339
 8487SOL    HW226361   6.011   1.238   5.249
 8488SOL     OW26362   4.878   6.250   0.776
 8488SOL    HW126363   4.950   6.319   0.768
 8488SOL    HW226364   4.861   6.209   0.686
 8489SOL     OW26365   5.820   1.836   1.659
 8489SOL    HW126366   5.844   1.900   1.732
 8489SOL    HW226367   5.884   1.759   1.660
 8490SOL     OW26368   4.207   0.072   4.279
 8490SOL    HW126369   4.297   0.088   4.318
 8490SOL    HW226370   4.164   7.021   4.325
 8491SOL     OW26371   2.503   5.697   1.640
 8491SOL    HW126372   2.591   5.672   1.681
 8491SOL    HW226373   2.516   5.719   1.543
 8492SOL     OW26374   5.192   3.913   4.868
 8492SOL    HW126375   5.275   3.857   4.877
 8492SOL    HW226376   5.215   3.999   4.822
 8493SOL     OW26377   2.372   2.802   6.448
 8493SOL    HW126378   2.399   2.715   6.489
 8493SOL    HW226379   2.276   2.798   6.420
 8494SOL     OW26380   4.018   5.439   1.681
 8494SOL    HW126381   3.949   5.460   1.611
 8494SOL    HW226382   4.108   5.433   1.638
 8495SOL     OW26383   6.244   5.187   2.135
 8495SOL    HW126384   6.338   5.155   2.126
 8495SOL    HW226385   6.213   5.175   2.230
 8496SOL     OW26386   1.392   2.252   2.039
 8496SOL    HW126387   1.478   2.201   2.050
 8496SOL    HW226388   1.397   2.307   1.956
 8497SOL     OW26389   0.123   0.813   3.610
 8497SOL    HW126390   0.215   0.794   3.642
 8497SOL    HW226391   0.106   0.762   3.525
 8498SOL     OW26392   5.657   5.952   3.563
 8498SOL    HW126393   5.684   5.923   3.472
 8498SOL    HW226394   5.666   5.876   3.627
 8499SOL     OW26395   1.876   4.465   6.576
 8499SOL    HW126396   1.949   4.477   6.643
 8499SOL    HW226397   1.899   4.513   6.492
 8500SOL     OW26398   1.516   6.325   5.293
 8500SOL    HW126399   1.595   6.312   5.233
 8500SOL    HW226400   1.468   6.237   5.304
 8501SOL     OW26401   0.455   2.471   6.816
 8501SOL    HW126402   0.394   2.393   6.829
 8501SOL    HW226403   0.420   2.528   6.742
 8502SOL     OW26404   0.551   3.457   1.225
 8502SOL    HW126405   0.478   3.435   1.291
 8502SOL    HW226406   0.511   3.470   1.134
 8503SOL     OW26407   0.495   6.247   3.979
 8503SOL    HW126408   0.439   6.165   3.994
 8503SOL    HW226409   0.531   6.280   4.066
 8504SOL     OW26410   2.483   4.776   2.651
 8504SOL    HW126411   2.389   4.783   2.617
 8504SOL    HW226412   2.504   4.857   2.707
 8505SOL     OW26413   5.846   3.220   3.480
 8505SOL    HW126414   5.748   3.224   3.464
 8505SOL    HW226415   5.890   3.304   3.447
 8506SOL     OW26416   1.094   0.870   6.847
 8506SOL    HW126417   1.076   0.953   6.900
 8506SOL    HW226418   1.191   0.848   6.851
 8507SOL     OW26419   3.905   0.708   4.707
 8507SOL    HW126420   3.937   0.802   4.697
 8507SOL    HW226421   3.850   0.683   4.627
 8508SOL     OW26422   4.969   1.739   4.796
 8508SOL    HW126423   4.973   1.827   4.750
 8508SOL    HW226424   5.061   1.707   4.818
 8509SOL     OW26425   4.689   1.052   4.360
 8509SOL    HW126426   4.714   0.981   4.426
 8509SOL    HW226427   4.611   1.020   4.306
 8510SOL     OW26428   5.774   4.143   2.503
 8510SOL    HW126429   5.675   4.150   2.491
 8510SOL    HW226430   5.794   4.087   2.583
 8511SOL     OW26431   5.743   4.471   2.164
 8511SOL    HW126432   5.692   4.432   2.240
 8511SOL    HW226433   5.833   4.502   2.196
 8512SOL     OW26434   2.814   1.701   1.979
 8512SOL    HW126435   2.900   1.726   1.935
 8512SOL    HW226436   2.832   1.639   2.055
 8513SOL     OW26437   6.450   5.136   0.814
 8513SOL    HW126438   6.516   5.105   0.882
 8513SOL    HW226439   6.408   5.222   0.845
 8514SOL     OW26440   2.397   2.122   4.155
 8514SOL    HW126441   2.453   2.201   4.129
 8514SOL    HW226442   2.444   2.038   4.129
 8515SOL     OW26443   4.751   2.098   1.301
 8515SOL    HW126444   4.766   2.040   1.221
 8515SOL    HW226445   4.753   2.194   1.273
 8516SOL     OW26446   6.464   2.144   1.983
 8516SOL    HW126447   6.558   2.143   1.949
 8516SOL    HW226448   6.409   2.076   1.934
 8517SOL     OW26449   0.764   2.498   6.634
 8517SOL    HW126450   0.780   2.594   6.658
 8517SOL    HW226451   0.834   2.467   6.570
 8518SOL     OW26452   4.358   4.640   6.982
 8518SOL    HW126453   4.310   4.714   6.936
 8518SOL    HW226454   4.426   4.600   6.920
 8519SOL     OW26455   1.568   4.771   2.289
 8519SOL    HW126456   1.586   4.672   2.290
 8519SOL    HW226457   1.655   4.820   2.283
 8520SOL     OW26458   3.365   2.582   0.366
 8520SOL    HW126459   3.452   2.583   0.416
 8520SOL    HW226460   3.382   2.606   0.270
 8521SOL     OW26461   1.386   4.808   5.987
 8521SOL    HW126462   1.377   4.709   5.979
 8521SOL    HW226463   1.387   4.834   6.084
 8522SOL     OW26464   1.326   5.597   1.446
 8522SOL    HW126465   1.414   5.554   1.469
 8522SOL    HW226466   1.255   5.527   1.439
 8523SOL     OW26467   3.309   6.841   6.355
 8523SOL    HW126468   3.258   6.883   6.280
 8523SOL    HW226469   3.307   6.902   6.435
 8524SOL     OW26470   0.828   2.181   4.909
 8524SOL    HW126471   0.740   2.170   4.956
 8524SOL    HW226472   0.899   2.204   4.975
 8525SOL     OW26473   5.989   4.130   3.043
 8525SOL    HW126474   5.974   4.201   2.973
 8525SOL    HW226475   6.068   4.155   3.099
 8526SOL     OW26476   3.754   5.130   6.830
 8526SOL    HW126477   3.721   5.224   6.824
 8526SOL    HW226478   3.822   5.123   6.903
 8527SOL     OW26479   3.114   0.542   5.450
 8527SOL    HW126480   3.145   0.623   5.401
 8527SOL    HW226481   3.017   0.551   5.473
 8528SOL     OW26482   5.103   2.791   6.114
 8528SOL    HW126483   5.089   2.887   6.140
 8528SOL    HW226484   5.025   2.761   6.058
 8529SOL     OW26485   0.436   6.960   0.834
 8529SOL    HW126486   0.405   6.973   0.928
 8529SOL    HW226487   0.380   6.890   0.790
 8530SOL     OW26488   2.237   3.884   5.321
 8530SOL    HW126489   2.264   3.856   5.414
 8530SOL    HW226490   2.318   3.902   5.266
 8531SOL     OW26491   6.832   4.300   1.415
 8531SOL    HW126492   6.874   4.343   1.495
 8531SOL    HW226493   6.904   4.269   1.353
 8532SOL     OW26494   4.067   4.967   4.703
 8532SOL    HW126495   4.058   4.910   4.785
 8532SOL    HW226496   3.977   4.979   4.661
 8533SOL     OW26497   1.833   0.123   5.924
 8533SOL    HW126498   1.928   0.155   5.930
 8533SOL    HW226499   1.807   0.115   5.828
 8534SOL     OW26500   6.405   3.427   4.265
 8534SOL    HW126501   6.423   3.525   4.273
 8534SOL    HW226502   6.447   3.379   4.343
 8535SOL     OW26503   0.350   2.243   4.984
 8535SOL    HW126504   0.330   2.311   4.914
 8535SOL    HW226505   0.332   2.152   4.947
 8536SOL     OW26506   6.174   1.996   4.789
 8536SOL    HW126507   6.174   1.938   4.707
 8536SOL    HW226508   6.234   2.074   4.775
 8537SOL     OW26509   5.295   1.522   2.573
 8537SOL    HW126510   5.318   1.477   2.486
 8537SOL    HW226511   5.302   1.456   2.647
 8538SOL     OW26512   1.237   1.617   6.033
 8538SOL    HW126513   1.195   1.699   6.071
 8538SOL    HW226514   1.166   1.552   6.007
 8539SOL     OW26515   6.572   1.268   1.870
 8539SOL    HW126516   6.593   1.365   1.873
 8539SOL    HW226517   6.557   1.240   1.775
 8540SOL     OW26518   4.315   1.722   0.329
 8540SOL    HW126519   4.377   1.696   0.254
 8540SOL    HW226520   4.233   1.665   0.324
 8541SOL     OW26521   3.320   1.990   4.371
 8541SOL    HW126522   3.228   1.954   4.360
 8541SOL    HW226523   3.374   1.926   4.427
 8542SOL     OW26524   2.433   4.724   6.070
 8542SOL    HW126525   2.523   4.755   6.100
 8542SOL    HW226526   2.442   4.673   5.984
 8543SOL     OW26527   3.197   1.093   6.954
 8543SOL    HW126528   3.135   1.153   6.903
 8543SOL    HW226529   3.239   1.146   0.002
 8544SOL     OW26530   5.458   3.061   4.307
 8544SOL    HW126531   5.439   2.979   4.360
 8544SOL    HW226532   5.460   3.039   4.210
 8545SOL     OW26533   4.771   0.136   4.275
 8545SOL    HW126534   4.770   0.080   4.193
 8545SOL    HW226535   4.686   0.122   4.326
 8546SOL     OW26536   0.686   6.994   2.771
 8546SOL    HW126537   0.586   6.996   2.768
 8546SOL    HW226538   0.716   6.919   2.830
 8547SOL     OW26539   1.032   0.171   6.920
 8547SOL    HW126540   1.012   0.230   6.999
 8547SOL    HW226541   0.990   0.082   6.933
 8548SOL     OW26542   6.763   2.847   5.998
 8548SOL    HW126543   6.753   2.913   6.072
 8548SOL    HW226544   6.859   2.823   5.986
 8549SOL     OW26545   1.073   2.765   4.512
 8549SOL    HW126546   1.013   2.818   4.452
 8549SOL    HW226547   1.103   2.822   4.588
 8550SOL     OW26548   1.273   5.369   0.427
 8550SOL    HW126549   1.325   5.360   0.512
 8550SOL    HW226550   1.292   5.458   0.386
 8551SOL     OW26551   2.801   3.100   0.294
 8551SOL    HW126552   2.703   3.117   0.295
 8551SOL    HW226553   2.822   3.019   0.349
 8552SOL     OW26554   2.241   0.771   2.931
 8552SOL    HW126555   2.195   0.859   2.934
 8552SOL    HW226556   2.174   0.698   2.916
 8553SOL     OW26557   4.166   4.705   6.621
 8553SOL    HW126558   4.157   4.773   6.548
 8553SOL    HW226559   4.109   4.626   6.600
 8554SOL     OW26560   0.335   5.669   0.418
 8554SOL    HW126561   0.414   5.618   0.452
 8554SOL    HW226562   0.305   5.734   0.488
 8555SOL     OW26563   3.227   1.151   3.410
 8555SOL    HW126564   3.322   1.166   3.435
 8555SOL    HW226565   3.214   1.058   3.377
 8556SOL     OW26566   2.320   6.720   5.319
 8556SOL    HW126567   2.293   6.719   5.416
 8556SOL    HW226568   2.409   6.676   5.309
 8557SOL     OW26569   6.371   6.669   2.648
 8557SOL    HW126570   6.411   6.659   2.557
 8557SOL    HW226571   6.276   6.701   2.639
 8558SOL     OW26572   2.482   5.530   3.317
 8558SOL    HW126573   2.575   5.503   3.344
 8558SOL    HW226574   2.479   5.629   3.305
 8559SOL     OW26575   1.991   0.087   2.494
 8559SOL    HW126576   2.066   0.096   2.560
 8559SOL    HW226577   1.956   7.019   2.496
 8560SOL     OW26578   1.191   6.025   1.856
 8560SOL    HW126579   1.119   6.060   1.916
 8560SOL    HW226580   1.152   6.002   1.767
 8561SOL     OW26581   3.607   0.381   2.971
 8561SOL    HW126582   3.692   0.434   2.974
 8561SOL    HW226583   3.595   0.343   2.879
 8562SOL     OW26584   4.241   6.358   6.368
 8562SOL    HW126585   4.335   6.372   6.335
 8562SOL    HW226586   4.201   6.279   6.323
 8563SOL     OW26587   0.789   4.717   1.230
 8563SOL    HW126588   0.884   4.722   1.261
 8563SOL    HW226589   0.728   4.748   1.303
 8564SOL     OW26590   3.186   0.208   4.880
 8564SOL    HW126591   3.114   0.276   4.894
 8564SOL    HW226592   3.235   0.193   4.966
 8565SOL     OW26593   3.650   5.087   0.973
 8565SOL    HW126594   3.651   5.124   1.066
 8565SOL    HW226595   3.641   5.162   0.908
 8566SOL     OW26596   0.331   6.424   1.680
 8566SOL    HW126597   0.232   6.412   1.692
 8566SOL    HW226598   0.349   6.511   1.636
 8567SOL     OW26599   6.792   1.910   2.540
 8567SOL    HW126600   6.825   1.861   2.621
 8567SOL    HW226601   6.711   1.864   2.504
 8568SOL     OW26602   5.320   1.538   6.785
 8568SOL    HW126603   5.376   1.459   6.759
 8568SOL    HW226604   5.345   1.616   6.728
 8569SOL     OW26605   4.508   1.392   5.538
 8569SOL    HW126606   4.524   1.489   5.555
 8569SOL    HW226607   4.412   1.377   5.515
 8570SOL     OW26608   1.332   1.318   4.259
 8570SOL    HW126609   1.373   1.345   4.346
 8570SOL    HW226610   1.237   1.350   4.255
 8571SOL     OW26611   0.521   5.984   5.821
 8571SOL    HW126612   0.466   5.948   5.897
 8571SOL    HW226613   0.488   6.076   5.797
 8572SOL     OW26614   2.391   4.405   6.079
 8572SOL    HW126615   2.351   4.358   6.158
 8572SOL    HW226616   2.333   4.482   6.053
 8573SOL     OW26617   2.963   6.187   6.440
 8573SOL    HW126618   2.944   6.100   6.396
 8573SOL    HW226619   3.061   6.204   6.441
 8574SOL     OW26620   6.372   0.069   6.261
 8574SOL    HW126621   6.421   0.151   6.290
 8574SOL    HW226622   6.289   0.058   6.315
 8575SOL     OW26623   2.143   1.893   3.541
 8575SOL    HW126624   2.090   1.954   3.600
 8575SOL    HW226625   2.182   1.819   3.596
 8576SOL     OW26626   1.479   4.420   4.489
 8576SOL    HW126627   1.537   4.380   4.561
 8576SOL    HW226628   1.435   4.347   4.438
 8577SOL     OW26629   1.694   6.623   5.136
 8577SOL    HW126630   1.722   6.709   5.093
 8577SOL    HW226631   1.745   6.610   5.221
 8578SOL     OW26632   6.253   5.591   4.829
 8578SOL    HW126633   6.243   5.510   4.887
 8578SOL    HW226634   6.184   5.659   4.855
 8579SOL     OW26635   1.801   6.912   1.872
 8579SOL    HW126636   1.849   6.824   1.876
 8579SOL    HW226637   1.704   6.897   1.891
 8580SOL     OW26638   1.870   6.140   0.979
 8580SOL    HW126639   1.959   6.181   1.001
 8580SOL    HW226640   1.847   6.073   1.050
 8581SOL     OW26641   3.373   3.826   1.636
 8581SOL    HW126642   3.414   3.915   1.658
 8581SOL    HW226643   3.385   3.807   1.539
 8582SOL     OW26644   4.703   4.195   4.801
 8582SOL    HW126645   4.670   4.103   4.779
 8582SOL    HW226646   4.803   4.196   4.804
 8583SOL     OW26647   4.374   0.244   4.456
 8583SOL    HW126648   4.277   0.245   4.479
 8583SOL    HW226649   4.420   0.318   4.504
 8584SOL     OW26650   0.653   5.907   6.378
 8584SOL    HW126651   0.715   5.974   6.339
 8584SOL    HW226652   0.570   5.901   6.322
 8585SOL     OW26653   6.367   1.576   6.521
 8585SOL    HW126654   6.394   1.593   6.616
 8585SOL    HW226655   6.335   1.661   6.480
 8586SOL     OW26656   3.319   6.443   1.997
 8586SOL    HW126657   3.264   6.389   2.060
 8586SOL    HW226658   3.412   6.453   2.033
 8587SOL     OW26659   1.122   0.596   4.762
 8587SOL    HW126660   1.086   0.558   4.848
 8587SOL    HW226661   1.216   0.566   4.750
 8588SOL     OW26662   4.332   0.985   0.175
 8588SOL    HW126663   4.362   0.910   0.116
 8588SOL    HW226664   4.283   1.053   0.121
 8589SOL     OW26665   5.668   2.586   5.369
 8589SOL    HW126666   5.665   2.603   5.467
 8589SOL    HW226667   5.753   2.537   5.347
 8590SOL     OW26668   0.218   0.403   2.748
 8590SOL    HW126669   0.270   0.419   2.664
 8590SOL    HW226670   0.279   0.366   2.818
 8591SOL     OW26671   0.318   3.874   0.456
 8591SOL    HW126672   0.253   3.801   0.433
 8591SOL    HW226673   0.404   3.833   0.488
 8592SOL     OW26674   5.548   2.100   6.536
 8592SOL    HW126675   5.586   2.082   6.627
 8592SOL    HW226676   5.622   2.124   6.473
 8593SOL     OW26677   2.983   1.194   0.424
 8593SOL    HW126678   2.931   1.164   0.503
 8593SOL    HW226679   2.966   1.132   0.347
 8594SOL     OW26680   4.820   2.544   5.274
 8594SOL    HW126681   4.731   2.576   5.308
 8594SOL    HW226682   4.860   2.482   5.341
 8595SOL     OW26683   0.631   1.115   3.711
 8595SOL    HW126684   0.556   1.131   3.775
 8595SOL    HW226685   0.613   1.161   3.625
 8596SOL     OW26686   1.187   4.642   2.768
 8596SOL    HW126687   1.223   4.684   2.685
 8596SOL    HW226688   1.126   4.706   2.814
 8597SOL     OW26689   4.603   1.959   1.659
 8597SOL    HW126690   4.618   1.917   1.749
 8597SOL    HW226691   4.524   1.916   1.615
 8598SOL     OW26692   5.775   0.430   0.136
 8598SOL    HW126693   5.843   0.502   0.150
 8598SOL    HW226694   5.809   0.364   0.070
 8599SOL     OW26695   1.967   2.187   4.289
 8599SOL    HW126696   1.911   2.186   4.206
 8599SOL    HW226697   1.932   2.254   4.353
 8600SOL     OW26698   5.301   3.858   6.613
 8600SOL    HW126699   5.392   3.885   6.582
 8600SOL    HW226700   5.232   3.913   6.566
 8601SOL     OW26701   1.054   1.440   4.223
 8601SOL    HW126702   1.066   1.534   4.191
 8601SOL    HW226703   0.961   1.428   4.257
 8602SOL     OW26704   2.875   6.061   2.422
 8602SOL    HW126705   2.965   6.087   2.456
 8602SOL    HW226706   2.830   6.003   2.490
 8603SOL     OW26707   5.253   6.060   0.988
 8603SOL    HW126708   5.220   6.031   0.898
 8603SOL    HW226709   5.195   6.020   1.059
 8604SOL     OW26710   0.818   2.339   5.384
 8604SOL    HW126711   0.871   2.257   5.361
 8604SOL    HW226712   0.742   2.348   5.319
 8605SOL     OW26713   2.255   5.459   4.246
 8605SOL    HW126714   2.266   5.365   4.280
 8605SOL    HW226715   2.166   5.468   4.202
 8606SOL     OW26716   1.799   3.290   6.441
 8606SOL    HW126717   1.846   3.304   6.528
 8606SOL    HW226718   1.866   3.277   6.368
 8607SOL     OW26719   3.053   5.004   6.020
 8607SOL    HW126720   3.113   5.047   6.088
 8607SOL    HW226721   3.093   5.015   5.929
 8608SOL     OW26722   3.042   4.876   2.441
 8608SOL    HW126723   3.050   4.838   2.348
 8608SOL    HW226724   2.963   4.835   2.486
 8609SOL     OW26725   5.156   0.448   2.876
 8609SOL    HW126726   5.187   0.353   2.877
 8609SOL    HW226727   5.188   0.495   2.958
 8610SOL     OW26728   0.959   1.654   2.921
 8610SOL    HW126729   0.918   1.665   2.830
 8610SOL    HW226730   0.998   1.741   2.950
 8611SOL     OW26731   2.976   1.911   4.493
 8611SOL    HW126732   2.971   1.997   4.442
 8611SOL    HW226733   3.036   1.847   4.444
 8612SOL     OW26734   2.640   3.139   0.711
 8612SOL    HW126735   2.589   3.212   0.666
 8612SOL    HW226736   2.612   3.133   0.807
 8613SOL     OW26737   3.222   1.461   1.894
 8613SOL    HW126738   3.227   1.558   1.916
 8613SOL    HW226739   3.160   1.447   1.817
 8614SOL     OW26740   1.052   2.754   3.846
 8614SOL    HW126741   1.006   2.691   3.784
 8614SOL    HW226742   1.102   2.703   3.916
 8615SOL     OW26743   4.675   2.037   5.258
 8615SOL    HW126744   4.626   1.950   5.269
 8615SOL    HW226745   4.672   2.065   5.162
 8616SOL     OW26746   3.124   4.566   1.741
 8616SOL    HW126747   3.147   4.660   1.766
 8616SOL    HW226748   3.046   4.535   1.795
 8617SOL     OW26749   5.833   1.338   5.252
 8617SOL    HW126750   5.881   1.425   5.242
 8617SOL    HW226751   5.791   1.313   5.165
 8618SOL     OW26752   6.309   5.075   1.181
 8618SOL    HW126753   6.245   4.998   1.191
 8618SOL    HW226754   6.401   5.040   1.163
 8619SOL     OW26755   4.089   4.942   2.016
 8619SOL    HW126756   4.085   4.848   2.049
 8619SOL    HW226757   4.104   5.003   2.093
 8620SOL     OW26758   1.704   6.843   3.397
 8620SOL    HW126759   1.747   6.758   3.366
 8620SOL    HW226760   1.649   6.825   3.478
 8621SOL     OW26761   5.651   1.749   2.495
 8621SOL    HW126762   5.707   1.744   2.413
 8621SOL    HW226763   5.555   1.762   2.469
 8622SOL     OW26764   4.964   3.439   1.147
 8622SOL    HW126765   4.892   3.374   1.171
 8622SOL    HW226766   4.986   3.495   1.227
 8623SOL     OW26767   1.238   3.923   4.377
 8623SOL    HW126768   1.324   3.881   4.347
 8623SOL    HW226769   1.161   3.876   4.333
 8624SOL     OW26770   1.902   3.712   4.679
 8624SOL    HW126771   1.983   3.693   4.735
 8624SOL    HW226772   1.909   3.663   4.593
 8625SOL     OW26773   4.567   1.230   5.991
 8625SOL    HW126774   4.655   1.275   6.009
 8625SOL    HW226775   4.560   1.149   6.049
 8626SOL     OW26776   3.681   2.516   6.474
 8626SOL    HW126777   3.680   2.435   6.533
 8626SOL    HW226778   3.775   2.548   6.463
 8627SOL     OW26779   0.976   1.262   2.556
 8627SOL    HW126780   0.946   1.254   2.461
 8627SOL    HW226781   0.971   1.172   2.599
 8628SOL     OW26782   6.197   6.620   0.261
 8628SOL    HW126783   6.187   6.550   0.332
 8628SOL    HW226784   6.139   6.596   0.183
 8629SOL     OW26785   1.949   6.160   4.892
 8629SOL    HW126786   2.023   6.227   4.896
 8629SOL    HW226787   1.981   6.073   4.929
 8630SOL     OW26788   5.768   3.823   4.203
 8630SOL    HW126789   5.771   3.732   4.161
 8630SOL    HW226790   5.780   3.814   4.302
 8631SOL     OW26791   0.677   5.533   6.647
 8631SOL    HW126792   0.725   5.604   6.595
 8631SOL    HW226793   0.689   5.445   6.602
 8632SOL     OW26794   4.316   5.124   5.488
 8632SOL    HW126795   4.338   5.110   5.391
 8632SOL    HW226796   4.400   5.144   5.539
 8633SOL     OW26797   5.234   1.907   5.722
 8633SOL    HW126798   5.232   2.005   5.698
 8633SOL    HW226799   5.140   1.874   5.729
 8634SOL     OW26800   4.910   3.830   0.085
 8634SOL    HW126801   4.843   3.870   0.023
 8634SOL    HW226802   4.940   3.899   0.151
 8635SOL     OW26803   5.065   3.259   6.576
 8635SOL    HW126804   4.974   3.252   6.618
 8635SOL    HW226805   5.075   3.349   6.534
 8636SOL     OW26806   5.831   6.012   0.944
 8636SOL    HW126807   5.796   6.092   0.994
 8636SOL    HW226808   5.785   6.006   0.855
 8637SOL     OW26809   2.793   0.891   0.132
 8637SOL    HW126810   2.885   0.908   0.097
 8637SOL    HW226811   2.761   0.970   0.184
 8638SOL     OW26812   3.272   2.073   5.160
 8638SOL    HW126813   3.190   2.029   5.195
 8638SOL    HW226814   3.246   2.150   5.101
 8639SOL     OW26815   5.395   2.480   7.023
 8639SOL    HW126816   5.359   2.443   0.083
 8639SOL    HW226817   5.495   2.476   7.025
 8640SOL     OW26818   4.331   3.450   0.295
 8640SOL    HW126819   4.355   3.353   0.305
 8640SOL    HW226820   4.293   3.465   0.203
 8641SOL     OW26821   4.252   4.678   3.907
 8641SOL    HW126822   4.216   4.590   3.878
 8641SOL    HW226823   4.350   4.683   3.886
 8642SOL     OW26824   0.787   5.996   4.142
 8642SOL    HW126825   0.800   6.079   4.087
 8642SOL    HW226826   0.861   5.932   4.122
 8643SOL     OW26827   2.804   0.824   6.040
 8643SOL    HW126828   2.719   0.875   6.053
 8643SOL    HW226829   2.791   0.729   6.067
 8644SOL     OW26830   5.695   2.288   5.249
 8644SOL    HW126831   5.615   2.232   5.269
 8644SOL    HW226832   5.752   2.296   5.331
 8645SOL     OW26833   4.354   4.420   0.998
 8645SOL    HW126834   4.257   4.404   1.014
 8645SOL    HW226835   4.393   4.343   0.948
 8646SOL     OW26836   0.375   2.173   0.540
 8646SOL    HW126837   0.413   2.248   0.486
 8646SOL    HW226838   0.430   2.159   0.622
 8647SOL     OW26839   2.400   5.066   6.766
 8647SOL    HW126840   2.488   5.051   6.811
 8647SOL    HW226841   2.352   5.141   6.811
 8648SOL     OW26842   6.751   6.968   2.847
 8648SOL    HW126843   6.713   6.918   2.770
 8648SOL    HW226844   6.685   0.011   2.878
 8649SOL     OW26845   5.206   5.953   6.812
 8649SOL    HW126846   5.151   5.906   6.882
 8649SOL    HW226847   5.228   5.888   6.739
 8650SOL     OW26848   1.893   4.940   4.464
 8650SOL    HW126849   1.934   4.914   4.551
 8650SOL    HW226850   1.925   5.031   4.438
 8651SOL     OW26851   4.463   1.578   0.624
 8651SOL    HW126852   4.411   1.663   0.618
 8651SOL    HW226853   4.402   1.503   0.651
 8652SOL     OW26854   1.814   5.062   3.319
 8652SOL    HW126855   1.798   5.061   3.418
 8652SOL    HW226856   1.742   5.115   3.275
 8653SOL     OW26857   6.797   1.140   6.148
 8653SOL    HW126858   6.825   1.108   6.239
 8653SOL    HW226859   6.698   1.153   6.146
 8654SOL     OW26860   0.703   4.841   2.285
 8654SOL    HW126861   0.676   4.883   2.372
 8654SOL    HW226862   0.725   4.745   2.300
 8655SOL     OW26863   6.134   0.260   3.727
 8655SOL    HW126864   6.162   0.269   3.632
 8655SOL    HW226865   6.180   0.330   3.782
 8656SOL     OW26866   6.643   0.231   1.881
 8656SOL    HW126867   6.739   0.219   1.906
 8656SOL    HW226868   6.591   0.150   1.912
 8657SOL     OW26869   5.082   5.560   6.773
 8657SOL    HW126870   5.033   5.530   6.691
 8657SOL    HW226871   5.161   5.615   6.746
 8658SOL     OW26872   6.045   6.463   0.073
 8658SOL    HW126873   6.031   6.365   0.091
 8658SOL    HW226874   6.109   6.474   7.024
 8659SOL     OW26875   4.846   2.599   2.164
 8659SOL    HW126876   4.748   2.583   2.152
 8659SOL    HW226877   4.887   2.524   2.215
 8660SOL     OW26878   6.906   3.440   1.957
 8660SOL    HW126879   6.875   3.379   2.031
 8660SOL    HW226880   6.827   3.472   1.905
 8661SOL     OW26881   0.008   3.840   1.210
 8661SOL    HW126882   0.064   3.913   1.248
 8661SOL    HW226883   0.062   3.756   1.203
 8662SOL     OW26884   4.363   5.866   1.911
 8662SOL    HW126885   4.431   5.796   1.891
 8662SOL    HW226886   4.272   5.825   1.909
 8663SOL     OW26887   2.777   5.479   2.574
 8663SOL    HW126888   2.846   5.462   2.503
 8663SOL    HW226889   2.717   5.553   2.545
 8664SOL     OW26890   1.720   6.227   1.272
 8664SOL    HW126891   1.652   6.169   1.316
 8664SOL    HW226892   1.770   6.173   1.204
 8665SOL     OW26893   5.745   5.601   5.259
 8665SOL    HW126894   5.708   5.551   5.180
 8665SOL    HW226895   5.694   5.575   5.341
 8666SOL     OW26896   5.689   0.863   3.775
 8666SOL    HW126897   5.605   0.821   3.807
 8666SOL    HW226898   5.736   0.801   3.712
 8667SOL     OW26899   3.931   1.509   3.760
 8667SOL    HW126900   3.851   1.567   3.780
 8667SOL    HW226901   3.920   1.421   3.806
 8668SOL     OW26902   5.199   3.772   3.193
 8668SOL    HW126903   5.213   3.839   3.266
 8668SOL    HW226904   5.222   3.681   3.226
 8669SOL     OW26905   1.042   6.594   6.382
 8669SOL    HW126906   1.070   6.502   6.411
 8669SOL    HW226907   0.946   6.593   6.356
 8670SOL     OW26908   4.316   5.062   5.807
 8670SOL    HW126909   4.273   5.144   5.846
 8670SOL    HW226910   4.319   5.070   5.708
 8671SOL     OW26911   5.269   1.548   3.350
 8671SOL    HW126912   5.250   1.585   3.440
 8671SOL    HW226913   5.334   1.607   3.302
 8672SOL     OW26914   1.192   4.832   3.821
 8672SOL    HW126915   1.166   4.821   3.917
 8672SOL    HW226916   1.120   4.795   3.762
 8673SOL     OW26917   5.663   2.419   7.011
 8673SOL    HW126918   5.701   2.444   6.922
 8673SOL    HW226919   5.693   2.327   0.009
 8674SOL     OW26920   5.313   5.748   2.497
 8674SOL    HW126921   5.364   5.662   2.504
 8674SOL    HW226922   5.289   5.780   2.589
 8675SOL     OW26923   4.364   1.815   4.905
 8675SOL    HW126924   4.403   1.789   4.817
 8675SOL    HW226925   4.296   1.888   4.892
 8676SOL     OW26926   5.696   6.542   3.529
 8676SOL    HW126927   5.728   6.449   3.510
 8676SOL    HW226928   5.717   6.566   3.624
 8677SOL     OW26929   2.192   5.303   6.349
 8677SOL    HW126930   2.140   5.259   6.276
 8677SOL    HW226931   2.183   5.250   6.433
 8678SOL     OW26932   0.275   0.451   1.350
 8678SOL    HW126933   0.196   0.507   1.376
 8678SOL    HW226934   0.323   0.494   1.274
 8679SOL     OW26935   1.222   1.364   3.397
 8679SOL    HW126936   1.171   1.412   3.468
 8679SOL    HW226937   1.305   1.416   3.375
 8680SOL     OW26938   6.432   3.283   6.810
 8680SOL    HW126939   6.527   3.311   6.819
 8680SOL    HW226940   6.403   3.235   6.893
 8681SOL     OW26941   4.594   5.630   1.408
 8681SOL    HW126942   4.645   5.616   1.492
 8681SOL    HW226943   4.555   5.543   1.377
 8682SOL     OW26944   5.650   0.071   2.559
 8682SOL    HW126945   5.607   7.025   2.506
 8682SOL    HW226946   5.585   0.146   2.572
 8683SOL     OW26947   1.406   2.630   5.266
 8683SOL    HW126948   1.406   2.581   5.179
 8683SOL    HW226949   1.352   2.713   5.257
 8684SOL     OW26950   5.973   2.562   4.702
 8684SOL    HW126951   5.944   2.610   4.785
 8684SOL    HW226952   5.998   2.468   4.725
 8685SOL     OW26953   6.622   1.976   6.256
 8685SOL    HW126954   6.564   2.007   6.332
 8685SOL    HW226955   6.595   1.884   6.230
 8686SOL     OW26956   6.827   1.011   2.648
 8686SOL    HW126957   6.740   1.045   2.684
 8686SOL    HW226958   6.851   0.926   2.696
 8687SOL     OW26959   4.778   5.454   2.099
 8687SOL    HW126960   4.865   5.492   2.130
 8687SOL    HW226961   4.770   5.359   2.130
 8688SOL     OW26962   0.775   5.127   6.006
 8688SOL    HW126963   0.802   5.222   6.024
 8688SOL    HW226964   0.701   5.125   5.939
 8689SOL     OW26965   3.734   2.649   1.177
 8689SOL    HW126966   3.737   2.694   1.266
 8689SOL    HW226967   3.767   2.555   1.185
 8690SOL     OW26968   1.477   3.804   3.599
 8690SOL    HW126969   1.553   3.826   3.660
 8690SOL    HW226970   1.403   3.869   3.614
 8691SOL     OW26971   3.867   1.859   6.575
 8691SOL    HW126972   3.962   1.871   6.604
 8691SOL    HW226973   3.831   1.946   6.540
 8692SOL     OW26974   2.980   1.606   4.600
 8692SOL    HW126975   2.885   1.629   4.623
 8692SOL    HW226976   2.991   1.506   4.599
 8693SOL     OW26977   5.699   0.009   0.155
 8693SOL    HW126978   5.660   0.051   0.236
 8693SOL    HW226979   5.626   7.006   0.093
 8694SOL     OW26980   5.632   1.462   4.749
 8694SOL    HW126981   5.605   1.533   4.684
 8694SOL    HW226982   5.550   1.419   4.788
 8695SOL     OW26983   4.799   3.225   6.005
 8695SOL    HW126984   4.862   3.270   6.068
 8695SOL    HW226985   4.840   3.219   5.915
 8696SOL     OW26986   2.588   5.417   5.089
 8696SOL    HW126987   2.617   5.394   4.996
 8696SOL    HW226988   2.556   5.334   5.136
 8697SOL     OW26989   0.388   4.175   6.420
 8697SOL    HW126990   0.307   4.194   6.366
 8697SOL    HW226991   0.366   4.183   6.517
 8698SOL     OW26992   5.088   5.996   5.200
 8698SOL    HW126993   5.095   5.946   5.114
 8698SOL    HW226994   5.055   5.935   5.272
 8699SOL     OW26995   1.107   3.543   4.704
 8699SOL    HW126996   1.087   3.557   4.800
 8699SOL    HW226997   1.172   3.467   4.694
 8700SOL     OW26998   1.046   0.449   4.970
 8700SOL    HW126999   1.049   0.480   5.064
 8700SOL    HW227000   1.017   0.353   4.967
 8701SOL     OW27001   1.584   1.369   7.013
 8701SOL    HW127002   1.546   1.439   0.046
 8701SOL    HW227003   1.598   1.285   0.038
 8702SOL     OW27004   5.081   5.026   2.085
 8702SOL    HW127005   5.023   5.043   2.164
 8702SOL    HW227006   5.028   4.982   2.013
 8703SOL     OW27007   2.923   5.181   0.307
 8703SOL    HW127008   2.922   5.138   0.217
 8703SOL    HW227009   2.996   5.141   0.363
 8704SOL     OW27010   0.925   4.187   3.471
 8704SOL    HW127011   1.005   4.234   3.433
 8704SOL    HW227012   0.893   4.237   3.552
 8705SOL     OW27013   4.853   1.491   6.470
 8705SOL    HW127014   4.803   1.549   6.406
 8705SOL    HW227015   4.901   1.549   6.536
 8706SOL     OW27016   4.730   1.978   0.018
 8706SOL    HW127017   4.644   1.928   0.027
 8706SOL    HW227018   4.758   1.981   6.949
 8707SOL     OW27019   0.738   1.852   5.744
 8707SOL    HW127020   0.695   1.776   5.694
 8707SOL    HW227021   0.751   1.929   5.682
 8708SOL     OW27022   4.047   1.474   3.516
 8708SOL    HW127023   4.052   1.499   3.613
 8708SOL    HW227024   4.006   1.383   3.507
 8709SOL     OW27025   6.429   6.796   6.903
 8709SOL    HW127026   6.340   6.817   6.862
 8709SOL    HW227027   6.484   6.743   6.839
 8710SOL     OW27028   1.551   2.894   3.208
 8710SOL    HW127029   1.623   2.927   3.269
 8710SOL    HW227030   1.485   2.968   3.192
 8711SOL     OW27031   1.673   6.639   2.566
 8711SOL    HW127032   1.697   6.703   2.639
 8711SOL    HW227033   1.587   6.593   2.589
 8712SOL     OW27034   3.461   1.787   4.187
 8712SOL    HW127035   3.399   1.712   4.165
 8712SOL    HW227036   3.442   1.821   4.279
 8713SOL     OW27037   6.847   3.266   2.417
 8713SOL    HW127038   6.828   3.358   2.452
 8713SOL    HW227039   6.921   3.271   2.350
 8714SOL     OW27040   0.937   0.240   5.932
 8714SOL    HW127041   0.851   0.189   5.921
 8714SOL    HW227042   0.926   0.311   6.001
 8715SOL     OW27043   3.969   0.790   1.278
 8715SOL    HW127044   3.932   0.766   1.189
 8715SOL    HW227045   4.006   0.883   1.275
 8716SOL     OW27046   6.997   0.197   0.802
 8716SOL    HW127047   0.022   0.175   0.886
 8716SOL    HW227048   6.921   0.258   0.825
 8717SOL     OW27049   2.773   4.155   5.273
 8717SOL    HW127050   2.872   4.170   5.272
 8717SOL    HW227051   2.752   4.073   5.220
 8718SOL     OW27052   1.172   3.192   5.489
 8718SOL    HW127053   1.196   3.264   5.424
 8718SOL    HW227054   1.251   3.173   5.548
 8719SOL     OW27055   4.195   0.113   0.676
 8719SOL    HW127056   4.231   0.081   0.588
 8719SOL    HW227057   4.130   0.188   0.660
 8720SOL     OW27058   0.866   6.059   6.306
 8720SOL    HW127059   0.889   6.091   6.214
 8720SOL    HW227060   0.945   6.012   6.345
 8721SOL     OW27061   6.702   2.330   1.715
 8721SOL    HW127062   6.760   2.312   1.795
 8721SOL    HW227063   6.713   2.255   1.649
 8722SOL     OW27064   3.563   1.510   1.133
 8722SOL    HW127065   3.649   1.555   1.160
 8722SOL    HW227066   3.570   1.481   1.038
 8723SOL     OW27067   4.701   6.332   2.276
 8723SOL    HW127068   4.605   6.352   2.295
 8723SOL    HW227069   4.741   6.281   2.352
 8724SOL     OW27070   5.809   6.650   4.547
 8724SOL    HW127071   5.750   6.700   4.611
 8724SOL    HW227072   5.770   6.657   4.455
 8725SOL     OW27073   1.928   5.791   5.640
 8725SOL    HW127074   2.021   5.758   5.630
 8725SOL    HW227075   1.866   5.713   5.653
 8726SOL     OW27076   0.220   0.823   3.280
 8726SOL    HW127077   0.195   0.767   3.201
 8726SOL    HW227078   0.255   0.912   3.248
 8727SOL     OW27079   6.003   0.199   1.942
 8727SOL    HW127080   6.100   0.206   1.964
 8727SOL    HW227081   5.957   0.284   1.970
 8728SOL     OW27082   6.354   0.834   2.243
 8728SOL    HW127083   6.368   0.923   2.199
 8728SOL    HW227084   6.439   0.804   2.286
 8729SOL     OW27085   3.274   5.169   5.449
 8729SOL    HW127086   3.217   5.093   5.420
 8729SOL    HW227087   3.344   5.136   5.513
 8730SOL     OW27088   5.194   3.809   2.472
 8730SOL    HW127089   5.218   3.886   2.531
 8730SOL    HW227090   5.206   3.723   2.521
 8731SOL     OW27091   0.632   3.128   2.996
 8731SOL    HW127092   0.620   3.077   3.082
 8731SOL    HW227093   0.705   3.196   3.008
 8732SOL     OW27094   5.348   5.021   2.064
 8732SOL    HW127095   5.256   5.057   2.081
 8732SOL    HW227096   5.376   4.964   2.142
 8733SOL     OW27097   1.800   5.969   1.184
 8733SOL    HW127098   1.734   5.981   1.259
 8733SOL    HW227099   1.772   5.892   1.127
 8734SOL     OW27100   1.082   3.421   2.853
 8734SOL    HW127101   1.101   3.483   2.777
 8734SOL    HW227102   1.151   3.433   2.924
 8735SOL     OW27103   0.861   3.192   6.944
 8735SOL    HW127104   0.908   3.110   6.911
 8735SOL    HW227105   0.923   3.245   7.001
 8736SOL     OW27106   0.517   5.387   1.522
 8736SOL    HW127107   0.522   5.427   1.430
 8736SOL    HW227108   0.609   5.380   1.560
 8737SOL     OW27109   1.704   6.656   0.481
 8737SOL    HW127110   1.619   6.683   0.436
 8737SOL    HW227111   1.695   6.563   0.517
 8738SOL     OW27112   2.504   5.695   4.165
 8738SOL    HW127113   2.533   5.791   4.155
 8738SOL    HW227114   2.475   5.679   4.259
 8739SOL     OW27115   5.549   5.739   6.206
 8739SOL    HW127116   5.596   5.666   6.156
 8739SOL    HW227117   5.453   5.714   6.219
 8740SOL     OW27118   4.028   1.503   4.488
 8740SOL    HW127119   3.947   1.480   4.435
 8740SOL    HW227120   4.104   1.524   4.427
 8741SOL     OW27121   2.181   1.324   2.752
 8741SOL    HW127122   2.218   1.328   2.659
 8741SOL    HW227123   2.085   1.352   2.750
 8742SOL     OW27124   4.681   0.112   1.802
 8742SOL    HW127125   4.608   0.054   1.767
 8742SOL    HW227126   4.650   0.208   1.802
 8743SOL     OW27127   1.177   6.972   1.762
 8743SOL    HW127128   1.143   6.952   1.854
 8743SOL    HW227129   1.251   6.909   1.740
 8744SOL     OW27130   4.298   2.887   0.461
 8744SOL    HW127131   4.385   2.879   0.412
 8744SOL    HW227132   4.245   2.803   0.448
 8745SOL     OW27133   6.359   1.680   6.201
 8745SOL    HW127134   6.332   1.712   6.292
 8745SOL    HW227135   6.457   1.664   6.199
 8746SOL     OW27136   4.435   5.301   4.567
 8746SOL    HW127137   4.497   5.377   4.585
 8746SOL    HW227138   4.370   5.328   4.495
 8747SOL     OW27139   6.634   1.631   2.945
 8747SOL    HW127140   6.616   1.566   3.018
 8747SOL    HW227141   6.547   1.669   2.912
 8748SOL     OW27142   0.382   1.686   4.462
 8748SOL    HW127143   0.338   1.747   4.396
 8748SOL    HW227144   0.373   1.724   4.553
 8749SOL     OW27145   2.297   0.419   5.068
 8749SOL    HW127146   2.326   0.340   5.123
 8749SOL    HW227147   2.275   0.495   5.128
 8750SOL     OW27148   3.459   4.391   5.576
 8750SOL    HW127149   3.466   4.395   5.675
 8750SOL    HW227150   3.523   4.323   5.540
 8751SOL     OW27151   6.170   1.825   2.103
 8751SOL    HW127152   6.223   1.742   2.118
 8751SOL    HW227153   6.075   1.800   2.085
 8752SOL     OW27154   3.087   3.278   6.284
 8752SOL    HW127155   3.106   3.181   6.299
 8752SOL    HW227156   3.049   3.290   6.192
 8753SOL     OW27157   3.188   1.960   6.527
 8753SOL    HW127158   3.209   2.044   6.575
 8753SOL    HW227159   3.236   1.959   6.439
 8754SOL     OW27160   1.484   4.122   4.967
 8754SOL    HW127161   1.570   4.113   5.017
 8754SOL    HW227162   1.502   4.162   4.877
 8755SOL     OW27163   2.012   1.171   1.224
 8755SOL    HW127164   1.994   1.072   1.224
 8755SOL    HW227165   1.929   1.220   1.197
 8756SOL     OW27166   1.937   3.112   3.943
 8756SOL    HW127167   2.035   3.118   3.923
 8756SOL    HW227168   1.923   3.059   4.026
 8757SOL     OW27169   3.935   5.451   6.552
 8757SOL    HW127170   3.851   5.399   6.568
 8757SOL    HW227171   3.984   5.462   6.639
 8758SOL     OW27172   5.261   5.855   2.741
 8758SOL    HW127173   5.168   5.824   2.720
 8758SOL    HW227174   5.274   5.946   2.702
 8759SOL     OW27175   4.740   2.930   0.081
 8759SOL    HW127176   4.734   2.937   0.181
 8759SOL    HW227177   4.835   2.914   0.055
 8760SOL     OW27178   3.008   1.163   5.199
 8760SOL    HW127179   2.915   1.162   5.235
 8760SOL    HW227180   3.011   1.220   5.117
 8761SOL     OW27181   6.256   2.184   1.438
 8761SOL    HW127182   6.272   2.242   1.358
 8761SOL    HW227183   6.310   2.218   1.515
 8762SOL     OW27184   0.967   4.758   3.721
 8762SOL    HW127185   0.891   4.814   3.755
 8762SOL    HW227186   0.944   4.661   3.734
 8763SOL     OW27187   6.070   6.902   6.186
 8763SOL    HW127188   6.094   6.916   6.282
 8763SOL    HW227189   6.076   6.989   6.137
 8764SOL     OW27190   4.673   0.432   5.722
 8764SOL    HW127191   4.722   0.375   5.657
 8764SOL    HW227192   4.738   0.471   5.788
 8765SOL     OW27193   4.896   0.485   3.999
 8765SOL    HW127194   4.908   0.418   3.926
 8765SOL    HW227195   4.799   0.507   4.008
 8766SOL     OW27196   4.600   4.320   5.011
 8766SOL    HW127197   4.506   4.354   5.014
 8766SOL    HW227198   4.608   4.253   4.937
 8767SOL     OW27199   5.890   6.013   2.621
 8767SOL    HW127200   5.979   5.993   2.662
 8767SOL    HW227201   5.835   5.929   2.618
 8768SOL     OW27202   1.541   2.698   0.307
 8768SOL    HW127203   1.527   2.729   0.401
 8768SOL    HW227204   1.485   2.753   0.245
 8769SOL     OW27205   6.785   0.683   3.258
 8769SOL    HW127206   6.746   0.702   3.348
 8769SOL    HW227207   6.881   0.709   3.256
 8770SOL     OW27208   4.383   4.553   2.066
 8770SOL    HW127209   4.419   4.466   2.033
 8770SOL    HW227210   4.331   4.537   2.151
 8771SOL     OW27211   1.605   1.988   6.299
 8771SOL    HW127212   1.539   2.046   6.347
 8771SOL    HW227213   1.697   2.014   6.327
 8772SOL     OW27214   4.427   0.581   6.368
 8772SOL    HW127215   4.389   0.661   6.415
 8772SOL    HW227216   4.403   0.498   6.419
 8773SOL     OW27217   5.446   2.632   3.699
 8773SOL    HW127218   5.497   2.621   3.614
 8773SOL    HW227219   5.402   2.545   3.723
 8774SOL     OW27220   1.351   0.814   0.263
 8774SOL    HW127221   1.440   0.854   0.242
 8774SOL    HW227222   1.339   0.808   0.362
 8775SOL     OW27223   5.500   1.105   5.728
 8775SOL    HW127224   5.495   1.204   5.745
 8775SOL    HW227225   5.580   1.085   5.670
 8776SOL     OW27226   4.711   3.286   0.480
 8776SOL    HW127227   4.764   3.303   0.563
 8776SOL    HW227228   4.723   3.363   0.417
 8777SOL     OW27229   6.094   4.354   3.232
 8777SOL    HW127230   6.026   4.416   3.193
 8777SOL    HW227231   6.184   4.375   3.195
 8778SOL     OW27232   5.492   3.097   6.050
 8778SOL    HW127233   5.558   3.172   6.044
 8778SOL    HW227234   5.541   3.013   6.073
 8779SOL     OW27235   2.595   5.208   2.338
 8779SOL    HW127236   2.594   5.109   2.328
 8779SOL    HW227237   2.610   5.231   2.434
 8780SOL     OW27238   0.571   0.025   3.162
 8780SOL    HW127239   0.643   0.081   3.203
 8780SOL    HW227240   0.527   0.078   3.089
 8781SOL     OW27241   5.094   0.894   4.380
 8781SOL    HW127242   5.019   0.833   4.357
 8781SOL    HW227243   5.135   0.866   4.467
 8782SOL     OW27244   6.918   0.442   2.256
 8782SOL    HW127245   6.902   0.365   2.194
 8782SOL    HW227246   6.984   0.504   2.215
 8783SOL     OW27247   6.870   4.379   3.465
 8783SOL    HW127248   6.807   4.451   3.494
 8783SOL    HW227249   6.863   4.301   3.527
 8784SOL     OW27250   6.958   6.391   6.060
 8784SOL    HW127251   6.913   6.474   6.029
 8784SOL    HW227252   6.924   6.365   6.150
 8785SOL     OW27253   5.916   4.942   0.215
 8785SOL    HW127254   5.825   4.956   0.178
 8785SOL    HW227255   5.972   4.894   0.147
 8786SOL     OW27256   2.623   1.254   0.501
 8786SOL    HW127257   2.621   1.352   0.483
 8786SOL    HW227258   2.659   1.238   0.593
 8787SOL     OW27259   3.103   1.405   2.146
 8787SOL    HW127260   3.069   1.499   2.146
 8787SOL    HW227261   3.123   1.377   2.052
 8788SOL     OW27262   0.171   0.806   5.705
 8788SOL    HW127263   0.210   0.715   5.688
 8788SOL    HW227264   0.120   0.837   5.625
 8789SOL     OW27265   6.355   5.231   5.206
 8789SOL    HW127266   6.348   5.302   5.276
 8789SOL    HW227267   6.399   5.150   5.245
 8790SOL     OW27268   6.439   0.443   6.471
 8790SOL    HW127269   6.344   0.453   6.502
 8790SOL    HW227270   6.477   0.533   6.452
 8791SOL     OW27271   5.843   6.745   5.271
 8791SOL    HW127272   5.873   6.815   5.336
 8791SOL    HW227273   5.815   6.789   5.186
 8792SOL     OW27274   3.022   5.107   3.064
 8792SOL    HW127275   2.939   5.083   3.013
 8792SOL    HW227276   3.100   5.059   3.025
 8793SOL     OW27277   0.569   4.494   2.152
 8793SOL    HW127278   0.559   4.394   2.149
 8793SOL    HW227279   0.645   4.518   2.212
 8794SOL     OW27280   5.350   0.176   2.864
 8794SOL    HW127281   5.396   0.106   2.918
 8794SOL    HW227282   5.251   0.173   2.881
 8795SOL     OW27283   1.175   4.259   5.465
 8795SOL    HW127284   1.206   4.176   5.511
 8795SOL    HW227285   1.215   4.339   5.509
 8796SOL     OW27286   4.837   2.067   3.906
 8796SOL    HW127287   4.871   2.032   3.819
 8796SOL    HW227288   4.802   1.991   3.961
 8797SOL     OW27289   0.222   0.411   6.483
 8797SOL    HW127290   0.143   0.350   6.479
 8797SOL    HW227291   0.295   0.368   6.537
 8798SOL     OW27292   4.703   6.213   6.212
 8798SOL    HW127293   4.631   6.217   6.143
 8798SOL    HW227294   4.782   6.164   6.174
 8799SOL     OW27295   2.452   5.199   3.807
 8799SOL    HW127296   2.538   5.185   3.857
 8799SOL    HW227297   2.430   5.297   3.807
 8800SOL     OW27298   5.905   4.494   6.224
 8800SOL    HW127299   5.964   4.459   6.152
 8800SOL    HW227300   5.957   4.502   6.309
 8801SOL     OW27301   0.027   1.709   4.593
 8801SOL    HW127302   0.042   1.733   4.497
 8801SOL    HW227303   6.970   1.754   4.626
 8802SOL     OW27304   1.907   6.598   5.977
 8802SOL    HW127305   1.887   6.684   6.023
 8802SOL    HW227306   1.830   6.572   5.919
 8803SOL     OW27307   6.862   6.750   0.436
 8803SOL    HW127308   6.909   6.743   0.348
 8803SOL    HW227309   6.813   6.665   0.454
 8804SOL     OW27310   2.518   6.418   1.574
 8804SOL    HW127311   2.486   6.325   1.557
 8804SOL    HW227312   2.614   6.415   1.601
 8805SOL     OW27313   3.595   6.417   3.160
 8805SOL    HW127314   3.569   6.513   3.150
 8805SOL    HW227315   3.628   6.401   3.253
 8806SOL     OW27316   3.102   4.604   0.920
 8806SOL    HW127317   3.112   4.556   1.007
 8806SOL    HW227318   3.179   4.667   0.908
 8807SOL     OW27319   4.868   1.557   0.447
 8807SOL    HW127320   4.902   1.651   0.439
 8807SOL    HW227321   4.768   1.556   0.434
 8808SOL     OW27322   6.536   2.910   6.546
 8808SOL    HW127323   6.575   2.824   6.512
 8808SOL    HW227324   6.451   2.891   6.594
 8809SOL     OW27325   3.300   4.969   3.820
 8809SOL    HW127326   3.291   5.055   3.770
 8809SOL    HW227327   3.395   4.939   3.816
 8810SOL     OW27328   6.184   0.274   5.336
 8810SOL    HW127329   6.262   0.260   5.275
 8810SOL    HW227330   6.210   0.253   5.430
 8811SOL     OW27331   3.490   1.298   3.054
 8811SOL    HW127332   3.476   1.200   3.068
 8811SOL    HW227333   3.428   1.331   2.983
 8812SOL     OW27334   1.664   0.861   0.813
 8812SOL    HW127335   1.655   0.820   0.903
 8812SOL    HW227336   1.582   0.839   0.758
 8813SOL     OW27337   2.060   5.704   3.154
 8813SOL    HW127338   2.113   5.709   3.238
 8813SOL    HW227339   1.983   5.767   3.159
 8814SOL     OW27340   6.648   0.093   0.893
 8814SOL    HW127341   6.683   0.009   0.934
 8814SOL    HW227342   6.555   0.109   0.926
 8815SOL     OW27343   4.994   6.986   1.542
 8815SOL    HW127344   5.061   0.023   1.581
 8815SOL    HW227345   5.043   6.915   1.490
 8816SOL     OW27346   0.869   6.571   6.947
 8816SOL    HW127347   0.917   6.488   6.974
 8816SOL    HW227348   0.929   6.626   6.888
 8817SOL     OW27349   0.096   4.310   4.086
 8817SOL    HW127350   0.147   4.247   4.145
 8817SOL    HW227351   0.024   4.260   4.039
 8818SOL     OW27352   1.107   4.838   4.097
 8818SOL    HW127353   1.033   4.774   4.077
 8818SOL    HW227354   1.069   4.924   4.131
 8819SOL     OW27355   5.312   5.309   5.589
 8819SOL    HW127356   5.312   5.277   5.494
 8819SOL    HW227357   5.360   5.243   5.646
 8820SOL     OW27358   2.823   0.862   5.512
 8820SOL    HW127359   2.813   0.934   5.443
 8820SOL    HW227360   2.917   0.863   5.547
 8821SOL     OW27361   2.289   5.782   0.882
 8821SOL    HW127362   2.191   5.791   0.898
 8821SOL    HW227363   2.330   5.730   0.957
 8822SOL     OW27364   1.007   1.143   4.325
 8822SOL    HW127365   0.914   1.133   4.290
 8822SOL    HW227366   1.065   1.183   4.254
 8823SOL     OW27367   2.562   1.030   2.793
 8823SOL    HW127368   2.628   0.961   2.764
 8823SOL    HW227369   2.570   1.110   2.734
 8824SOL     OW27370   1.567   1.140   0.145
 8824SOL    HW127371   1.473   1.125   0.115
 8824SOL    HW227372   1.607   1.053   0.173
 8825SOL     OW27373   1.784   0.951   2.144
 8825SOL    HW127374   1.708   0.995   2.192
 8825SOL    HW227375   1.747   0.892   2.072
 8826SOL     OW27376   0.454   3.978   0.240
 8826SOL    HW127377   0.544   4.014   0.264
 8826SOL    HW227378   0.408   3.945   0.323
 8827SOL     OW27379   4.060   0.464   3.445
 8827SOL    HW127380   4.072   0.551   3.493
 8827SOL    HW227381   4.028   0.481   3.352
 8828SOL     OW27382   3.681   5.339   6.558
 8828SOL    HW127383   3.589   5.333   6.597
 8828SOL    HW227384   3.693   5.269   6.488
 8829SOL     OW27385   5.458   2.249   1.290
 8829SOL    HW127386   5.555   2.234   1.273
 8829SOL    HW227387   5.417   2.167   1.330
 8830SOL     OW27388   2.024   1.582   2.486
 8830SOL    HW127389   1.934   1.538   2.486
 8830SOL    HW227390   2.021   1.663   2.427
 8831SOL     OW27391   5.182   2.496   3.614
 8831SOL    HW127392   5.117   2.503   3.539
 8831SOL    HW227393   5.181   2.581   3.667
 8832SOL     OW27394   6.969   6.482   3.788
 8832SOL    HW127395   6.986   6.458   3.692
 8832SOL    HW227396   0.029   6.481   3.839
 8833SOL     OW27397   2.699   5.457   6.441
 8833SOL    HW127398   2.701   5.428   6.537
 8833SOL    HW227399   2.623   5.412   6.394
 8834SOL     OW27400   5.909   4.087   4.540
 8834SOL    HW127401   5.941   4.134   4.458
 8834SOL    HW227402   5.939   3.991   4.538
 8835SOL     OW27403   5.292   1.049   5.914
 8835SOL    HW127404   5.353   1.057   5.834
 8835SOL    HW227405   5.200   1.023   5.883
 8836SOL     OW27406   5.171   2.248   0.453
 8836SOL    HW127407   5.142   2.155   0.431
 8836SOL    HW227408   5.102   2.294   0.508
 8837SOL     OW27409   0.225   0.016   2.798
 8837SOL    HW127410   0.282   7.015   2.720
 8837SOL    HW227411   0.211   6.963   2.857
 8838SOL     OW27412   2.094   4.659   3.796
 8838SOL    HW127413   2.190   4.675   3.817
 8838SOL    HW227414   2.073   4.695   3.705
 8839SOL     OW27415   4.299   5.500   1.713
 8839SOL    HW127416   4.342   5.534   1.797
 8839SOL    HW227417   4.361   5.438   1.666
 8840SOL     OW27418   0.090   1.073   2.990
 8840SOL    HW127419   0.111   1.168   3.013
 8840SOL    HW227420   7.017   1.058   2.997
 8841SOL     OW27421   0.621   1.364   4.860
 8841SOL    HW127422   0.612   1.270   4.894
 8841SOL    HW227423   0.702   1.406   4.900
 8842SOL     OW27424   3.263   3.103   3.409
 8842SOL    HW127425   3.291   3.041   3.482
 8842SOL    HW227426   3.291   3.066   3.320
 8843SOL     OW27427   1.492   3.186   4.767
 8843SOL    HW127428   1.573   3.201   4.711
 8843SOL    HW227429   1.492   3.092   4.800
 8844SOL     OW27430   0.686   1.651   5.241
 8844SOL    HW127431   0.651   1.559   5.252
 8844SOL    HW227432   0.638   1.713   5.304
 8845SOL     OW27433   2.869   3.854   1.279
 8845SOL    HW127434   2.802   3.904   1.335
 8845SOL    HW227435   2.826   3.775   1.237
 8846SOL     OW27436   3.827   5.005   4.519
 8846SOL    HW127437   3.730   5.028   4.516
 8846SOL    HW227438   3.874   5.049   4.443
 8847SOL     OW27439   2.556   1.129   3.089
 8847SOL    HW127440   2.582   1.053   3.029
 8847SOL    HW227441   2.481   1.180   3.047
 8848SOL     OW27442   2.459   2.532   2.448
 8848SOL    HW127443   2.498   2.540   2.357
 8848SOL    HW227444   2.366   2.569   2.448
 8849SOL     OW27445   3.778   5.813   3.791
 8849SOL    HW127446   3.806   5.720   3.818
 8849SOL    HW227447   3.802   5.828   3.695
 8850SOL     OW27448   2.018   0.800   6.508
 8850SOL    HW127449   1.983   0.802   6.414
 8850SOL    HW227450   2.034   0.894   6.539
 8851SOL     OW27451   0.655   5.186   2.155
 8851SOL    HW127452   0.685   5.162   2.247
 8851SOL    HW227453   0.716   5.142   2.088
 8852SOL     OW27454   4.069   3.969   5.936
 8852SOL    HW127455   4.016   3.965   6.021
 8852SOL    HW227456   4.161   4.002   5.956
 8853SOL     OW27457   3.302   1.223   6.229
 8853SOL    HW127458   3.220   1.245   6.176
 8853SOL    HW227459   3.283   1.148   6.292
 8854SOL     OW27460   3.092   1.735   6.171
 8854SOL    HW127461   3.060   1.807   6.109
 8854SOL    HW227462   3.132   1.660   6.119
 8855SOL     OW27463   0.126   6.034   0.359
 8855SOL    HW127464   0.042   6.083   0.382
 8855SOL    HW227465   0.157   5.982   0.439
 8856SOL     OW27466   6.548   0.642   6.301
 8856SOL    HW127467   6.516   0.717   6.243
 8856SOL    HW227468   6.643   0.661   6.330
 8857SOL     OW27469   6.846   1.669   3.767
 8857SOL    HW127470   6.887   1.630   3.849
 8857SOL    HW227471   6.919   1.706   3.708
 8858SOL     OW27472   1.221   2.663   5.568
 8858SOL    HW127473   1.202   2.579   5.516
 8858SOL    HW227474   1.190   2.742   5.515
 8859SOL     OW27475   6.582   0.934   4.123
 8859SOL    HW127476   6.679   0.935   4.144
 8859SOL    HW227477   6.531   0.901   4.203
 8860SOL     OW27478   0.741   3.083   2.743
 8860SOL    HW127479   0.704   3.094   2.835
 8860SOL    HW227480   0.831   3.040   2.747
 8861SOL     OW27481   3.988   1.877   5.924
 8861SOL    HW127482   4.032   1.962   5.895
 8861SOL    HW227483   4.055   1.817   5.967
 8862SOL     OW27484   6.243   0.362   3.503
 8862SOL    HW127485   6.280   0.445   3.545
 8862SOL    HW227486   6.315   0.316   3.450
 8863SOL     OW27487   1.583   5.110   4.388
 8863SOL    HW127488   1.586   5.018   4.350
 8863SOL    HW227489   1.674   5.152   4.383
 8864SOL     OW27490   3.190   3.195   5.885
 8864SOL    HW127491   3.168   3.256   5.809
 8864SOL    HW227492   3.288   3.176   5.886
 8865SOL     OW27493   2.733   1.596   6.066
 8865SOL    HW127494   2.783   1.632   5.988
 8865SOL    HW227495   2.768   1.637   6.150
 8866SOL     OW27496   5.427   6.790   3.234
 8866SOL    HW127497   5.395   6.713   3.289
 8866SOL    HW227498   5.366   6.868   3.248
 8867SOL     OW27499   5.111   3.375   2.147
 8867SOL    HW127500   5.019   3.341   2.129
 8867SOL    HW227501   5.115   3.411   2.241
 8868SOL     OW27502   6.505   2.597   0.202
 8868SOL    HW127503   6.588   2.543   0.216
 8868SOL    HW227504   6.480   2.595   0.105
 8869SOL     OW27505   4.173   5.842   4.847
 8869SOL    HW127506   4.154   5.767   4.910
 8869SOL    HW227507   4.167   5.808   4.753
 8870SOL     OW27508   4.055   0.456   6.850
 8870SOL    HW127509   4.067   0.437   6.752
 8870SOL    HW227510   3.958   0.450   6.873
 8871SOL     OW27511   1.420   0.371   4.129
 8871SOL    HW127512   1.473   0.287   4.114
 8871SOL    HW227513   1.325   0.356   4.099
 8872SOL     OW27514   1.738   4.545   5.079
 8872SOL    HW127515   1.746   4.493   4.993
 8872SOL    HW227516   1.651   4.594   5.081
 8873SOL     OW27517   0.920   5.809   2.391
 8873SOL    HW127518   0.864   5.863   2.454
 8873SOL    HW227519   0.861   5.755   2.331
 8874SOL     OW27520   2.776   5.883   1.889
 8874SOL    HW127521   2.829   5.926   1.962
 8874SOL    HW227522   2.831   5.880   1.806
 8875SOL     OW27523   6.426   3.736   4.737
 8875SOL    HW127524   6.459   3.820   4.780
 8875SOL    HW227525   6.416   3.664   4.806
 8876SOL     OW27526   2.062   6.776   4.576
 8876SOL    HW127527   2.139   6.718   4.550
 8876SOL    HW227528   2.008   6.797   4.495
 8877SOL     OW27529   2.801   0.646   4.038
 8877SOL    HW127530   2.756   0.683   4.119
 8877SOL    HW227531   2.900   0.657   4.047
 8878SOL     OW27532   6.212   5.202   6.939
 8878SOL    HW127533   6.182   5.165   6.851
 8878SOL    HW227534   6.271   5.282   6.922
 8879SOL     OW27535   4.954   4.171   1.841
 8879SOL    HW127536   4.904   4.162   1.927
 8879SOL    HW227537   5.004   4.258   1.841
 8880SOL     OW27538   5.728   5.551   4.387
 8880SOL    HW127539   5.673   5.530   4.468
 8880SOL    HW227540   5.754   5.647   4.388
 8881SOL     OW27541   6.504   0.193   4.004
 8881SOL    HW127542   6.456   0.158   3.923
 8881SOL    HW227543   6.568   0.124   4.036
 8882SOL     OW27544   5.550   1.792   0.891
 8882SOL    HW127545   5.545   1.854   0.969
 8882SOL    HW227546   5.495   1.828   0.816
 8883SOL     OW27547   2.025   6.443   6.419
 8883SOL    HW127548   2.075   6.441   6.332
 8883SOL    HW227549   1.940   6.390   6.409
 8884SOL     OW27550   6.167   4.184   6.315
 8884SOL    HW127551   6.216   4.099   6.297
 8884SOL    HW227552   6.201   4.225   6.400
 8885SOL     OW27553   0.342   3.093   0.679
 8885SOL    HW127554   0.285   3.043   0.744
 8885SOL    HW227555   0.416   3.033   0.647
 8886SOL     OW27556   3.196   6.443   4.657
 8886SOL    HW127557   3.166   6.474   4.567
 8886SOL    HW227558   3.117   6.429   4.716
 8887SOL     OW27559   3.265   1.570   1.108
 8887SOL    HW127560   3.250   1.507   1.184
 8887SOL    HW227561   3.363   1.585   1.095
 8888SOL     OW27562   1.347   1.731   0.226
 8888SOL    HW127563   1.347   1.754   0.129
 8888SOL    HW227564   1.269   1.774   0.271
 8889SOL     OW27565   6.233   0.258   5.636
 8889SOL    HW127566   6.138   0.271   5.665
 8889SOL    HW227567   6.279   0.346   5.632
 8890SOL     OW27568   6.399   5.535   3.919
 8890SOL    HW127569   6.437   5.484   3.842
 8890SOL    HW227570   6.357   5.471   3.984
 8891SOL     OW27571   5.362   3.352   5.950
 8891SOL    HW127572   5.404   3.351   5.860
 8891SOL    HW227573   5.327   3.261   5.972
 8892SOL     OW27574   3.810   5.598   3.389
 8892SOL    HW127575   3.880   5.527   3.389
 8892SOL    HW227576   3.725   5.562   3.353
 8893SOL     OW27577   0.888   5.919   3.604
 8893SOL    HW127578   0.819   5.991   3.596
 8893SOL    HW227579   0.846   5.837   3.642
 8894SOL     OW27580   4.644   2.730   6.205
 8894SOL    HW127581   4.589   2.667   6.150
 8894SOL    HW227582   4.704   2.783   6.146
 8895SOL     OW27583   6.477   2.257   2.329
 8895SOL    HW127584   6.401   2.271   2.265
 8895SOL    HW227585   6.453   2.187   2.395
 8896SOL     OW27586   2.245   3.519   5.618
 8896SOL    HW127587   2.149   3.542   5.635
 8896SOL    HW227588   2.255   3.420   5.614
 8897SOL     OW27589   2.083   2.816   3.412
 8897SOL    HW127590   2.172   2.779   3.385
 8897SOL    HW227591   2.077   2.820   3.512
 8898SOL     OW27592   5.203   3.883   3.538
 8898SOL    HW127593   5.227   3.922   3.627
 8898SOL    HW227594   5.269   3.914   3.469
 8899SOL     OW27595   2.213   5.362   0.992
 8899SOL    HW127596   2.222   5.266   0.965
 8899SOL    HW227597   2.128   5.399   0.954
 8900SOL     OW27598   6.380   3.401   2.522
 8900SOL    HW127599   6.436   3.329   2.481
 8900SOL    HW227600   6.284   3.384   2.501
 8901SOL     OW27601   1.795   0.833   4.381
 8901SOL    HW127602   1.862   0.764   4.408
 8901SOL    HW227603   1.821   0.921   4.419
 8902SOL     OW27604   2.589   0.346   0.717
 8902SOL    HW127605   2.555   0.254   0.702
 8902SOL    HW227606   2.544   0.386   0.797
 8903SOL     OW27607   1.540   1.497   4.902
 8903SOL    HW127608   1.454   1.548   4.903
 8903SOL    HW227609   1.520   1.399   4.903
 8904SOL     OW27610   5.591   6.209   4.204
 8904SOL    HW127611   5.597   6.134   4.139
 8904SOL    HW227612   5.502   6.206   4.250
 8905SOL     OW27613   1.704   4.476   3.630
 8905SOL    HW127614   1.711   4.413   3.553
 8905SOL    HW227615   1.753   4.560   3.609
 8906SOL     OW27616   0.251   6.253   0.272
 8906SOL    HW127617   0.346   6.265   0.243
 8906SOL    HW227618   0.232   6.155   0.285
 8907SOL     OW27619   2.759   2.357   4.751
 8907SOL    HW127620   2.803   2.437   4.712
 8907SOL    HW227621   2.822   2.311   4.814
 8908SOL     OW27622   0.875   3.686   6.697
 8908SOL    HW127623   0.968   3.717   6.716
 8908SOL    HW227624   0.839   3.735   6.618
 8909SOL     OW27625   2.620   0.809   5.735
 8909SOL    HW127626   2.685   0.825   5.809
 8909SOL    HW227627   2.669   0.792   5.650
 8910SOL     OW27628   0.377   2.733   5.738
 8910SOL    HW127629   0.315   2.663   5.774
 8910SOL    HW227630   0.350   2.823   5.772
 8911SOL     OW27631   4.003   2.132   4.840
 8911SOL    HW127632   4.046   2.174   4.920
 8911SOL    HW227633   3.910   2.103   4.864
 8912SOL     OW27634   3.724   2.808   0.042
 8912SOL    HW127635   3.817   2.774   0.028
 8912SOL    HW227636   3.697   2.794   0.137
 8913SOL     OW27637   4.829   5.011   5.987
 8913SOL    HW127638   4.755   5.045   5.929
 8913SOL    HW227639   4.854   4.919   5.958
 8914SOL     OW27640   4.575   0.039   4.462
 8914SOL    HW127641   4.525   0.126   4.459
 8914SOL    HW227642   4.517   6.992   4.426
 8915SOL     OW27643   0.377   2.914   3.472
 8915SOL    HW127644   0.439   2.912   3.551
 8915SOL    HW227645   0.330   3.002   3.469
 8916SOL     OW27646   0.284   3.668   1.115
 8916SOL    HW127647   0.225   3.606   1.165
 8916SOL    HW227648   0.359   3.617   1.073
 8917SOL     OW27649   0.088   3.459   6.963
 8917SOL    HW127650   0.187   3.445   6.958
 8917SOL    HW227651   0.056   3.437   0.029
 8918SOL     OW27652   6.317   3.852   1.362
 8918SOL    HW127653   6.392   3.889   1.308
 8918SOL    HW227654   6.230   3.888   1.327
 8919SOL     OW27655   3.723   4.649   0.229
 8919SOL    HW127656   3.624   4.657   0.242
 8919SOL    HW227657   3.770   4.695   0.304
 8920SOL     OW27658   0.525   0.460   0.288
 8920SOL    HW127659   0.591   0.527   0.321
 8920SOL    HW227660   0.446   0.456   0.349
 8921SOL     OW27661   2.273   1.936   2.581
 8921SOL    HW127662   2.242   1.862   2.641
 8921SOL    HW227663   2.201   2.005   2.574
 8922SOL     OW27664   3.562   5.284   1.223
 8922SOL    HW127665   3.613   5.239   1.296
 8922SOL    HW227666   3.464   5.266   1.237
 8923SOL     OW27667   1.593   3.436   6.371
 8923SOL    HW127668   1.668   3.379   6.405
 8923SOL    HW227669   1.613   3.532   6.392
 8924SOL     OW27670   3.604   5.782   5.908
 8924SOL    HW127671   3.568   5.726   5.983
 8924SOL    HW227672   3.632   5.722   5.832
 8925SOL     OW27673   1.164   1.433   2.335
 8925SOL    HW127674   1.178   1.344   2.378
 8925SOL    HW227675   1.233   1.448   2.264
 8926SOL     OW27676   6.761   4.136   5.468
 8926SOL    HW127677   6.685   4.074   5.447
 8926SOL    HW227678   6.728   4.231   5.465
 8927SOL     OW27679   0.969   1.503   4.591
 8927SOL    HW127680   1.033   1.566   4.547
 8927SOL    HW227681   0.948   1.428   4.528
 8928SOL     OW27682   7.011   0.723   6.129
 8928SOL    HW127683   0.034   0.785   6.068
 8928SOL    HW227684   0.043   0.700   6.207
 8929SOL     OW27685   6.085   3.239   4.305
 8929SOL    HW127686   6.159   3.204   4.363
 8929SOL    HW227687   6.005   3.257   4.361
 8930SOL     OW27688   1.372   4.203   3.762
 8930SOL    HW127689   1.403   4.172   3.672
 8930SOL    HW227690   1.448   4.199   3.826
 8931SOL     OW27691   3.272   2.853   0.845
 8931SOL    HW127692   3.237   2.761   0.829
 8931SOL    HW227693   3.308   2.859   0.938
 8932SOL     OW27694   5.869   0.361   0.977
 8932SOL    HW127695   5.859   0.367   0.877
 8932SOL    HW227696   5.806   0.425   1.020
 8933SOL     OW27697   1.477   3.055   6.072
 8933SOL    HW127698   1.558   3.017   6.115
 8933SOL    HW227699   1.457   3.145   6.110
 8934SOL     OW27700   3.413   4.939   4.739
 8934SOL    HW127701   3.448   4.889   4.660
 8934SOL    HW227702   3.431   5.037   4.727
 8935SOL     OW27703   6.405   4.348   1.193
 8935SOL    HW127704   6.329   4.378   1.250
 8935SOL    HW227705   6.476   4.307   1.251
 8936SOL     OW27706   1.214   3.243   1.883
 8936SOL    HW127707   1.270   3.321   1.858
 8936SOL    HW227708   1.257   3.159   1.851
 8937SOL     OW27709   0.145   0.096   5.075
 8937SOL    HW127710   0.181   0.187   5.055
 8937SOL    HW227711   0.214   0.027   5.054
 8938SOL     OW27712   0.047   1.672   0.695
 8938SOL    HW127713   7.018   1.655   0.777
 8938SOL    HW227714   0.138   1.703   0.722
 8939SOL     OW27715   5.845   4.829   4.297
 8939SOL    HW127716   5.784   4.829   4.218
 8939SOL    HW227717   5.831   4.745   4.350
 8940SOL     OW27718   5.511   0.854   1.470
 8940SOL    HW127719   5.505   0.868   1.372
 8940SOL    HW227720   5.472   0.933   1.518
 8941SOL     OW27721   6.215   2.587   3.417
 8941SOL    HW127722   6.170   2.500   3.437
 8941SOL    HW227723   6.195   2.651   3.492
 8942SOL     OW27724   0.128   5.704   5.847
 8942SOL    HW127725   0.037   5.679   5.815
 8942SOL    HW227726   0.152   5.650   5.927
 8943SOL     OW27727   3.844   5.467   0.530
 8943SOL    HW127728   3.794   5.494   0.448
 8943SOL    HW227729   3.828   5.370   0.548
 8944SOL     OW27730   4.793   6.234   4.071
 8944SOL    HW127731   4.762   6.270   4.159
 8944SOL    HW227732   4.878   6.183   4.084
 8945SOL     OW27733   0.190   1.478   3.703
 8945SOL    HW127734   0.278   1.451   3.664
 8945SOL    HW227735   0.174   1.427   3.787
 8946SOL     OW27736   3.403   0.493   3.902
 8946SOL    HW127737   3.452   0.437   3.834
 8946SOL    HW227738   3.450   0.581   3.912
 8947SOL     OW27739   2.674   3.452   5.826
 8947SOL    HW127740   2.623   3.378   5.783
 8947SOL    HW227741   2.644   3.540   5.788
 8948SOL     OW27742   5.927   5.526   3.601
 8948SOL    HW127743   6.009   5.534   3.657
 8948SOL    HW227744   5.868   5.453   3.636
 8949SOL     OW27745   3.917   6.198   0.558
 8949SOL    HW127746   3.838   6.246   0.594
 8949SOL    HW227747   3.901   6.099   0.562
 8950SOL     OW27748   3.532   3.443   0.414
 8950SOL    HW127749   3.496   3.505   0.345
 8950SOL    HW227750   3.464   3.428   0.485
 8951SOL     OW27751   1.926   1.044   4.490
 8951SOL    HW127752   1.914   1.140   4.463
 8951SOL    HW227753   2.014   1.011   4.457
 8952SOL     OW27754   0.780   4.815   3.482
 8952SOL    HW127755   0.824   4.905   3.492
 8952SOL    HW227756   0.745   4.785   3.570
 8953SOL     OW27757   1.122   4.598   0.403
 8953SOL    HW127758   1.169   4.572   0.488
 8953SOL    HW227759   1.121   4.698   0.396
 8954SOL     OW27760   6.835   0.540   4.295
 8954SOL    HW127761   6.916   0.487   4.268
 8954SOL    HW227762   6.860   0.637   4.303
 8955SOL     OW27763   6.932   4.793   3.183
 8955SOL    HW127764   6.998   4.791   3.108
 8955SOL    HW227765   6.900   4.700   3.201
 8956SOL     OW27766   2.005   1.448   5.980
 8956SOL    HW127767   2.018   1.547   5.980
 8956SOL    HW227768   1.913   1.426   5.948
 8957SOL     OW27769   2.014   4.673   1.162
 8957SOL    HW127770   2.064   4.587   1.160
 8957SOL    HW227771   1.988   4.695   1.256
 8958SOL     OW27772   0.849   2.271   5.827
 8958SOL    HW127773   0.899   2.323   5.896
 8958SOL    HW227774   0.794   2.333   5.771
 8959SOL     OW27775   1.742   4.358   2.715
 8959SOL    HW127776   1.833   4.321   2.736
 8959SOL    HW227777   1.696   4.381   2.801
 8960SOL     OW27778   5.112   5.765   4.005
 8960SOL    HW127779   5.183   5.711   3.960
 8960SOL    HW227780   5.024   5.749   3.959
 8961SOL     OW27781   3.488   1.184   3.472
 8961SOL    HW127782   3.509   1.087   3.458
 8961SOL    HW227783   3.572   1.237   3.467
 8962SOL     OW27784   6.084   5.310   2.488
 8962SOL    HW127785   6.128   5.223   2.464
 8962SOL    HW227786   5.990   5.310   2.455
 8963SOL     OW27787   3.870   0.019   4.531
 8963SOL    HW127788   3.932   7.004   4.465
 8963SOL    HW227789   3.811   6.975   4.570
 8964SOL     OW27790   5.872   2.688   2.877
 8964SOL    HW127791   5.911   2.696   2.785
 8964SOL    HW227792   5.923   2.619   2.929
 8965SOL     OW27793   2.513   5.547   0.017
 8965SOL    HW127794   2.599   5.584   0.051
 8965SOL    HW227795   2.479   5.478   0.082
 8966SOL     OW27796   6.719   4.052   0.425
 8966SOL    HW127797   6.663   3.969   0.420
 8966SOL    HW227798   6.813   4.030   0.399
 8967SOL     OW27799   3.645   0.406   1.813
 8967SOL    HW127800   3.567   0.386   1.754
 8967SOL    HW227801   3.695   0.484   1.776
 8968SOL     OW27802   4.588   5.970   2.792
 8968SOL    HW127803   4.671   5.962   2.736
 8968SOL    HW227804   4.563   5.880   2.827
 8969SOL     OW27805   0.312   0.454   3.491
 8969SOL    HW127806   0.327   0.551   3.511
 8969SOL    HW227807   0.399   0.406   3.490
 8970SOL     OW27808   2.581   3.109   6.865
 8970SOL    HW127809   2.632   3.195   6.872
 8970SOL    HW227810   2.543   3.101   6.773
 8971SOL     OW27811   6.130   5.215   1.043
 8971SOL    HW127812   6.179   5.293   1.003
 8971SOL    HW227813   6.188   5.172   1.113
 8972SOL     OW27814   4.551   4.078   0.501
 8972SOL    HW127815   4.539   4.167   0.544
 8972SOL    HW227816   4.626   4.029   0.547
 8973SOL     OW27817   6.685   3.750   3.317
 8973SOL    HW127818   6.691   3.841   3.276
 8973SOL    HW227819   6.770   3.731   3.367
 8974SOL     OW27820   1.400   3.469   3.895
 8974SOL    HW127821   1.403   3.406   3.817
 8974SOL    HW227822   1.489   3.468   3.941
 8975SOL     OW27823   0.642   6.508   0.106
 8975SOL    HW127824   0.574   6.562   0.156
 8975SOL    HW227825   0.708   6.569   0.062
 8976SOL     OW27826   0.174   5.236   0.283
 8976SOL    HW127827   0.163   5.328   0.321
 8976SOL    HW227828   0.186   5.242   0.184
 8977SOL     OW27829   6.544   3.163   6.417
 8977SOL    HW127830   6.491   3.210   6.487
 8977SOL    HW227831   6.557   3.067   6.444
 8978SOL     OW27832   5.454   6.652   4.423
 8978SOL    HW127833   5.401   6.576   4.385
 8978SOL    HW227834   5.476   6.718   4.351
 8979SOL     OW27835   0.983   4.869   5.893
 8979SOL    HW127836   0.934   4.939   5.842
 8979SOL    HW227837   0.926   4.837   5.969
 8980SOL     OW27838   4.775   2.575   5.629
 8980SOL    HW127839   4.825   2.490   5.640
 8980SOL    HW227840   4.701   2.562   5.562
 8981SOL     OW27841   4.982   2.011   5.075
 8981SOL    HW127842   4.938   2.031   4.987
 8981SOL    HW227843   4.917   2.027   5.149
 8982SOL     OW27844   1.205   1.618   1.524
 8982SOL    HW127845   1.199   1.707   1.478
 8982SOL    HW227846   1.172   1.627   1.618
 8983SOL     OW27847   0.504   5.592   0.074
 8983SOL    HW127848   0.546   5.639   0.151
 8983SOL    HW227849   0.564   5.600   7.020
 8984SOL     OW27850   5.868   6.024   3.987
 8984SOL    HW127851   5.896   6.094   4.053
 8984SOL    HW227852   5.878   6.060   3.894
 8985SOL     OW27853   2.185   1.669   0.689
 8985SOL    HW127854   2.188   1.626   0.780
 8985SOL    HW227855   2.161   1.766   0.699
 8986SOL     OW27856   4.191   4.736   2.568
 8986SOL    HW127857   4.155   4.829   2.571
 8986SOL    HW227858   4.174   4.697   2.477
 8987SOL     OW27859   3.662   0.613   1.005
 8987SOL    HW127860   3.707   0.572   1.085
 8987SOL    HW227861   3.707   0.582   0.922
 8988SOL     OW27862   1.474   4.349   0.140
 8988SOL    HW127863   1.502   4.328   0.047
 8988SOL    HW227864   1.549   4.329   0.203
 8989SOL     OW27865   4.932   3.986   2.147
 8989SOL    HW127866   4.875   4.067   2.135
 8989SOL    HW227867   4.913   3.921   2.073
 8990SOL     OW27868   2.317   5.486   2.158
 8990SOL    HW127869   2.235   5.524   2.115
 8990SOL    HW227870   2.395   5.547   2.143
 8991SOL     OW27871   2.201   1.279   0.058
 8991SOL    HW127872   2.113   1.243   0.089
 8991SOL    HW227873   2.274   1.242   0.115
 8992SOL     OW27874   6.734   2.465   6.720
 8992SOL    HW127875   6.734   2.551   6.772
 8992SOL    HW227876   6.823   2.450   6.678
 8993SOL     OW27877   4.681   2.732   2.629
 8993SOL    HW127878   4.716   2.639   2.615
 8993SOL    HW227879   4.606   2.749   2.565
 8994SOL     OW27880   0.645   5.706   4.514
 8994SOL    HW127881   0.547   5.715   4.495
 8994SOL    HW227882   0.659   5.630   4.578
 8995SOL     OW27883   1.452   2.661   6.115
 8995SOL    HW127884   1.413   2.657   6.207
 8995SOL    HW227885   1.379   2.658   6.047
 8996SOL     OW27886   6.660   4.886   1.942
 8996SOL    HW127887   6.749   4.927   1.960
 8996SOL    HW227888   6.648   4.873   1.844
 8997SOL     OW27889   4.012   1.331   6.231
 8997SOL    HW127890   4.087   1.267   6.248
 8997SOL    HW227891   4.050   1.420   6.206
 8998SOL     OW27892   0.200   3.121   4.439
 8998SOL    HW127893   0.273   3.084   4.496
 8998SOL    HW227894   0.234   3.201   4.389
 8999SOL     OW27895   4.581   0.659   0.416
 8999SOL    HW127896   4.584   0.599   0.496
 8999SOL    HW227897   4.494   0.647   0.369
 9000SOL     OW27898   2.169   4.225   6.040
 9000SOL    HW127899   2.240   4.236   5.971
 9000SOL    HW227900   2.210   4.209   6.129
 9001SOL     OW27901   0.655   5.381   2.826
 9001SOL    HW127902   0.717   5.369   2.904
 9001SOL    HW227903   0.689   5.455   2.768
 9002SOL     OW27904   0.152   5.125   5.051
 9002SOL    HW127905   0.229   5.063   5.070
 9002SOL    HW227906   0.135   5.127   4.953
 9003SOL     OW27907   5.440   2.353   1.008
 9003SOL    HW127908   5.451   2.318   1.101
 9003SOL    HW227909   5.355   2.406   1.002
 9004SOL     OW27910   4.774   6.405   1.558
 9004SOL    HW127911   4.708   6.331   1.546
 9004SOL    HW227912   4.863   6.367   1.582
 9005SOL     OW27913   5.709   2.134   4.557
 9005SOL    HW127914   5.703   2.234   4.556
 9005SOL    HW227915   5.754   2.104   4.641
 9006SOL     OW27916   2.222   6.219   0.078
 9006SOL    HW127917   2.144   6.158   0.086
 9006SOL    HW227918   2.210   6.297   0.139
 9007SOL     OW27919   3.619   6.030   3.692
 9007SOL    HW127920   3.526   6.015   3.725
 9007SOL    HW227921   3.681   5.964   3.735
 9008SOL     OW27922   6.497   4.975   2.512
 9008SOL    HW127923   6.560   4.943   2.583
 9008SOL    HW227924   6.540   4.961   2.422
 9009SOL     OW27925   2.362   0.163   0.700
 9009SOL    HW127926   2.413   0.077   0.704
 9009SOL    HW227927   2.270   0.149   0.736
 9010SOL     OW27928   1.005   6.964   4.849
 9010SOL    HW127929   1.063   6.883   4.850
 9010SOL    HW227930   0.913   6.940   4.879
 9011SOL     OW27931   4.279   2.006   2.066
 9011SOL    HW127932   4.344   2.073   2.029
 9011SOL    HW227933   4.186   2.042   2.062
 9012SOL     OW27934   3.371   4.027   0.752
 9012SOL    HW127935   3.294   4.046   0.813
 9012SOL    HW227936   3.411   4.113   0.721
 9013SOL     OW27937   6.426   6.368   4.303
 9013SOL    HW127938   6.377   6.281   4.294
 9013SOL    HW227939   6.403   6.410   4.391
 9014SOL     OW27940   1.031   0.742   0.269
 9014SOL    HW127941   0.990   0.688   0.342
 9014SOL    HW227942   1.125   0.766   0.293
 9015SOL     OW27943   5.983   1.410   1.112
 9015SOL    HW127944   5.885   1.421   1.132
 9015SOL    HW227945   5.995   1.389   1.015
 9016SOL     OW27946   0.867   6.547   6.623
 9016SOL    HW127947   0.781   6.552   6.674
 9016SOL    HW227948   0.855   6.487   6.544
 9017SOL     OW27949   4.949   2.814   1.999
 9017SOL    HW127950   4.940   2.742   2.068
 9017SOL    HW227951   4.870   2.875   2.005
 9018SOL     OW27952   4.304   1.253   5.346
 9018SOL    HW127953   4.253   1.336   5.321
 9018SOL    HW227954   4.399   1.262   5.316
 9019SOL     OW27955   0.352   0.704   0.794
 9019SOL    HW127956   0.416   0.735   0.724
 9019SOL    HW227957   0.273   0.766   0.796
 9020SOL     OW27958   1.067   3.820   1.575
 9020SOL    HW127959   1.125   3.864   1.644
 9020SOL    HW227960   0.991   3.773   1.619
 9021SOL     OW27961   6.651   0.534   3.867
 9021SOL    HW127962   6.655   0.494   3.959
 9021SOL    HW227963   6.728   0.499   3.813
 9022SOL     OW27964   2.662   1.419   1.277
 9022SOL    HW127965   2.640   1.390   1.370
 9022SOL    HW227966   2.751   1.465   1.277
 9023SOL     OW27967   3.276   2.962   2.637
 9023SOL    HW127968   3.287   3.061   2.633
 9023SOL    HW227969   3.236   2.929   2.552
 9024SOL     OW27970   0.515   5.128   5.297
 9024SOL    HW127971   0.453   5.052   5.275
 9024SOL    HW227972   0.537   5.178   5.214
 9025SOL     OW27973   0.067   5.911   0.115
 9025SOL    HW127974   0.124   5.957   0.183
 9025SOL    HW227975   0.123   5.848   0.062
 9026SOL     OW27976   3.728   3.308   2.029
 9026SOL    HW127977   3.700   3.372   2.101
 9026SOL    HW227978   3.657   3.303   1.959
 9027SOL     OW27979   1.412   1.785   3.368
 9027SOL    HW127980   1.406   1.696   3.323
 9027SOL    HW227981   1.475   1.780   3.445
 9028SOL     OW27982   2.493   3.391   6.771
 9028SOL    HW127983   2.521   3.324   6.701
 9028SOL    HW227984   2.403   3.366   6.807
 9029SOL     OW27985   3.245   5.708   5.422
 9029SOL    HW127986   3.224   5.643   5.349
 9029SOL    HW227987   3.227   5.664   5.510
 9030SOL     OW27988   2.057   0.795   3.567
 9030SOL    HW127989   1.997   0.763   3.493
 9030SOL    HW227990   2.124   0.723   3.589
 9031SOL     OW27991   4.861   5.700   5.085
 9031SOL    HW127992   4.806   5.619   5.066
 9031SOL    HW227993   4.837   5.737   5.175
 9032SOL     OW27994   2.980   3.012   0.841
 9032SOL    HW127995   3.078   2.998   0.850
 9032SOL    HW227996   2.934   2.923   0.837
 9033SOL     OW27997   2.037   4.378   3.429
 9033SOL    HW127998   1.957   4.356   3.374
 9033SOL    HW227999   2.093   4.447   3.382
 9034SOL     OW28000   3.416   0.403   4.816
 9034SOL    HW128001   3.413   0.406   4.716
 9034SOL    HW228002   3.355   0.331   4.849
 9035SOL     OW28003   1.287   5.499   5.792
 9035SOL    HW128004   1.236   5.439   5.853
 9035SOL    HW228005   1.379   5.514   5.829
 9036SOL     OW28006   1.701   0.566   5.016
 9036SOL    HW128007   1.740   0.492   5.071
 9036SOL    HW228008   1.678   0.643   5.075
 9037SOL     OW28009   1.534   3.929   5.618
 9037SOL    HW128010   1.571   3.838   5.635
 9037SOL    HW228011   1.590   3.997   5.666
 9038SOL     OW28012   4.446   0.312   5.788
 9038SOL    HW128013   4.376   0.374   5.822
 9038SOL    HW228014   4.534   0.359   5.785
 9039SOL     OW28015   2.446   5.181   4.614
 9039SOL    HW128016   2.395   5.111   4.563
 9039SOL    HW228017   2.516   5.137   4.670
 9040SOL     OW28018   2.797   1.732   2.900
 9040SOL    HW128019   2.727   1.781   2.951
 9040SOL    HW228020   2.888   1.761   2.930
 9041SOL     OW28021   0.786   2.217   2.001
 9041SOL    HW128022   0.701   2.252   2.040
 9041SOL    HW228023   0.838   2.293   1.962
 9042SOL     OW28024   3.272   6.722   3.901
 9042SOL    HW128025   3.302   6.744   3.808
 9042SOL    HW228026   3.179   6.757   3.915
 9043SOL     OW28027   2.466   1.301   6.325
 9043SOL    HW128028   2.452   1.397   6.348
 9043SOL    HW228029   2.380   1.260   6.297
 9044SOL     OW28030   5.771   1.583   1.885
 9044SOL    HW128031   5.819   1.509   1.837
 9044SOL    HW228032   5.676   1.557   1.901
 9045SOL     OW28033   3.329   1.820   2.694
 9045SOL    HW128034   3.354   1.816   2.597
 9045SOL    HW228035   3.344   1.913   2.728
 9046SOL     OW28036   3.273   3.726   4.212
 9046SOL    HW128037   3.174   3.723   4.220
 9046SOL    HW228038   3.299   3.764   4.123
 9047SOL     OW28039   1.592   3.374   5.256
 9047SOL    HW128040   1.645   3.343   5.335
 9047SOL    HW228041   1.608   3.472   5.243
 9048SOL     OW28042   6.123   2.610   6.004
 9048SOL    HW128043   6.175   2.575   5.926
 9048SOL    HW228044   6.119   2.710   5.999
 9049SOL     OW28045   3.920   0.126   6.780
 9049SOL    HW128046   3.997   0.122   6.717
 9049SOL    HW228047   3.843   0.075   6.742
 9050SOL     OW28048   0.624   4.463   5.870
 9050SOL    HW128049   0.668   4.399   5.932
 9050SOL    HW228050   0.664   4.455   5.779
 9051SOL     OW28051   4.248   6.024   0.611
 9051SOL    HW128052   4.303   6.003   0.692
 9051SOL    HW228053   4.246   5.945   0.550
 9052SOL     OW28054   1.554   2.342   3.083
 9052SOL    HW128055   1.506   2.386   3.159
 9052SOL    HW228056   1.502   2.358   2.999
 9053SOL     OW28057   1.986   1.430   3.056
 9053SOL    HW128058   2.047   1.403   3.130
 9053SOL    HW228059   1.936   1.512   3.082
 9054SOL     OW28060   1.559   0.101   2.095
 9054SOL    HW128061   1.649   0.141   2.079
 9054SOL    HW228062   1.524   0.063   2.010
 9055SOL     OW28063   6.569   4.015   3.455
 9055SOL    HW128064   6.601   4.001   3.361
 9055SOL    HW228065   6.544   3.927   3.494
 9056SOL     OW28066   6.083   0.037   1.684
 9056SOL    HW128067   6.105   0.124   1.642
 9056SOL    HW228068   6.148   0.017   1.758
 9057SOL     OW28069   5.978   5.091   5.668
 9057SOL    HW128070   5.893   5.137   5.694
 9057SOL    HW228071   6.038   5.157   5.622
 9058SOL     OW28072   1.908   1.912   3.929
 9058SOL    HW128073   1.977   1.863   3.983
 9058SOL    HW228074   1.953   1.972   3.863
 9059SOL     OW28075   1.075   1.222   4.578
 9059SOL    HW128076   1.057   1.178   4.490
 9059SOL    HW228077   1.035   1.167   4.651
 9060SOL     OW28078   0.148   2.681   2.499
 9060SOL    HW128079   0.177   2.632   2.417
 9060SOL    HW228080   0.158   2.622   2.579
 9061SOL     OW28081   3.295   5.517   2.140
 9061SOL    HW128082   3.374   5.519   2.201
 9061SOL    HW228083   3.302   5.592   2.074
 9062SOL     OW28084   1.757   5.339   1.912
 9062SOL    HW128085   1.662   5.351   1.884
 9062SOL    HW228086   1.777   5.241   1.920
 9063SOL     OW28087   2.185   6.581   2.645
 9063SOL    HW128088   2.246   6.609   2.571
 9063SOL    HW228089   2.239   6.547   2.722
 9064SOL     OW28090   6.059   3.964   5.164
 9064SOL    HW128091   6.096   3.910   5.240
 9064SOL    HW228092   5.975   3.922   5.131
 9065SOL     OW28093   3.425   6.272   6.936
 9065SOL    HW128094   3.400   6.313   6.849
 9065SOL    HW228095   3.358   6.300   7.006
 9066SOL     OW28096   5.959   0.726   0.182
 9066SOL    HW128097   6.007   0.806   0.148
 9066SOL    HW228098   6.019   0.674   0.243
 9067SOL     OW28099   6.319   0.191   4.453
 9067SOL    HW128100   6.274   0.280   4.453
 9067SOL    HW228101   6.299   0.143   4.368
 9068SOL     OW28102   3.024   0.429   4.987
 9068SOL    HW128103   2.989   0.446   5.079
 9068SOL    HW228104   3.089   0.500   4.962
 9069SOL     OW28105   2.692   2.470   1.789
 9069SOL    HW128106   2.779   2.473   1.838
 9069SOL    HW228107   2.689   2.389   1.731
 9070SOL     OW28108   1.015   3.434   5.713
 9070SOL    HW128109   1.042   3.442   5.617
 9070SOL    HW228110   0.932   3.487   5.729
 9071SOL     OW28111   4.977   0.004   0.429
 9071SOL    HW128112   5.058   7.022   0.370
 9071SOL    HW228113   4.901   6.981   0.387
 9072SOL     OW28114   5.928   1.187   2.094
 9072SOL    HW128115   5.972   1.248   2.028
 9072SOL    HW228116   5.829   1.201   2.093
 9073SOL     OW28117   3.343   6.504   0.812
 9073SOL    HW128118   3.373   6.474   0.903
 9073SOL    HW228119   3.304   6.426   0.763
 9074SOL     OW28120   2.037   0.978   2.046
 9074SOL    HW128121   1.949   0.951   2.085
 9074SOL    HW228122   2.073   1.057   2.096
 9075SOL     OW28123   0.892   0.425   1.578
 9075SOL    HW128124   0.848   0.446   1.666
 9075SOL    HW228125   0.826   0.378   1.519
 9076SOL     OW28126   6.070   1.554   4.803
 9076SOL    HW128127   6.015   1.636   4.791
 9076SOL    HW228128   6.167   1.578   4.806
 9077SOL     OW28129   5.918   0.682   6.936
 9077SOL    HW128130   5.821   0.695   6.956
 9077SOL    HW228131   5.970   0.684   7.022
 9078SOL     OW28132   4.332   3.865   6.799
 9078SOL    HW128133   4.337   3.782   6.854
 9078SOL    HW228134   4.387   3.937   6.842
 9079SOL     OW28135   2.290   6.026   4.059
 9079SOL    HW128136   2.318   6.087   3.986
 9079SOL    HW228137   2.234   5.952   4.022
 9080SOL     OW28138   5.692   2.081   0.631
 9080SOL    HW128139   5.680   1.996   0.580
 9080SOL    HW228140   5.614   2.141   0.616
 9081SOL     OW28141   4.029   6.735   2.764
 9081SOL    HW128142   3.948   6.711   2.818
 9081SOL    HW228143   4.048   6.832   2.773
 9082SOL     OW28144   3.189   6.660   5.619
 9082SOL    HW128145   3.148   6.668   5.710
 9082SOL    HW228146   3.120   6.685   5.550
 9083SOL     OW28147   3.940   4.272   5.836
 9083SOL    HW128148   4.013   4.327   5.878
 9083SOL    HW228149   3.870   4.252   5.905
 9084SOL     OW28150   3.089   3.870   5.579
 9084SOL    HW128151   3.071   3.845   5.484
 9084SOL    HW228152   3.171   3.824   5.611
 9085SOL     OW28153   1.540   4.707   0.585
 9085SOL    HW128154   1.572   4.690   0.678
 9085SOL    HW228155   1.503   4.799   0.578
 9086SOL     OW28156   0.661   4.688   0.526
 9086SOL    HW128157   0.657   4.752   0.449
 9086SOL    HW228158   0.737   4.624   0.513
 9087SOL     OW28159   4.602   2.553   2.090
 9087SOL    HW128160   4.560   2.539   2.001
 9087SOL    HW228161   4.554   2.499   2.159
 9088SOL     OW28162   6.122   6.107   0.915
 9088SOL    HW128163   6.038   6.059   0.938
 9088SOL    HW228164   6.157   6.155   0.995
 9089SOL     OW28165   5.019   6.251   5.120
 9089SOL    HW128166   5.024   6.166   5.172
 9089SOL    HW228167   5.102   6.260   5.064
 9090SOL     OW28168   6.392   6.300   3.607
 9090SOL    HW128169   6.427   6.207   3.611
 9090SOL    HW228170   6.458   6.362   3.652
 9091SOL     OW28171   2.767   3.529   0.936
 9091SOL    HW128172   2.845   3.518   0.998
 9091SOL    HW228173   2.795   3.581   0.856
 9092SOL     OW28174   6.950   1.988   1.021
 9092SOL    HW128175   6.860   1.954   0.997
 9092SOL    HW228176   6.968   2.073   0.970
 9093SOL     OW28177   1.320   6.445   6.227
 9093SOL    HW128178   1.367   6.456   6.314
 9093SOL    HW228179   1.228   6.409   6.243
 9094SOL     OW28180   5.981   5.470   2.878
 9094SOL    HW128181   6.025   5.384   2.902
 9094SOL    HW228182   5.883   5.456   2.866
 9095SOL     OW28183   4.543   3.916   6.147
 9095SOL    HW128184   4.486   3.976   6.090
 9095SOL    HW228185   4.612   3.970   6.193
 9096SOL     OW28186   5.551   4.164   1.806
 9096SOL    HW128187   5.597   4.242   1.763
 9096SOL    HW228188   5.591   4.148   1.896
 9097SOL     OW28189   1.282   1.984   6.842
 9097SOL    HW128190   1.234   1.923   6.778
 9097SOL    HW228191   1.251   1.965   6.935
 9098SOL     OW28192   3.788   2.092   6.424
 9098SOL    HW128193   3.807   2.080   6.326
 9098SOL    HW228194   3.817   2.183   6.453
 9099SOL     OW28195   2.599   2.839   6.597
 9099SOL    HW128196   2.659   2.870   6.523
 9099SOL    HW228197   2.510   2.812   6.559
 9100SOL     OW28198   0.480   3.921   4.138
 9100SOL    HW128199   0.535   3.911   4.221
 9100SOL    HW228200   0.500   3.846   4.075
 9101SOL     OW28201   2.162   2.214   2.972
 9101SOL    HW128202   2.255   2.200   3.005
 9101SOL    HW228203   2.130   2.304   3.000
 9102SOL     OW28204   2.777   0.429   1.643
 9102SOL    HW128205   2.797   0.527   1.640
 9102SOL    HW228206   2.693   0.414   1.694
 9103SOL     OW28207   6.227   3.167   6.592
 9103SOL    HW128208   6.291   3.243   6.586
 9103SOL    HW228209   6.157   3.187   6.661
 9104SOL     OW28210   6.617   6.475   2.175
 9104SOL    HW128211   6.554   6.413   2.129
 9104SOL    HW228212   6.695   6.423   2.210
 9105SOL     OW28213   1.609   1.609   0.221
 9105SOL    HW128214   1.516   1.645   0.230
 9105SOL    HW228215   1.645   1.633   0.131
 9106SOL     OW28216   6.880   3.579   6.919
 9106SOL    HW128217   6.971   3.542   6.937
 9106SOL    HW228218   6.888   3.662   6.864
 9107SOL     OW28219   3.563   1.460   6.364
 9107SOL    HW128220   3.463   1.466   6.362
 9107SOL    HW228221   3.589   1.367   6.392
 9108SOL     OW28222   4.731   3.983   5.700
 9108SOL    HW128223   4.789   4.006   5.778
 9108SOL    HW228224   4.644   3.947   5.733
 9109SOL     OW28225   6.987   2.325   2.926
 9109SOL    HW128226   6.895   2.318   2.963
 9109SOL    HW228227   7.000   2.417   2.887
 9110SOL     OW28228   2.167   3.762   3.612
 9110SOL    HW128229   2.203   3.713   3.692
 9110SOL    HW228230   2.123   3.698   3.550
 9111SOL     OW28231   4.958   1.824   0.809
 9111SOL    HW128232   4.968   1.904   0.749
 9111SOL    HW228233   5.048   1.784   0.826
 9112SOL     OW28234   0.413   5.134   3.563
 9112SOL    HW128235   0.444   5.041   3.580
 9112SOL    HW228236   0.456   5.197   3.628
 9113SOL     OW28237   4.880   1.178   2.821
 9113SOL    HW128238   4.965   1.138   2.789
 9113SOL    HW228239   4.889   1.278   2.823
 9114SOL     OW28240   0.217   4.267   2.041
 9114SOL    HW128241   0.205   4.185   1.985
 9114SOL    HW228242   0.280   4.247   2.116
 9115SOL     OW28243   0.032   5.805   4.495
 9115SOL    HW128244   7.020   5.886   4.538
 9115SOL    HW228245   7.005   5.724   4.519
 9116SOL     OW28246   6.358   0.921   1.865
 9116SOL    HW128247   6.448   0.891   1.896
 9116SOL    HW228248   6.364   0.952   1.770
 9117SOL     OW28249   5.628   2.688   0.754
 9117SOL    HW128250   5.594   2.705   0.661
 9117SOL    HW228251   5.715   2.639   0.749
 9118SOL     OW28252   6.703   3.678   0.116
 9118SOL    HW128253   6.611   3.660   0.081
 9118SOL    HW228254   6.770   3.626   0.062
 9119SOL     OW28255   4.423   0.406   2.379
 9119SOL    HW128256   4.386   0.458   2.303
 9119SOL    HW228257   4.457   0.469   2.449
 9120SOL     OW28258   6.739   1.826   5.873
 9120SOL    HW128259   6.689   1.908   5.902
 9120SOL    HW228260   6.718   1.807   5.777
 9121SOL     OW28261   4.523   1.099   4.605
 9121SOL    HW128262   4.556   1.087   4.512
 9121SOL    HW228263   4.595   1.076   4.670
 9122SOL     OW28264   2.122   4.044   2.196
 9122SOL    HW128265   2.118   3.984   2.276
 9122SOL    HW228266   2.164   3.995   2.119
 9123SOL     OW28267   2.841   0.552   3.565
 9123SOL    HW128268   2.870   0.646   3.579
 9123SOL    HW228269   2.769   0.528   3.630
 9124SOL     OW28270   5.518   6.393   0.258
 9124SOL    HW128271   5.455   6.391   0.335
 9124SOL    HW228272   5.467   6.412   0.174
 9125SOL     OW28273   4.787   3.992   0.596
 9125SOL    HW128274   4.810   3.918   0.659
 9125SOL    HW228275   4.851   3.991   0.519
 9126SOL     OW28276   6.131   3.472   1.242
 9126SOL    HW128277   6.157   3.434   1.153
 9126SOL    HW228278   6.067   3.410   1.288
 9127SOL     OW28279   0.100   1.934   6.386
 9127SOL    HW128280   0.007   1.921   6.419
 9127SOL    HW228281   0.165   1.916   6.461
 9128SOL     OW28282   6.092   1.873   5.515
 9128SOL    HW128283   6.111   1.971   5.511
 9128SOL    HW228284   6.056   1.843   5.426
 9129SOL     OW28285   0.112   2.502   0.435
 9129SOL    HW128286   0.088   2.417   0.482
 9129SOL    HW228287   0.175   2.483   0.361
 9130SOL     OW28288   0.210   3.001   6.010
 9130SOL    HW128289   0.257   3.020   5.924
 9130SOL    HW228290   0.124   2.954   5.991
 9131SOL     OW28291   5.603   3.068   5.715
 9131SOL    HW128292   5.583   2.980   5.758
 9131SOL    HW228293   5.642   3.052   5.624
 9132SOL     OW28294   0.400   5.741   4.372
 9132SOL    HW128295   0.312   5.727   4.326
 9132SOL    HW228296   0.386   5.790   4.458
 9133SOL     OW28297   3.598   6.828   1.623
 9133SOL    HW128298   3.646   6.799   1.540
 9133SOL    HW228299   3.665   6.851   1.694
 9134SOL     OW28300   3.871   5.976   1.416
 9134SOL    HW128301   3.787   6.028   1.429
 9134SOL    HW228302   3.929   6.022   1.349
 9135SOL     OW28303   6.237   0.008   1.895
 9135SOL    HW128304   6.253   0.043   1.987
 9135SOL    HW228305   6.260   6.937   1.892
 9136SOL     OW28306   4.927   6.640   0.227
 9136SOL    HW128307   4.988   6.663   0.151
 9136SOL    HW228308   4.935   6.543   0.248
 9137SOL     OW28309   5.391   1.137   0.465
 9137SOL    HW128310   5.458   1.156   0.537
 9137SOL    HW228311   5.308   1.191   0.481
 9138SOL     OW28312   0.170   6.119   6.326
 9138SOL    HW128313   0.255   6.140   6.278
 9138SOL    HW228314   0.146   6.023   6.311
 9139SOL     OW28315   1.908   1.653   3.283
 9139SOL    HW128316   1.983   1.719   3.290
 9139SOL    HW228317   1.890   1.614   3.374
 9140SOL     OW28318   6.858   3.021   2.563
 9140SOL    HW128319   6.949   2.979   2.565
 9140SOL    HW228320   6.854   3.087   2.488
 9141SOL     OW28321   5.330   0.106   0.987
 9141SOL    HW128322   5.316   0.007   0.982
 9141SOL    HW228323   5.247   0.152   0.955
 9142SOL     OW28324   0.549   2.735   1.196
 9142SOL    HW128325   0.625   2.767   1.254
 9142SOL    HW228326   0.479   2.695   1.254
 9143SOL     OW28327   6.389   2.816   0.330
 9143SOL    HW128328   6.445   2.737   0.304
 9143SOL    HW228329   6.322   2.834   0.259
 9144SOL     OW28330   2.840   5.079   4.537
 9144SOL    HW128331   2.876   4.987   4.553
 9144SOL    HW228332   2.747   5.073   4.499
 9145SOL     OW28333   0.366   5.514   6.680
 9145SOL    HW128334   0.465   5.501   6.668
 9145SOL    HW228335   0.317   5.442   6.631
 9146SOL     OW28336   5.628   3.292   3.733
 9146SOL    HW128337   5.644   3.193   3.740
 9146SOL    HW228338   5.593   3.327   3.819
 9147SOL     OW28339   6.188   6.621   5.678
 9147SOL    HW128340   6.228   6.578   5.597
 9147SOL    HW228341   6.235   6.708   5.697
 9148SOL     OW28342   5.547   6.227   1.536
 9148SOL    HW128343   5.628   6.171   1.550
 9148SOL    HW228344   5.483   6.213   1.612
 9149SOL     OW28345   5.611   3.833   2.358
 9149SOL    HW128346   5.593   3.777   2.276
 9149SOL    HW228347   5.637   3.925   2.330
 9150SOL     OW28348   3.273   5.222   0.872
 9150SOL    HW128349   3.276   5.189   0.967
 9150SOL    HW228350   3.282   5.322   0.872
 9151SOL     OW28351   1.833   4.706   3.546
 9151SOL    HW128352   1.798   4.800   3.544
 9151SOL    HW228353   1.933   4.708   3.557
 9152SOL     OW28354   2.258   4.090   4.701
 9152SOL    HW128355   2.234   4.034   4.780
 9152SOL    HW228356   2.281   4.031   4.624
 9153SOL     OW28357   0.463   2.886   6.825
 9153SOL    HW128358   0.386   2.829   6.798
 9153SOL    HW228359   0.501   2.932   6.744
 9154SOL     OW28360   5.621   4.882   6.303
 9154SOL    HW128361   5.613   4.868   6.205
 9154SOL    HW228362   5.668   4.804   6.344
 9155SOL     OW28363   1.838   3.888   2.402
 9155SOL    HW128364   1.834   3.847   2.311
 9155SOL    HW228365   1.765   3.849   2.459
 9156SOL     OW28366   0.956   2.400   0.666
 9156SOL    HW128367   1.052   2.427   0.672
 9156SOL    HW228368   0.934   2.340   0.743
 9157SOL     OW28369   2.309   4.178   6.264
 9157SOL    HW128370   2.389   4.231   6.294
 9157SOL    HW228371   2.303   4.094   6.318
 9158SOL     OW28372   6.026   3.437   4.119
 9158SOL    HW128373   6.057   3.419   4.026
 9158SOL    HW228374   6.064   3.369   4.181
 9159SOL     OW28375   1.548   0.995   2.295
 9159SOL    HW128376   1.518   0.915   2.348
 9159SOL    HW228377   1.469   1.048   2.267
 9160SOL     OW28378   0.221   6.847   6.069
 9160SOL    HW128379   0.163   6.788   6.013
 9160SOL    HW228380   0.287   6.791   6.119
 9161SOL     OW28381   5.138   5.227   4.116
 9161SOL    HW128382   5.116   5.173   4.198
 9161SOL    HW228383   5.081   5.310   4.115
 9162SOL     OW28384   4.213   0.559   3.832
 9162SOL    HW128385   4.267   0.514   3.903
 9162SOL    HW228386   4.273   0.582   3.755
 9163SOL     OW28387   0.340   2.641   4.239
 9163SOL    HW128388   0.360   2.730   4.278
 9163SOL    HW228389   0.399   2.572   4.280
 9164SOL     OW28390   1.976   0.377   0.096
 9164SOL    HW128391   1.902   0.378   0.029
 9164SOL    HW228392   2.004   0.471   0.116
 9165SOL     OW28393   6.312   1.339   5.719
 9165SOL    HW128394   6.256   1.405   5.669
 9165SOL    HW228395   6.354   1.275   5.655
 9166SOL     OW28396   4.159   6.232   1.427
 9166SOL    HW128397   4.155   6.237   1.526
 9166SOL    HW228398   4.244   6.273   1.394
 9167SOL     OW28399   2.130   2.445   6.378
 9167SOL    HW128400   2.195   2.520   6.380
 9167SOL    HW228401   2.068   2.452   6.456
 9168SOL     OW28402   6.574   5.930   5.937
 9168SOL    HW128403   6.530   5.840   5.944
 9168SOL    HW228404   6.667   5.924   5.973
 9169SOL     OW28405   6.936   6.959   6.526
 9169SOL    HW128406   6.989   6.989   6.605
 9169SOL    HW228407   6.881   0.009   6.491
 9170SOL     OW28408   1.762   0.355   6.921
 9170SOL    HW128409   1.722   0.264   6.927
 9170SOL    HW228410   1.780   0.377   6.825
 9171SOL     OW28411   3.422   5.904   0.449
 9171SOL    HW128412   3.387   5.977   0.390
 9171SOL    HW228413   3.418   5.934   0.545
 9172SOL     OW28414   4.835   1.225   3.320
 9172SOL    HW128415   4.788   1.278   3.392
 9172SOL    HW228416   4.789   1.241   3.232
 9173SOL     OW28417   5.933   4.782   6.109
 9173SOL    HW128418   5.916   4.862   6.166
 9173SOL    HW228419   5.911   4.699   6.161
 9174SOL     OW28420   7.000   5.209   0.673
 9174SOL    HW128421   6.935   5.138   0.703
 9174SOL    HW228422   7.001   5.283   0.740
 9175SOL     OW28423   1.734   6.199   6.121
 9175SOL    HW128424   1.739   6.294   6.154
 9175SOL    HW228425   1.641   6.180   6.090
 9176SOL     OW28426   2.372   1.133   2.107
 9176SOL    HW128427   2.429   1.067   2.056
 9176SOL    HW228428   2.427   1.214   2.129
 9177SOL     OW28429   1.006   3.955   4.106
 9177SOL    HW128430   1.089   3.965   4.051
 9177SOL    HW228431   1.011   4.015   4.185
 9178SOL     OW28432   2.106   5.201   0.001
 9178SOL    HW128433   2.060   5.113   7.021
 9178SOL    HW228434   2.167   5.213   6.949
 9179SOL     OW28435   1.895   5.355   3.945
 9179SOL    HW128436   1.813   5.299   3.931
 9179SOL    HW228437   1.943   5.367   3.858
 9180SOL     OW28438   6.371   2.218   3.267
 9180SOL    HW128439   6.432   2.146   3.235
 9180SOL    HW228440   6.387   2.235   3.365
 9181SOL     OW28441   6.224   2.008   4.345
 9181SOL    HW128442   6.314   2.032   4.381
 9181SOL    HW228443   6.179   2.091   4.310
 9182SOL     OW28444   2.677   0.316   2.978
 9182SOL    HW128445   2.671   0.412   3.006
 9182SOL    HW228446   2.734   0.309   2.896
 9183SOL     OW28447   4.678   4.542   0.062
 9183SOL    HW128448   4.749   4.494   0.114
 9183SOL    HW228449   4.608   4.577   0.123
 9184SOL     OW28450   4.345   2.483   1.316
 9184SOL    HW128451   4.368   2.552   1.384
 9184SOL    HW228452   4.292   2.525   1.242
 9185SOL     OW28453   6.542   6.580   5.100
 9185SOL    HW128454   6.535   6.483   5.124
 9185SOL    HW228455   6.458   6.610   5.055
 9186SOL     OW28456   6.022   6.991   4.695
 9186SOL    HW128457   5.944   0.026   4.685
 9186SOL    HW228458   5.991   6.902   4.727
 9187SOL     OW28459   3.482   1.961   0.165
 9187SOL    HW128460   3.504   1.863   0.170
 9187SOL    HW228461   3.383   1.972   0.153
 9188SOL     OW28462   2.225   0.499   1.496
 9188SOL    HW128463   2.269   0.422   1.543
 9188SOL    HW228464   2.229   0.581   1.554
 9189SOL     OW28465   3.678   5.765   2.611
 9189SOL    HW128466   3.647   5.670   2.621
 9189SOL    HW228467   3.603   5.827   2.631
 9190SOL     OW28468   0.808   3.232   5.566
 9190SOL    HW128469   0.863   3.312   5.540
 9190SOL    HW228470   0.865   3.150   5.563
 9191SOL     OW28471   5.636   1.081   6.772
 9191SOL    HW128472   5.672   1.091   6.865
 9191SOL    HW228473   5.706   1.041   6.713
 9192SOL     OW28474   6.652   2.418   6.458
 9192SOL    HW128475   6.661   2.458   6.549
 9192SOL    HW228476   6.700   2.330   6.455
 9193SOL     OW28477   3.481   3.183   4.609
 9193SOL    HW128478   3.455   3.095   4.570
 9193SOL    HW228479   3.429   3.256   4.563
 9194SOL     OW28480   3.319   0.662   2.552
 9194SOL    HW128481   3.274   0.586   2.597
 9194SOL    HW228482   3.407   0.632   2.515
 9195SOL     OW28483   1.645   3.440   2.810
 9195SOL    HW128484   1.668   3.399   2.899
 9195SOL    HW228485   1.549   3.468   2.811
 9196SOL     OW28486   5.900   6.393   3.973
 9196SOL    HW128487   5.873   6.401   4.069
 9196SOL    HW228488   5.985   6.341   3.967
 9197SOL     OW28489   3.064   4.592   0.633
 9197SOL    HW128490   3.006   4.516   0.605
 9197SOL    HW228491   3.051   4.609   0.731
 9198SOL     OW28492   6.470   4.170   6.373
 9198SOL    HW128493   6.491   4.194   6.278
 9198SOL    HW228494   6.434   4.251   6.420
 9199SOL     OW28495   6.861   2.790   5.413
 9199SOL    HW128496   6.864   2.705   5.359
 9199SOL    HW228497   6.951   2.834   5.411
 9200SOL     OW28498   2.978   6.271   5.676
 9200SOL    HW128499   3.039   6.320   5.614
 9200SOL    HW228500   2.962   6.178   5.642
 9201SOL     OW28501   6.825   3.227   6.696
 9201SOL    HW128502   6.880   3.306   6.671
 9201SOL    HW228503   6.769   3.248   6.776
 9202SOL     OW28504   0.917   5.523   4.072
 9202SOL    HW128505   0.995   5.585   4.079
 9202SOL    HW228506   0.920   5.474   3.985
 9203SOL     OW28507   6.342   2.858   6.001
 9203SOL    HW128508   6.405   2.898   6.066
 9203SOL    HW228509   6.249   2.890   6.020
 9204SOL     OW28510   4.895   3.563   4.437
 9204SOL    HW128511   4.875   3.530   4.529
 9204SOL    HW228512   4.956   3.498   4.391
 9205SOL     OW28513   5.113   5.506   3.061
 9205SOL    HW128514   5.080   5.580   3.002
 9205SOL    HW228515   5.043   5.482   3.127
 9206SOL     OW28516   3.198   6.800   3.225
 9206SOL    HW128517   3.224   6.824   3.318
 9206SOL    HW228518   3.257   6.849   3.161
 9207SOL     OW28519   3.979   4.618   0.076
 9207SOL    HW128520   4.049   4.628   0.146
 9207SOL    HW228521   3.890   4.601   0.118
 9208SOL     OW28522   5.498   4.041   2.731
 9208SOL    HW128523   5.464   4.059   2.638
 9208SOL    HW228524   5.535   3.948   2.734
 9209SOL     OW28525   4.904   1.026   1.356
 9209SOL    HW128526   4.985   1.081   1.378
 9209SOL    HW228527   4.827   1.057   1.412
 9210SOL     OW28528   1.515   1.644   0.790
 9210SOL    HW128529   1.530   1.677   0.697
 9210SOL    HW228530   1.531   1.545   0.793
 9211SOL     OW28531   6.203   2.797   6.297
 9211SOL    HW128532   6.264   2.720   6.281
 9211SOL    HW228533   6.159   2.824   6.212
 9212SOL     OW28534   5.725   4.119   4.146
 9212SOL    HW128535   5.757   4.025   4.131
 9212SOL    HW228536   5.627   4.123   4.129
 9213SOL     OW28537   4.906   5.034   4.548
 9213SOL    HW128538   4.839   5.069   4.482
 9213SOL    HW228539   4.927   5.105   4.615
 9214SOL     OW28540   6.992   3.149   4.792
 9214SOL    HW128541   6.902   3.130   4.833
 9214SOL    HW228542   7.006   3.089   4.713
 9215SOL     OW28543   1.183   4.667   2.296
 9215SOL    HW128544   1.206   4.575   2.267
 9215SOL    HW228545   1.215   4.682   2.390
 9216SOL     OW28546   2.307   6.547   3.498
 9216SOL    HW128547   2.342   6.606   3.426
 9216SOL    HW228548   2.272   6.603   3.573
 9217SOL     OW28549   6.706   2.997   6.770
 9217SOL    HW128550   6.640   2.971   6.701
 9217SOL    HW228551   6.770   3.064   6.733
 9218SOL     OW28552   3.706   0.996   0.024
 9218SOL    HW128553   3.697   1.028   6.956
 9218SOL    HW228554   3.801   1.008   0.055
 9219SOL     OW28555   5.016   3.964   6.623
 9219SOL    HW128556   5.030   3.918   6.536
 9219SOL    HW228557   4.979   3.899   6.690
 9220SOL     OW28558   1.214   6.700   2.109
 9220SOL    HW128559   1.201   6.601   2.103
 9220SOL    HW228560   1.161   6.745   2.038
 9221SOL     OW28561   2.025   6.984   3.623
 9221SOL    HW128562   2.035   0.024   3.548
 9221SOL    HW228563   2.006   0.007   3.708
 9222SOL     OW28564   2.551   5.944   5.333
 9222SOL    HW128565   2.604   6.027   5.312
 9222SOL    HW228566   2.455   5.969   5.346
 9223SOL     OW28567   1.346   2.523   4.225
 9223SOL    HW128568   1.421   2.573   4.268
 9223SOL    HW228569   1.275   2.505   4.293
 9224SOL     OW28570   1.246   5.278   3.675
 9224SOL    HW128571   1.321   5.212   3.666
 9224SOL    HW228572   1.193   5.258   3.758
 9225SOL     OW28573   3.251   6.177   5.900
 9225SOL    HW128574   3.165   6.189   5.950
 9225SOL    HW228575   3.311   6.114   5.950
 9226SOL     OW28576   0.611   6.654   1.368
 9226SOL    HW128577   0.533   6.610   1.412
 9226SOL    HW228578   0.678   6.681   1.437
 9227SOL     OW28579   2.301   6.044   1.033
 9227SOL    HW128580   2.206   6.044   1.063
 9227SOL    HW228581   2.304   6.049   0.933
 9228SOL     OW28582   2.942   1.577   6.818
 9228SOL    HW128583   2.993   1.623   6.745
 9228SOL    HW228584   2.852   1.549   6.783
 9229SOL     OW28585   0.647   4.766   5.348
 9229SOL    HW128586   0.614   4.709   5.272
 9229SOL    HW228587   0.738   4.734   5.376
 9230SOL     OW28588   5.310   2.864   3.580
 9230SOL    HW128589   5.368   2.903   3.652
 9230SOL    HW228590   5.355   2.875   3.492
 9231SOL     OW28591   1.249   3.548   5.520
 9231SOL    HW128592   1.232   3.644   5.501
 9231SOL    HW228593   1.242   3.496   5.434
 9232SOL     OW28594   3.106   5.521   6.486
 9232SOL    HW128595   3.043   5.557   6.417
 9232SOL    HW228596   3.181   5.473   6.441
 9233SOL     OW28597   6.257   6.463   1.216
 9233SOL    HW128598   6.347   6.507   1.224
 9233SOL    HW228599   6.191   6.512   1.273
 9234SOL     OW28600   3.298   5.746   0.701
 9234SOL    HW128601   3.245   5.716   0.780
 9234SOL    HW228602   3.346   5.668   0.661
 9235SOL     OW28603   2.255   2.394   3.441
 9235SOL    HW128604   2.172   2.431   3.398
 9235SOL    HW228605   2.333   2.451   3.416
 9236SOL     OW28606   1.909   4.229   6.443
 9236SOL    HW128607   1.887   4.310   6.498
 9236SOL    HW228608   1.830   4.203   6.388
 9237SOL     OW28609   0.798   5.985   2.550
 9237SOL    HW128610   0.859   6.031   2.615
 9237SOL    HW228611   0.733   6.051   2.513
 9238SOL     OW28612   2.505   3.146   6.226
 9238SOL    HW128613   2.483   3.116   6.133
 9238SOL    HW228614   2.603   3.134   6.243
 9239SOL     OW28615   0.248   3.657   5.925
 9239SOL    HW128616   0.247   3.561   5.951
 9239SOL    HW228617   0.342   3.689   5.917
 9240SOL     OW28618   4.774   2.881   2.248
 9240SOL    HW128619   4.808   2.934   2.326
 9240SOL    HW228620   4.762   2.942   2.169
 9241SOL     OW28621   0.405   5.017   6.902
 9241SOL    HW128622   0.500   5.049   6.907
 9241SOL    HW228623   0.344   5.089   6.935
 9242SOL     OW28624   1.273   4.050   0.774
 9242SOL    HW128625   1.214   3.990   0.829
 9242SOL    HW228626   1.312   3.997   0.699
 9243SOL     OW28627   0.195   0.229   1.200
 9243SOL    HW128628   0.283   0.181   1.187
 9243SOL    HW228629   0.207   0.303   1.266
 9244SOL     OW28630   3.472   5.631   6.086
 9244SOL    HW128631   3.444   5.561   6.021
 9244SOL    HW228632   3.394   5.692   6.104
 9245SOL     OW28633   0.699   5.660   3.961
 9245SOL    HW128634   0.759   5.598   4.011
 9245SOL    HW228635   0.654   5.723   4.024
 9246SOL     OW28636   6.563   0.075   2.972
 9246SOL    HW128637   6.463   0.074   2.960
 9246SOL    HW228638   6.588   0.010   3.043
 9247SOL     OW28639   2.557   5.851   3.497
 9247SOL    HW128640   2.558   5.855   3.397
 9247SOL    HW228641   2.482   5.908   3.532
 9248SOL     OW28642   3.135   1.782   4.291
 9248SOL    HW128643   3.203   1.712   4.271
 9248SOL    HW228644   3.077   1.796   4.211
 9249SOL     OW28645   3.636   4.859   1.318
 9249SOL    HW128646   3.633   4.766   1.354
 9249SOL    HW228647   3.676   4.858   1.226
 9250SOL     OW28648   5.421   2.832   4.455
 9250SOL    HW128649   5.392   2.864   4.545
 9250SOL    HW228650   5.386   2.740   4.440
 9251SOL     OW28651   4.159   2.024   3.287
 9251SOL    HW128652   4.167   2.027   3.188
 9251SOL    HW228653   4.230   1.963   3.325
 9252SOL     OW28654   5.597   0.892   4.843
 9252SOL    HW128655   5.663   0.965   4.824
 9252SOL    HW228656   5.518   0.901   4.783
 9253SOL     OW28657   5.389   5.684   5.524
 9253SOL    HW128658   5.417   5.725   5.437
 9253SOL    HW228659   5.456   5.615   5.552
 9254SOL     OW28660   5.198   5.031   3.146
 9254SOL    HW128661   5.232   5.073   3.062
 9254SOL    HW228662   5.215   5.093   3.223
 9255SOL     OW28663   4.538   3.723   0.180
 9255SOL    HW128664   4.589   3.805   0.206
 9255SOL    HW228665   4.591   3.642   0.202
 9256SOL     OW28666   3.433   0.072   2.534
 9256SOL    HW128667   3.413   0.165   2.564
 9256SOL    HW228668   3.390   0.056   2.444
 9257SOL     OW28669   0.098   4.585   3.431
 9257SOL    HW128670   0.017   4.611   3.483
 9257SOL    HW228671   0.130   4.495   3.462
 9258SOL     OW28672   3.816   4.052   2.570
 9258SOL    HW128673   3.812   4.020   2.664
 9258SOL    HW228674   3.908   4.036   2.534
 9259SOL     OW28675   0.514   2.045   0.786
 9259SOL    HW128676   0.553   2.002   0.868
 9259SOL    HW228677   0.417   2.023   0.780
 9260SOL     OW28678   6.207   1.518   5.559
 9260SOL    HW128679   6.272   1.583   5.521
 9260SOL    HW228680   6.130   1.506   5.497
 9261SOL     OW28681   3.475   1.589   0.483
 9261SOL    HW128682   3.405   1.531   0.525
 9261SOL    HW228683   3.440   1.682   0.474
 9262SOL     OW28684   6.730   5.125   4.963
 9262SOL    HW128685   6.749   5.098   4.868
 9262SOL    HW228686   6.656   5.068   4.999
 9263SOL     OW28687   4.313   0.542   1.819
 9263SOL    HW128688   4.318   0.484   1.900
 9263SOL    HW228689   4.406   0.566   1.789
 9264SOL     OW28690   4.954   4.564   0.555
 9264SOL    HW128691   5.019   4.491   0.574
 9264SOL    HW228692   4.972   4.602   0.464
 9265SOL     OW28693   3.861   2.424   6.926
 9265SOL    HW128694   3.899   2.507   6.887
 9265SOL    HW228695   3.803   2.378   6.858
 9266SOL     OW28696   1.026   6.121   0.632
 9266SOL    HW128697   1.077   6.092   0.552
 9266SOL    HW228698   0.954   6.054   0.653
 9267SOL     OW28699   0.346   2.271   4.533
 9267SOL    HW128700   0.404   2.193   4.511
 9267SOL    HW228701   0.269   2.275   4.469
 9268SOL     OW28702   1.123   6.060   2.616
 9268SOL    HW128703   1.108   5.962   2.604
 9268SOL    HW228704   1.091   6.087   2.707
 9269SOL     OW28705   4.055   1.019   6.180
 9269SOL    HW128706   4.092   0.959   6.109
 9269SOL    HW228707   4.131   1.063   6.229
 9270SOL     OW28708   4.474   6.430   6.243
 9270SOL    HW128709   4.491   6.374   6.162
 9270SOL    HW228710   4.559   6.472   6.273
 9271SOL     OW28711   6.095   0.426   1.133
 9271SOL    HW128712   6.143   0.339   1.118
 9271SOL    HW228713   6.027   0.440   1.061
 9272SOL     OW28714   0.719   5.892   5.084
 9272SOL    HW128715   0.796   5.864   5.027
 9272SOL    HW228716   0.685   5.814   5.136
 9273SOL     OW28717   6.301   6.356   2.865
 9273SOL    HW128718   6.370   6.407   2.917
 9273SOL    HW228719   6.266   6.414   2.792
 9274SOL     OW28720   6.700   1.403   0.364
 9274SOL    HW128721   6.704   1.311   0.324
 9274SOL    HW228722   6.783   1.420   0.417
 9275SOL     OW28723   6.286   1.250   6.873
 9275SOL    HW128724   6.270   1.288   6.782
 9275SOL    HW228725   6.308   1.323   6.937
 9276SOL     OW28726   1.529   3.852   1.557
 9276SOL    HW128727   1.520   3.880   1.461
 9276SOL    HW228728   1.624   3.826   1.575
 9277SOL     OW28729   3.963   4.328   0.568
 9277SOL    HW128730   4.020   4.321   0.650
 9277SOL    HW228731   3.985   4.253   0.506
 9278SOL     OW28732   2.124   0.370   5.838
 9278SOL    HW128733   2.184   0.293   5.859
 9278SOL    HW228734   2.171   0.434   5.777
 9279SOL     OW28735   3.354   0.528   1.816
 9279SOL    HW128736   3.411   0.605   1.842
 9279SOL    HW228737   3.408   0.464   1.761
 9280SOL     OW28738   2.530   1.874   2.779
 9280SOL    HW128739   2.473   1.925   2.713
 9280SOL    HW228740   2.582   1.804   2.730
 9281SOL     OW28741   2.680   3.867   6.883
 9281SOL    HW128742   2.588   3.834   6.861
 9281SOL    HW228743   2.742   3.789   6.892
 9282SOL     OW28744   5.928   0.482   3.529
 9282SOL    HW128745   5.879   0.481   3.441
 9282SOL    HW228746   6.025   0.464   3.513
 9283SOL     OW28747   5.119   0.815   4.021
 9283SOL    HW128748   5.116   0.762   3.937
 9283SOL    HW228749   5.039   0.875   4.025
 9284SOL     OW28750   2.753   3.166   5.600
 9284SOL    HW128751   2.852   3.158   5.592
 9284SOL    HW228752   2.712   3.163   5.509
 9285SOL     OW28753   5.195   3.010   0.914
 9285SOL    HW128754   5.281   3.060   0.920
 9285SOL    HW228755   5.127   3.054   0.972
 9286SOL     OW28756   5.637   6.163   0.497
 9286SOL    HW128757   5.558   6.113   0.462
 9286SOL    HW228758   5.622   6.187   0.592
 9287SOL     OW28759   3.177   5.251   6.692
 9287SOL    HW128760   3.095   5.292   6.731
 9287SOL    HW228761   3.224   5.196   6.761
 9288SOL     OW28762   4.463   1.578   2.730
 9288SOL    HW128763   4.440   1.640   2.805
 9288SOL    HW228764   4.411   1.603   2.648
 9289SOL     OW28765   3.767   0.638   1.739
 9289SOL    HW128766   3.853   0.665   1.781
 9289SOL    HW228767   3.752   0.690   1.655
 9290SOL     OW28768   5.463   0.223   3.211
 9290SOL    HW128769   5.405   0.264   3.281
 9290SOL    HW228770   5.455   0.275   3.126
 9291SOL     OW28771   1.229   5.057   5.779
 9291SOL    HW128772   1.186   4.988   5.838
 9291SOL    HW228773   1.329   5.051   5.787
 9292SOL     OW28774   1.689   2.938   6.189
 9292SOL    HW128775   1.785   2.928   6.161
 9292SOL    HW228776   1.653   2.849   6.216
 9293SOL     OW28777   6.083   3.044   6.400
 9293SOL    HW128778   6.148   3.088   6.462
 9293SOL    HW228779   6.128   2.969   6.352
 9294SOL     OW28780   4.801   7.012   5.932
 9294SOL    HW128781   4.851   0.072   5.941
 9294SOL    HW228782   4.861   6.943   5.893
 9295SOL     OW28783   6.107   0.937   5.035
 9295SOL    HW128784   6.023   0.941   5.089
 9295SOL    HW228785   6.093   0.876   4.957
 9296SOL     OW28786   0.978   5.380   6.304
 9296SOL    HW128787   0.982   5.310   6.375
 9296SOL    HW228788   1.011   5.467   6.342
 9297SOL     OW28789   0.958   6.511   3.255
 9297SOL    HW128790   0.977   6.577   3.183
 9297SOL    HW228791   0.902   6.554   3.326
 9298SOL     OW28792   1.355   6.347   6.715
 9298SOL    HW128793   1.268   6.297   6.717
 9298SOL    HW228794   1.338   6.445   6.719
 9299SOL     OW28795   0.494   2.486   4.406
 9299SOL    HW128796   0.467   2.399   4.448
 9299SOL    HW228797   0.594   2.495   4.410
 9300SOL     OW28798   0.820   4.251   5.896
 9300SOL    HW128799   0.873   4.212   5.971
 9300SOL    HW228800   0.821   4.189   5.818
 9301SOL     OW28801   5.552   5.534   5.077
 9301SOL    HW128802   5.509   5.449   5.106
 9301SOL    HW228803   5.542   5.545   4.978
 9302SOL     OW28804   2.019   2.809   4.141
 9302SOL    HW128805   2.066   2.833   4.225
 9302SOL    HW228806   2.061   2.728   4.101
 9303SOL     OW28807   2.887   3.729   0.769
 9303SOL    HW128808   2.911   3.787   0.847
 9303SOL    HW228809   2.967   3.674   0.744
 9304SOL     OW28810   3.935   4.497   1.721
 9304SOL    HW128811   4.005   4.458   1.661
 9304SOL    HW228812   3.865   4.429   1.739
 9305SOL     OW28813   3.775   1.452   0.670
 9305SOL    HW128814   3.694   1.497   0.707
 9305SOL    HW228815   3.790   1.365   0.717
 9306SOL     OW28816   1.066   3.859   5.168
 9306SOL    HW128817   1.137   3.912   5.124
 9306SOL    HW228818   0.982   3.861   5.113
 9307SOL     OW28819   0.714   3.664   0.893
 9307SOL    HW128820   0.667   3.749   0.917
 9307SOL    HW228821   0.799   3.657   0.945
 9308SOL     OW28822   1.253   3.914   0.537
 9308SOL    HW128823   1.172   3.959   0.576
 9308SOL    HW228824   1.289   3.970   0.463
 9309SOL     OW28825   3.450   5.378   6.227
 9309SOL    HW128826   3.543   5.357   6.196
 9309SOL    HW228827   3.421   5.467   6.189
 9310SOL     OW28828   5.683   5.908   5.452
 9310SOL    HW128829   5.659   5.818   5.415
 9310SOL    HW228830   5.781   5.924   5.441
 9311SOL     OW28831   4.454   4.816   1.490
 9311SOL    HW128832   4.378   4.756   1.465
 9311SOL    HW228833   4.468   4.811   1.589
 9312SOL     OW28834   1.219   3.681   1.399
 9312SOL    HW128835   1.218   3.724   1.308
 9312SOL    HW228836   1.156   3.730   1.459
 9313SOL     OW28837   0.175   0.551   1.686
 9313SOL    HW128838   0.103   0.526   1.751
 9313SOL    HW228839   0.261   0.511   1.715
 9314SOL     OW28840   6.668   4.207   6.889
 9314SOL    HW128841   6.719   4.278   6.840
 9314SOL    HW228842   6.635   4.139   6.823
 9315SOL     OW28843   6.937   0.223   5.923
 9315SOL    HW128844   0.008   0.229   5.900
 9315SOL    HW228845   6.904   0.130   5.907
 9316SOL     OW28846   5.620   6.623   5.816
 9316SOL    HW128847   5.692   6.636   5.748
 9316SOL    HW228848   5.574   6.710   5.833
 9317SOL     OW28849   4.861   5.689   3.875
 9317SOL    HW128850   4.876   5.655   3.782
 9317SOL    HW228851   4.806   5.772   3.872
 9318SOL     OW28852   6.204   1.164   6.290
 9318SOL    HW128853   6.167   1.072   6.306
 9318SOL    HW228854   6.298   1.157   6.256
 9319SOL     OW28855   2.182   3.027   0.262
 9319SOL    HW128856   2.262   3.024   0.322
 9319SOL    HW228857   2.211   3.055   0.170
 9320SOL     OW28858   3.999   0.790   5.028
 9320SOL    HW128859   3.963   0.878   5.059
 9320SOL    HW228860   3.989   0.783   4.928
 9321SOL     OW28861   0.971   0.182   5.003
 9321SOL    HW128862   1.047   0.116   5.011
 9321SOL    HW228863   0.903   0.147   4.939
 9322SOL     OW28864   6.809   3.632   6.001
 9322SOL    HW128865   6.885   3.619   6.065
 9322SOL    HW228866   6.747   3.702   6.037
 9323SOL     OW28867   1.372   1.274   5.242
 9323SOL    HW128868   1.453   1.332   5.254
 9323SOL    HW228869   1.397   1.178   5.261
 9324SOL     OW28870   1.051   4.756   2.086
 9324SOL    HW128871   1.097   4.733   2.172
 9324SOL    HW228872   1.116   4.748   2.011
 9325SOL     OW28873   5.960   1.039   6.747
 9325SOL    HW128874   5.937   1.012   6.840
 9325SOL    HW228875   5.894   1.001   6.683
 9326SOL     OW28876   2.683   4.695   0.026
 9326SOL    HW128877   2.770   4.707   7.006
 9326SOL    HW228878   2.631   4.781   0.020
 9327SOL     OW28879   4.640   0.247   2.750
 9327SOL    HW128880   4.708   0.270   2.820
 9327SOL    HW228881   4.655   0.305   2.670
 9328SOL     OW28882   2.484   0.837   4.199
 9328SOL    HW128883   2.393   0.801   4.178
 9328SOL    HW228884   2.482   0.937   4.201
 9329SOL     OW28885   5.716   3.859   0.994
 9329SOL    HW128886   5.723   3.760   1.005
 9329SOL    HW228887   5.791   3.891   0.936
 9330SOL     OW28888   0.032   0.366   5.370
 9330SOL    HW128889   0.078   0.277   5.370
 9330SOL    HW228890   0.009   0.391   5.464
 9331SOL     OW28891   2.689   0.590   6.371
 9331SOL    HW128892   2.775   0.634   6.345
 9331SOL    HW228893   2.654   0.635   6.453
 9332SOL     OW28894   3.603   4.943   0.276
 9332SOL    HW128895   3.590   5.003   0.354
 9332SOL    HW228896   3.518   4.938   0.223
 9333SOL     OW28897   4.002   5.018   6.656
 9333SOL    HW128898   4.086   5.068   6.678
 9333SOL    HW228899   3.979   4.956   6.732
 9334SOL     OW28900   5.123   6.646   4.334
 9334SOL    HW128901   5.116   6.730   4.388
 9334SOL    HW228902   5.113   6.668   4.237
 9335SOL     OW28903   1.474   1.259   6.763
 9335SOL    HW128904   1.503   1.292   6.852
 9335SOL    HW228905   1.374   1.249   6.762
 9336SOL     OW28906   3.941   0.163   4.770
 9336SOL    HW128907   3.863   0.225   4.760
 9336SOL    HW228908   3.936   0.091   4.701
 9337SOL     OW28909   4.487   0.696   5.065
 9337SOL    HW128910   4.523   0.628   5.128
 9337SOL    HW228911   4.387   0.696   5.070
 9338SOL     OW28912   6.182   0.125   1.067
 9338SOL    HW128913   6.159   0.057   1.137
 9338SOL    HW228914   6.102   0.142   1.009
 9339SOL     OW28915   5.952   6.716   6.866
 9339SOL    HW128916   5.897   6.744   6.788
 9339SOL    HW228917   5.894   6.672   6.934
 9340SOL     OW28918   4.020   5.084   3.725
 9340SOL    HW128919   4.017   4.987   3.750
 9340SOL    HW228920   4.089   5.098   3.653
 9341SOL     OW28921   5.897   4.962   1.414
 9341SOL    HW128922   5.808   4.968   1.370
 9341SOL    HW228923   5.889   4.910   1.500
 9342SOL     OW28924   2.876   0.018   4.275
 9342SOL    HW128925   2.967   0.032   4.314
 9342SOL    HW228926   2.842   0.104   4.237
 9343SOL     OW28927   4.778   4.216   2.061
 9343SOL    HW128928   4.807   4.288   2.125
 9343SOL    HW228929   4.686   4.238   2.028
 9344SOL     OW28930   5.434   6.610   1.738
 9344SOL    HW128931   5.395   6.702   1.745
 9344SOL    HW228932   5.515   6.603   1.796
 9345SOL     OW28933   6.761   5.241   1.215
 9345SOL    HW128934   6.775   5.157   1.268
 9345SOL    HW228935   6.728   5.218   1.124
 9346SOL     OW28936   4.986   1.128   2.093
 9346SOL    HW128937   4.886   1.138   2.088
 9346SOL    HW228938   5.023   1.198   2.154
 9347SOL     OW28939   3.632   4.127   0.412
 9347SOL    HW128940   3.675   4.192   0.349
 9347SOL    HW228941   3.559   4.078   0.364
 9348SOL     OW28942   2.903   5.510   2.315
 9348SOL    HW128943   2.969   5.575   2.278
 9348SOL    HW228944   2.862   5.457   2.241
 9349SOL     OW28945   5.584   5.270   2.040
 9349SOL    HW128946   5.545   5.238   2.126
 9349SOL    HW228947   5.519   5.253   1.966
 9350SOL     OW28948   6.647   2.117   5.175
 9350SOL    HW128949   6.623   2.155   5.264
 9350SOL    HW228950   6.724   2.168   5.135
 9351SOL     OW28951   3.458   6.807   6.070
 9351SOL    HW128952   3.363   6.834   6.089
 9351SOL    HW228953   3.519   6.884   6.088
 9352SOL     OW28954   3.255   1.507   6.356
 9352SOL    HW128955   3.288   1.577   6.420
 9352SOL    HW228956   3.278   1.535   6.263
 9353SOL     OW28957   0.513   4.786   0.747
 9353SOL    HW128958   0.571   4.768   0.667
 9353SOL    HW228959   0.431   4.836   0.718
 9354SOL     OW28960   0.296   2.131   6.120
 9354SOL    HW128961   0.306   2.057   6.188
 9354SOL    HW228962   0.203   2.169   6.126
 9355SOL     OW28963   0.642   1.656   4.401
 9355SOL    HW128964   0.544   1.669   4.417
 9355SOL    HW228965   0.694   1.693   4.478
 9356SOL     OW28966   4.662   6.013   2.362
 9356SOL    HW128967   4.628   5.972   2.278
 9356SOL    HW228968   4.585   6.034   2.422
 9357SOL     OW28969   2.126   3.872   6.269
 9357SOL    HW128970   2.180   3.844   6.189
 9357SOL    HW228971   2.034   3.898   6.240
 9358SOL     OW28972   6.788   3.527   2.470
 9358SOL    HW128973   6.727   3.563   2.400
 9358SOL    HW228974   6.772   3.575   2.556
 9359SOL     OW28975   1.398   3.873   5.268
 9359SOL    HW128976   1.422   3.965   5.297
 9359SOL    HW228977   1.376   3.873   5.171
 9360SOL     OW28978   1.179   5.465   6.850
 9360SOL    HW128979   1.174   5.547   6.794
 9360SOL    HW228980   1.184   5.491   6.946
 9361SOL     OW28981   1.689   5.654   2.283
 9361SOL    HW128982   1.716   5.736   2.231
 9361SOL    HW228983   1.733   5.656   2.373
 9362SOL     OW28984   2.121   3.500   2.943
 9362SOL    HW128985   2.141   3.588   2.899
 9362SOL    HW228986   2.083   3.437   2.876
 9363SOL     OW28987   3.713   0.054   2.100
 9363SOL    HW128988   3.706   0.148   2.069
 9363SOL    HW228989   3.628   0.005   2.079
 9364SOL     OW28990   4.280   3.165   6.262
 9364SOL    HW128991   4.184   3.152   6.234
 9364SOL    HW228992   4.293   3.126   6.353
 9365SOL     OW28993   2.464   2.111   4.710
 9365SOL    HW128994   2.370   2.133   4.684
 9365SOL    HW228995   2.490   2.022   4.673
 9366SOL     OW28996   3.099   6.408   6.190
 9366SOL    HW128997   3.187   6.452   6.171
 9366SOL    HW228998   3.110   6.308   6.184
 9367SOL     OW28999   0.219   6.842   2.992
 9367SOL    HW129000   0.176   6.849   3.081
 9367SOL    HW229001   0.162   6.787   2.931
 9368SOL     OW29002   2.850   1.160   2.822
 9368SOL    HW129003   2.800   1.231   2.871
 9368SOL    HW229004   2.800   1.136   2.738
 9369SOL     OW29005   6.961   6.177   4.902
 9369SOL    HW129006   0.007   6.129   4.852
 9369SOL    HW229007   6.999   6.262   4.941
 9370SOL     OW29008   4.880   0.462   3.495
 9370SOL    HW129009   4.961   0.454   3.436
 9370SOL    HW229010   4.802   0.419   3.450
 9371SOL     OW29011   2.813   5.360   0.484
 9371SOL    HW129012   2.839   5.293   0.415
 9371SOL    HW229013   2.893   5.388   0.536
 9372SOL     OW29014   5.857   6.847   2.654
 9372SOL    HW129015   5.786   6.917   2.666
 9372SOL    HW229016   5.827   6.763   2.699
 9373SOL     OW29017   4.993   2.011   2.711
 9373SOL    HW129018   4.906   2.058   2.724
 9373SOL    HW229019   4.980   1.932   2.652
 9374SOL     OW29020   0.459   3.524   0.447
 9374SOL    HW129021   0.510   3.558   0.527
 9374SOL    HW229022   0.387   3.462   0.477
 9375SOL     OW29023   0.475   1.182   1.946
 9375SOL    HW129024   0.565   1.143   1.928
 9375SOL    HW229025   0.408   1.108   1.952
 9376SOL     OW29026   2.732   4.081   1.425
 9376SOL    HW129027   2.797   4.145   1.466
 9376SOL    HW229028   2.646   4.084   1.475
 9377SOL     OW29029   1.731   5.478   4.312
 9377SOL    HW129030   1.642   5.442   4.285
 9377SOL    HW229031   1.719   5.545   4.386
 9378SOL     OW29032   1.743   1.373   4.189
 9378SOL    HW129033   1.790   1.350   4.274
 9378SOL    HW229034   1.654   1.413   4.211
 9379SOL     OW29035   4.748   6.271   5.886
 9379SOL    HW129036   4.792   6.309   5.804
 9379SOL    HW229037   4.819   6.250   5.954
 9380SOL     OW29038   4.917   5.479   4.818
 9380SOL    HW129039   4.964   5.442   4.898
 9380SOL    HW229040   4.952   5.571   4.798
 9381SOL     OW29041   3.636   2.381   6.215
 9381SOL    HW129042   3.544   2.362   6.179
 9381SOL    HW229043   3.628   2.432   6.300
 9382SOL     OW29044   3.547   0.694   3.632
 9382SOL    HW129045   3.553   0.594   3.631
 9382SOL    HW229046   3.504   0.724   3.717
 9383SOL     OW29047   0.161   5.501   4.183
 9383SOL    HW129048   0.180   5.598   4.198
 9383SOL    HW229049   0.244   5.455   4.152
 9384SOL     OW29050   4.046   0.544   2.069
 9384SOL    HW129051   4.094   0.566   2.154
 9384SOL    HW229052   4.068   0.450   2.041
 9385SOL     OW29053   4.335   0.902   3.242
 9385SOL    HW129054   4.304   0.972   3.177
 9385SOL    HW229055   4.257   0.869   3.295
 9386SOL     OW29056   1.592   6.020   5.213
 9386SOL    HW129057   1.672   6.008   5.272
 9386SOL    HW229058   1.514   5.969   5.250
 9387SOL     OW29059   3.099   1.732   6.634
 9387SOL    HW129060   3.133   1.821   6.605
 9387SOL    HW229061   3.045   1.691   6.560
 9388SOL     OW29062   3.356   6.307   3.076
 9388SOL    HW129063   3.442   6.321   3.126
 9388SOL    HW229064   3.367   6.337   2.981
 9389SOL     OW29065   2.086   0.158   3.460
 9389SOL    HW129066   2.182   0.168   3.434
 9389SOL    HW229067   2.028   0.199   3.389
 9390SOL     OW29068   4.842   4.757   5.918
 9390SOL    HW129069   4.846   4.689   5.845
 9390SOL    HW229070   4.754   4.751   5.965
 9391SOL     OW29071   2.131   1.718   5.484
 9391SOL    HW129072   2.209   1.708   5.422
 9391SOL    HW229073   2.158   1.771   5.564
 9392SOL     OW29074   5.956   5.940   5.127
 9392SOL    HW129075   5.867   5.906   5.097
 9392SOL    HW229076   5.951   5.961   5.225
 9393SOL     OW29077   3.182   6.375   0.018
 9393SOL    HW129078   3.173   6.382   0.118
 9393SOL    HW229079   3.138   6.454   7.002
 9394SOL     OW29080   6.387   0.619   1.779
 9394SOL    HW129081   6.289   0.626   1.765
 9394SOL    HW229082   6.433   0.692   1.728
 9395SOL     OW29083   3.220   1.697   1.395
 9395SOL    HW129084   3.320   1.687   1.404
 9395SOL    HW229085   3.194   1.678   1.301
 9396SOL     OW29086   2.208   3.878   4.158
 9396SOL    HW129087   2.166   3.788   4.166
 9396SOL    HW229088   2.247   3.906   4.246
 9397SOL     OW29089   4.361   0.075   6.508
 9397SOL    HW129090   4.289   0.101   6.444
 9397SOL    HW229091   4.393   7.009   6.485
 9398SOL     OW29092   6.900   1.345   4.875
 9398SOL    HW129093   6.859   1.380   4.791
 9398SOL    HW229094   6.995   1.319   4.857
 9399SOL     OW29095   0.836   2.779   5.613
 9399SOL    HW129096   0.904   2.719   5.655
 9399SOL    HW229097   0.754   2.781   5.671
 9400SOL     OW29098   4.618   0.783   1.539
 9400SOL    HW129099   4.695   0.831   1.582
 9400SOL    HW229100   4.638   0.770   1.442
 9401SOL     OW29101   6.655   0.700   3.527
 9401SOL    HW129102   6.599   0.631   3.482
 9401SOL    HW229103   6.597   0.776   3.558
 9402SOL     OW29104   1.192   5.268   3.145
 9402SOL    HW129105   1.260   5.335   3.115
 9402SOL    HW229106   1.115   5.267   3.081
 9403SOL     OW29107   6.615   1.258   2.598
 9403SOL    HW129108   6.598   1.191   2.671
 9403SOL    HW229109   6.528   1.288   2.559
 9404SOL     OW29110   1.021   3.202   0.549
 9404SOL    HW129111   1.073   3.224   0.466
 9404SOL    HW229112   1.042   3.109   0.578
 9405SOL     OW29113   2.258   4.377   3.815
 9405SOL    HW129114   2.220   4.308   3.877
 9405SOL    HW229115   2.305   4.448   3.868
 9406SOL     OW29116   6.644   2.610   6.032
 9406SOL    HW129117   6.718   2.572   6.086
 9406SOL    HW229118   6.666   2.704   6.006
 9407SOL     OW29119   3.032   4.842   3.465
 9407SOL    HW129120   3.048   4.788   3.547
 9407SOL    HW229121   3.038   4.783   3.384
 9408SOL     OW29122   6.647   2.979   5.797
 9408SOL    HW129123   6.719   2.939   5.854
 9408SOL    HW229124   6.558   2.965   5.842
 9409SOL     OW29125   5.836   5.725   0.592
 9409SOL    HW129126   5.796   5.682   0.511
 9409SOL    HW229127   5.819   5.823   0.590
 9410SOL     OW29128   2.432   0.429   2.102
 9410SOL    HW129129   2.386   0.499   2.047
 9410SOL    HW229130   2.402   0.339   2.073
 9411SOL     OW29131   3.529   3.172   2.371
 9411SOL    HW129132   3.476   3.213   2.297
 9411SOL    HW229133   3.610   3.228   2.389
 9412SOL     OW29134   0.977   0.989   2.608
 9412SOL    HW129135   0.955   0.892   2.622
 9412SOL    HW229136   1.075   0.997   2.588
 9413SOL     OW29137   4.078   5.817   3.907
 9413SOL    HW129138   4.118   5.866   3.830
 9413SOL    HW229139   3.994   5.863   3.935
 9414SOL     OW29140   3.108   1.217   3.000
 9414SOL    HW129141   3.099   1.210   3.100
 9414SOL    HW229142   3.021   1.193   2.957
 9415SOL     OW29143   2.709   7.000   2.570
 9415SOL    HW129144   2.632   6.953   2.526
 9415SOL    HW229145   2.795   6.960   2.539
 9416SOL     OW29146   6.960   2.072   6.919
 9416SOL    HW129147   6.991   2.069   7.014
 9416SOL    HW229148   6.999   2.152   6.874
 9417SOL     OW29149   4.488   0.534   0.893
 9417SOL    HW129150   4.397   0.525   0.934
 9417SOL    HW229151   4.549   0.466   0.932
 9418SOL     OW29152   3.097   0.752   1.179
 9418SOL    HW129153   3.175   0.814   1.172
 9418SOL    HW229154   3.065   0.747   1.274
 9419SOL     OW29155   2.935   4.526   5.568
 9419SOL    HW129156   2.850   4.517   5.619
 9419SOL    HW229157   3.003   4.463   5.605
 9420SOL     OW29158   5.493   4.223   5.960
 9420SOL    HW129159   5.413   4.271   5.995
 9420SOL    HW229160   5.576   4.275   5.982
 9421SOL     OW29161   2.404   6.259   4.538
 9421SOL    HW129162   2.440   6.166   4.522
 9421SOL    HW229163   2.432   6.319   4.464
 9422SOL     OW29164   2.891   5.415   2.813
 9422SOL    HW129165   2.944   5.337   2.779
 9422SOL    HW229166   2.856   5.467   2.735
 9423SOL     OW29167   2.705   6.647   3.507
 9423SOL    HW129168   2.682   6.603   3.420
 9423SOL    HW229169   2.699   6.746   3.496
 9424SOL     OW29170   5.193   2.265   4.927
 9424SOL    HW129171   5.103   2.263   4.971
 9424SOL    HW229172   5.259   2.214   4.981
 9425SOL     OW29173   5.422   3.887   1.157
 9425SOL    HW129174   5.433   3.793   1.125
 9425SOL    HW229175   5.469   3.949   1.095
 9426SOL     OW29176   3.402   1.841   6.030
 9426SOL    HW129177   3.337   1.831   5.955
 9426SOL    HW229178   3.482   1.783   6.013
 9427SOL     OW29179   2.297   5.283   3.385
 9427SOL    HW129180   2.387   5.325   3.398
 9427SOL    HW229181   2.247   5.333   3.314
 9428SOL     OW29182   6.755   1.101   1.458
 9428SOL    HW129183   6.690   1.141   1.523
 9428SOL    HW229184   6.709   1.029   1.406
 9429SOL     OW29185   2.218   4.175   2.943
 9429SOL    HW129186   2.284   4.241   2.981
 9429SOL    HW229187   2.174   4.214   2.863
 9430SOL     OW29188   0.366   3.343   4.616
 9430SOL    HW129189   0.448   3.337   4.673
 9430SOL    HW229190   0.382   3.296   4.529
 9431SOL     OW29191   6.570   4.028   0.742
 9431SOL    HW129192   6.591   4.098   0.674
 9431SOL    HW229193   6.635   3.952   0.731
 9432SOL     OW29194   5.544   0.227   3.592
 9432SOL    HW129195   5.626   0.279   3.616
 9432SOL    HW229196   5.484   0.284   3.537
 9433SOL     OW29197   3.038   5.981   3.211
 9433SOL    HW129198   3.110   6.031   3.162
 9433SOL    HW229199   3.051   5.993   3.309
 9434SOL     OW29200   5.272   5.365   2.231
 9434SOL    HW129201   5.278   5.465   2.238
 9434SOL    HW229202   5.357   5.324   2.265
 9435SOL     OW29203   0.833   2.651   4.181
 9435SOL    HW129204   0.885   2.732   4.153
 9435SOL    HW229205   0.755   2.638   4.119
 9436SOL     OW29206   1.933   3.108   1.271
 9436SOL    HW129207   1.934   3.111   1.371
 9436SOL    HW229208   2.018   3.066   1.239
 9437SOL     OW29209   1.226   5.788   2.998
 9437SOL    HW129210   1.153   5.840   3.041
 9437SOL    HW229211   1.190   5.744   2.915
 9438SOL     OW29212   0.575   6.926   1.563
 9438SOL    HW129213   0.636   6.853   1.592
 9438SOL    HW229214   0.492   6.925   1.620
 9439SOL     OW29215   0.336   3.057   0.269
 9439SOL    HW129216   0.426   3.014   0.268
 9439SOL    HW229217   0.273   3.005   0.212
 9440SOL     OW29218   4.062   4.805   3.518
 9440SOL    HW129219   4.125   4.754   3.460
 9440SOL    HW229220   4.090   4.798   3.614
 9441SOL     OW29221   5.946   4.311   5.873
 9441SOL    HW129222   6.010   4.270   5.939
 9441SOL    HW229223   5.952   4.410   5.879
 9442SOL     OW29224   4.509   3.582   1.154
 9442SOL    HW129225   4.516   3.497   1.102
 9442SOL    HW229226   4.520   3.562   1.252
 9443SOL     OW29227   2.652   4.874   0.985
 9443SOL    HW129228   2.690   4.965   0.966
 9443SOL    HW229229   2.719   4.804   0.961
 9444SOL     OW29230   1.472   3.661   0.900
 9444SOL    HW129231   1.534   3.721   0.950
 9444SOL    HW229232   1.388   3.647   0.952
 9445SOL     OW29233   6.196   3.084   2.810
 9445SOL    HW129234   6.198   3.055   2.906
 9445SOL    HW229235   6.290   3.090   2.775
 9446SOL     OW29236   6.010   5.628   4.653
 9446SOL    HW129237   6.102   5.598   4.679
 9446SOL    HW229238   6.017   5.698   4.582
 9447SOL     OW29239   5.927   4.898   3.524
 9447SOL    HW129240   5.913   4.922   3.620
 9447SOL    HW229241   6.011   4.845   3.515
 9448SOL     OW29242   0.059   0.212   6.326
 9448SOL    HW129243   6.988   0.193   6.335
 9448SOL    HW229244   0.093   0.170   6.242
 9449SOL     OW29245   5.501   0.402   6.985
 9449SOL    HW129246   5.563   0.377   0.033
 9449SOL    HW229247   5.407   0.397   7.018
 9450SOL     OW29248   2.095   5.551   4.484
 9450SOL    HW129249   2.133   5.496   4.410
 9450SOL    HW229250   2.105   5.648   4.461
 9451SOL     OW29251   4.504   0.143   5.584
 9451SOL    HW129252   4.491   0.191   5.671
 9451SOL    HW229253   4.419   0.146   5.532
 9452SOL     OW29254   2.167   3.959   0.055
 9452SOL    HW129255   2.143   3.957   6.984
 9452SOL    HW229256   2.144   4.049   0.093
 9453SOL     OW29257   2.658   4.640   2.816
 9453SOL    HW129258   2.577   4.661   2.761
 9453SOL    HW229259   2.632   4.631   2.912
 9454SOL     OW29260   3.536   4.080   6.354
 9454SOL    HW129261   3.495   4.075   6.263
 9454SOL    HW229262   3.621   4.132   6.350
 9455SOL     OW29263   2.520   1.897   4.059
 9455SOL    HW129264   2.487   1.899   3.965
 9455SOL    HW229265   2.562   1.809   4.078
 9456SOL     OW29266   6.896   3.434   1.062
 9456SOL    HW129267   6.903   3.334   1.065
 9456SOL    HW229268   6.805   3.462   1.091
 9457SOL     OW29269   1.637   3.870   3.793
 9457SOL    HW129270   1.704   3.927   3.839
 9457SOL    HW229271   1.563   3.846   3.856
 9458SOL     OW29272   0.871   3.403   6.676
 9458SOL    HW129273   0.873   3.503   6.671
 9458SOL    HW229274   0.930   3.372   6.750
 9459SOL     OW29275   5.471   4.480   3.781
 9459SOL    HW129276   5.527   4.399   3.769
 9459SOL    HW229277   5.529   4.557   3.809
 9460SOL     OW29278   1.861   3.557   3.757
 9460SOL    HW129279   1.883   3.578   3.662
 9460SOL    HW229280   1.923   3.608   3.818
 9461SOL     OW29281   0.249   1.818   1.426
 9461SOL    HW129282   0.186   1.798   1.502
 9461SOL    HW229283   0.259   1.917   1.416
 9462SOL     OW29284   1.899   3.330   3.334
 9462SOL    HW129285   1.837   3.383   3.277
 9462SOL    HW229286   1.983   3.383   3.350
 9463SOL     OW29287   6.062   0.475   1.399
 9463SOL    HW129288   6.159   0.480   1.426
 9463SOL    HW229289   6.056   0.452   1.302
 9464SOL     OW29290   6.212   0.786   1.296
 9464SOL    HW129291   6.143   0.757   1.230
 9464SOL    HW229292   6.207   0.885   1.308
 9465SOL     OW29293   0.564   4.045   1.850
 9465SOL    HW129294   0.506   3.963   1.851
 9465SOL    HW229295   0.628   4.042   1.927
 9466SOL     OW29296   3.708   4.664   5.372
 9466SOL    HW129297   3.666   4.609   5.300
 9466SOL    HW229298   3.760   4.605   5.434
 9467SOL     OW29299   1.570   2.602   1.530
 9467SOL    HW129300   1.544   2.526   1.470
 9467SOL    HW229301   1.584   2.684   1.476
 9468SOL     OW29302   5.768   3.476   6.483
 9468SOL    HW129303   5.858   3.434   6.471
 9468SOL    HW229304   5.765   3.564   6.435
 9469SOL     OW29305   6.284   5.259   1.877
 9469SOL    HW129306   6.256   5.351   1.904
 9469SOL    HW229307   6.252   5.193   1.945
 9470SOL     OW29308   5.043   3.488   6.440
 9470SOL    HW129309   4.961   3.447   6.400
 9470SOL    HW229310   5.085   3.551   6.375
 9471SOL     OW29311   6.617   2.368   3.857
 9471SOL    HW129312   6.629   2.442   3.923
 9471SOL    HW229313   6.593   2.284   3.905
 9472SOL     OW29314   6.090   2.989   5.111
 9472SOL    HW129315   6.090   2.929   5.191
 9472SOL    HW229316   6.020   2.959   5.047
 9473SOL     OW29317   2.973   5.027   0.081
 9473SOL    HW129318   2.970   4.928   0.082
 9473SOL    HW229319   2.978   5.060   7.013
 9474SOL     OW29320   6.696   3.375   6.903
 9474SOL    HW129321   6.753   3.457   6.892
 9474SOL    HW229322   6.720   3.329   6.988
 9475SOL     OW29323   3.522   3.278   6.638
 9475SOL    HW129324   3.472   3.332   6.706
 9475SOL    HW229325   3.601   3.330   6.605
 9476SOL     OW29326   3.911   3.670   4.204
 9476SOL    HW129327   3.902   3.601   4.277
 9476SOL    HW229328   3.951   3.628   4.123
 9477SOL     OW29329   1.000   2.704   0.547
 9477SOL    HW129330   1.087   2.683   0.501
 9477SOL    HW229331   0.953   2.618   0.568
 9478SOL     OW29332   5.191   3.341   0.947
 9478SOL    HW129333   5.268   3.280   0.930
 9478SOL    HW229334   5.151   3.321   1.036
 9479SOL     OW29335   4.589   6.548   0.263
 9479SOL    HW129336   4.675   6.583   0.225
 9479SOL    HW229337   4.604   6.456   0.299
 9480SOL     OW29338   5.718   4.645   1.085
 9480SOL    HW129339   5.706   4.551   1.118
 9480SOL    HW229340   5.672   4.655   0.997
 9481SOL     OW29341   5.066   3.210   2.869
 9481SOL    HW129342   5.013   3.290   2.898
 9481SOL    HW229343   5.035   3.180   2.779
 9482SOL     OW29344   0.578   1.233   2.447
 9482SOL    HW129345   0.481   1.258   2.437
 9482SOL    HW229346   0.630   1.312   2.478
 9483SOL     OW29347   1.840   0.761   1.307
 9483SOL    HW129348   1.811   0.681   1.255
 9483SOL    HW229349   1.858   0.838   1.245
 9484SOL     OW29350   4.487   0.316   4.219
 9484SOL    HW129351   4.561   0.381   4.236
 9484SOL    HW229352   4.457   0.278   4.307
 9485SOL     OW29353   0.532   0.887   0.647
 9485SOL    HW129354   0.501   0.928   0.733
 9485SOL    HW229355   0.632   0.896   0.641
 9486SOL     OW29356   3.941   6.489   0.909
 9486SOL    HW129357   3.976   6.407   0.864
 9486SOL    HW229358   3.951   6.568   0.848
 9487SOL     OW29359   3.346   3.877   3.965
 9487SOL    HW129360   3.388   3.956   3.920
 9487SOL    HW229361   3.262   3.906   4.011
 9488SOL     OW29362   2.990   0.174   1.308
 9488SOL    HW129363   3.058   0.112   1.345
 9488SOL    HW229364   2.986   0.165   1.209
 9489SOL     OW29365   4.456   4.205   0.902
 9489SOL    HW129366   4.527   4.210   0.832
 9489SOL    HW229367   4.451   4.112   0.938
 9490SOL     OW29368   5.737   5.066   2.486
 9490SOL    HW129369   5.742   5.118   2.572
 9490SOL    HW229370   5.697   4.976   2.505
 9491SOL     OW29371   5.594   4.760   3.807
 9491SOL    HW129372   5.513   4.809   3.837
 9491SOL    HW229373   5.608   4.774   3.709
 9492SOL     OW29374   3.462   2.871   4.738
 9492SOL    HW129375   3.439   2.956   4.691
 9492SOL    HW229376   3.432   2.793   4.682
 9493SOL     OW29377   2.750   5.685   4.473
 9493SOL    HW129378   2.754   5.755   4.544
 9493SOL    HW229379   2.656   5.652   4.464
 9494SOL     OW29380   5.102   2.799   2.721
 9494SOL    HW129381   5.079   2.751   2.636
 9494SOL    HW229382   5.023   2.800   2.781
 9495SOL     OW29383   6.492   1.458   3.148
 9495SOL    HW129384   6.410   1.471   3.092
 9495SOL    HW229385   6.469   1.473   3.244
 9496SOL     OW29386   5.716   3.635   1.276
 9496SOL    HW129387   5.669   3.721   1.298
 9496SOL    HW229388   5.673   3.592   1.196
 9497SOL     OW29389   5.726   6.888   6.197
 9497SOL    HW129390   5.644   6.831   6.185
 9497SOL    HW229391   5.796   6.837   6.245
 9498SOL     OW29392   4.972   6.533   4.543
 9498SOL    HW129393   4.982   6.549   4.445
 9498SOL    HW229394   5.035   6.593   4.593
 9499SOL     OW29395   2.275   4.846   6.461
 9499SOL    HW129396   2.252   4.772   6.398
 9499SOL    HW229397   2.281   4.810   6.554
 9500SOL     OW29398   4.842   6.924   1.126
 9500SOL    HW129399   4.891   6.842   1.096
 9500SOL    HW229400   4.794   6.965   1.048
 9501SOL     OW29401   2.697   1.331   5.109
 9501SOL    HW129402   2.706   1.278   5.024
 9501SOL    HW229403   2.742   1.420   5.098
 9502SOL     OW29404   5.736   2.823   5.211
 9502SOL    HW129405   5.753   2.755   5.282
 9502SOL    HW229406   5.731   2.914   5.252
 9503SOL     OW29407   0.957   1.855   1.635
 9503SOL    HW129408   0.953   1.855   1.735
 9503SOL    HW229409   1.037   1.907   1.605
 9504SOL     OW29410   0.012   2.756   0.654
 9504SOL    HW129411   6.950   2.711   0.658
 9504SOL    HW229412   0.078   2.706   0.709
 9505SOL     OW29413   5.180   4.419   4.353
 9505SOL    HW129414   5.120   4.359   4.300
 9505SOL    HW229415   5.273   4.382   4.352
 9506SOL     OW29416   1.171   2.455   6.675
 9506SOL    HW129417   1.256   2.451   6.623
 9506SOL    HW229418   1.158   2.548   6.710
 9507SOL     OW29419   0.742   1.305   2.782
 9507SOL    HW129420   0.785   1.355   2.706
 9507SOL    HW229421   0.755   1.356   2.867
 9508SOL     OW29422   6.062   1.889   1.322
 9508SOL    HW129423   6.010   1.819   1.274
 9508SOL    HW229424   6.023   1.979   1.304
 9509SOL     OW29425   0.817   1.054   3.899
 9509SOL    HW129426   0.906   1.007   3.896
 9509SOL    HW229427   0.793   1.087   3.808
 9510SOL     OW29428   2.054   3.586   3.209
 9510SOL    HW129429   2.089   3.677   3.231
 9510SOL    HW229430   2.056   3.573   3.110
 9511SOL     OW29431   1.313   0.437   1.086
 9511SOL    HW129432   1.293   0.424   0.989
 9511SOL    HW229433   1.409   0.463   1.098
 9512SOL     OW29434   5.842   1.346   1.712
 9512SOL    HW129435   5.877   1.344   1.618
 9512SOL    HW229436   5.743   1.359   1.711
 9513SOL     OW29437   2.184   3.755   6.009
 9513SOL    HW129438   2.084   3.746   6.007
 9513SOL    HW229439   2.211   3.835   5.956
 9514SOL     OW29440   1.687   5.133   5.806
 9514SOL    HW129441   1.654   5.181   5.725
 9514SOL    HW229442   1.647   5.175   5.888
 9515SOL     OW29443   2.012   5.776   0.641
 9515SOL    HW129444   2.050   5.753   0.730
 9515SOL    HW229445   2.033   5.703   0.576
 9516SOL     OW29446   6.200   4.582   6.722
 9516SOL    HW129447   6.295   4.563   6.746
 9516SOL    HW229448   6.140   4.554   6.797
 9517SOL     OW29449   1.848   4.817   0.982
 9517SOL    HW129450   1.884   4.907   1.008
 9517SOL    HW229451   1.900   4.745   1.029
 9518SOL     OW29452   1.767   1.697   0.420
 9518SOL    HW129453   1.712   1.660   0.346
 9518SOL    HW229454   1.830   1.627   0.453
 9519SOL     OW29455   3.710   3.925   4.526
 9519SOL    HW129456   3.699   3.865   4.447
 9519SOL    HW229457   3.800   3.968   4.524
 9520SOL     OW29458   1.907   1.589   3.559
 9520SOL    HW129459   1.886   1.491   3.566
 9520SOL    HW229460   1.866   1.637   3.636
 9521SOL     OW29461   4.742   5.625   1.659
 9521SOL    HW129462   4.812   5.560   1.690
 9521SOL    HW229463   4.774   5.718   1.675
 9522SOL     OW29464   2.609   5.618   1.301
 9522SOL    HW129465   2.699   5.645   1.267
 9522SOL    HW229466   2.556   5.700   1.323
 9523SOL     OW29467   2.721   4.685   4.708
 9523SOL    HW129468   2.785   4.754   4.673
 9523SOL    HW229469   2.757   4.646   4.793
 9524SOL     OW29470   3.654   3.006   1.660
 9524SOL    HW129471   3.701   2.936   1.715
 9524SOL    HW229472   3.560   2.978   1.643
 9525SOL     OW29473   2.547   3.339   5.612
 9525SOL    HW129474   2.619   3.271   5.622
 9525SOL    HW229475   2.459   3.293   5.603
 9526SOL     OW29476   5.237   5.458   1.635
 9526SOL    HW129477   5.311   5.499   1.690
 9526SOL    HW229478   5.201   5.527   1.572
 9527SOL     OW29479   1.030   0.543   2.906
 9527SOL    HW129480   1.074   0.595   2.979
 9527SOL    HW229481   0.950   0.592   2.873
 9528SOL     OW29482   0.399   1.457   0.048
 9528SOL    HW129483   0.306   1.460   0.013
 9528SOL    HW229484   0.458   1.514   7.017
 9529SOL     OW29485   6.285   3.127   5.362
 9529SOL    HW129486   6.301   3.166   5.271
 9529SOL    HW229487   6.373   3.112   5.408
 9530SOL     OW29488   1.561   3.699   2.177
 9530SOL    HW129489   1.525   3.606   2.169
 9530SOL    HW229490   1.661   3.696   2.181
 9531SOL     OW29491   4.899   5.351   3.138
 9531SOL    HW129492   4.866   5.292   3.065
 9531SOL    HW229493   4.949   5.296   3.205
 9532SOL     OW29494   0.212   6.828   2.438
 9532SOL    HW129495   0.272   6.759   2.396
 9532SOL    HW229496   0.167   6.881   2.366
 9533SOL     OW29497   6.640   7.004   5.712
 9533SOL    HW129498   6.629   0.065   5.760
 9533SOL    HW229499   6.610   7.014   5.617
 9534SOL     OW29500   0.099   3.376   5.299
 9534SOL    HW129501   0.110   3.409   5.393
 9534SOL    HW229502   0.011   3.328   5.290
 9535SOL     OW29503   2.682   1.470   5.778
 9535SOL    HW129504   2.635   1.557   5.763
 9535SOL    HW229505   2.678   1.447   5.875
 9536SOL     OW29506   2.614   4.864   5.397
 9536SOL    HW129507   2.691   4.848   5.459
 9536SOL    HW229508   2.646   4.912   5.315
 9537SOL     OW29509   2.663   6.372   2.698
 9537SOL    HW129510   2.747   6.319   2.684
 9537SOL    HW229511   2.681   6.447   2.762
 9538SOL     OW29512   6.306   1.772   3.390
 9538SOL    HW129513   6.351   1.859   3.411
 9538SOL    HW229514   6.249   1.782   3.308
 9539SOL     OW29515   2.538   3.800   5.405
 9539SOL    HW129516   2.522   3.706   5.374
 9539SOL    HW229517   2.522   3.863   5.329
 9540SOL     OW29518   6.018   4.237   4.324
 9540SOL    HW129519   6.024   4.148   4.278
 9540SOL    HW229520   6.040   4.310   4.259
 9541SOL     OW29521   3.169   1.158   5.681
 9541SOL    HW129522   3.116   1.077   5.708
 9541SOL    HW229523   3.147   1.234   5.742
 9542SOL     OW29524   5.355   4.051   4.551
 9542SOL    HW129525   5.434   3.990   4.554
 9542SOL    HW229526   5.276   4.001   4.516
 9543SOL     OW29527   3.455   1.114   4.884
 9543SOL    HW129528   3.454   1.200   4.935
 9543SOL    HW229529   3.372   1.062   4.905
 9544SOL     OW29530   0.548   1.223   3.484
 9544SOL    HW129531   0.632   1.266   3.454
 9544SOL    HW229532   0.539   1.133   3.442
 9545SOL     OW29533   6.190   5.321   3.854
 9545SOL    HW129534   6.117   5.312   3.787
 9545SOL    HW229535   6.223   5.230   3.880
 9546SOL     OW29536   3.178   2.463   5.564
 9546SOL    HW129537   3.218   2.518   5.490
 9546SOL    HW229538   3.251   2.427   5.622
 9547SOL     OW29539   2.616   6.142   4.018
 9547SOL    HW129540   2.625   6.072   3.947
 9547SOL    HW229541   2.687   6.211   4.005
 9548SOL     OW29542   5.863   6.198   5.561
 9548SOL    HW129543   5.878   6.252   5.478
 9548SOL    HW229544   5.768   6.210   5.591
 9549SOL     OW29545   2.843   2.989   1.130
 9549SOL    HW129546   2.917   3.009   1.194
 9549SOL    HW229547   2.845   2.892   1.106
 9550SOL     OW29548   0.255   1.485   0.492
 9550SOL    HW129549   0.340   1.519   0.452
 9550SOL    HW229550   0.206   1.560   0.536
 9551SOL     OW29551   6.408   1.210   3.888
 9551SOL    HW129552   6.409   1.192   3.790
 9551SOL    HW229553   6.314   1.214   3.921
 9552SOL     OW29554   1.398   6.045   2.669
 9552SOL    HW129555   1.302   6.068   2.655
 9552SOL    HW229556   1.456   6.116   2.627
 9553SOL     OW29557   6.253   3.974   6.765
 9553SOL    HW129558   6.166   3.978   6.716
 9553SOL    HW229559   6.246   4.025   6.850
 9554SOL     OW29560   2.198   0.690   1.685
 9554SOL    HW129561   2.197   0.773   1.741
 9554SOL    HW229562   2.121   0.693   1.621
 9555SOL     OW29563   1.235   1.061   2.508
 9555SOL    HW129564   1.213   0.975   2.461
 9555SOL    HW229565   1.283   1.122   2.446
 9556SOL     OW29566   2.287   2.430   1.362
 9556SOL    HW129567   2.246   2.503   1.307
 9556SOL    HW229568   2.280   2.343   1.313
 9557SOL     OW29569   0.053   0.611   3.433
 9557SOL    HW129570   0.140   0.565   3.449
 9557SOL    HW229571   7.012   0.546   3.399
 9558SOL     OW29572   6.684   6.199   4.484
 9558SOL    HW129573   6.719   6.286   4.449
 9558SOL    HW229574   6.703   6.127   4.417
 9559SOL     OW29575   0.462   3.882   1.468
 9559SOL    HW129576   0.536   3.900   1.403
 9559SOL    HW229577   0.429   3.968   1.507
 9560SOL     OW29578   1.361   1.548   3.224
 9560SOL    HW129579   1.265   1.526   3.205
 9560SOL    HW229580   1.420   1.496   3.162
 9561SOL     OW29581   1.178   6.496   0.004
 9561SOL    HW129582   1.224   6.546   6.957
 9561SOL    HW229583   1.152   6.560   0.076
 9562SOL     OW29584   3.375   0.189   5.102
 9562SOL    HW129585   3.354   0.287   5.094
 9562SOL    HW229586   3.383   0.164   5.198
 9563SOL     OW29587   6.660   0.073   0.637
 9563SOL    HW129588   6.599   7.023   0.655
 9563SOL    HW229589   6.675   0.125   0.721
 9564SOL     OW29590   2.801   7.020   6.888
 9564SOL    HW129591   2.843   0.044   6.963
 9564SOL    HW229592   2.733   0.052   6.844
 9565SOL     OW29593   4.249   6.137   5.336
 9565SOL    HW129594   4.163   6.188   5.334
 9565SOL    HW229595   4.231   6.040   5.322
 9566SOL     OW29596   2.729   5.296   6.689
 9566SOL    HW129597   2.696   5.240   6.612
 9566SOL    HW229598   2.717   5.246   6.774
 9567SOL     OW29599   6.241   4.322   6.568
 9567SOL    HW129600   6.181   4.308   6.647
 9567SOL    HW229601   6.336   4.326   6.599
 9568SOL     OW29602   4.488   2.745   6.721
 9568SOL    HW129603   4.568   2.778   6.670
 9568SOL    HW229604   4.497   2.771   6.817
 9569SOL     OW29605   0.260   0.549   2.491
 9569SOL    HW129606   0.268   0.606   2.572
 9569SOL    HW229607   0.343   0.558   2.436
 9570SOL     OW29608   0.840   2.717   2.237
 9570SOL    HW129609   0.788   2.771   2.303
 9570SOL    HW229610   0.914   2.668   2.284
 9571SOL     OW29611   2.418   3.783   6.839
 9571SOL    HW129612   2.335   3.759   6.789
 9571SOL    HW229613   2.443   3.707   6.900
 9572SOL     OW29614   1.714   5.645   0.728
 9572SOL    HW129615   1.806   5.674   0.699
 9572SOL    HW229616   1.699   5.550   0.701
 9573SOL     OW29617   0.849   1.513   6.826
 9573SOL    HW129618   0.807   1.590   6.778
 9573SOL    HW229619   0.860   1.536   6.923
 9574SOL     OW29620   3.805   2.984   4.124
 9574SOL    HW129621   3.886   2.955   4.072
 9574SOL    HW229622   3.834   3.022   4.212
 9575SOL     OW29623   5.910   1.174   0.710
 9575SOL    HW129624   5.947   1.259   0.747
 9575SOL    HW229625   5.857   1.127   0.780
 9576SOL     OW29626   3.093   0.420   2.479
 9576SOL    HW129627   3.058   0.326   2.470
 9576SOL    HW229628   3.019   0.485   2.467
 9577SOL     OW29629   1.299   1.055   3.857
 9577SOL    HW129630   1.351   0.971   3.839
 9577SOL    HW229631   1.275   1.099   3.771
 9578SOL     OW29632   0.083   3.716   3.468
 9578SOL    HW129633   0.108   3.724   3.371
 9578SOL    HW229634   7.019   3.755   3.482
 9579SOL     OW29635   1.905   5.299   2.902
 9579SOL    HW129636   1.938   5.324   2.811
 9579SOL    HW229637   1.972   5.324   2.971
 9580SOL     OW29638   4.463   3.203   0.594
 9580SOL    HW129639   4.558   3.189   0.564
 9580SOL    HW229640   4.457   3.187   0.692
 9581SOL     OW29641   1.421   5.247   6.250
 9581SOL    HW129642   1.443   5.152   6.271
 9581SOL    HW229643   1.451   5.306   6.325
 9582SOL     OW29644   4.392   4.707   4.762
 9582SOL    HW129645   4.350   4.668   4.845
 9582SOL    HW229646   4.475   4.757   4.788
 9583SOL     OW29647   2.959   3.884   0.985
 9583SOL    HW129648   2.933   3.888   1.082
 9583SOL    HW229649   3.000   3.971   0.958
 9584SOL     OW29650   6.426   6.784   0.171
 9584SOL    HW129651   6.445   6.776   0.073
 9584SOL    HW229652   6.357   6.717   0.196
 9585SOL     OW29653   6.288   0.658   3.194
 9585SOL    HW129654   6.209   0.600   3.179
 9585SOL    HW229655   6.260   0.740   3.244
 9586SOL     OW29656   5.795   4.004   2.007
 9586SOL    HW129657   5.807   3.992   2.106
 9586SOL    HW229658   5.805   3.916   1.961
 9587SOL     OW29659   6.046   0.509   2.241
 9587SOL    HW129660   5.973   0.441   2.231
 9587SOL    HW229661   6.102   0.509   2.158
 9588SOL     OW29662   0.651   1.650   2.313
 9588SOL    HW129663   0.723   1.699   2.361
 9588SOL    HW229664   0.692   1.582   2.252
 9589SOL     OW29665   2.909   5.974   6.293
 9589SOL    HW129666   2.937   5.899   6.233
 9589SOL    HW229667   2.810   5.987   6.286
 9590SOL     OW29668   0.310   4.904   2.108
 9590SOL    HW129669   0.337   4.988   2.155
 9590SOL    HW229670   0.372   4.887   2.032
 9591SOL     OW29671   2.869   6.183   0.116
 9591SOL    HW129672   2.784   6.189   0.169
 9591SOL    HW229673   2.916   6.271   0.117
 9592SOL     OW29674   3.759   4.692   1.696
 9592SOL    HW129675   3.828   4.621   1.711
 9592SOL    HW229676   3.683   4.679   1.760
 9593SOL     OW29677   6.366   1.175   4.565
 9593SOL    HW129678   6.448   1.187   4.620
 9593SOL    HW229679   6.328   1.265   4.542
 9594SOL     OW29680   0.937   5.877   3.337
 9594SOL    HW129681   0.922   5.778   3.338
 9594SOL    HW229682   0.927   5.913   3.429
 9595SOL     OW29683   2.125   4.523   4.477
 9595SOL    HW129684   2.109   4.445   4.416
 9595SOL    HW229685   2.045   4.536   4.535
 9596SOL     OW29686   6.968   5.702   0.240
 9596SOL    HW129687   0.008   5.756   0.187
 9596SOL    HW229688   6.878   5.709   0.198
 9597SOL     OW29689   0.131   4.491   0.838
 9597SOL    HW129690   0.184   4.550   0.900
 9597SOL    HW229691   0.092   4.547   0.765
 9598SOL     OW29692   0.677   3.961   4.962
 9598SOL    HW129693   0.709   4.019   4.887
 9598SOL    HW229694   0.579   3.974   4.975
 9599SOL     OW29695   3.231   0.741   5.312
 9599SOL    HW129696   3.329   0.725   5.315
 9599SOL    HW229697   3.212   0.825   5.261
 9600SOL     OW29698   1.931   6.863   6.469
 9600SOL    HW129699   1.874   6.809   6.406
 9600SOL    HW229700   1.933   6.958   6.438
 9601SOL     OW29701   6.236   4.352   0.040
 9601SOL    HW129702   6.336   4.359   0.042
 9601SOL    HW229703   6.197   4.413   0.109
 9602SOL     OW29704   6.023   5.058   6.368
 9602SOL    HW129705   6.116   5.063   6.330
 9602SOL    HW229706   5.956   5.072   6.295
 9603SOL     OW29707   3.102   0.098   4.659
 9603SOL    HW129708   3.122   0.125   4.753
 9603SOL    HW229709   3.072   0.178   4.607
 9604SOL     OW29710   5.119   0.252   0.875
 9604SOL    HW129711   5.166   0.304   0.804
 9604SOL    HW229712   5.048   0.195   0.834
 9605SOL     OW29713   0.377   4.735   5.403
 9605SOL    HW129714   0.346   4.778   5.488
 9605SOL    HW229715   0.476   4.732   5.401
 9606SOL     OW29716   0.906   6.522   4.845
 9606SOL    HW129717   0.905   6.491   4.940
 9606SOL    HW229718   0.999   6.514   4.809
 9607SOL     OW29719   1.056   2.532   2.193
 9607SOL    HW129720   1.060   2.521   2.093
 9607SOL    HW229721   1.139   2.579   2.224
 9608SOL     OW29722   0.017   6.440   2.657
 9608SOL    HW129723   0.032   6.487   2.570
 9608SOL    HW229724   0.001   6.343   2.640
 9609SOL     OW29725   1.340   3.902   5.005
 9609SOL    HW129726   1.297   3.907   4.915
 9609SOL    HW229727   1.414   3.969   5.010
 9610SOL     OW29728   1.663   3.976   4.438
 9610SOL    HW129729   1.603   3.966   4.517
 9610SOL    HW229730   1.735   4.042   4.459
 9611SOL     OW29731   0.237   6.396   0.898
 9611SOL    HW129732   0.212   6.312   0.945
 9611SOL    HW229733   0.226   6.383   0.799
 9612SOL     OW29734   6.142   3.229   1.578
 9612SOL    HW129735   6.160   3.154   1.641
 9612SOL    HW229736   6.044   3.249   1.577
 9613SOL     OW29737   4.397   6.101   3.700
 9613SOL    HW129738   4.431   6.126   3.791
 9613SOL    HW229739   4.307   6.059   3.709
 9614SOL     OW29740   3.765   3.440   1.296
 9614SOL    HW129741   3.698   3.366   1.306
 9614SOL    HW229742   3.776   3.487   1.383
 9615SOL     OW29743   1.041   6.727   2.555
 9615SOL    HW129744   1.046   6.683   2.465
 9615SOL    HW229745   1.131   6.762   2.580
 9616SOL     OW29746   4.036   4.113   0.403
 9616SOL    HW129747   4.093   4.046   0.355
 9616SOL    HW229748   4.030   4.197   0.349
 9617SOL     OW29749   0.758   3.794   4.038
 9617SOL    HW129750   0.838   3.836   4.080
 9617SOL    HW229751   0.785   3.742   3.957
 9618SOL     OW29752   4.367   6.626   6.061
 9618SOL    HW129753   4.399   6.543   6.107
 9618SOL    HW229754   4.298   6.670   6.118
 9619SOL     OW29755   1.306   0.491   0.812
 9619SOL    HW129756   1.286   0.407   0.762
 9619SOL    HW229757   1.366   0.549   0.758
 9620SOL     OW29758   5.053   1.608   6.613
 9620SOL    HW129759   5.066   1.575   6.707
 9620SOL    HW229760   5.124   1.675   6.591
 9621SOL     OW29761   1.700   1.293   2.687
 9621SOL    HW129762   1.686   1.388   2.658
 9621SOL    HW229763   1.668   1.232   2.614
 9622SOL     OW29764   5.985   1.638   6.315
 9622SOL    HW129765   5.917   1.675   6.252
 9622SOL    HW229766   6.028   1.558   6.275
 9623SOL     OW29767   4.254   5.313   5.859
 9623SOL    HW129768   4.181   5.380   5.842
 9623SOL    HW229769   4.301   5.335   5.944
 9624SOL     OW29770   5.324   4.162   4.808
 9624SOL    HW129771   5.331   4.129   4.714
 9624SOL    HW229772   5.364   4.253   4.814
 9625SOL     OW29773   5.471   4.225   0.169
 9625SOL    HW129774   5.418   4.271   0.099
 9625SOL    HW229775   5.441   4.256   0.259
 9626SOL     OW29776   2.466   6.183   5.597
 9626SOL    HW129777   2.524   6.199   5.677
 9626SOL    HW229778   2.441   6.271   5.555
 9627SOL     OW29779   0.016   3.850   4.925
 9627SOL    HW129780   0.057   3.826   5.014
 9627SOL    HW229781   0.050   3.787   4.855
 9628SOL     OW29782   5.918   4.067   0.804
 9628SOL    HW129783   5.989   4.057   0.873
 9628SOL    HW229784   5.960   4.075   0.714
 9629SOL     OW29785   6.574   5.791   3.007
 9629SOL    HW129786   6.589   5.847   2.925
 9629SOL    HW229787   6.476   5.774   3.019
 9630SOL     OW29788   6.345   6.007   5.511
 9630SOL    HW129789   6.382   6.038   5.598
 9630SOL    HW229790   6.355   6.080   5.443
 9631SOL     OW29791   4.714   2.259   0.823
 9631SOL    HW129792   4.670   2.209   0.898
 9631SOL    HW229793   4.651   2.265   0.745
 9632SOL     OW29794   2.307   5.231   2.270
 9632SOL    HW129795   2.296   5.328   2.252
 9632SOL    HW229796   2.397   5.214   2.312
 9633SOL     OW29797   3.802   4.012   0.121
 9633SOL    HW129798   3.720   3.967   0.085
 9633SOL    HW229799   3.777   4.103   0.156
 9634SOL     OW29800   0.310   5.549   3.421
 9634SOL    HW129801   0.404   5.558   3.452
 9634SOL    HW229802   0.276   5.639   3.392
 9635SOL     OW29803   1.468   4.524   5.365
 9635SOL    HW129804   1.548   4.474   5.400
 9635SOL    HW229805   1.483   4.622   5.375
 9636SOL     OW29806   4.061   1.543   5.669
 9636SOL    HW129807   3.975   1.593   5.679
 9636SOL    HW229808   4.046   1.446   5.691
 9637SOL     OW29809   4.068   2.780   1.266
 9637SOL    HW129810   4.055   2.699   1.209
 9637SOL    HW229811   4.010   2.774   1.347
 9638SOL     OW29812   6.858   3.157   5.741
 9638SOL    HW129813   6.863   3.242   5.793
 9638SOL    HW229814   6.775   3.107   5.767
 9639SOL     OW29815   4.335   2.356   2.091
 9639SOL    HW129816   4.311   2.423   2.020
 9639SOL    HW229817   4.251   2.317   2.129
 9640SOL     OW29818   3.250   0.426   2.259
 9640SOL    HW129819   3.310   0.346   2.247
 9640SOL    HW229820   3.226   0.434   2.356
 9641SOL     OW29821   5.993   5.990   1.876
 9641SOL    HW129822   5.926   5.960   1.808
 9641SOL    HW229823   6.045   5.911   1.908
 9642SOL     OW29824   1.335   6.308   4.251
 9642SOL    HW129825   1.260   6.251   4.219
 9642SOL    HW229826   1.312   6.348   4.340
 9643SOL     OW29827   5.119   4.006   3.972
 9643SOL    HW129828   5.188   4.019   3.901
 9643SOL    HW229829   5.030   3.992   3.929
 9644SOL     OW29830   1.341   5.889   5.555
 9644SOL    HW129831   1.241   5.881   5.556
 9644SOL    HW229832   1.377   5.863   5.645
 9645SOL     OW29833   2.545   4.554   4.526
 9645SOL    HW129834   2.584   4.587   4.612
 9645SOL    HW229835   2.481   4.480   4.546
 9646SOL     OW29836   2.622   5.119   1.875
 9646SOL    HW129837   2.556   5.119   1.800
 9646SOL    HW229838   2.594   5.052   1.944
 9647SOL     OW29839   0.122   6.699   3.526
 9647SOL    HW129840   0.034   6.744   3.542
 9647SOL    HW229841   0.194   6.746   3.578
 9648SOL     OW29842   4.170   2.508   0.131
 9648SOL    HW129843   4.236   2.462   0.070
 9648SOL    HW229844   4.175   2.466   0.221
 9649SOL     OW29845   2.176   4.378   0.064
 9649SOL    HW129846   2.177   4.388   6.991
 9649SOL    HW229847   2.186   4.468   0.106
 9650SOL     OW29848   4.698   4.269   2.737
 9650SOL    HW129849   4.649   4.220   2.665
 9650SOL    HW229850   4.735   4.203   2.803
 9651SOL     OW29851   5.504   1.218   1.140
 9651SOL    HW129852   5.440   1.267   1.080
 9651SOL    HW229853   5.462   1.133   1.171
 9652SOL     OW29854   0.938   4.724   1.655
 9652SOL    HW129855   0.841   4.703   1.654
 9652SOL    HW229856   0.953   4.815   1.694
 9653SOL     OW29857   4.498   4.922   4.428
 9653SOL    HW129858   4.573   4.863   4.398
 9653SOL    HW229859   4.413   4.869   4.430
 9654SOL     OW29860   2.975   3.429   3.070
 9654SOL    HW129861   3.023   3.503   3.117
 9654SOL    HW229862   2.988   3.344   3.121
 9655SOL     OW29863   0.091   2.251   0.559
 9655SOL    HW129864   0.168   2.190   0.539
 9655SOL    HW229865   0.024   2.202   0.614
 9656SOL     OW29866   4.313   2.940   1.226
 9656SOL    HW129867   4.240   2.872   1.231
 9656SOL    HW229868   4.374   2.917   1.150
 9657SOL     OW29869   5.468   3.416   2.615
 9657SOL    HW129870   5.465   3.457   2.523
 9657SOL    HW229871   5.377   3.386   2.642
 9658SOL     OW29872   5.356   1.324   2.383
 9658SOL    HW129873   5.440   1.294   2.427
 9658SOL    HW229874   5.309   1.246   2.343
 9659SOL     OW29875   0.802   3.308   0.447
 9659SOL    HW129876   0.809   3.402   0.415
 9659SOL    HW229877   0.892   3.275   0.474
 9660SOL     OW29878   0.683   6.824   3.244
 9660SOL    HW129879   0.774   6.855   3.272
 9660SOL    HW229880   0.632   6.901   3.206
 9661SOL     OW29881   3.709   6.469   1.799
 9661SOL    HW129882   3.717   6.370   1.787
 9661SOL    HW229883   3.743   6.515   1.717
 9662SOL     OW29884   4.383   3.772   6.545
 9662SOL    HW129885   4.439   3.691   6.530
 9662SOL    HW229886   4.349   3.772   6.639
 9663SOL     OW29887   0.260   5.827   2.787
 9663SOL    HW129888   0.205   5.846   2.868
 9663SOL    HW229889   0.204   5.838   2.705
 9664SOL     OW29890   5.892   5.295   4.303
 9664SOL    HW129891   5.857   5.388   4.296
 9664SOL    HW229892   5.834   5.234   4.249
 9665SOL     OW29893   5.925   6.694   6.429
 9665SOL    HW129894   5.944   6.687   6.331
 9665SOL    HW229895   5.871   6.615   6.458
 9666SOL     OW29896   6.312   3.836   1.907
 9666SOL    HW129897   6.325   3.888   1.822
 9666SOL    HW229898   6.368   3.876   1.979
 9667SOL     OW29899   3.894   3.807   0.294
 9667SOL    HW129900   3.860   3.839   0.383
 9667SOL    HW229901   3.857   3.866   0.222
 9668SOL     OW29902   0.407   0.694   6.332
 9668SOL    HW129903   0.478   0.631   6.363
 9668SOL    HW229904   0.327   0.642   6.303
 9669SOL     OW29905   2.043   6.604   2.186
 9669SOL    HW129906   2.071   6.697   2.161
 9669SOL    HW229907   1.960   6.608   2.242
 9670SOL     OW29908   0.549   4.692   5.999
 9670SOL    HW129909   0.587   4.609   5.956
 9670SOL    HW229910   0.488   4.666   6.074
 9671SOL     OW29911   6.870   4.366   0.613
 9671SOL    HW129912   6.795   4.328   0.560
 9671SOL    HW229913   6.955   4.318   0.591
 9672SOL     OW29914   2.080   5.075   3.544
 9672SOL    HW129915   2.122   5.148   3.491
 9672SOL    HW229916   2.094   5.093   3.642
 9673SOL     OW29917   3.780   3.606   0.850
 9673SOL    HW129918   3.732   3.541   0.791
 9673SOL    HW229919   3.769   3.698   0.815
 9674SOL     OW29920   3.904   6.579   3.604
 9674SOL    HW129921   3.961   6.498   3.617
 9674SOL    HW229922   3.957   6.649   3.555
 9675SOL     OW29923   5.550   2.300   6.263
 9675SOL    HW129924   5.479   2.369   6.278
 9675SOL    HW229925   5.543   2.264   6.170
 9676SOL     OW29926   1.093   3.206   5.865
 9676SOL    HW129927   1.051   3.291   5.832
 9676SOL    HW229928   1.106   3.143   5.789
 9677SOL     OW29929   6.574   5.472   4.836
 9677SOL    HW129930   6.529   5.426   4.759
 9677SOL    HW229931   6.532   5.442   4.922
 9678SOL     OW29932   2.912   3.455   3.846
 9678SOL    HW129933   2.824   3.465   3.799
 9678SOL    HW229934   2.974   3.527   3.817
 9679SOL     OW29935   2.441   6.957   3.363
 9679SOL    HW129936   2.539   6.950   3.382
 9679SOL    HW229937   2.402   6.865   3.356
 9680SOL     OW29938   4.121   0.260   3.854
 9680SOL    HW129939   4.206   0.308   3.833
 9680SOL    HW229940   4.068   0.248   3.770
 9681SOL     OW29941   2.690   2.259   0.813
 9681SOL    HW129942   2.643   2.288   0.896
 9681SOL    HW229943   2.661   2.167   0.788
 9682SOL     OW29944   4.833   4.137   3.889
 9682SOL    HW129945   4.820   4.112   3.985
 9682SOL    HW229946   4.802   4.062   3.831
 9683SOL     OW29947   3.180   6.681   1.949
 9683SOL    HW129948   3.137   6.717   1.866
 9683SOL    HW229949   3.245   6.609   1.925
 9684SOL     OW29950   0.884   3.653   5.832
 9684SOL    HW129951   0.794   3.645   5.874
 9684SOL    HW229952   0.947   3.589   5.875
 9685SOL     OW29953   4.667   4.210   0.726
 9685SOL    HW129954   4.730   4.145   0.683
 9685SOL    HW229955   4.702   4.303   0.714
 9686SOL     OW29956   0.443   3.467   6.051
 9686SOL    HW129957   0.396   3.388   6.090
 9686SOL    HW229958   0.503   3.507   6.121
 9687SOL     OW29959   1.047   0.916   3.937
 9687SOL    HW129960   1.060   0.817   3.945
 9687SOL    HW229961   1.132   0.963   3.960
 9688SOL     OW29962   1.131   3.016   1.230
 9688SOL    HW129963   1.072   3.072   1.288
 9688SOL    HW229964   1.130   3.052   1.136
 9689SOL     OW29965   0.976   4.531   6.597
 9689SOL    HW129966   0.901   4.597   6.594
 9689SOL    HW229967   1.063   4.579   6.591
 9690SOL     OW29968   5.874   5.860   6.853
 9690SOL    HW129969   5.778   5.888   6.850
 9690SOL    HW229970   5.883   5.768   6.816
 9691SOL     OW29971   3.157   4.089   0.914
 9691SOL    HW129972   3.163   4.111   1.012
 9691SOL    HW229973   3.111   4.164   0.866
 9692SOL     OW29974   4.029   6.388   1.929
 9692SOL    HW129975   4.024   6.412   2.026
 9692SOL    HW229976   3.979   6.303   1.913
 9693SOL     OW29977   5.896   3.993   2.707
 9693SOL    HW129978   5.862   3.922   2.646
 9693SOL    HW229979   5.963   3.954   2.770
 9694SOL     OW29980   3.394   1.406   1.316
 9694SOL    HW129981   3.455   1.458   1.257
 9694SOL    HW229982   3.432   1.314   1.332
 9695SOL     OW29983   6.886   2.641   3.646
 9695SOL    HW129984   6.818   2.702   3.686
 9695SOL    HW229985   6.892   2.557   3.700
 9696SOL     OW29986   5.373   2.699   1.245
 9696SOL    HW129987   5.409   2.720   1.336
 9696SOL    HW229988   5.348   2.602   1.241
 9697SOL     OW29989   0.451   5.333   0.093
 9697SOL    HW129990   0.473   5.431   0.089
 9697SOL    HW229991   0.465   5.292   0.003
 9698SOL     OW29992   5.559   2.203   6.007
 9698SOL    HW129993   5.595   2.252   5.928
 9698SOL    HW229994   5.551   2.106   5.985
 9699SOL     OW29995   6.253   6.133   6.619
 9699SOL    HW129996   6.175   6.071   6.632
 9699SOL    HW229997   6.219   6.224   6.595
 9700SOL     OW29998   5.592   5.980   5.132
 9700SOL    HW129999   5.660   6.029   5.187
 9700SOL    HW230000   5.502   6.020   5.147
 9701SOL     OW30001   4.774   4.916   5.498
 9701SOL    HW130002   4.739   4.830   5.537
 9701SOL    HW230003   4.760   4.915   5.399
 9702SOL     OW30004   4.008   1.655   0.122
 9702SOL    HW130005   3.947   1.578   0.104
 9702SOL    HW230006   4.084   1.626   0.179
 9703SOL     OW30007   4.971   3.617   3.779
 9703SOL    HW130008   5.070   3.625   3.768
 9703SOL    HW230009   4.949   3.528   3.820
 9704SOL     OW30010   3.328   6.898   1.303
 9704SOL    HW130011   3.340   6.962   1.379
 9704SOL    HW230012   3.250   6.926   1.248
 9705SOL     OW30013   5.734   3.765   6.513
 9705SOL    HW130014   5.758   3.729   6.423
 9705SOL    HW230015   5.643   3.807   6.509
 9706SOL     OW30016   2.304   3.053   0.871
 9706SOL    HW130017   2.340   2.985   0.807
 9706SOL    HW230018   2.370   3.128   0.880
 9707SOL     OW30019   5.989   4.562   2.255
 9707SOL    HW130020   5.965   4.638   2.315
 9707SOL    HW230021   6.074   4.582   2.207
 9708SOL     OW30022   1.144   1.736   3.470
 9708SOL    HW130023   1.233   1.753   3.428
 9708SOL    HW230024   1.153   1.667   3.542
 9709SOL     OW30025   5.396   6.108   2.663
 9709SOL    HW130026   5.425   6.161   2.583
 9709SOL    HW230027   5.304   6.136   2.690
 9710SOL     OW30028   6.391   1.527   1.546
 9710SOL    HW130029   6.484   1.561   1.534
 9710SOL    HW230030   6.362   1.477   1.464
 9711SOL     OW30031   3.394   5.323   5.254
 9711SOL    HW130032   3.335   5.396   5.220
 9711SOL    HW230033   3.353   5.283   5.336
 9712SOL     OW30034   5.521   3.529   6.546
 9712SOL    HW130035   5.617   3.502   6.541
 9712SOL    HW230036   5.506   3.585   6.628
 9713SOL     OW30037   1.749   4.415   3.301
 9713SOL    HW130038   1.677   4.365   3.254
 9713SOL    HW230039   1.763   4.503   3.256
 9714SOL     OW30040   4.335   6.211   6.590
 9714SOL    HW130041   4.256   6.153   6.575
 9714SOL    HW230042   4.321   6.299   6.543
 9715SOL     OW30043   5.995   3.924   0.017
 9715SOL    HW130044   5.930   3.849   0.014
 9715SOL    HW230045   5.987   3.979   6.960
 9716SOL     OW30046   3.582   4.690   6.615
 9716SOL    HW130047   3.618   4.783   6.615
 9716SOL    HW230048   3.519   4.679   6.538
 9717SOL     OW30049   5.062   6.946   6.011
 9717SOL    HW130050   5.021   6.881   5.946
 9717SOL    HW230051   5.130   6.899   6.067
 9718SOL     OW30052   5.227   3.148   0.307
 9718SOL    HW130053   5.203   3.241   0.337
 9718SOL    HW230054   5.290   3.152   0.230
 9719SOL     OW30055   6.319   0.759   5.901
 9719SOL    HW130056   6.378   0.802   5.969
 9719SOL    HW230057   6.223   0.777   5.923
 9720SOL     OW30058   0.879   4.327   1.959
 9720SOL    HW130059   0.871   4.343   2.058
 9720SOL    HW230060   0.802   4.371   1.912
 9721SOL     OW30061   0.320   1.745   0.681
 9721SOL    HW130062   0.304   1.835   0.720
 9721SOL    HW230063   0.410   1.743   0.638
 9722SOL     OW30064   4.523   1.381   4.558
 9722SOL    HW130065   4.622   1.385   4.544
 9722SOL    HW230066   4.496   1.288   4.582
 9723SOL     OW30067   3.630   6.696   3.210
 9723SOL    HW130068   3.629   6.771   3.276
 9723SOL    HW230069   3.724   6.681   3.179
 9724SOL     OW30070   1.495   4.797   6.803
 9724SOL    HW130071   1.407   4.754   6.825
 9724SOL    HW230072   1.551   4.735   6.749
 9725SOL     OW30073   4.632   5.788   6.034
 9725SOL    HW130074   4.560   5.827   5.978
 9725SOL    HW230075   4.721   5.822   6.003
 9726SOL     OW30076   4.766   1.539   3.885
 9726SOL    HW130077   4.702   1.540   3.809
 9726SOL    HW230078   4.719   1.564   3.969
 9727SOL     OW30079   1.500   2.464   0.454
 9727SOL    HW130080   1.560   2.385   0.440
 9727SOL    HW230081   1.518   2.532   0.383
 9728SOL     OW30082   0.843   0.445   6.160
 9728SOL    HW130083   0.771   0.380   6.133
 9728SOL    HW230084   0.819   0.536   6.126
 9729SOL     OW30085   1.196   4.051   3.319
 9729SOL    HW130086   1.139   4.089   3.246
 9729SOL    HW230087   1.187   3.951   3.319
 9730SOL     OW30088   1.958   4.515   3.006
 9730SOL    HW130089   2.024   4.523   3.081
 9730SOL    HW230090   1.911   4.603   2.993
 9731SOL     OW30091   5.138   4.827   1.048
 9731SOL    HW130092   5.065   4.770   1.086
 9731SOL    HW230093   5.208   4.843   1.117
 9732SOL     OW30094   0.081   5.174   2.441
 9732SOL    HW130095   0.128   5.222   2.367
 9732SOL    HW230096   0.101   5.076   2.436
 9733SOL     OW30097   4.947   5.185   0.438
 9733SOL    HW130098   4.986   5.215   0.526
 9733SOL    HW230099   4.884   5.255   0.404
 9734SOL     OW30100   6.519   1.560   0.488
 9734SOL    HW130101   6.578   1.496   0.439
 9734SOL    HW230102   6.425   1.527   0.485
 9735SOL     OW30103   1.959   3.597   3.468
 9735SOL    HW130104   1.999   3.593   3.377
 9735SOL    HW230105   1.908   3.682   3.479
 9736SOL     OW30106   5.762   1.591   5.804
 9736SOL    HW130107   5.746   1.514   5.741
 9736SOL    HW230108   5.846   1.575   5.855
 9737SOL     OW30109   5.397   2.403   2.868
 9737SOL    HW130110   5.471   2.470   2.862
 9737SOL    HW230111   5.354   2.408   2.958
 9738SOL     OW30112   2.256   0.021   0.317
 9738SOL    HW130113   2.279   0.018   0.220
 9738SOL    HW230114   2.167   0.065   0.329
 9739SOL     OW30115   5.004   5.795   0.924
 9739SOL    HW130116   5.082   5.774   0.865
 9739SOL    HW230117   4.986   5.894   0.922
 9740SOL     OW30118   0.257   1.068   3.522
 9740SOL    HW130119   0.203   0.985   3.532
 9740SOL    HW230120   0.279   1.082   3.425
 9741SOL     OW30121   3.482   1.858   2.403
 9741SOL    HW130122   3.482   1.934   2.337
 9741SOL    HW230123   3.535   1.883   2.483
 9742SOL     OW30124   4.141   1.499   0.297
 9742SOL    HW130125   4.125   1.418   0.241
 9742SOL    HW230126   4.114   1.481   0.391
 9743SOL     OW30127   6.713   3.574   4.125
 9743SOL    HW130128   6.703   3.484   4.082
 9743SOL    HW230129   6.624   3.608   4.152
 9744SOL     OW30130   1.468   6.770   1.993
 9744SOL    HW130131   1.377   6.740   2.020
 9744SOL    HW230132   1.463   6.864   1.957
 9745SOL     OW30133   5.318   2.441   6.486
 9745SOL    HW130134   5.300   2.449   6.584
 9745SOL    HW230135   5.303   2.346   6.456
 9746SOL     OW30136   6.370   0.505   5.639
 9746SOL    HW130137   6.382   0.510   5.738
 9746SOL    HW230138   6.327   0.590   5.607
 9747SOL     OW30139   2.589   1.828   1.888
 9747SOL    HW130140   2.681   1.806   1.918
 9747SOL    HW230141   2.566   1.922   1.915
 9748SOL     OW30142   6.744   6.820   3.607
 9748SOL    HW130143   6.712   6.846   3.516
 9748SOL    HW230144   6.693   6.741   3.640
 9749SOL     OW30145   1.949   0.170   4.247
 9749SOL    HW130146   2.024   0.220   4.293
 9749SOL    HW230147   1.892   0.235   4.197
 9750SOL     OW30148   6.103   4.686   3.471
 9750SOL    HW130149   6.186   4.671   3.417
 9750SOL    HW230150   6.027   4.634   3.430
 9751SOL     OW30151   2.470   0.848   0.801
 9751SOL    HW130152   2.415   0.787   0.743
 9751SOL    HW230153   2.564   0.814   0.806
 9752SOL     OW30154   3.766   2.204   5.120
 9752SOL    HW130155   3.686   2.171   5.170
 9752SOL    HW230156   3.763   2.169   5.026
 9753SOL     OW30157   6.958   5.825   6.521
 9753SOL    HW130158   6.986   5.782   6.435
 9753SOL    HW230159   7.016   5.792   6.595
 9754SOL     OW30160   1.889   0.357   0.781
 9754SOL    HW130161   1.920   0.297   0.707
 9754SOL    HW230162   1.835   0.304   0.846
 9755SOL     OW30163   3.481   3.570   4.337
 9755SOL    HW130164   3.549   3.643   4.345
 9755SOL    HW230165   3.406   3.600   4.278
 9756SOL     OW30166   6.003   2.654   6.659
 9756SOL    HW130167   5.949   2.738   6.655
 9756SOL    HW230168   5.986   2.600   6.577
 9757SOL     OW30169   6.185   4.496   4.322
 9757SOL    HW130170   6.125   4.524   4.247
 9757SOL    HW230171   6.136   4.503   4.409
 9758SOL     OW30172   2.786   0.358   6.544
 9758SOL    HW130173   2.712   0.339   6.610
 9758SOL    HW230174   2.749   0.413   6.469
 9759SOL     OW30175   1.215   0.560   0.157
 9759SOL    HW130176   1.159   0.595   0.082
 9759SOL    HW230177   1.280   0.629   0.186
 9760SOL     OW30178   5.266   2.994   5.708
 9760SOL    HW130179   5.304   3.085   5.691
 9760SOL    HW230180   5.283   2.936   5.629
 9761SOL     OW30181   0.378   1.579   2.245
 9761SOL    HW130182   0.456   1.634   2.273
 9761SOL    HW230183   0.308   1.580   2.318
 9762SOL     OW30184   3.088   1.985   4.750
 9762SOL    HW130185   3.098   1.914   4.820
 9762SOL    HW230186   3.103   1.945   4.660
 9763SOL     OW30187   4.906   1.852   2.427
 9763SOL    HW130188   4.821   1.877   2.380
 9763SOL    HW230189   4.909   1.753   2.441
 9764SOL     OW30190   6.997   2.922   3.257
 9764SOL    HW130191   0.007   3.013   3.239
 9764SOL    HW230192   6.933   2.897   3.185
 9765SOL     OW30193   6.710   6.487   3.722
 9765SOL    HW130194   6.807   6.510   3.731
 9765SOL    HW230195   6.689   6.468   3.626
 9766SOL     OW30196   2.688   0.473   2.205
 9766SOL    HW130197   2.724   0.566   2.208
 9766SOL    HW230198   2.589   0.476   2.187
 9767SOL     OW30199   3.827   1.107   5.466
 9767SOL    HW130200   3.799   1.029   5.409
 9767SOL    HW230201   3.910   1.083   5.516
 9768SOL     OW30202   5.724   0.860   1.834
 9768SOL    HW130203   5.791   0.883   1.904
 9768SOL    HW230204   5.754   0.779   1.784
 9769SOL     OW30205   4.240   0.617   4.538
 9769SOL    HW130206   4.294   0.701   4.531
 9769SOL    HW230207   4.261   0.571   4.624
 9770SOL     OW30208   3.980   1.272   5.829
 9770SOL    HW130209   3.910   1.343   5.823
 9770SOL    HW230210   3.961   1.214   5.908
 9771SOL     OW30211   2.718   6.311   0.529
 9771SOL    HW130212   2.669   6.254   0.595
 9771SOL    HW230213   2.666   6.316   0.444
 9772SOL     OW30214   1.699   5.789   1.379
 9772SOL    HW130215   1.735   5.756   1.466
 9772SOL    HW230216   1.634   5.723   1.342
 9773SOL     OW30217   4.762   5.530   4.073
 9773SOL    HW130218   4.840   5.518   4.135
 9773SOL    HW230219   4.789   5.587   3.996
 9774SOL     OW30220   0.128   5.477   1.861
 9774SOL    HW130221   0.097   5.539   1.933
 9774SOL    HW230222   0.068   5.397   1.858
 9775SOL     OW30223   3.162   0.664   3.193
 9775SOL    HW130224   3.088   0.680   3.259
 9775SOL    HW230225   3.192   0.569   3.200
 9776SOL     OW30226   1.105   4.491   5.210
 9776SOL    HW130227   1.117   4.588   5.235
 9776SOL    HW230228   1.181   4.462   5.152
 9777SOL     OW30229   6.128   5.954   7.013
 9777SOL    HW130230   6.057   5.883   7.017
 9777SOL    HW230231   6.152   5.982   0.080
 9778SOL     OW30232   0.497   1.367   3.942
 9778SOL    HW130233   0.455   1.348   3.853
 9778SOL    HW230234   0.438   1.430   3.994
 9779SOL     OW30235   1.287   1.737   3.983
 9779SOL    HW130236   1.202   1.745   3.929
 9779SOL    HW230237   1.345   1.667   3.943
 9780SOL     OW30238   2.410   2.588   1.052
 9780SOL    HW130239   2.392   2.678   1.010
 9780SOL    HW230240   2.508   2.569   1.050
 9781SOL     OW30241   2.302   2.821   4.638
 9781SOL    HW130242   2.367   2.754   4.674
 9781SOL    HW230243   2.264   2.875   4.714
 9782SOL     OW30244   0.340   0.908   1.224
 9782SOL    HW130245   0.397   0.980   1.184
 9782SOL    HW230246   0.387   0.869   1.303
 9783SOL     OW30247   4.434   2.117   3.549
 9783SOL    HW130248   4.345   2.137   3.509
 9783SOL    HW230249   4.499   2.188   3.525
 9784SOL     OW30250   2.593   2.233   5.793
 9784SOL    HW130251   2.592   2.294   5.714
 9784SOL    HW230252   2.571   2.140   5.764
 9785SOL     OW30253   1.315   2.394   6.243
 9785SOL    HW130254   1.387   2.397   6.174
 9785SOL    HW230255   1.278   2.301   6.249
 9786SOL     OW30256   2.779   4.286   0.131
 9786SOL    HW130257   2.718   4.362   0.150
 9786SOL    HW230258   2.726   4.204   0.111
 9787SOL     OW30259   3.242   3.791   2.822
 9787SOL    HW130260   3.143   3.795   2.833
 9787SOL    HW230261   3.279   3.716   2.876
 9788SOL     OW30262   1.036   0.280   3.423
 9788SOL    HW130263   1.089   0.361   3.451
 9788SOL    HW230264   1.074   0.199   3.467
 9789SOL     OW30265   2.222   5.920   0.516
 9789SOL    HW130266   2.153   5.864   0.563
 9789SOL    HW230267   2.195   5.931   0.420
 9790SOL     OW30268   6.635   4.613   6.646
 9790SOL    HW130269   6.573   4.546   6.687
 9790SOL    HW230270   6.596   4.705   6.655
 9791SOL     OW30271   0.089   0.811   0.869
 9791SOL    HW130272   0.047   0.885   0.921
 9791SOL    HW230273   0.140   0.752   0.932
 9792SOL     OW30274   3.696   4.291   0.203
 9792SOL    HW130275   3.655   4.382   0.212
 9792SOL    HW230276   3.684   4.258   0.109
 9793SOL     OW30277   4.076   7.013   2.818
 9793SOL    HW130278   4.136   6.956   2.874
 9793SOL    HW230279   4.125   0.069   2.788
 9794SOL     OW30280   0.024   4.143   6.940
 9794SOL    HW130281   0.041   4.107   6.848
 9794SOL    HW230282   0.111   4.153   6.988
 9795SOL     OW30283   1.820   1.810   4.624
 9795SOL    HW130284   1.862   1.873   4.558
 9795SOL    HW230285   1.876   1.806   4.707
 9796SOL     OW30286   3.160   2.928   2.362
 9796SOL    HW130287   3.182   2.832   2.350
 9796SOL    HW230288   3.128   2.967   2.276
 9797SOL     OW30289   1.743   5.921   6.975
 9797SOL    HW130290   1.688   5.860   6.917
 9797SOL    HW230291   1.719   6.016   6.955
 9798SOL     OW30292   2.780   0.233   2.736
 9798SOL    HW130293   2.761   0.136   2.726
 9798SOL    HW230294   2.794   0.274   2.646
 9799SOL     OW30295   3.146   3.692   5.174
 9799SOL    HW130296   3.143   3.600   5.135
 9799SOL    HW230297   3.068   3.705   5.235
 9800SOL     OW30298   4.173   5.173   4.560
 9800SOL    HW130299   4.239   5.129   4.498
 9800SOL    HW230300   4.142   5.106   4.628
 9801SOL     OW30301   4.322   4.189   0.228
 9801SOL    HW130302   4.244   4.245   0.200
 9801SOL    HW230303   4.345   4.210   0.323
 9802SOL     OW30304   0.003   4.334   1.818
 9802SOL    HW130305   6.992   4.283   1.741
 9802SOL    HW230306   0.086   4.289   1.851
 9803SOL     OW30307   1.574   2.370   6.770
 9803SOL    HW130308   1.633   2.366   6.690
 9803SOL    HW230309   1.495   2.309   6.757
 9804SOL     OW30310   1.209   5.881   3.424
 9804SOL    HW130311   1.114   5.869   3.395
 9804SOL    HW230312   1.270   5.855   3.349
 9805SOL     OW30313   1.125   6.525   4.057
 9805SOL    HW130314   1.224   6.528   4.069
 9805SOL    HW230315   1.103   6.475   3.973
 9806SOL     OW30316   1.209   1.270   6.730
 9806SOL    HW130317   1.140   1.288   6.800
 9806SOL    HW230318   1.168   1.217   6.656
 9807SOL     OW30319   3.039   4.648   0.200
 9807SOL    HW130320   3.130   4.685   0.185
 9807SOL    HW230321   3.045   4.557   0.241
 9808SOL     OW30322   4.066   0.270   5.345
 9808SOL    HW130323   4.070   0.346   5.280
 9808SOL    HW230324   4.158   0.235   5.362
 9809SOL     OW30325   1.389   2.755   6.362
 9809SOL    HW130326   1.415   2.733   6.456
 9809SOL    HW230327   1.403   2.852   6.346
 9810SOL     OW30328   1.834   2.835   3.917
 9810SOL    HW130329   1.914   2.805   3.863
 9810SOL    HW230330   1.859   2.837   4.014
 9811SOL     OW30331   5.299   4.747   3.199
 9811SOL    HW130332   5.340   4.838   3.187
 9811SOL    HW230333   5.233   4.730   3.126
 9812SOL     OW30334   3.407   2.520   5.886
 9812SOL    HW130335   3.460   2.489   5.808
 9812SOL    HW230336   3.338   2.586   5.856
 9813SOL     OW30337   5.324   1.253   0.930
 9813SOL    HW130338   5.361   1.315   0.860
 9813SOL    HW230339   5.234   1.285   0.958
 9814SOL     OW30340   6.675   6.983   0.260
 9814SOL    HW130341   6.692   6.887   0.283
 9814SOL    HW230342   6.705   0.015   0.336
 9815SOL     OW30343   5.782   4.374   4.423
 9815SOL    HW130344   5.855   4.327   4.374
 9815SOL    HW230345   5.707   4.311   4.439
 9816SOL     OW30346   0.901   1.428   6.569
 9816SOL    HW130347   0.847   1.351   6.536
 9816SOL    HW230348   0.867   1.457   6.659
 9817SOL     OW30349   3.168   6.960   3.449
 9817SOL    HW130350   3.212   7.018   3.381
 9817SOL    HW230351   3.091   7.010   3.491
 9818SOL     OW30352   1.230   0.594   3.903
 9818SOL    HW130353   1.241   0.655   3.982
 9818SOL    HW230354   1.152   0.533   3.919
 9819SOL     OW30355   4.862   3.058   3.931
 9819SOL    HW130356   4.782   3.096   3.885
 9819SOL    HW230357   4.944   3.082   3.880
 9820SOL     OW30358   4.271   3.453   6.754
 9820SOL    HW130359   4.261   3.469   6.852
 9820SOL    HW230360   4.299   3.358   6.738
 9821SOL     OW30361   4.936   1.024   6.352
 9821SOL    HW130362   4.959   1.084   6.429
 9821SOL    HW230363   4.858   0.966   6.377
 9822SOL     OW30364   2.368   5.973   3.666
 9822SOL    HW130365   2.286   6.014   3.706
 9822SOL    HW230366   2.439   6.042   3.656
 9823SOL     OW30367   2.521   1.321   0.034
 9823SOL    HW130368   2.619   1.325   0.014
 9823SOL    HW230369   2.469   1.341   6.977
 9824SOL     OW30370   1.614   4.751   4.761
 9824SOL    HW130371   1.681   4.776   4.831
 9824SOL    HW230372   1.587   4.833   4.710
 9825SOL     OW30373   5.079   5.437   5.044
 9825SOL    HW130374   5.001   5.457   5.103
 9825SOL    HW230375   5.150   5.505   5.059
 9826SOL     OW30376   4.470   5.266   5.658
 9826SOL    HW130377   4.504   5.346   5.608
 9826SOL    HW230378   4.387   5.291   5.707
 9827SOL     OW30379   2.189   3.545   3.795
 9827SOL    HW130380   2.174   3.508   3.887
 9827SOL    HW230381   2.170   3.473   3.727
 9828SOL     OW30382   2.311   2.444   5.686
 9828SOL    HW130383   2.401   2.427   5.646
 9828SOL    HW230384   2.319   2.512   5.758
 9829SOL     OW30385   3.718   5.329   6.132
 9829SOL    HW130386   3.780   5.324   6.053
 9829SOL    HW230387   3.730   5.417   6.178
 9830SOL     OW30388   5.760   2.425   2.312
 9830SOL    HW130389   5.665   2.427   2.281
 9830SOL    HW230390   5.817   2.385   2.240
 9831SOL     OW30391   2.596   5.386   1.457
 9831SOL    HW130392   2.687   5.344   1.448
 9831SOL    HW230393   2.590   5.467   1.399
 9832SOL     OW30394   5.084   5.998   2.456
 9832SOL    HW130395   5.183   6.007   2.440
 9832SOL    HW230396   5.035   6.013   2.370
 9833SOL     OW30397   2.898   3.724   4.737
 9833SOL    HW130398   2.970   3.775   4.783
 9833SOL    HW230399   2.890   3.633   4.778
 9834SOL     OW30400   2.537   4.479   5.173
 9834SOL    HW130401   2.606   4.532   5.221
 9834SOL    HW230402   2.538   4.384   5.204
 9835SOL     OW30403   4.062   3.323   5.044
 9835SOL    HW130404   4.063   3.319   4.944
 9835SOL    HW230405   4.118   3.401   5.074
 9836SOL     OW30406   6.753   4.300   3.831
 9836SOL    HW130407   6.732   4.219   3.885
 9836SOL    HW230408   6.682   4.314   3.762
 9837SOL     OW30409   3.649   6.936   2.346
 9837SOL    HW130410   3.666   6.985   2.260
 9837SOL    HW230411   3.587   6.989   2.403
 9838SOL     OW30412   1.643   6.898   0.035
 9838SOL    HW130413   1.726   6.845   0.023
 9838SOL    HW230414   1.621   6.904   0.132
 9839SOL     OW30415   5.240   0.278   3.730
 9839SOL    HW130416   5.303   0.353   3.752
 9839SOL    HW230417   5.264   0.197   3.784
 9840SOL     OW30418   5.377   1.887   0.710
 9840SOL    HW130419   5.390   1.971   0.657
 9840SOL    HW230420   5.386   1.807   0.650
 9841SOL     OW30421   1.538   4.733   5.088
 9841SOL    HW130422   1.559   4.828   5.064
 9841SOL    HW230423   1.449   4.708   5.051
 9842SOL     OW30424   3.367   3.374   1.676
 9842SOL    HW130425   3.340   3.431   1.754
 9842SOL    HW230426   3.369   3.430   1.594
 9843SOL     OW30427   6.303   1.044   1.577
 9843SOL    HW130428   6.293   1.057   1.479
 9843SOL    HW230429   6.219   1.072   1.623
 9844SOL     OW30430   6.278   0.695   2.603
 9844SOL    HW130431   6.370   0.711   2.566
 9844SOL    HW230432   6.225   0.780   2.598
 9845SOL     OW30433   1.987   2.916   3.175
 9845SOL    HW130434   2.072   2.919   3.123
 9845SOL    HW230435   2.007   2.898   3.271
 9846SOL     OW30436   3.783   3.046   2.038
 9846SOL    HW130437   3.818   3.011   2.125
 9846SOL    HW230438   3.773   3.145   2.044
 9847SOL     OW30439   3.623   2.900   3.631
 9847SOL    HW130440   3.702   2.840   3.640
 9847SOL    HW230441   3.600   2.938   3.721
 9848SOL     OW30442   4.157   3.176   5.276
 9848SOL    HW130443   4.105   3.238   5.335
 9848SOL    HW230444   4.155   3.209   5.182
 9849SOL     OW30445   0.998   6.731   6.773
 9849SOL    HW130446   1.061   6.793   6.727
 9849SOL    HW230447   0.952   6.673   6.706
 9850SOL     OW30448   6.097   6.947   4.413
 9850SOL    HW130449   6.140   7.019   4.359
 9850SOL    HW230450   6.085   6.979   4.507
 9851SOL     OW30451   6.763   0.457   4.596
 9851SOL    HW130452   6.823   0.377   4.592
 9851SOL    HW230453   6.761   0.501   4.506
 9852SOL     OW30454   3.660   1.567   3.666
 9852SOL    HW130455   3.672   1.663   3.642
 9852SOL    HW230456   3.630   1.559   3.761
 9853SOL     OW30457   5.078   3.817   4.558
 9853SOL    HW130458   5.092   3.751   4.485
 9853SOL    HW230459   4.999   3.789   4.614
 9854SOL     OW30460   6.682   5.706   4.915
 9854SOL    HW130461   6.644   5.758   4.993
 9854SOL    HW230462   6.629   5.622   4.903
 9855SOL     OW30463   1.842   3.911   0.876
 9855SOL    HW130464   1.894   3.916   0.961
 9855SOL    HW230465   1.904   3.894   0.799
 9856SOL     OW30466   4.828   4.100   4.412
 9856SOL    HW130467   4.836   4.049   4.497
 9856SOL    HW230468   4.762   4.174   4.422
 9857SOL     OW30469   4.984   2.461   2.831
 9857SOL    HW130470   4.906   2.429   2.777
 9857SOL    HW230471   5.069   2.439   2.784
 9858SOL     OW30472   0.061   0.846   1.979
 9858SOL    HW130473   0.066   0.748   1.961
 9858SOL    HW230474   0.148   0.889   1.955
 9859SOL     OW30475   6.490   6.461   3.060
 9859SOL    HW130476   6.577   6.468   3.108
 9859SOL    HW230477   6.459   6.552   3.033
 9860SOL     OW30478   1.751   1.686   3.797
 9860SOL    HW130479   1.841   1.730   3.799
 9860SOL    HW230480   1.702   1.708   3.880
 9861SOL     OW30481   3.096   0.412   3.606
 9861SOL    HW130482   3.162   0.418   3.531
 9861SOL    HW230483   3.035   0.491   3.604
 9862SOL     OW30484   3.624   3.034   6.762
 9862SOL    HW130485   3.569   3.118   6.753
 9862SOL    HW230486   3.565   2.959   6.791
 9863SOL     OW30487   3.590   6.687   2.409
 9863SOL    HW130488   3.619   6.775   2.373
 9863SOL    HW230489   3.499   6.665   2.376
 9864SOL     OW30490   3.677   6.518   3.737
 9864SOL    HW130491   3.768   6.539   3.702
 9864SOL    HW230492   3.608   6.547   3.670
 9865SOL     OW30493   1.781   0.027   4.422
 9865SOL    HW130494   1.797   6.954   4.419
 9865SOL    HW230495   1.858   0.074   4.378
 9866SOL     OW30496   4.798   4.322   6.323
 9866SOL    HW130497   4.805   4.266   6.406
 9866SOL    HW230498   4.717   4.296   6.272
 9867SOL     OW30499   6.647   1.653   1.153
 9867SOL    HW130500   6.562   1.604   1.173
 9867SOL    HW230501   6.627   1.734   1.097
 9868SOL     OW30502   0.798   3.674   5.395
 9868SOL    HW130503   0.750   3.759   5.418
 9868SOL    HW230504   0.841   3.683   5.305
 9869SOL     OW30505   0.978   2.395   1.592
 9869SOL    HW130506   1.041   2.325   1.558
 9869SOL    HW230507   0.916   2.355   1.660
 9870SOL     OW30508   3.808   5.588   2.410
 9870SOL    HW130509   3.883   5.569   2.473
 9870SOL    HW230510   3.777   5.683   2.422
 9871SOL     OW30511   6.766   5.655   6.035
 9871SOL    HW130512   6.730   5.656   6.128
 9871SOL    HW230513   6.733   5.573   5.987
 9872SOL     OW30514   2.687   5.340   4.839
 9872SOL    HW130515   2.730   5.383   4.760
 9872SOL    HW230516   2.664   5.245   4.817
 9873SOL     OW30517   2.232   2.693   0.261
 9873SOL    HW130518   2.193   2.749   0.335
 9873SOL    HW230519   2.228   2.597   0.286
 9874SOL     OW30520   5.553   3.373   4.889
 9874SOL    HW130521   5.469   3.420   4.916
 9874SOL    HW230522   5.544   3.340   4.795
 9875SOL     OW30523   5.841   5.865   1.677
 9875SOL    HW130524   5.909   5.836   1.610
 9875SOL    HW230525   5.776   5.790   1.693
 9876SOL     OW30526   5.904   0.839   3.967
 9876SOL    HW130527   5.942   0.761   3.917
 9876SOL    HW230528   5.836   0.885   3.909
 9877SOL     OW30529   6.480   5.245   4.343
 9877SOL    HW130530   6.579   5.233   4.343
 9877SOL    HW230531   6.436   5.164   4.303
 9878SOL     OW30532   2.713   4.417   5.701
 9878SOL    HW130533   2.622   4.399   5.664
 9878SOL    HW230534   2.759   4.331   5.721
 9879SOL     OW30535   5.235   5.993   5.492
 9879SOL    HW130536   5.224   5.920   5.424
 9879SOL    HW230537   5.332   6.010   5.507
 9880SOL     OW30538   3.774   0.715   0.324
 9880SOL    HW130539   3.699   0.720   0.257
 9880SOL    HW230540   3.861   0.715   0.276
 9881SOL     OW30541   1.624   1.397   4.634
 9881SOL    HW130542   1.681   1.377   4.713
 9881SOL    HW230543   1.545   1.334   4.633
 9882SOL     OW30544   1.668   3.802   4.810
 9882SOL    HW130545   1.693   3.838   4.900
 9882SOL    HW230546   1.749   3.770   4.762
 9883SOL     OW30547   1.156   6.134   0.874
 9883SOL    HW130548   1.168   6.233   0.877
 9883SOL    HW230549   1.105   6.108   0.792
 9884SOL     OW30550   4.671   2.336   1.468
 9884SOL    HW130551   4.654   2.283   1.552
 9884SOL    HW230552   4.586   2.343   1.416
 9885SOL     OW30553   6.877   1.965   4.904
 9885SOL    HW130554   6.838   1.962   4.996
 9885SOL    HW230555   6.974   1.943   4.908
 9886SOL     OW30556   1.485   5.308   1.881
 9886SOL    HW130557   1.398   5.355   1.866
 9886SOL    HW230558   1.470   5.222   1.929
 9887SOL     OW30559   4.141   0.552   0.054
 9887SOL    HW130560   4.106   0.530   6.989
 9887SOL    HW230561   4.070   0.599   0.106
 9888SOL     OW30562   5.334   4.748   2.519
 9888SOL    HW130563   5.295   4.661   2.548
 9888SOL    HW230564   5.362   4.800   2.600
 9889SOL     OW30565   6.027   4.834   0.842
 9889SOL    HW130566   6.109   4.854   0.787
 9889SOL    HW230567   5.999   4.916   0.891
 9890SOL     OW30568   0.755   2.782   1.417
 9890SOL    HW130569   0.696   2.704   1.436
 9890SOL    HW230570   0.850   2.751   1.410
 9891SOL     OW30571   5.798   3.073   1.473
 9891SOL    HW130572   5.855   3.036   1.400
 9891SOL    HW230573   5.781   3.002   1.541
 9892SOL     OW30574   1.513   4.923   2.504
 9892SOL    HW130575   1.548   4.881   2.420
 9892SOL    HW230576   1.519   5.022   2.497
 9893SOL     OW30577   6.726   0.553   2.451
 9893SOL    HW130578   6.762   0.516   2.366
 9893SOL    HW230579   6.687   0.479   2.506
 9894SOL     OW30580   3.260   2.071   6.865
 9894SOL    HW130581   3.223   1.986   6.903
 9894SOL    HW230582   3.307   2.052   6.779
 9895SOL     OW30583   5.001   3.801   5.305
 9895SOL    HW130584   4.972   3.750   5.385
 9895SOL    HW230585   4.935   3.787   5.231
 9896SOL     OW30586   5.726   1.418   1.176
 9896SOL    HW130587   5.644   1.362   1.185
 9896SOL    HW230588   5.718   1.498   1.236
 9897SOL     OW30589   5.995   7.001   2.140
 9897SOL    HW130590   6.006   0.060   2.089
 9897SOL    HW230591   5.961   6.929   2.079
 9898SOL     OW30592   0.817   4.638   6.320
 9898SOL    HW130593   0.881   4.562   6.310
 9898SOL    HW230594   0.831   4.704   6.246
 9899SOL     OW30595   0.937   4.931   1.863
 9899SOL    HW130596   0.939   4.853   1.926
 9899SOL    HW230597   1.031   4.962   1.846
 9900SOL     OW30598   1.613   2.909   1.981
 9900SOL    HW130599   1.525   2.885   2.023
 9900SOL    HW230600   1.624   3.008   1.981
 9901SOL     OW30601   3.089   0.731   6.811
 9901SOL    HW130602   3.157   0.740   6.738
 9901SOL    HW230603   3.017   0.668   6.781
 9902SOL     OW30604   3.674   4.217   1.468
 9902SOL    HW130605   3.673   4.266   1.555
 9902SOL    HW230606   3.746   4.148   1.469
 9903SOL     OW30607   5.427   1.620   1.678
 9903SOL    HW130608   5.456   1.716   1.688
 9903SOL    HW230609   5.459   1.568   1.757
 9904SOL     OW30610   0.166   3.905   6.350
 9904SOL    HW130611   0.190   3.809   6.337
 9904SOL    HW230612   0.093   3.931   6.288
 9905SOL     OW30613   2.588   0.594   5.927
 9905SOL    HW130614   2.524   0.657   5.882
 9905SOL    HW230615   2.558   0.577   6.021
 9906SOL     OW30616   1.819   3.387   0.929
 9906SOL    HW130617   1.892   3.392   0.997
 9906SOL    HW230618   1.843   3.442   0.850
 9907SOL     OW30619   1.268   0.566   1.727
 9907SOL    HW130620   1.224   0.479   1.707
 9907SOL    HW230621   1.361   0.566   1.691
 9908SOL     OW30622   6.678   2.622   5.064
 9908SOL    HW130623   6.734   2.592   5.141
 9908SOL    HW230624   6.637   2.711   5.085
 9909SOL     OW30625   4.072   1.191   2.475
 9909SOL    HW130626   4.032   1.283   2.470
 9909SOL    HW230627   4.162   1.192   2.432
 9910SOL     OW30628   1.294   5.035   1.300
 9910SOL    HW130629   1.226   5.097   1.340
 9910SOL    HW230630   1.248   4.971   1.238
 9911SOL     OW30631   2.346   5.888   1.792
 9911SOL    HW130632   2.370   5.879   1.889
 9911SOL    HW230633   2.390   5.816   1.739
 9912SOL     OW30634   3.831   1.219   0.783
 9912SOL    HW130635   3.923   1.204   0.748
 9912SOL    HW230636   3.794   1.132   0.817
 9913SOL     OW30637   6.242   3.037   0.807
 9913SOL    HW130638   6.219   3.095   0.884
 9913SOL    HW230639   6.172   3.047   0.736
 9914SOL     OW30640   6.868   6.966   5.839
 9914SOL    HW130641   6.938   6.959   5.767
 9914SOL    HW230642   6.778   6.975   5.796
 9915SOL     OW30643   5.870   0.749   3.617
 9915SOL    HW130644   5.941   0.820   3.619
 9915SOL    HW230645   5.910   0.662   3.588
 9916SOL     OW30646   2.012   2.206   3.249
 9916SOL    HW130647   2.037   2.300   3.270
 9916SOL    HW230648   2.007   2.195   3.150
 9917SOL     OW30649   3.570   3.843   5.502
 9917SOL    HW130650   3.532   3.844   5.594
 9917SOL    HW230651   3.502   3.808   5.438
 9918SOL     OW30652   1.227   2.945   2.639
 9918SOL    HW130653   1.252   2.996   2.556
 9918SOL    HW230654   1.308   2.932   2.696
 9919SOL     OW30655   2.703   5.445   1.939
 9919SOL    HW130656   2.764   5.405   1.870
 9919SOL    HW230657   2.725   5.406   2.029
 9920SOL     OW30658   4.725   0.407   2.542
 9920SOL    HW130659   4.702   0.480   2.478
 9920SOL    HW230660   4.824   0.401   2.552
 9921SOL     OW30661   4.388   6.653   4.555
 9921SOL    HW130662   4.353   6.562   4.530
 9921SOL    HW230663   4.418   6.701   4.473
 9922SOL     OW30664   3.859   4.151   0.968
 9922SOL    HW130665   3.867   4.064   0.920
 9922SOL    HW230666   3.779   4.149   1.028
 9923SOL     OW30667   6.233   3.742   0.307
 9923SOL    HW130668   6.136   3.748   0.331
 9923SOL    HW230669   6.269   3.835   0.294
 9924SOL     OW30670   5.466   1.698   3.211
 9924SOL    HW130671   5.388   1.760   3.212
 9924SOL    HW230672   5.473   1.655   3.120
 9925SOL     OW30673   0.384   4.809   3.583
 9925SOL    HW130674   0.407   4.722   3.628
 9925SOL    HW230675   0.291   4.835   3.607
 9926SOL     OW30676   3.965   2.759   0.697
 9926SOL    HW130677   3.937   2.748   0.792
 9926SOL    HW230678   4.056   2.801   0.693
 9927SOL     OW30679   0.925   1.173   0.373
 9927SOL    HW130680   0.924   1.192   0.471
 9927SOL    HW230681   0.889   1.252   0.323
 9928SOL     OW30682   5.357   4.277   3.270
 9928SOL    HW130683   5.296   4.347   3.232
 9928SOL    HW230684   5.399   4.312   3.353
 9929SOL     OW30685   3.686   4.083   4.257
 9929SOL    HW130686   3.671   4.108   4.353
 9929SOL    HW230687   3.784   4.066   4.242
 9930SOL     OW30688   0.564   6.862   6.229
 9930SOL    HW130689   0.501   6.784   6.233
 9930SOL    HW230690   0.652   6.835   6.268
 9931SOL     OW30691   6.503   5.748   4.260
 9931SOL    HW130692   6.464   5.670   4.210
 9931SOL    HW230693   6.446   5.769   4.339
 9932SOL     OW30694   2.642   2.522   5.818
 9932SOL    HW130695   2.667   2.603   5.766
 9932SOL    HW230696   2.590   2.549   5.899
 9933SOL     OW30697   1.747   6.737   4.066
 9933SOL    HW130698   1.826   6.757   4.008
 9933SOL    HW230699   1.768   6.658   4.124
 9934SOL     OW30700   0.040   2.157   6.248
 9934SOL    HW130701   0.069   2.075   6.296
 9934SOL    HW230702   6.996   2.204   6.302
 9935SOL     OW30703   2.720   0.091   1.405
 9935SOL    HW130704   2.819   0.098   1.410
 9935SOL    HW230705   2.687   0.142   1.325
 9936SOL     OW30706   6.791   4.816   0.587
 9936SOL    HW130707   6.784   4.732   0.640
 9936SOL    HW230708   6.708   4.870   0.598
 9937SOL     OW30709   0.226   1.270   1.761
 9937SOL    HW130710   0.127   1.265   1.774
 9937SOL    HW230711   0.272   1.273   1.850
 9938SOL     OW30712   5.670   5.126   4.185
 9938SOL    HW130713   5.656   5.110   4.283
 9938SOL    HW230714   5.660   5.040   4.135
 9939SOL     OW30715   3.381   2.880   1.105
 9939SOL    HW130716   3.447   2.821   1.058
 9939SOL    HW230717   3.414   2.974   1.105
 9940SOL     OW30718   1.146   0.003   2.247
 9940SOL    HW130719   1.224   0.049   2.289
 9940SOL    HW230720   1.062   0.032   2.294
 9941SOL     OW30721   3.222   4.345   5.983
 9941SOL    HW130722   3.230   4.421   6.047
 9941SOL    HW230723   3.126   4.334   5.956
 9942SOL     OW30724   3.872   5.315   2.394
 9942SOL    HW130725   3.852   5.413   2.393
 9942SOL    HW230726   3.839   5.273   2.309
 9943SOL     OW30727   0.935   4.837   6.733
 9943SOL    HW130728   0.855   4.798   6.688
 9943SOL    HW230729   1.004   4.861   6.664
 9944SOL     OW30730   0.862   4.423   6.819
 9944SOL    HW130731   0.950   4.438   6.772
 9944SOL    HW230732   0.799   4.377   6.756
 9945SOL     OW30733   4.524   5.734   0.037
 9945SOL    HW130734   4.467   5.654   0.055
 9945SOL    HW230735   4.515   5.760   6.967
 9946SOL     OW30736   6.905   6.972   3.324
 9946SOL    HW130737   6.937   7.014   3.239
 9946SOL    HW230738   6.924   0.006   3.401
 9947SOL     OW30739   2.806   2.162   4.555
 9947SOL    HW130740   2.767   2.222   4.625
 9947SOL    HW230741   2.906   2.169   4.557
 9948SOL     OW30742   6.820   5.395   4.761
 9948SOL    HW130743   6.855   5.346   4.841
 9948SOL    HW230744   6.726   5.425   4.779
 9949SOL     OW30745   0.184   4.863   3.777
 9949SOL    HW130746   0.244   4.927   3.826
 9949SOL    HW230747   0.089   4.879   3.804
 9950SOL     OW30748   6.087   5.925   6.619
 9950SOL    HW130749   6.032   5.938   6.537
 9950SOL    HW230750   6.027   5.917   6.699
 9951SOL     OW30751   1.083   2.734   3.263
 9951SOL    HW130752   1.035   2.648   3.280
 9951SOL    HW230753   1.056   2.801   3.332
 9952SOL     OW30754   1.552   4.217   0.530
 9952SOL    HW130755   1.571   4.218   0.628
 9952SOL    HW230756   1.559   4.311   0.494
 9953SOL     OW30757   6.280   1.816   3.945
 9953SOL    HW130758   6.274   1.717   3.947
 9953SOL    HW230759   6.376   1.843   3.934
 9954SOL     OW30760   1.218   0.058   5.080
 9954SOL    HW130761   1.197   0.146   5.123
 9954SOL    HW230762   1.236   0.071   4.983
 9955SOL     OW30763   4.503   4.080   6.863
 9955SOL    HW130764   4.513   4.146   6.937
 9955SOL    HW230765   4.475   4.127   6.780
 9956SOL     OW30766   0.388   5.012   3.921
 9956SOL    HW130767   0.333   5.095   3.926
 9956SOL    HW230768   0.484   5.036   3.903
 9957SOL     OW30769   6.313   0.230   1.531
 9957SOL    HW130770   6.405   0.255   1.559
 9957SOL    HW230771   6.317   0.181   1.444
 9958SOL     OW30772   2.883   6.001   6.940
 9958SOL    HW130773   2.891   6.073   7.009
 9958SOL    HW230774   2.859   6.041   6.852
 9959SOL     OW30775   4.127   3.583   3.417
 9959SOL    HW130776   4.066   3.638   3.359
 9959SOL    HW230777   4.179   3.519   3.360
 9960SOL     OW30778   0.405   6.965   2.592
 9960SOL    HW130779   0.437   7.022   2.517
 9960SOL    HW230780   0.334   6.903   2.558
 9961SOL     OW30781   1.291   5.088   4.349
 9961SOL    HW130782   1.218   5.156   4.356
 9961SOL    HW230783   1.380   5.132   4.365
 9962SOL     OW30784   4.639   0.722   2.862
 9962SOL    HW130785   4.676   0.641   2.815
 9962SOL    HW230786   4.541   0.728   2.845
 9963SOL     OW30787   2.253   2.179   6.298
 9963SOL    HW130788   2.351   2.167   6.316
 9963SOL    HW230789   2.214   2.239   6.368
 9964SOL     OW30790   4.290   4.175   6.019
 9964SOL    HW130791   4.237   4.254   5.988
 9964SOL    HW230792   4.385   4.185   5.989
 9965SOL     OW30793   4.029   5.016   5.116
 9965SOL    HW130794   4.028   4.939   5.052
 9965SOL    HW230795   3.984   5.095   5.075
 9966SOL     OW30796   2.788   5.295   2.161
 9966SOL    HW130797   2.841   5.213   2.184
 9966SOL    HW230798   2.700   5.292   2.209
 9967SOL     OW30799   5.874   5.719   1.292
 9967SOL    HW130800   5.784   5.730   1.333
 9967SOL    HW230801   5.942   5.767   1.347
 9968SOL     OW30802   3.154   5.302   6.027
 9968SOL    HW130803   3.219   5.347   5.965
 9968SOL    HW230804   3.204   5.244   6.091
 9969SOL     OW30805   0.871   2.404   4.278
 9969SOL    HW130806   0.851   2.490   4.231
 9969SOL    HW230807   0.792   2.377   4.333
 9970SOL     OW30808   6.356   4.408   1.953
 9970SOL    HW130809   6.388   4.395   1.860
 9970SOL    HW230810   6.431   4.444   2.009
 9971SOL     OW30811   2.571   4.100   0.155
 9971SOL    HW130812   2.506   4.097   0.231
 9971SOL    HW230813   2.585   4.007   0.119
 9972SOL     OW30814   3.448   4.469   0.079
 9972SOL    HW130815   3.425   4.373   0.064
 9972SOL    HW230816   3.492   4.506   7.024
 9973SOL     OW30817   4.263   2.072   4.842
 9973SOL    HW130818   4.165   2.089   4.834
 9973SOL    HW230819   4.313   2.139   4.787
 9974SOL     OW30820   5.913   3.126   3.738
 9974SOL    HW130821   5.901   3.181   3.655
 9974SOL    HW230822   5.976   3.051   3.720
 9975SOL     OW30823   0.064   4.485   0.293
 9975SOL    HW130824   0.047   4.583   0.306
 9975SOL    HW230825   7.017   4.446   0.239
 9976SOL     OW30826   6.726   5.127   5.761
 9976SOL    HW130827   6.825   5.129   5.776
 9976SOL    HW230828   6.681   5.088   5.841
 9977SOL     OW30829   6.715   5.103   6.111
 9977SOL    HW130830   6.733   5.049   6.193
 9977SOL    HW230831   6.647   5.056   6.054
 9978SOL     OW30832   6.079   2.026   3.487
 9978SOL    HW130833   6.121   2.024   3.578
 9978SOL    HW230834   6.112   1.948   3.434
 9979SOL     OW30835   6.425   4.922   6.260
 9979SOL    HW130836   6.363   5.000   6.254
 9979SOL    HW230837   6.375   4.843   6.295
 9980SOL     OW30838   1.601   1.525   6.650
 9980SOL    HW130839   1.598   1.608   6.705
 9980SOL    HW230840   1.549   1.452   6.696
 9981SOL     OW30841   2.497   1.770   1.127
 9981SOL    HW130842   2.554   1.716   1.065
 9981SOL    HW230843   2.421   1.713   1.159
 9982SOL     OW30844   0.556   0.967   3.340
 9982SOL    HW130845   0.475   0.933   3.291
 9982SOL    HW230846   0.634   0.970   3.278
 9983SOL     OW30847   1.389   1.818   1.981
 9983SOL    HW130848   1.367   1.870   2.064
 9983SOL    HW230849   1.470   1.761   1.998
 9984SOL     OW30850   1.045   7.026   0.454
 9984SOL    HW130851   0.968   0.062   0.443
 9984SOL    HW230852   1.090   0.017   0.542
 9985SOL     OW30853   2.880   0.688   1.655
 9985SOL    HW130854   2.888   0.766   1.593
 9985SOL    HW230855   2.961   0.682   1.712
 9986SOL     OW30856   5.529   3.953   6.456
 9986SOL    HW130857   5.577   3.992   6.377
 9986SOL    HW230858   5.517   4.023   6.526
 9987SOL     OW30859   5.092   1.634   2.744
 9987SOL    HW130860   5.080   1.656   2.647
 9987SOL    HW230861   5.179   1.587   2.757
 9988SOL     OW30862   0.279   5.375   5.148
 9988SOL    HW130863   0.251   5.440   5.077
 9988SOL    HW230864   0.258   5.282   5.118
 9989SOL     OW30865   5.603   3.628   3.002
 9989SOL    HW130866   5.579   3.723   2.981
 9989SOL    HW230867   5.553   3.598   3.083
 9990SOL     OW30868   2.466   6.729   2.964
 9990SOL    HW130869   2.560   6.753   2.987
 9990SOL    HW230870   2.409   6.811   2.966
 9991SOL     OW30871   1.301   3.392   5.304
 9991SOL    HW130872   1.266   3.378   5.212
 9991SOL    HW230873   1.401   3.399   5.302
 9992SOL     OW30874   4.865   3.628   0.590
 9992SOL    HW130875   4.819   3.609   0.503
 9992SOL    HW230876   4.943   3.688   0.574
 9993SOL     OW30877   4.493   0.171   2.496
 9993SOL    HW130878   4.495   0.150   2.593
 9993SOL    HW230879   4.497   0.270   2.483
 9994SOL     OW30880   6.998   3.672   4.055
 9994SOL    HW130881   6.904   3.641   4.039
 9994SOL    HW230882   7.001   3.728   4.138
 9995SOL     OW30883   2.977   6.965   2.862
 9995SOL    HW130884   2.981   6.867   2.847
 9995SOL    HW230885   2.995   7.013   2.777
 9996SOL     OW30886   2.680   2.551   1.153
 9996SOL    HW130887   2.765   2.499   1.140
 9996SOL    HW230888   2.640   2.528   1.242
 9997SOL     OW30889   3.929   2.190   0.999
 9997SOL    HW130890   3.879   2.235   0.925
 9997SOL    HW230891   3.913   2.238   1.084
 9998SOL     OW30892   6.838   3.845   2.190
 9998SOL    HW130893   6.843   3.928   2.135
 9998SOL    HW230894   6.857   3.866   2.285
 9999SOL     OW30895   6.668   4.673   4.807
 9999SOL    HW130896   6.581   4.634   4.776
 9999SOL    HW230897   6.730   4.682   4.728
10000SOL     OW30898   5.684   2.665   0.111
10000SOL    HW130899   5.673   2.567   0.097
10000SOL    HW230900   5.667   2.713   0.025
10001SOL     OW30901   4.745   1.131   1.867
10001SOL    HW130902   4.792   1.197   1.807
10001SOL    HW230903   4.812   1.065   1.901
10002SOL     OW30904   1.318   0.712   1.174
10002SOL    HW130905   1.304   0.613   1.172
10002SOL    HW230906   1.283   0.749   1.260
10003SOL     OW30907   4.239   1.753   3.644
10003SOL    HW130908   4.296   1.678   3.610
10003SOL    HW230909   4.231   1.747   3.743
10004SOL     OW30910   4.798   2.798   4.442
10004SOL    HW130911   4.789   2.829   4.537
10004SOL    HW230912   4.784   2.699   4.439
10005SOL     OW30913   4.957   6.114   3.565
10005SOL    HW130914   5.010   6.192   3.597
10005SOL    HW230915   5.004   6.029   3.588
10006SOL     OW30916   5.348   0.543   4.432
10006SOL    HW130917   5.293   0.581   4.506
10006SOL    HW230918   5.397   0.617   4.386
10007SOL     OW30919   0.691   4.521   4.932
10007SOL    HW130920   0.752   4.600   4.937
10007SOL    HW230921   0.722   4.459   4.859
10008SOL     OW30922   4.407   1.320   3.993
10008SOL    HW130923   4.392   1.226   3.962
10008SOL    HW230924   4.344   1.341   4.067
10009SOL     OW30925   1.878   4.009   1.681
10009SOL    HW130926   1.867   4.089   1.623
10009SOL    HW230927   1.817   3.936   1.650
10010SOL     OW30928   2.340   0.077   6.800
10010SOL    HW130929   2.275   0.037   6.735
10010SOL    HW230930   2.315   0.172   6.817
10011SOL     OW30931   6.619   2.373   4.944
10011SOL    HW130932   6.696   2.316   4.975
10011SOL    HW230933   6.599   2.441   5.014
10012SOL     OW30934   5.096   0.150   2.899
10012SOL    HW130935   5.079   0.124   2.804
10012SOL    HW230936   5.023   0.115   2.957
10013SOL     OW30937   1.907   1.611   4.458
10013SOL    HW130938   1.904   1.659   4.370
10013SOL    HW230939   1.877   1.673   4.531
10014SOL     OW30940   6.209   2.882   0.144
10014SOL    HW130941   6.123   2.834   0.130
10014SOL    HW230942   6.274   2.856   0.073
10015SOL     OW30943   3.037   4.384   0.237
10015SOL    HW130944   2.951   4.334   0.225
10015SOL    HW230945   3.113   4.319   0.240
10016SOL     OW30946   2.446   0.320   4.854
10016SOL    HW130947   2.392   0.361   4.926
10016SOL    HW230948   2.400   0.238   4.820
10017SOL     OW30949   2.132   2.514   2.121
10017SOL    HW130950   2.229   2.519   2.094
10017SOL    HW230951   2.126   2.519   2.220
10018SOL     OW30952   5.267   6.711   5.716
10018SOL    HW130953   5.170   6.726   5.696
10018SOL    HW230954   5.287   6.613   5.712
10019SOL     OW30955   1.284   1.781   2.925
10019SOL    HW130956   1.277   1.695   2.976
10019SOL    HW230957   1.246   1.768   2.833
10020SOL     OW30958   0.630   2.550   1.830
10020SOL    HW130959   0.602   2.558   1.926
10020SOL    HW230960   0.716   2.600   1.817
10021SOL     OW30961   0.751   3.238   1.707
10021SOL    HW130962   0.808   3.164   1.671
10021SOL    HW230963   0.654   3.211   1.701
10022SOL     OW30964   3.350   6.965   0.658
10022SOL    HW130965   3.276   6.900   0.637
10022SOL    HW230966   3.361   6.971   0.757
10023SOL     OW30967   1.567   5.301   6.026
10023SOL    HW130968   1.499   5.298   6.100
10023SOL    HW230969   1.657   5.274   6.062
10024SOL     OW30970   2.386   6.738   1.989
10024SOL    HW130971   2.398   6.683   1.906
10024SOL    HW230972   2.340   6.824   1.965
10025SOL     OW30973   1.310   0.945   1.673
10025SOL    HW130974   1.381   0.900   1.727
10025SOL    HW230975   1.349   0.977   1.587
10026SOL     OW30976   4.830   6.586   3.725
10026SOL    HW130977   4.874   6.541   3.803
10026SOL    HW230978   4.891   6.656   3.688
10027SOL     OW30979   0.530   4.198   4.913
10027SOL    HW130980   0.471   4.264   4.960
10027SOL    HW230981   0.565   4.239   4.829
10028SOL     OW30982   1.190   1.960   1.544
10028SOL    HW130983   1.195   2.053   1.506
10028SOL    HW230984   1.215   1.962   1.641
10029SOL     OW30985   3.489   2.003   3.731
10029SOL    HW130986   3.456   1.911   3.752
10029SOL    HW230987   3.483   2.060   3.813
10030SOL     OW30988   2.198   6.166   3.749
10030SOL    HW130989   2.267   6.236   3.764
10030SOL    HW230990   2.109   6.210   3.735
10031SOL     OW30991   6.016   5.211   3.682
10031SOL    HW130992   5.993   5.144   3.753
10031SOL    HW230993   5.932   5.252   3.647
10032SOL     OW30994   3.033   1.357   5.459
10032SOL    HW130995   3.064   1.287   5.524
10032SOL    HW230996   2.935   1.373   5.471
10033SOL     OW30997   4.510   2.248   3.861
10033SOL    HW130998   4.515   2.169   3.800
10033SOL    HW230999   4.489   2.330   3.807
10034SOL     OW31000   3.028   0.269   4.124
10034SOL    HW131001   2.943   0.321   4.132
10034SOL    HW231002   3.088   0.313   4.057
10035SOL     OW31003   6.730   4.344   1.943
10035SOL    HW131004   6.795   4.357   1.868
10035SOL    HW231005   6.713   4.432   1.987
10036SOL     OW31006   5.429   1.610   1.067
10036SOL    HW131007   5.352   1.553   1.038
10036SOL    HW231008   5.479   1.642   0.987
10037SOL     OW31009   5.929   0.911   1.237
10037SOL    HW131010   5.902   0.816   1.251
10037SOL    HW231011   6.004   0.915   1.170
10038SOL     OW31012   4.339   0.753   0.012
10038SOL    HW131013   4.269   0.682   0.019
10038SOL    HW231014   4.425   0.719   0.051
10039SOL     OW31015   3.327   0.202   3.621
10039SOL    HW131016   3.230   0.220   3.604
10039SOL    HW231017   3.355   0.120   3.571
10040SOL     OW31018   4.375   5.559   6.356
10040SOL    HW131019   4.389   5.615   6.438
10040SOL    HW231020   4.438   5.588   6.285
10041SOL     OW31021   3.930   6.134   6.305
10041SOL    HW131022   4.003   6.117   6.239
10041SOL    HW231023   3.875   6.211   6.273
10042SOL     OW31024   1.359   1.685   4.617
10042SOL    HW131025   1.434   1.741   4.580
10042SOL    HW231026   1.294   1.665   4.544
10043SOL     OW31027   6.900   1.700   5.099
10043SOL    HW131028   6.990   1.735   5.075
10043SOL    HW231029   6.901   1.669   5.194
10044SOL     OW31030   2.587   1.710   5.172
10044SOL    HW131031   2.571   1.809   5.168
10044SOL    HW231032   2.647   1.690   5.250
10045SOL     OW31033   3.458   0.723   3.211
10045SOL    HW131034   3.534   0.712   3.148
10045SOL    HW231035   3.373   0.734   3.160
10046SOL     OW31036   2.131   4.182   0.725
10046SOL    HW131037   2.156   4.085   0.730
10046SOL    HW231038   2.214   4.237   0.735
10047SOL     OW31039   0.968   3.709   4.489
10047SOL    HW131040   1.007   3.693   4.399
10047SOL    HW231041   0.941   3.621   4.530
10048SOL     OW31042   6.305   0.619   2.859
10048SOL    HW131043   6.286   0.653   2.767
10048SOL    HW231044   6.349   0.692   2.913
10049SOL     OW31045   1.056   2.026   6.471
10049SOL    HW131046   1.106   2.002   6.555
10049SOL    HW231047   1.046   1.945   6.414
10050SOL     OW31048   5.405   3.665   4.584
10050SOL    HW131049   5.483   3.609   4.612
10050SOL    HW231050   5.329   3.650   4.648
10051SOL     OW31051   6.415   3.753   5.511
10051SOL    HW131052   6.492   3.817   5.502
10051SOL    HW231053   6.443   3.662   5.481
10052SOL     OW31054   1.969   1.129   2.979
10052SOL    HW131055   2.055   1.105   2.934
10052SOL    HW231056   1.969   1.226   3.002
10053SOL     OW31057   3.983   5.361   3.115
10053SOL    HW131058   3.949   5.274   3.078
10053SOL    HW231059   3.956   5.368   3.211
10054SOL     OW31060   5.292   6.330   6.264
10054SOL    HW131061   5.336   6.240   6.259
10054SOL    HW231062   5.299   6.365   6.357
10055SOL     OW31063   6.177   1.232   5.019
10055SOL    HW131064   6.153   1.136   5.037
10055SOL    HW231065   6.118   1.291   5.073
10056SOL     OW31066   5.587   4.281   2.825
10056SOL    HW131067   5.580   4.187   2.792
10056SOL    HW231068   5.562   4.344   2.752
10057SOL     OW31069   4.059   2.607   5.578
10057SOL    HW131070   4.039   2.582   5.672
10057SOL    HW231071   4.035   2.531   5.517
10058SOL     OW31072   6.413   3.618   5.207
10058SOL    HW131073   6.476   3.561   5.259
10058SOL    HW231074   6.353   3.668   5.269
10059SOL     OW31075   0.167   1.283   0.079
10059SOL    HW131076   0.075   1.249   0.059
10059SOL    HW231077   0.172   1.310   0.175
10060SOL     OW31078   2.233   2.957   2.282
10060SOL    HW131079   2.259   2.904   2.202
10060SOL    HW231080   2.134   2.974   2.280
10061SOL     OW31081   4.924   1.665   4.267
10061SOL    HW131082   4.899   1.633   4.358
10061SOL    HW231083   5.014   1.706   4.269
10062SOL     OW31084   5.649   0.342   3.936
10062SOL    HW131085   5.559   0.374   3.965
10062SOL    HW231086   5.658   0.350   3.837
10063SOL     OW31087   2.810   1.209   4.590
10063SOL    HW131088   2.861   1.147   4.649
10063SOL    HW231089   2.798   1.297   4.636
10064SOL     OW31090   4.910   6.369   0.435
10064SOL    HW131091   4.899   6.357   0.336
10064SOL    HW231092   4.824   6.344   0.481
10065SOL     OW31093   2.695   0.579   2.992
10065SOL    HW131094   2.616   0.616   2.944
10065SOL    HW231095   2.779   0.613   2.950
10066SOL     OW31096   0.720   2.418   4.509
10066SOL    HW131097   0.730   2.501   4.563
10066SOL    HW231098   0.766   2.342   4.556
10067SOL     OW31099   0.493   3.346   5.262
10067SOL    HW131100   0.439   3.423   5.226
10067SOL    HW231101   0.547   3.377   5.340
10068SOL     OW31102   0.692   3.393   3.547
10068SOL    HW131103   0.781   3.398   3.502
10068SOL    HW231104   0.654   3.485   3.557
10069SOL     OW31105   3.370   5.020   1.390
10069SOL    HW131106   3.370   5.104   1.443
10069SOL    HW231107   3.458   4.973   1.402
10070SOL     OW31108   0.204   6.203   5.080
10070SOL    HW131109   0.130   6.270   5.071
10070SOL    HW231110   0.221   6.160   4.991
10071SOL     OW31111   6.805   6.018   4.322
10071SOL    HW131112   6.874   6.036   4.252
10071SOL    HW231113   6.806   5.921   4.345
10072SOL     OW31114   0.447   0.259   4.372
10072SOL    HW131115   0.385   0.192   4.332
10072SOL    HW231116   0.533   0.260   4.321
10073SOL     OW31117   6.895   4.160   4.044
10073SOL    HW131118   6.899   4.071   4.088
10073SOL    HW231119   6.826   4.217   4.090
10074SOL     OW31120   2.130   0.102   6.399
10074SOL    HW131121   2.066   0.176   6.422
10074SOL    HW231122   2.125   0.084   6.301
10075SOL     OW31123   1.481   2.606   1.862
10075SOL    HW131124   1.493   2.622   1.764
10075SOL    HW231125   1.569   2.616   1.909
10076SOL     OW31126   5.941   6.388   3.038
10076SOL    HW131127   5.966   6.450   2.963
10076SOL    HW231128   5.991   6.303   3.029
10077SOL     OW31129   4.476   3.619   0.443
10077SOL    HW131130   4.421   3.544   0.407
10077SOL    HW231131   4.418   3.699   0.458
10078SOL     OW31132   6.233   6.174   4.266
10078SOL    HW131133   6.218   6.077   4.244
10078SOL    HW231134   6.190   6.196   4.353
10079SOL     OW31135   6.065   3.335   2.956
10079SOL    HW131136   6.164   3.337   2.963
10079SOL    HW231137   6.034   3.240   2.952
10080SOL     OW31138   5.334   1.256   6.063
10080SOL    HW131139   5.341   1.162   6.032
10080SOL    HW231140   5.276   1.260   6.144
10081SOL     OW31141   0.556   1.786   0.075
10081SOL    HW131142   0.548   1.726   7.022
10081SOL    HW231143   0.647   1.776   0.115
10082SOL     OW31144   0.775   5.566   1.912
10082SOL    HW131145   0.764   5.645   1.851
10082SOL    HW231146   0.686   5.539   1.947
10083SOL     OW31147   3.820   0.117   3.668
10083SOL    HW131148   3.869   0.203   3.655
10083SOL    HW231149   3.735   0.133   3.717
10084SOL     OW31150   1.147   0.693   5.551
10084SOL    HW131151   1.050   0.719   5.553
10084SOL    HW231152   1.184   0.707   5.459
10085SOL     OW31153   3.693   7.008   0.510
10085SOL    HW131154   3.684   6.916   0.549
10085SOL    HW231155   3.689   0.050   0.583
10086SOL     OW31156   5.757   5.822   3.102
10086SOL    HW131157   5.845   5.862   3.077
10086SOL    HW231158   5.692   5.895   3.124
10087SOL     OW31159   6.268   5.728   4.047
10087SOL    HW131160   6.200   5.691   4.110
10087SOL    HW231161   6.292   5.660   3.978
10088SOL     OW31162   0.025   0.082   2.440
10088SOL    HW131163   6.959   0.094   2.403
10088SOL    HW231164   0.027   0.116   2.535
10089SOL     OW31165   2.721   2.229   3.336
10089SOL    HW131166   2.810   2.193   3.306
10089SOL    HW231167   2.659   2.153   3.355
10090SOL     OW31168   0.313   4.982   1.775
10090SOL    HW131169   0.222   4.950   1.748
10090SOL    HW231170   0.304   5.066   1.827
10091SOL     OW31171   6.339   5.758   6.653
10091SOL    HW131172   6.358   5.769   6.750
10091SOL    HW231173   6.289   5.839   6.619
10092SOL     OW31174   1.681   2.860   6.480
10092SOL    HW131175   1.667   2.931   6.412
10092SOL    HW231176   1.760   2.882   6.537
10093SOL     OW31177   4.820   3.415   5.305
10093SOL    HW131178   4.758   3.340   5.326
10093SOL    HW231179   4.778   3.476   5.237
10094SOL     OW31180   2.626   6.145   1.689
10094SOL    HW131181   2.556   6.135   1.618
10094SOL    HW231182   2.693   6.213   1.661
10095SOL     OW31183   5.440   1.326   4.472
10095SOL    HW131184   5.357   1.335   4.528
10095SOL    HW231185   5.432   1.384   4.392
10096SOL     OW31186   4.748   6.695   2.646
10096SOL    HW131187   4.696   6.640   2.712
10096SOL    HW231188   4.792   6.635   2.580
10097SOL     OW31189   1.502   1.970   0.093
10097SOL    HW131190   1.450   2.054   0.107
10097SOL    HW231191   1.455   1.912   0.026
10098SOL     OW31192   2.898   6.840   5.136
10098SOL    HW131193   2.824   6.817   5.200
10098SOL    HW231194   2.979   6.868   5.187
10099SOL     OW31195   0.819   4.864   0.933
10099SOL    HW131196   0.855   4.908   0.850
10099SOL    HW231197   0.884   4.793   0.963
10100SOL     OW31198   5.070   6.195   5.525
10100SOL    HW131199   5.132   6.117   5.517
10100SOL    HW231200   5.119   6.279   5.500
10101SOL     OW31201   0.141   3.048   1.795
10101SOL    HW131202   0.117   2.983   1.722
10101SOL    HW231203   0.124   3.141   1.763
10102SOL     OW31204   6.635   0.859   1.336
10102SOL    HW131205   6.701   0.790   1.367
10102SOL    HW231206   6.665   0.896   1.248
10103SOL     OW31207   2.267   0.424   5.484
10103SOL    HW131208   2.247   0.483   5.563
10103SOL    HW231209   2.365   0.403   5.483
10104SOL     OW31210   1.654   2.035   5.661
10104SOL    HW131211   1.615   1.962   5.718
10104SOL    HW231212   1.670   2.115   5.718
10105SOL     OW31213   2.252   0.432   6.265
10105SOL    HW131214   2.192   0.423   6.186
10105SOL    HW231215   2.282   0.341   6.294
10106SOL     OW31216   3.994   6.439   0.442
10106SOL    HW131217   3.904   6.466   0.407
10106SOL    HW231218   3.985   6.358   0.499
10107SOL     OW31219   5.104   1.488   6.119
10107SOL    HW131220   5.095   1.396   6.157
10107SOL    HW231221   5.197   1.521   6.132
10108SOL     OW31222   0.134   1.622   0.182
10108SOL    HW131223   0.134   1.522   0.177
10108SOL    HW231224   0.125   1.651   0.278
10109SOL     OW31225   0.531   1.042   0.901
10109SOL    HW131226   0.442   1.062   0.943
10109SOL    HW231227   0.571   1.126   0.865
10110SOL     OW31228   4.840   4.516   4.084
10110SOL    HW131229   4.892   4.555   4.160
10110SOL    HW231230   4.894   4.445   4.039
10111SOL     OW31231   6.835   3.859   3.516
10111SOL    HW131232   6.742   3.830   3.535
10111SOL    HW231233   6.862   3.930   3.581
10112SOL     OW31234   5.948   3.179   2.713
10112SOL    HW131235   6.041   3.149   2.730
10112SOL    HW231236   5.948   3.277   2.690
10113SOL     OW31237   4.950   0.113   0.684
10113SOL    HW131238   4.889   0.050   0.637
10113SOL    HW231239   5.006   0.162   0.617
10114SOL     OW31240   4.238   2.334   2.476
10114SOL    HW131241   4.212   2.311   2.382
10114SOL    HW231242   4.319   2.393   2.474
10115SOL     OW31243   4.364   2.085   5.093
10115SOL    HW131244   4.337   2.059   5.000
10115SOL    HW231245   4.335   2.014   5.157
10116SOL     OW31246   0.667   6.544   6.780
10116SOL    HW131247   0.636   6.634   6.751
10116SOL    HW231248   0.720   6.553   6.865
10117SOL     OW31249   6.945   6.304   5.671
10117SOL    HW131250   6.968   6.247   5.591
10117SOL    HW231251   7.018   6.296   5.739
10118SOL     OW31252   2.457   4.549   3.571
10118SOL    HW131253   2.508   4.582   3.651
10118SOL    HW231254   2.452   4.449   3.574
10119SOL     OW31255   6.760   4.768   3.885
10119SOL    HW131256   6.787   4.720   3.969
10119SOL    HW231257   6.682   4.720   3.844
10120SOL     OW31258   1.674   3.569   3.994
10120SOL    HW131259   1.692   3.662   4.024
10120SOL    HW231260   1.736   3.545   3.919
10121SOL     OW31261   5.735   3.304   6.722
10121SOL    HW131262   5.656   3.244   6.713
10121SOL    HW231263   5.781   3.313   6.633
10122SOL     OW31264   5.354   2.130   3.415
10122SOL    HW131265   5.271   2.145   3.362
10122SOL    HW231266   5.344   2.173   3.505
10123SOL     OW31267   5.701   6.216   1.061
10123SOL    HW131268   5.744   6.262   1.139
10123SOL    HW231269   5.603   6.237   1.060
10124SOL     OW31270   1.417   4.982   0.519
10124SOL    HW131271   1.332   5.018   0.482
10124SOL    HW231272   1.488   5.052   0.514
10125SOL     OW31273   2.321   1.000   0.536
10125SOL    HW131274   2.327   0.901   0.551
10125SOL    HW231275   2.409   1.034   0.504
10126SOL     OW31276   0.053   0.162   6.681
10126SOL    HW131277   0.094   0.212   6.757
10126SOL    HW231278   6.979   0.162   6.692
10127SOL     OW31279   2.061   3.724   0.544
10127SOL    HW131280   2.145   3.706   0.493
10127SOL    HW231281   2.081   3.783   0.622
10128SOL     OW31282   3.085   0.855   5.551
10128SOL    HW131283   3.124   0.812   5.633
10128SOL    HW231284   3.158   0.867   5.483
10129SOL     OW31285   6.782   1.403   2.267
10129SOL    HW131286   6.750   1.314   2.235
10129SOL    HW231287   6.882   1.409   2.255
10130SOL     OW31288   0.486   3.490   1.864
10130SOL    HW131289   0.508   3.423   1.794
10130SOL    HW231290   0.462   3.443   1.949
10131SOL     OW31291   1.540   0.091   4.077
10131SOL    HW131292   1.458   0.057   4.032
10131SOL    HW231293   1.541   0.061   4.173
10132SOL     OW31294   1.491   0.689   2.938
10132SOL    HW131295   1.552   0.761   2.905
10132SOL    HW231296   1.540   0.602   2.941
10133SOL     OW31297   4.400   6.654   0.836
10133SOL    HW131298   4.360   6.699   0.916
10133SOL    HW231299   4.347   6.573   0.813
10134SOL     OW31300   5.680   0.865   3.192
10134SOL    HW131301   5.585   0.845   3.169
10134SOL    HW231302   5.683   0.906   3.283
10135SOL     OW31303   4.995   2.329   3.926
10135SOL    HW131304   4.941   2.245   3.917
10135SOL    HW231305   4.957   2.386   3.999
10136SOL     OW31306   5.370   1.831   2.295
10136SOL    HW131307   5.286   1.813   2.245
10136SOL    HW231308   5.356   1.811   2.392
10137SOL     OW31309   0.536   4.612   5.138
10137SOL    HW131310   0.437   4.628   5.135
10137SOL    HW231311   0.570   4.594   5.046
10138SOL     OW31312   5.793   3.356   0.317
10138SOL    HW131313   5.753   3.276   0.363
10138SOL    HW231314   5.885   3.371   0.352
10139SOL     OW31315   3.132   4.002   4.548
10139SOL    HW131316   3.040   3.987   4.586
10139SOL    HW231317   3.176   3.914   4.531
10140SOL     OW31318   0.205   6.544   6.556
10140SOL    HW131319   0.141   6.489   6.609
10140SOL    HW231320   0.175   6.640   6.557
10141SOL     OW31321   4.607   1.139   4.887
10141SOL    HW131322   4.559   1.124   4.973
10141SOL    HW231323   4.581   1.228   4.849
10142SOL     OW31324   6.155   6.567   5.969
10142SOL    HW131325   6.157   6.589   5.871
10142SOL    HW231326   6.243   6.588   6.010
10143SOL     OW31327   5.530   2.686   0.478
10143SOL    HW131328   5.447   2.694   0.423
10143SOL    HW231329   5.608   2.721   0.426
10144SOL     OW31330   4.646   6.381   5.446
10144SOL    HW131331   4.557   6.391   5.491
10144SOL    HW231332   4.635   6.391   5.347
10145SOL     OW31333   3.799   5.517   2.832
10145SOL    HW131334   3.757   5.458   2.901
10145SOL    HW231335   3.778   5.613   2.852
10146SOL     OW31336   6.588   3.710   4.499
10146SOL    HW131337   6.532   3.673   4.573
10146SOL    HW231338   6.531   3.770   4.442
10147SOL     OW31339   5.169   3.784   6.826
10147SOL    HW131340   5.071   3.789   6.806
10147SOL    HW231341   5.221   3.827   6.752
10148SOL     OW31342   5.779   4.511   0.776
10148SOL    HW131343   5.755   4.425   0.820
10148SOL    HW231344   5.810   4.493   0.682
10149SOL     OW31345   5.225   4.508   1.306
10149SOL    HW131346   5.198   4.593   1.352
10149SOL    HW231347   5.324   4.510   1.288
10150SOL     OW31348   4.338   3.442   1.660
10150SOL    HW131349   4.246   3.472   1.687
10150SOL    HW231350   4.396   3.522   1.646
10151SOL     OW31351   1.236   0.306   6.774
10151SOL    HW131352   1.209   0.391   6.727
10151SOL    HW231353   1.157   0.270   6.824
10152SOL     OW31354   6.510   5.926   3.620
10152SOL    HW131355   6.470   5.867   3.689
10152SOL    HW231356   6.594   5.967   3.655
10153SOL     OW31357   4.767   5.781   4.272
10153SOL    HW131358   4.814   5.719   4.209
10153SOL    HW231359   4.702   5.838   4.222
10154SOL     OW31360   3.934   6.448   5.544
10154SOL    HW131361   3.837   6.428   5.537
10154SOL    HW231362   3.953   6.492   5.633
10155SOL     OW31363   5.035   2.736   5.277
10155SOL    HW131364   4.963   2.668   5.290
10155SOL    HW231365   4.998   2.816   5.229
10156SOL     OW31366   5.452   0.655   1.667
10156SOL    HW131367   5.488   0.742   1.634
10156SOL    HW231368   5.479   0.582   1.605
10157SOL     OW31369   6.905   2.617   0.384
10157SOL    HW131370   6.987   2.572   0.417
10157SOL    HW231371   6.914   2.636   0.286
10158SOL     OW31372   6.521   6.532   1.253
10158SOL    HW131373   6.519   6.626   1.289
10158SOL    HW231374   6.589   6.479   1.304
10159SOL     OW31375   3.766   3.307   2.459
10159SOL    HW131376   3.791   3.350   2.372
10159SOL    HW231377   3.832   3.236   2.481
10160SOL     OW31378   1.669   4.205   3.119
10160SOL    HW131379   1.766   4.199   3.095
10160SOL    HW231380   1.635   4.114   3.144
10161SOL     OW31381   3.460   5.045   6.664
10161SOL    HW131382   3.557   5.029   6.647
10161SOL    HW231383   3.442   5.144   6.662
10162SOL     OW31384   2.532   4.551   0.501
10162SOL    HW131385   2.618   4.600   0.516
10162SOL    HW231386   2.459   4.596   0.551
10163SOL     OW31387   0.458   4.844   6.700
10163SOL    HW131388   0.463   4.751   6.736
10163SOL    HW231389   0.440   4.908   6.775
10164SOL     OW31390   5.653   3.515   4.645
10164SOL    HW131391   5.712   3.503   4.724
10164SOL    HW231392   5.709   3.529   4.563
10165SOL     OW31393   6.769   2.254   3.450
10165SOL    HW131394   6.768   2.338   3.396
10165SOL    HW231395   6.777   2.175   3.389
10166SOL     OW31396   1.577   1.606   1.716
10166SOL    HW131397   1.632   1.598   1.634
10166SOL    HW231398   1.546   1.701   1.726
10167SOL     OW31399   6.718   6.003   6.775
10167SOL    HW131400   6.794   6.057   6.812
10167SOL    HW231401   6.696   6.035   6.683
10168SOL     OW31402   6.615   2.047   5.973
10168SOL    HW131403   6.626   2.056   6.072
10168SOL    HW231404   6.521   2.073   5.948
10169SOL     OW31405   6.157   3.815   3.170
10169SOL    HW131406   6.210   3.732   3.152
10169SOL    HW231407   6.206   3.872   3.236
10170SOL     OW31408   6.259   5.843   6.156
10170SOL    HW131409   6.159   5.846   6.160
10170SOL    HW231410   6.297   5.902   6.227
10171SOL     OW31411   0.439   2.358   4.000
10171SOL    HW131412   0.501   2.309   4.061
10171SOL    HW231413   0.355   2.306   3.988
10172SOL     OW31414   0.393   6.781   4.555
10172SOL    HW131415   0.388   6.704   4.619
10172SOL    HW231416   0.309   6.834   4.561
10173SOL     OW31417   2.008   3.617   6.488
10173SOL    HW131418   2.058   3.703   6.497
10173SOL    HW231419   2.065   3.549   6.442
10174SOL     OW31420   4.695   4.809   3.562
10174SOL    HW131421   4.743   4.744   3.503
10174SOL    HW231422   4.596   4.799   3.549
10175SOL     OW31423   6.113   1.846   3.746
10175SOL    HW131424   6.182   1.845   3.819
10175SOL    HW231425   6.023   1.864   3.785
10176SOL     OW31426   6.458   2.685   5.357
10176SOL    HW131427   6.518   2.754   5.316
10176SOL    HW231428   6.457   2.604   5.298
10177SOL     OW31429   1.734   0.213   0.964
10177SOL    HW131430   1.703   0.174   1.051
10177SOL    HW231431   1.704   0.155   0.889
10178SOL     OW31432   1.248   0.814   0.559
10178SOL    HW131433   1.335   0.811   0.608
10178SOL    HW231434   1.173   0.796   0.623
10179SOL     OW31435   0.448   3.534   6.483
10179SOL    HW131436   0.493   3.447   6.501
10179SOL    HW231437   0.396   3.562   6.564
10180SOL     OW31438   4.685   0.422   1.052
10180SOL    HW131439   4.750   0.496   1.072
10180SOL    HW231440   4.734   0.341   1.023
10181SOL     OW31441   0.651   3.032   1.376
10181SOL    HW131442   0.555   3.026   1.403
10181SOL    HW231443   0.699   2.951   1.407
10182SOL     OW31444   4.905   1.421   0.135
10182SOL    HW131445   4.902   1.455   0.041
10182SOL    HW231446   4.891   1.497   0.199
10183SOL     OW31447   5.806   2.656   5.947
10183SOL    HW131448   5.801   2.558   5.930
10183SOL    HW231449   5.854   2.701   5.872
10184SOL     OW31450   4.942   2.652   0.178
10184SOL    HW131451   5.000   2.599   0.117
10184SOL    HW231452   4.953   2.750   0.158
10185SOL     OW31453   6.126   5.930   2.194
10185SOL    HW131454   6.080   5.863   2.252
10185SOL    HW231455   6.142   5.889   2.104
10186SOL     OW31456   4.929   3.600   4.753
10186SOL    HW131457   4.876   3.604   4.837
10186SOL    HW231458   4.973   3.510   4.746
10187SOL     OW31459   1.521   4.083   5.347
10187SOL    HW131460   1.597   4.129   5.300
10187SOL    HW231461   1.556   4.026   5.420
10188SOL     OW31462   2.688   5.030   6.588
10188SOL    HW131463   2.766   5.019   6.527
10188SOL    HW231464   2.665   4.942   6.629
10189SOL     OW31465   0.965   0.704   5.975
10189SOL    HW131466   0.870   0.733   5.964
10189SOL    HW231467   1.024   0.784   5.983
10190SOL     OW31468   4.173   3.198   1.889
10190SOL    HW131469   4.243   3.157   1.947
10190SOL    HW231470   4.123   3.267   1.941
10191SOL     OW31471   5.205   5.489   0.447
10191SOL    HW131472   5.196   5.541   0.362
10191SOL    HW231473   5.220   5.393   0.425
10192SOL     OW31474   3.227   1.701   5.222
10192SOL    HW131475   3.172   1.766   5.274
10192SOL    HW231476   3.190   1.609   5.235
10193SOL     OW31477   2.966   3.866   2.223
10193SOL    HW131478   3.005   3.868   2.315
10193SOL    HW231479   3.008   3.938   2.168
10194SOL     OW31480   4.546   0.682   4.331
10194SOL    HW131481   4.498   0.636   4.256
10194SOL    HW231482   4.641   0.698   4.305
10195SOL     OW31483   6.908   0.307   1.924
10195SOL    HW131484   7.004   0.322   1.945
10195SOL    HW231485   6.870   0.387   1.878
10196SOL     OW31486   5.064   2.058   3.547
10196SOL    HW131487   5.027   2.038   3.456
10196SOL    HW231488   5.062   1.975   3.603
10197SOL     OW31489   4.661   1.575   4.130
10197SOL    HW131490   4.566   1.586   4.159
10197SOL    HW231491   4.722   1.601   4.204
10198SOL     OW31492   3.950   6.715   0.754
10198SOL    HW131493   3.948   6.814   0.741
10198SOL    HW231494   4.025   6.675   0.701
10199SOL     OW31495   0.721   2.524   6.927
10199SOL    HW131496   0.801   2.509   6.869
10199SOL    HW231497   0.638   2.517   6.873
10200SOL     OW31498   5.226   3.549   5.360
10200SOL    HW131499   5.236   3.597   5.447
10200SOL    HW231500   5.310   3.559   5.307
10201SOL     OW31501   0.236   6.130   1.036
10201SOL    HW131502   0.243   6.034   1.061
10201SOL    HW231503   0.308   6.152   0.969
10202SOL     OW31504   1.078   4.366   0.191
10202SOL    HW131505   1.129   4.286   0.223
10202SOL    HW231506   1.093   4.442   0.255
10203SOL     OW31507   1.330   2.988   1.814
10203SOL    HW131508   1.249   2.936   1.788
10203SOL    HW231509   1.388   2.932   1.874
10204SOL     OW31510   3.129   5.641   6.132
10204SOL    HW131511   3.040   5.640   6.179
10204SOL    HW231512   3.115   5.622   6.035
10205SOL     OW31513   3.469   1.066   2.169
10205SOL    HW131514   3.443   1.109   2.083
10205SOL    HW231515   3.389   1.058   2.228
10206SOL     OW31516   5.229   6.852   6.198
10206SOL    HW131517   5.298   6.783   6.179
10206SOL    HW231518   5.204   6.849   6.295
10207SOL     OW31519   2.381   1.363   0.265
10207SOL    HW131520   2.430   1.355   0.178
10207SOL    HW231521   2.448   1.370   0.339
10208SOL     OW31522   6.544   4.648   3.782
10208SOL    HW131523   6.541   4.550   3.800
10208SOL    HW231524   6.457   4.690   3.808
10209SOL     OW31525   0.287   0.585   5.586
10209SOL    HW131526   0.279   0.501   5.532
10209SOL    HW231527   0.370   0.634   5.560
10210SOL     OW31528   5.190   0.079   1.807
10210SOL    HW131529   5.114   0.104   1.867
10210SOL    HW231530   5.198   0.146   1.733
10211SOL     OW31531   4.104   6.683   5.435
10211SOL    HW131532   4.072   6.605   5.381
10211SOL    HW231533   4.110   6.658   5.532
10212SOL     OW31534   0.314   0.696   4.534
10212SOL    HW131535   0.315   0.776   4.474
10212SOL    HW231536   0.378   0.627   4.500
10213SOL     OW31537   5.594   2.601   2.488
10213SOL    HW131538   5.636   2.581   2.400
10213SOL    HW231539   5.499   2.631   2.473
10214SOL     OW31540   1.184   2.129   2.192
10214SOL    HW131541   1.233   2.044   2.206
10214SOL    HW231542   1.241   2.193   2.140
10215SOL     OW31543   3.605   2.951   3.903
10215SOL    HW131544   3.508   2.933   3.919
10215SOL    HW231545   3.652   2.959   3.992
10216SOL     OW31546   0.795   0.291   0.999
10216SOL    HW131547   0.747   0.364   0.950
10216SOL    HW231548   0.845   0.234   0.933
10217SOL     OW31549   2.583   1.769   3.538
10217SOL    HW131550   2.541   1.683   3.567
10217SOL    HW231551   2.580   1.835   3.613
10218SOL     OW31552   1.786   0.689   2.028
10218SOL    HW131553   1.814   0.606   2.076
10218SOL    HW231554   1.807   0.681   1.931
10219SOL     OW31555   0.305   3.335   2.017
10219SOL    HW131556   0.329   3.250   1.969
10219SOL    HW231557   0.328   3.326   2.114
10220SOL     OW31558   4.256   1.772   1.853
10220SOL    HW131559   4.310   1.794   1.771
10220SOL    HW231560   4.268   1.845   1.921
10221SOL     OW31561   1.811   3.110   4.264
10221SOL    HW131562   1.768   3.054   4.334
10221SOL    HW231563   1.744   3.171   4.223
10222SOL     OW31564   2.624   3.454   6.304
10222SOL    HW131565   2.589   3.377   6.251
10222SOL    HW231566   2.680   3.513   6.246
10223SOL     OW31567   1.542   5.814   6.538
10223SOL    HW131568   1.536   5.913   6.524
10223SOL    HW231569   1.637   5.788   6.548
10224SOL     OW31570   0.160   1.756   5.121
10224SOL    HW131571   0.171   1.799   5.211
10224SOL    HW231572   0.177   1.658   5.129
10225SOL     OW31573   2.154   6.227   5.991
10225SOL    HW131574   2.059   6.228   5.960
10225SOL    HW231575   2.160   6.177   6.077
10226SOL     OW31576   2.599   0.071   6.702
10226SOL    HW131577   2.606   0.171   6.697
10226SOL    HW231578   2.508   0.046   6.735
10227SOL     OW31579   4.918   4.915   0.919
10227SOL    HW131580   4.984   4.889   0.989
10227SOL    HW231581   4.891   4.834   0.867
10228SOL     OW31582   0.972   5.550   2.109
10228SOL    HW131583   1.054   5.608   2.112
10228SOL    HW231584   0.919   5.572   2.027
10229SOL     OW31585   0.732   1.763   3.866
10229SOL    HW131586   0.740   1.860   3.844
10229SOL    HW231587   0.755   1.747   3.962
10230SOL     OW31588   6.256   6.254   3.320
10230SOL    HW131589   6.176   6.251   3.379
10230SOL    HW231590   6.318   6.326   3.351
10231SOL     OW31591   6.329   5.435   5.390
10231SOL    HW131592   6.420   5.446   5.430
10231SOL    HW231593   6.285   5.525   5.384
10232SOL     OW31594   2.780   0.703   4.569
10232SOL    HW131595   2.863   0.701   4.513
10232SOL    HW231596   2.775   0.619   4.623
10233SOL     OW31597   4.703   3.804   5.258
10233SOL    HW131598   4.643   3.740   5.210
10233SOL    HW231599   4.731   3.764   5.346
10234SOL     OW31600   5.206   1.318   0.499
10234SOL    HW131601   5.229   1.383   0.426
10234SOL    HW231602   5.107   1.304   0.500
10235SOL     OW31603   4.506   2.805   6.978
10235SOL    HW131604   4.590   2.801   0.006
10235SOL    HW231605   4.439   2.740   7.015
10236SOL     OW31606   2.604   0.033   2.135
10236SOL    HW131607   2.532   0.102   2.128
10236SOL    HW231608   2.564   6.972   2.163
10237SOL     OW31609   6.345   4.261   0.946
10237SOL    HW131610   6.373   4.270   1.042
10237SOL    HW231611   6.427   4.266   0.888
10238SOL     OW31612   3.105   3.984   3.596
10238SOL    HW131613   3.187   3.951   3.549
10238SOL    HW231614   3.131   4.032   3.680
10239SOL     OW31615   1.289   4.201   5.209
10239SOL    HW131616   1.371   4.159   5.248
10239SOL    HW231617   1.217   4.202   5.279
10240SOL     OW31618   2.081   4.796   3.511
10240SOL    HW131619   2.168   4.763   3.476
10240SOL    HW231620   2.079   4.896   3.507
10241SOL     OW31621   6.631   0.363   2.155
10241SOL    HW131622   6.687   0.441   2.126
10241SOL    HW231623   6.604   0.310   2.074
10242SOL     OW31624   6.816   0.881   6.862
10242SOL    HW131625   6.912   0.859   6.848
10242SOL    HW231626   6.760   0.800   6.844
10243SOL     OW31627   1.015   5.045   1.487
10243SOL    HW131628   1.047   5.133   1.451
10243SOL    HW231629   0.915   5.045   1.491
10244SOL     OW31630   0.859   4.518   0.414
10244SOL    HW131631   0.957   4.530   0.401
10244SOL    HW231632   0.812   4.525   0.326
10245SOL     OW31633   2.778   4.652   6.731
10245SOL    HW131634   2.854   4.638   6.668
10245SOL    HW231635   2.768   4.571   6.789
10246SOL     OW31636   3.150   4.091   3.835
10246SOL    HW131637   3.104   4.169   3.876
10246SOL    HW231638   3.117   4.006   3.877
10247SOL     OW31639   0.003   5.383   5.643
10247SOL    HW131640   0.097   5.413   5.626
10247SOL    HW231641   6.976   5.459   5.682
10248SOL     OW31642   3.489   6.925   2.033
10248SOL    HW131643   3.392   6.949   2.038
10248SOL    HW231644   3.499   6.832   2.000
10249SOL     OW31645   3.416   1.456   6.067
10249SOL    HW131646   3.402   1.374   6.122
10249SOL    HW231647   3.461   1.431   5.980
10250SOL     OW31648   6.805   2.760   1.163
10250SOL    HW131649   6.775   2.837   1.220
10250SOL    HW231650   6.728   2.729   1.106
10251SOL     OW31651   2.239   2.324   5.304
10251SOL    HW131652   2.285   2.388   5.244
10251SOL    HW231653   2.165   2.371   5.353
10252SOL     OW31654   5.260   5.224   6.771
10252SOL    HW131655   5.169   5.263   6.767
10252SOL    HW231656   5.255   5.129   6.802
10253SOL     OW31657   4.393   5.502   0.080
10253SOL    HW131658   4.380   5.475   7.011
10253SOL    HW231659   4.328   5.453   0.138
10254SOL     OW31660   4.924   1.829   5.429
10254SOL    HW131661   4.861   1.807   5.503
10254SOL    HW231662   4.873   1.869   5.352
10255SOL     OW31663   1.554   6.457   1.330
10255SOL    HW131664   1.548   6.409   1.417
10255SOL    HW231665   1.651   6.470   1.305
10256SOL     OW31666   6.173   0.367   1.779
10256SOL    HW131667   6.230   0.339   1.702
10256SOL    HW231668   6.106   0.296   1.799
10257SOL     OW31669   1.822   5.211   4.358
10257SOL    HW131670   1.793   5.306   4.343
10257SOL    HW231671   1.884   5.184   4.284
10258SOL     OW31672   4.091   0.894   4.557
10258SOL    HW131673   4.148   0.921   4.479
10258SOL    HW231674   4.059   0.801   4.544
10259SOL     OW31675   0.507   4.359   3.036
10259SOL    HW131676   0.449   4.297   2.983
10259SOL    HW231677   0.572   4.404   2.974
10260SOL     OW31678   0.761   0.399   3.402
10260SOL    HW131679   0.849   0.365   3.435
10260SOL    HW231680   0.727   0.469   3.464
10261SOL     OW31681   6.589   5.112   3.177
10261SOL    HW131682   6.543   5.191   3.219
10261SOL    HW231683   6.584   5.120   3.077
10262SOL     OW31684   2.316   6.599   4.725
10262SOL    HW131685   2.370   6.681   4.708
10262SOL    HW231686   2.370   6.533   4.776
10263SOL     OW31687   4.703   0.774   6.310
10263SOL    HW131688   4.673   0.679   6.316
10263SOL    HW231689   4.724   0.797   6.215
10264SOL     OW31690   5.899   2.431   6.159
10264SOL    HW131691   5.917   2.338   6.127
10264SOL    HW231692   5.949   2.496   6.101
10265SOL     OW31693   3.175   2.133   3.050
10265SOL    HW131694   3.118   2.062   3.091
10265SOL    HW231695   3.120   2.186   2.985
10266SOL     OW31696   2.967   3.164   5.059
10266SOL    HW131697   3.010   3.089   5.110
10266SOL    HW231698   2.973   3.145   4.961
10267SOL     OW31699   6.342   1.454   0.002
10267SOL    HW131700   6.438   1.456   0.029
10267SOL    HW231701   6.297   1.539   0.032
10268SOL     OW31702   5.090   4.891   1.681
10268SOL    HW131703   5.175   4.908   1.732
10268SOL    HW231704   5.021   4.852   1.742
10269SOL     OW31705   0.735   2.587   5.127
10269SOL    HW131706   0.699   2.520   5.192
10269SOL    HW231707   0.751   2.674   5.173
10270SOL     OW31708   2.940   5.143   3.845
10270SOL    HW131709   2.975   5.192   3.765
10270SOL    HW231710   2.949   5.044   3.830
10271SOL     OW31711   3.409   2.676   0.107
10271SOL    HW131712   3.507   2.676   0.129
10271SOL    HW231713   3.397   2.657   0.010
10272SOL     OW31714   0.593   0.092   5.123
10272SOL    HW131715   0.496   0.112   5.115
10272SOL    HW231716   0.616   0.011   5.069
10273SOL     OW31717   4.187   5.220   3.507
10273SOL    HW131718   4.221   5.244   3.417
10273SOL    HW231719   4.121   5.289   3.538
10274SOL     OW31720   0.343   4.466   4.254
10274SOL    HW131721   0.309   4.474   4.161
10274SOL    HW231722   0.277   4.414   4.309
10275SOL     OW31723   0.966   6.654   1.947
10275SOL    HW131724   0.867   6.650   1.961
10275SOL    HW231725   1.003   6.561   1.945
10276SOL     OW31726   5.863   6.001   5.769
10276SOL    HW131727   5.892   6.071   5.703
10276SOL    HW231728   5.937   5.983   5.833
10277SOL     OW31729   2.178   5.556   3.949
10277SOL    HW131730   2.250   5.499   3.986
10277SOL    HW231731   2.112   5.499   3.899
10278SOL     OW31732   6.611   1.281   4.750
10278SOL    HW131733   6.576   1.303   4.841
10278SOL    HW231734   6.627   1.365   4.698
10279SOL     OW31735   1.971   5.849   4.553
10279SOL    HW131736   1.986   5.824   4.649
10279SOL    HW231737   2.060   5.862   4.508
10280SOL     OW31738   1.216   4.086   1.208
10280SOL    HW131739   1.214   4.131   1.297
10280SOL    HW231740   1.137   4.116   1.153
10281SOL     OW31741   5.952   0.994   3.159
10281SOL    HW131742   5.870   0.938   3.155
10281SOL    HW231743   6.017   0.965   3.089
10282SOL     OW31744   6.456   4.432   4.396
10282SOL    HW131745   6.398   4.385   4.463
10282SOL    HW231746   6.400   4.464   4.320
10283SOL     OW31747   0.507   3.286   0.811
10283SOL    HW131748   0.429   3.257   0.756
10283SOL    HW231749   0.591   3.251   0.769
10284SOL     OW31750   5.426   3.735   5.080
10284SOL    HW131751   5.383   3.809   5.131
10284SOL    HW231752   5.491   3.774   5.014
10285SOL     OW31753   4.949   1.041   1.057
10285SOL    HW131754   4.887   1.034   1.135
10285SOL    HW231755   4.949   0.954   1.007
10286SOL     OW31756   3.145   1.806   3.986
10286SOL    HW131757   3.047   1.817   3.999
10286SOL    HW231758   3.166   1.709   3.971
10287SOL     OW31759   2.770   5.981   1.167
10287SOL    HW131760   2.779   6.068   1.117
10287SOL    HW231761   2.697   5.927   1.125
10288SOL     OW31762   5.417   5.850   2.271
10288SOL    HW131763   5.378   5.801   2.349
10288SOL    HW231764   5.389   5.946   2.275
10289SOL     OW31765   3.412   0.602   2.114
10289SOL    HW131766   3.330   0.654   2.137
10289SOL    HW231767   3.399   0.506   2.139
10290SOL     OW31768   3.065   4.035   2.027
10290SOL    HW131769   3.148   4.035   1.970
10290SOL    HW231770   2.986   4.056   1.970
10291SOL     OW31771   3.826   0.930   3.424
10291SOL    HW131772   3.895   0.860   3.405
10291SOL    HW231773   3.735   0.889   3.422
10292SOL     OW31774   1.938   0.593   4.524
10292SOL    HW131775   1.874   0.549   4.586
10292SOL    HW231776   1.974   0.676   4.568
10293SOL     OW31777   1.652   5.269   3.492
10293SOL    HW131778   1.588   5.197   3.465
10293SOL    HW231779   1.601   5.351   3.517
10294SOL     OW31780   5.141   3.618   2.659
10294SOL    HW131781   5.051   3.660   2.653
10294SOL    HW231782   5.160   3.594   2.754
10295SOL     OW31783   5.619   5.901   5.711
10295SOL    HW131784   5.707   5.933   5.746
10295SOL    HW231785   5.625   5.892   5.611
10296SOL     OW31786   4.864   3.199   0.178
10296SOL    HW131787   4.870   3.109   0.222
10296SOL    HW231788   4.780   3.204   0.124
10297SOL     OW31789   1.741   6.490   6.195
10297SOL    HW131790   1.757   6.560   6.265
10297SOL    HW231791   1.736   6.534   6.105
10298SOL     OW31792   3.593   4.974   1.737
10298SOL    HW131793   3.586   4.909   1.813
10298SOL    HW231794   3.688   4.978   1.706
10299SOL     OW31795   4.910   4.777   2.795
10299SOL    HW131796   4.824   4.795   2.844
10299SOL    HW231797   4.907   4.686   2.754
10300SOL     OW31798   1.772   4.825   3.147
10300SOL    HW131799   1.757   4.918   3.180
10300SOL    HW231800   1.797   4.827   3.050
10301SOL     OW31801   5.930   2.218   3.609
10301SOL    HW131802   5.978   2.153   3.550
10301SOL    HW231803   5.847   2.175   3.644
10302SOL     OW31804   0.661   5.781   3.725
10302SOL    HW131805   0.608   5.865   3.739
10302SOL    HW231806   0.665   5.730   3.811
10303SOL     OW31807   2.031   5.357   2.066
10303SOL    HW131808   2.024   5.382   1.970
10303SOL    HW231809   2.086   5.424   2.115
10304SOL     OW31810   5.185   1.073   2.884
10304SOL    HW131811   5.185   0.991   2.827
10304SOL    HW231812   5.279   1.098   2.907
10305SOL     OW31813   0.501   4.829   0.070
10305SOL    HW131814   0.503   4.929   0.064
10305SOL    HW231815   0.534   4.790   7.010
10306SOL     OW31816   4.380   6.727   6.880
10306SOL    HW131817   4.314   6.656   6.904
10306SOL    HW231818   4.337   6.794   6.820
10307SOL     OW31819   2.081   2.404   4.641
10307SOL    HW131820   2.129   2.356   4.715
10307SOL    HW231821   2.144   2.466   4.595
10308SOL     OW31822   2.605   5.153   4.386
10308SOL    HW131823   2.539   5.179   4.457
10308SOL    HW231824   2.635   5.235   4.338
10309SOL     OW31825   6.122   1.389   3.594
10309SOL    HW131826   6.120   1.489   3.586
10309SOL    HW231827   6.046   1.359   3.651
10310SOL     OW31828   4.253   2.760   1.681
10310SOL    HW131829   4.301   2.701   1.617
10310SOL    HW231830   4.310   2.841   1.701
10311SOL     OW31831   0.482   6.216   0.866
10311SOL    HW131832   0.561   6.208   0.926
10311SOL    HW231833   0.498   6.289   0.799
10312SOL     OW31834   2.332   6.368   1.140
10312SOL    HW131835   2.394   6.299   1.102
10312SOL    HW231836   2.380   6.422   1.209
10313SOL     OW31837   4.159   6.903   1.476
10313SOL    HW131838   4.075   6.946   1.506
10313SOL    HW231839   4.183   6.935   1.384
10314SOL     OW31840   0.167   0.312   2.326
10314SOL    HW131841   0.091   0.270   2.376
10314SOL    HW231842   0.191   0.399   2.369
10315SOL     OW31843   6.125   5.300   4.160
10315SOL    HW131844   6.037   5.276   4.199
10315SOL    HW231845   6.175   5.217   4.136
10316SOL     OW31846   6.635   2.450   4.661
10316SOL    HW131847   6.569   2.521   4.685
10316SOL    HW231848   6.658   2.397   4.742
10317SOL     OW31849   3.676   6.044   5.911
10317SOL    HW131850   3.637   6.100   5.838
10317SOL    HW231851   3.663   5.947   5.889
10318SOL     OW31852   4.959   6.100   0.003
10318SOL    HW131853   5.039   6.040   0.011
10318SOL    HW231854   4.928   6.102   6.934
10319SOL     OW31855   2.189   2.719   5.654
10319SOL    HW131856   2.251   2.645   5.632
10319SOL    HW231857   2.239   2.806   5.653
10320SOL     OW31858   0.587   0.519   1.552
10320SOL    HW131859   0.546   0.435   1.588
10320SOL    HW231860   0.555   0.534   1.458
10321SOL     OW31861   4.400   0.627   3.258
10321SOL    HW131862   4.402   0.727   3.246
10321SOL    HW231863   4.340   0.587   3.189
10322SOL     OW31864   6.278   6.026   6.368
10322SOL    HW131865   6.179   6.011   6.360
10322SOL    HW231866   6.300   6.050   6.463
10323SOL     OW31867   6.827   4.007   5.691
10323SOL    HW131868   6.734   3.987   5.721
10323SOL    HW231869   6.824   4.058   5.606
10324SOL     OW31870   3.043   3.187   3.170
10324SOL    HW131871   3.044   3.100   3.120
10324SOL    HW231872   3.109   3.185   3.244
10325SOL     OW31873   6.175   4.063   3.284
10325SOL    HW131874   6.115   4.143   3.290
10325SOL    HW231875   6.247   4.080   3.218
10326SOL     OW31876   4.033   3.112   6.791
10326SOL    HW131877   4.046   3.100   6.890
10326SOL    HW231878   3.975   3.039   6.756
10327SOL     OW31879   2.483   1.606   1.751
10327SOL    HW131880   2.515   1.691   1.792
10327SOL    HW231881   2.404   1.572   1.802
10328SOL     OW31882   6.226   3.494   1.533
10328SOL    HW131883   6.210   3.507   1.435
10328SOL    HW231884   6.206   3.399   1.557
10329SOL     OW31885   3.493   0.079   4.719
10329SOL    HW131886   3.442   0.105   4.637
10329SOL    HW231887   3.557   0.152   4.743
10330SOL     OW31888   3.514   5.269   2.473
10330SOL    HW131889   3.523   5.241   2.569
10330SOL    HW231890   3.604   5.287   2.435
10331SOL     OW31891   6.854   0.520   3.670
10331SOL    HW131892   6.946   0.481   3.674
10331SOL    HW231893   6.839   0.559   3.579
10332SOL     OW31894   5.973   1.651   0.160
10332SOL    HW131895   6.070   1.629   0.155
10332SOL    HW231896   5.956   1.738   0.112
10333SOL     OW31897   6.714   4.433   4.436
10333SOL    HW131898   6.625   4.431   4.391
10333SOL    HW231899   6.784   4.459   4.370
10334SOL     OW31900   1.984   5.466   4.193
10334SOL    HW131901   1.971   5.419   4.106
10334SOL    HW231902   1.896   5.477   4.239
10335SOL     OW31903   2.498   4.915   0.069
10335SOL    HW131904   2.524   4.900   0.164
10335SOL    HW231905   2.399   4.902   0.059
10336SOL     OW31906   6.034   6.311   3.465
10336SOL    HW131907   6.012   6.252   3.542
10336SOL    HW231908   6.051   6.404   3.498
10337SOL     OW31909   6.494   6.688   5.747
10337SOL    HW131910   6.397   6.711   5.744
10337SOL    HW231911   6.537   6.713   5.660
10338SOL     OW31912   2.805   6.240   1.915
10338SOL    HW131913   2.856   6.176   1.973
10338SOL    HW231914   2.756   6.189   1.845
10339SOL     OW31915   3.451   5.528   0.593
10339SOL    HW131916   3.428   5.495   0.501
10339SOL    HW231917   3.548   5.511   0.611
10340SOL     OW31918   1.789   5.466   0.423
10340SOL    HW131919   1.719   5.449   0.492
10340SOL    HW231920   1.800   5.385   0.365
10341SOL     OW31921   2.265   3.262   1.729
10341SOL    HW131922   2.309   3.346   1.761
10341SOL    HW231923   2.245   3.204   1.808
10342SOL     OW31924   2.043   6.026   5.544
10342SOL    HW131925   2.075   6.080   5.622
10342SOL    HW231926   1.996   5.944   5.577
10343SOL     OW31927   2.067   4.160   0.163
10343SOL    HW131928   2.079   4.255   0.136
10343SOL    HW231929   2.058   4.154   0.262
10344SOL     OW31930   4.068   3.625   2.074
10344SOL    HW131931   4.078   3.658   2.168
10344SOL    HW231932   4.058   3.703   2.012
10345SOL     OW31933   1.674   0.517   6.221
10345SOL    HW131934   1.603   0.446   6.225
10345SOL    HW231935   1.631   0.607   6.228
10346SOL     OW31936   6.329   1.167   1.090
10346SOL    HW131937   6.350   1.250   1.040
10346SOL    HW231938   6.383   1.091   1.053
10347SOL     OW31939   5.488   2.453   2.269
10347SOL    HW131940   5.405   2.427   2.218
10347SOL    HW231941   5.473   2.440   2.367
10348SOL     OW31942   6.634   1.452   6.693
10348SOL    HW131943   6.577   1.523   6.734
10348SOL    HW231944   6.578   1.371   6.674
10349SOL     OW31945   6.882   1.654   6.883
10349SOL    HW131946   6.980   1.657   6.906
10349SOL    HW231947   6.856   1.560   6.864
10350SOL     OW31948   2.914   6.750   4.756
10350SOL    HW131949   2.965   6.664   4.752
10350SOL    HW231950   2.973   6.821   4.796
10351SOL     OW31951   5.672   5.264   6.077
10351SOL    HW131952   5.730   5.312   6.142
10351SOL    HW231953   5.577   5.291   6.091
10352SOL     OW31954   5.485   1.528   6.413
10352SOL    HW131955   5.569   1.483   6.445
10352SOL    HW231956   5.473   1.614   6.461
10353SOL     OW31957   6.770   2.752   4.491
10353SOL    HW131958   6.760   2.846   4.459
10353SOL    HW231959   6.748   2.748   4.589
10354SOL     OW31960   0.511   2.067   1.786
10354SOL    HW131961   0.593   2.025   1.824
10354SOL    HW231962   0.537   2.138   1.720
10355SOL     OW31963   1.066   0.542   0.916
10355SOL    HW131964   1.051   0.470   0.984
10355SOL    HW231965   1.161   0.541   0.885
10356SOL     OW31966   0.013   3.871   5.619
10356SOL    HW131967   6.962   3.924   5.654
10356SOL    HW231968   0.005   3.776   5.652
10357SOL     OW31969   4.326   2.800   6.239
10357SOL    HW131970   4.320   2.707   6.277
10357SOL    HW231971   4.379   2.798   6.154
10358SOL     OW31972   0.514   2.812   3.846
10358SOL    HW131973   0.428   2.798   3.894
10358SOL    HW231974   0.570   2.729   3.852
10359SOL     OW31975   4.958   2.115   1.825
10359SOL    HW131976   4.937   2.146   1.917
10359SOL    HW231977   4.882   2.135   1.764
10360SOL     OW31978   5.284   5.676   2.050
10360SOL    HW131979   5.340   5.704   2.128
10360SOL    HW231980   5.312   5.728   1.969
10361SOL     OW31981   2.266   1.047   2.870
10361SOL    HW131982   2.354   1.020   2.832
10361SOL    HW231983   2.276   1.134   2.919
10362SOL     OW31984   0.708   4.792   2.891
10362SOL    HW131985   0.777   4.844   2.842
10362SOL    HW231986   0.619   4.837   2.881
10363SOL     OW31987   5.401   2.458   1.508
10363SOL    HW131988   5.391   2.396   1.431
10363SOL    HW231989   5.350   2.423   1.587
10364SOL     OW31990   4.499   4.101   1.342
10364SOL    HW131991   4.586   4.083   1.298
10364SOL    HW231992   4.427   4.111   1.273
10365SOL     OW31993   5.948   4.000   6.773
10365SOL    HW131994   5.928   3.903   6.757
10365SOL    HW231995   5.894   4.056   6.710
10366SOL     OW31996   3.148   6.469   3.708
10366SOL    HW131997   3.183   6.536   3.774
10366SOL    HW231998   3.175   6.496   3.616
10367SOL     OW31999   7.022   1.747   1.668
10367SOL    HW132000   6.998   1.676   1.735
10367SOL    HW232001   6.945   1.759   1.604
10368SOL     OW32002   1.615   1.571   2.236
10368SOL    HW132003   1.688   1.531   2.292
10368SOL    HW232004   1.565   1.498   2.190
10369SOL     OW32005   2.978   6.748   6.181
10369SOL    HW132006   2.886   6.721   6.154
10369SOL    HW232007   3.005   6.698   6.264
10370SOL     OW32008   6.694   1.278   5.381
10370SOL    HW132009   6.689   1.267   5.282
10370SOL    HW232010   6.736   1.366   5.403
10371SOL     OW32011   2.258   6.604   4.450
10371SOL    HW132012   2.222   6.554   4.528
10371SOL    HW232013   2.353   6.577   4.434
10372SOL     OW32014   2.165   1.241   0.431
10372SOL    HW132015   2.249   1.250   0.485
10372SOL    HW232016   2.178   1.283   0.342
10373SOL     OW32017   0.977   6.689   5.117
10373SOL    HW132018   0.880   6.670   5.132
10373SOL    HW232019   0.990   6.719   5.022
10374SOL     OW32020   3.535   0.409   3.650
10374SOL    HW132021   3.474   0.350   3.597
10374SOL    HW232022   3.628   0.403   3.612
10375SOL     OW32023   2.423   2.481   6.184
10375SOL    HW132024   2.464   2.571   6.172
10375SOL    HW232025   2.415   2.461   6.282
10376SOL     OW32026   1.069   6.121   4.410
10376SOL    HW132027   1.070   6.043   4.473
10376SOL    HW232028   1.035   6.202   4.458
10377SOL     OW32029   0.290   0.958   1.902
10377SOL    HW132030   0.353   0.944   1.978
10377SOL    HW232031   0.323   0.906   1.822
10378SOL     OW32032   5.931   5.977   5.404
10378SOL    HW132033   5.924   6.065   5.452
10378SOL    HW232034   6.001   5.921   5.446
10379SOL     OW32035   3.376   5.849   4.658
10379SOL    HW132036   3.341   5.926   4.604
10379SOL    HW232037   3.416   5.884   4.743
10380SOL     OW32038   1.124   2.902   4.746
10380SOL    HW132039   1.052   2.912   4.815
10380SOL    HW232040   1.198   2.847   4.782
10381SOL     OW32041   4.588   3.986   0.951
10381SOL    HW132042   4.593   3.887   0.953
10381SOL    HW232043   4.661   4.022   0.892
10382SOL     OW32044   2.839   5.223   1.459
10382SOL    HW132045   2.796   5.134   1.442
10382SOL    HW232046   2.921   5.231   1.403
10383SOL     OW32047   1.111   4.309   0.740
10383SOL    HW132048   1.162   4.224   0.757
10383SOL    HW232049   1.014   4.288   0.731
10384SOL     OW32050   6.813   6.655   0.884
10384SOL    HW132051   6.737   6.658   0.820
10384SOL    HW232052   6.858   6.744   0.886
10385SOL     OW32053   3.802   5.913   6.469
10385SOL    HW132054   3.796   5.983   6.398
10385SOL    HW232055   3.740   5.838   6.447
10386SOL     OW32056   0.518   1.228   5.788
10386SOL    HW132057   0.460   1.265   5.861
10386SOL    HW232058   0.519   1.128   5.793
10387SOL     OW32059   4.576   2.590   3.293
10387SOL    HW132060   4.519   2.514   3.264
10387SOL    HW232061   4.590   2.586   3.392
10388SOL     OW32062   1.856   5.996   1.958
10388SOL    HW132063   1.936   5.999   2.018
10388SOL    HW232064   1.874   5.933   1.882
10389SOL     OW32065   6.680   4.728   1.027
10389SOL    HW132066   6.656   4.636   0.995
10389SOL    HW232067   6.769   4.754   0.988
10390SOL     OW32068   2.312   3.751   0.412
10390SOL    HW132069   2.323   3.775   0.316
10390SOL    HW232070   2.363   3.815   0.469
10391SOL     OW32071   7.018   6.185   3.881
10391SOL    HW132072   6.938   6.245   3.891
10391SOL    HW232073   7.010   6.134   3.795
10392SOL     OW32074   6.193   4.499   5.690
10392SOL    HW132075   6.272   4.481   5.748
10392SOL    HW232076   6.158   4.413   5.654
10393SOL     OW32077   2.192   2.817   3.038
10393SOL    HW132078   2.225   2.755   3.110
10393SOL    HW232079   2.127   2.769   2.980
10394SOL     OW32080   2.127   5.442   5.596
10394SOL    HW132081   2.197   5.435   5.667
10394SOL    HW232082   2.085   5.352   5.583
10395SOL     OW32083   0.845   0.889   1.735
10395SOL    HW132084   0.845   0.959   1.664
10395SOL    HW232085   0.939   0.857   1.751
10396SOL     OW32086   3.730   1.242   4.128
10396SOL    HW132087   3.727   1.163   4.188
10396SOL    HW232088   3.705   1.215   4.035
10397SOL     OW32089   3.413   0.986   4.649
10397SOL    HW132090   3.446   0.891   4.647
10397SOL    HW232091   3.446   1.031   4.732
10398SOL     OW32092   6.043   2.068   0.880
10398SOL    HW132093   5.966   2.007   0.861
10398SOL    HW232094   6.063   2.122   0.799
10399SOL     OW32095   4.941   1.656   3.463
10399SOL    HW132096   4.975   1.622   3.376
10399SOL    HW232097   5.005   1.632   3.536
10400SOL     OW32098   4.510   5.735   6.786
10400SOL    HW132099   4.453   5.785   6.721
10400SOL    HW232100   4.466   5.647   6.807
10401SOL     OW32101   0.360   6.286   2.229
10401SOL    HW132102   0.399   6.316   2.142
10401SOL    HW232103   0.264   6.314   2.235
10402SOL     OW32104   0.299   1.513   6.013
10402SOL    HW132105   0.379   1.514   5.953
10402SOL    HW232106   0.216   1.517   5.958
10403SOL     OW32107   4.306   2.390   3.225
10403SOL    HW132108   4.237   2.349   3.166
10403SOL    HW232109   4.396   2.354   3.202
10404SOL     OW32110   6.213   5.910   4.209
10404SOL    HW132111   6.247   5.871   4.295
10404SOL    HW232112   6.249   5.856   4.133
10405SOL     OW32113   1.059   6.167   4.722
10405SOL    HW132114   1.150   6.149   4.759
10405SOL    HW232115   1.055   6.260   4.688
10406SOL     OW32116   1.672   3.302   4.594
10406SOL    HW132117   1.634   3.371   4.531
10406SOL    HW232118   1.703   3.347   4.677
10407SOL     OW32119   2.683   6.894   6.027
10407SOL    HW132120   2.756   6.945   6.074
10407SOL    HW232121   2.677   6.802   6.064
10408SOL     OW32122   4.553   0.041   1.448
10408SOL    HW132123   4.488   0.089   1.390
10408SOL    HW232124   4.643   0.043   1.406
10409SOL     OW32125   6.757   4.656   1.313
10409SOL    HW132126   6.710   4.624   1.231
10409SOL    HW232127   6.846   4.611   1.320
10410SOL     OW32128   4.907   1.855   1.910
10410SOL    HW132129   4.979   1.922   1.891
10410SOL    HW232130   4.819   1.902   1.918
10411SOL     OW32131   2.624   6.394   3.644
10411SOL    HW132132   2.700   6.359   3.699
10411SOL    HW232133   2.648   6.484   3.608
10412SOL     OW32134   0.404   1.423   0.730
10412SOL    HW132135   0.341   1.469   0.668
10412SOL    HW232136   0.409   1.475   0.816
10413SOL     OW32137   6.370   2.776   1.426
10413SOL    HW132138   6.468   2.753   1.419
10413SOL    HW232139   6.350   2.854   1.367
10414SOL     OW32140   3.477   4.941   5.845
10414SOL    HW132141   3.477   4.903   5.937
10414SOL    HW232142   3.434   4.876   5.782
10415SOL     OW32143   1.549   4.160   3.921
10415SOL    HW132144   1.623   4.226   3.935
10415SOL    HW232145   1.564   4.081   3.981
10416SOL     OW32146   6.073   0.047   5.144
10416SOL    HW132147   6.054   0.141   5.172
10416SOL    HW232148   6.143   0.008   5.204
10417SOL     OW32149   3.576   4.952   3.801
10417SOL    HW132150   3.610   5.038   3.839
10417SOL    HW232151   3.652   4.900   3.762
10418SOL     OW32152   6.740   4.406   5.854
10418SOL    HW132153   6.810   4.346   5.893
10418SOL    HW232154   6.784   4.473   5.794
10419SOL     OW32155   3.234   6.708   6.647
10419SOL    HW132156   3.209   6.715   6.551
10419SOL    HW232157   3.313   6.648   6.658
10420SOL     OW32158   0.350   3.485   4.040
10420SOL    HW132159   0.354   3.561   4.105
10420SOL    HW232160   0.431   3.488   3.982
10421SOL     OW32161   1.254   3.092   4.126
10421SOL    HW132162   1.217   3.174   4.169
10421SOL    HW232163   1.252   3.016   4.190
10422SOL     OW32164   6.159   3.135   4.776
10422SOL    HW132165   6.134   3.231   4.764
10422SOL    HW232166   6.077   3.079   4.775
10423SOL     OW32167   5.805   5.066   6.206
10423SOL    HW132168   5.752   5.132   6.153
10423SOL    HW232169   5.746   5.022   6.273
10424SOL     OW32170   4.201   3.164   0.817
10424SOL    HW132171   4.298   3.155   0.839
10424SOL    HW232172   4.176   3.261   0.814
10425SOL     OW32173   1.340   6.462   2.541
10425SOL    HW132174   1.329   6.365   2.559
10425SOL    HW232175   1.362   6.477   2.445
10426SOL     OW32176   5.510   4.640   0.434
10426SOL    HW132177   5.443   4.658   0.362
10426SOL    HW232178   5.486   4.692   0.516
10427SOL     OW32179   4.001   1.037   0.050
10427SOL    HW132180   4.005   1.066   6.981
10427SOL    HW232181   4.027   1.113   0.109
10428SOL     OW32182   3.400   1.011   3.777
10428SOL    HW132183   3.381   0.948   3.852
10428SOL    HW232184   3.340   0.990   3.700
10429SOL     OW32185   6.869   4.127   2.093
10429SOL    HW132186   6.797   4.195   2.100
10429SOL    HW232187   6.938   4.143   2.164
10430SOL     OW32188   5.299   0.083   4.743
10430SOL    HW132189   5.302   0.009   4.810
10430SOL    HW232190   5.378   0.078   4.682
10431SOL     OW32191   2.563   6.013   4.495
10431SOL    HW132192   2.493   5.947   4.523
10431SOL    HW232193   2.563   6.021   4.395
10432SOL     OW32194   6.190   0.423   4.473
10432SOL    HW132195   6.166   0.518   4.452
10432SOL    HW232196   6.177   0.406   4.570
10433SOL     OW32197   1.174   5.906   2.285
10433SOL    HW132198   1.212   5.823   2.243
10433SOL    HW232199   1.081   5.888   2.317
10434SOL     OW32200   3.882   5.888   2.785
10434SOL    HW132201   3.840   5.845   2.705
10434SOL    HW232202   3.946   5.959   2.755
10435SOL     OW32203   0.787   1.440   5.491
10435SOL    HW132204   0.714   1.412   5.428
10435SOL    HW232205   0.841   1.360   5.517
10436SOL     OW32206   6.279   4.848   5.345
10436SOL    HW132207   6.272   4.783   5.270
10436SOL    HW232208   6.210   4.919   5.335
10437SOL     OW32209   4.564   4.124   5.930
10437SOL    HW132210   4.520   4.053   5.875
10437SOL    HW232211   4.615   4.185   5.870
10438SOL     OW32212   6.945   6.354   6.974
10438SOL    HW132213   6.884   6.404   6.913
10438SOL    HW232214   6.924   6.256   6.969
10439SOL     OW32215   4.189   1.821   4.655
10439SOL    HW132216   4.161   1.747   4.595
10439SOL    HW232217   4.173   1.795   4.750
10440SOL     OW32218   0.412   6.595   0.582
10440SOL    HW132219   0.495   6.646   0.606
10440SOL    HW232220   0.332   6.652   0.598
10441SOL     OW32221   4.256   1.385   1.477
10441SOL    HW132222   4.201   1.307   1.449
10441SOL    HW232223   4.216   1.469   1.441
10442SOL     OW32224   4.027   6.561   6.623
10442SOL    HW132225   4.017   6.648   6.672
10442SOL    HW232226   4.112   6.562   6.571
10443SOL     OW32227   4.916   3.376   3.887
10443SOL    HW132228   4.984   3.308   3.857
10443SOL    HW232229   4.878   3.348   3.975
10444SOL     OW32230   4.390   5.883   3.463
10444SOL    HW132231   4.487   5.861   3.465
10444SOL    HW232232   4.368   5.943   3.540
10445SOL     OW32233   0.853   4.414   4.166
10445SOL    HW132234   0.912   4.496   4.161
10445SOL    HW232235   0.812   4.408   4.256
10446SOL     OW32236   2.131   3.114   5.779
10446SOL    HW132237   2.095   3.069   5.697
10446SOL    HW232238   2.077   3.089   5.858
10447SOL     OW32239   0.352   0.971   2.516
10447SOL    HW132240   0.279   0.995   2.451
10447SOL    HW232241   0.346   1.031   2.596
10448SOL     OW32242   4.698   0.596   2.354
10448SOL    HW132243   4.794   0.620   2.366
10448SOL    HW232244   4.671   0.609   2.259
10449SOL     OW32245   1.724   5.369   5.301
10449SOL    HW132246   1.651   5.417   5.253
10449SOL    HW232247   1.765   5.431   5.368
10450SOL     OW32248   0.665   1.308   0.759
10450SOL    HW132249   0.722   1.350   0.829
10450SOL    HW232250   0.576   1.354   0.756
10451SOL     OW32251   2.423   5.492   2.716
10451SOL    HW132252   2.329   5.524   2.704
10451SOL    HW232253   2.483   5.570   2.734
10452SOL     OW32254   6.741   3.311   2.118
10452SOL    HW132255   6.695   3.254   2.050
10452SOL    HW232256   6.692   3.304   2.205
10453SOL     OW32257   4.607   6.729   1.410
10453SOL    HW132258   4.578   6.823   1.395
10453SOL    HW232259   4.612   6.711   1.508
10454SOL     OW32260   5.057   3.456   0.379
10454SOL    HW132261   5.101   3.440   0.290
10454SOL    HW232262   4.968   3.499   0.365
10455SOL     OW32263   6.136   6.294   3.721
10455SOL    HW132264   6.163   6.301   3.817
10455SOL    HW232265   6.216   6.306   3.663
10456SOL     OW32266   1.937   5.664   0.265
10456SOL    HW132267   1.887   5.747   0.288
10456SOL    HW232268   1.895   5.586   0.311
10457SOL     OW32269   3.716   3.181   1.444
10457SOL    HW132270   3.811   3.171   1.414
10457SOL    HW232271   3.698   3.117   1.519
10458SOL     OW32272   6.308   0.666   6.758
10458SOL    HW132273   6.295   0.764   6.738
10458SOL    HW232274   6.354   0.622   6.681
10459SOL     OW32275   4.566   5.995   1.755
10459SOL    HW132276   4.516   5.956   1.832
10459SOL    HW232277   4.656   5.950   1.747
10460SOL     OW32278   0.665   4.251   2.232
10460SOL    HW132279   0.706   4.182   2.172
10460SOL    HW232280   0.727   4.270   2.308
10461SOL     OW32281   6.514   5.018   5.924
10461SOL    HW132282   6.437   5.083   5.926
10461SOL    HW232283   6.480   4.927   5.901
10462SOL     OW32284   5.553   1.378   3.809
10462SOL    HW132285   5.586   1.289   3.842
10462SOL    HW232286   5.454   1.372   3.791
10463SOL     OW32287   4.670   3.198   6.301
10463SOL    HW132288   4.606   3.226   6.229
10463SOL    HW232289   4.653   3.102   6.325
10464SOL     OW32290   6.519   6.791   1.382
10464SOL    HW132291   6.426   6.814   1.350
10464SOL    HW232292   6.523   6.800   1.481
10465SOL     OW32293   6.111   5.720   0.716
10465SOL    HW132294   6.053   5.643   0.689
10465SOL    HW232295   6.144   5.767   0.634
10466SOL     OW32296   4.632   5.108   5.816
10466SOL    HW132297   4.591   5.017   5.818
10466SOL    HW232298   4.580   5.167   5.754
10467SOL     OW32299   3.056   0.890   0.034
10467SOL    HW132300   3.070   0.821   6.988
10467SOL    HW232301   3.109   0.972   0.012
10468SOL     OW32302   3.863   5.249   3.356
10468SOL    HW132303   3.893   5.153   3.358
10468SOL    HW232304   3.767   5.253   3.329
10469SOL     OW32305   4.123   4.293   5.634
10469SOL    HW132306   4.048   4.252   5.686
10469SOL    HW232307   4.088   4.322   5.544
10470SOL     OW32308   2.321   2.761   3.597
10470SOL    HW132309   2.414   2.744   3.628
10470SOL    HW232310   2.257   2.740   3.670
10471SOL     OW32311   2.802   1.423   0.797
10471SOL    HW132312   2.856   1.479   0.734
10471SOL    HW232313   2.753   1.483   0.860
10472SOL     OW32314   4.093   5.565   0.529
10472SOL    HW132315   4.160   5.498   0.560
10472SOL    HW232316   4.001   5.526   0.537
10473SOL     OW32317   6.818   0.149   6.705
10473SOL    HW132318   6.787   0.086   6.776
10473SOL    HW232319   6.742   0.173   6.646
10474SOL     OW32320   3.458   2.100   4.591
10474SOL    HW132321   3.396   2.104   4.669
10474SOL    HW232322   3.411   2.061   4.513
10475SOL     OW32323   4.885   6.614   1.377
10475SOL    HW132324   4.893   6.542   1.446
10475SOL    HW232325   4.827   6.688   1.412
10476SOL     OW32326   6.930   6.082   7.012
10476SOL    HW132327   7.001   6.015   0.009
10476SOL    HW232328   6.889   6.118   0.069
10477SOL     OW32329   0.356   1.599   4.910
10477SOL    HW132330   0.268   1.557   4.928
10477SOL    HW232331   0.425   1.528   4.895
10478SOL     OW32332   0.040   0.596   1.264
10478SOL    HW132333   0.014   0.524   1.199
10478SOL    HW232334   0.095   0.664   1.217
10479SOL     OW32335   0.051   2.049   2.594
10479SOL    HW132336   0.060   2.143   2.561
10479SOL    HW232337   6.985   2.035   2.629
10480SOL     OW32338   6.256   0.159   2.129
10480SOL    HW132339   6.261   0.097   2.207
10480SOL    HW232340   6.288   0.250   2.157
10481SOL     OW32341   2.698   6.937   4.449
10481SOL    HW132342   2.727   6.966   4.540
10481SOL    HW232343   2.762   6.974   4.381
10482SOL     OW32344   6.208   4.989   4.555
10482SOL    HW132345   6.164   4.998   4.466
10482SOL    HW232346   6.208   5.078   4.602
10483SOL     OW32347   6.716   4.756   0.115
10483SOL    HW132348   6.721   4.701   0.198
10483SOL    HW232349   6.626   4.743   0.072
10484SOL     OW32350   5.634   1.234   2.180
10484SOL    HW132351   5.597   1.214   2.089
10484SOL    HW232352   5.656   1.332   2.186
10485SOL     OW32353   3.097   3.622   1.030
10485SOL    HW132354   3.055   3.701   0.985
10485SOL    HW232355   3.196   3.634   1.033
10486SOL     OW32356   6.743   0.963   0.073
10486SOL    HW132357   6.765   0.925   7.009
10486SOL    HW232358   6.721   1.060   0.063
10487SOL     OW32359   4.686   1.901   2.262
10487SOL    HW132360   4.672   1.834   2.189
10487SOL    HW232361   4.626   1.980   2.246
10488SOL     OW32362   3.013   2.103   5.763
10488SOL    HW132363   2.963   2.184   5.793
10488SOL    HW232364   3.024   2.040   5.840
10489SOL     OW32365   0.308   0.399   4.613
10489SOL    HW132366   0.281   0.494   4.601
10489SOL    HW232367   0.342   0.363   4.526
10490SOL     OW32368   5.802   1.931   0.881
10490SOL    HW132369   5.759   1.981   0.956
10490SOL    HW232370   5.759   1.955   0.795
10491SOL     OW32371   2.356   2.038   5.809
10491SOL    HW132372   2.354   2.038   5.909
10491SOL    HW232373   2.308   2.119   5.775
10492SOL     OW32374   5.506   5.631   0.856
10492SOL    HW132375   5.459   5.562   0.911
10492SOL    HW232376   5.529   5.592   0.767
10493SOL     OW32377   3.215   6.928   2.041
10493SOL    HW132378   3.218   6.836   2.000
10493SOL    HW232379   3.203   6.996   1.969
10494SOL     OW32380   5.702   4.530   5.823
10494SOL    HW132381   5.785   4.575   5.792
10494SOL    HW232382   5.704   4.434   5.796
10495SOL     OW32383   0.886   6.251   0.999
10495SOL    HW132384   0.832   6.287   0.923
10495SOL    HW232385   0.953   6.185   0.963
10496SOL     OW32386   5.972   3.439   6.114
10496SOL    HW132387   6.051   3.458   6.171
10496SOL    HW232388   5.898   3.401   6.170
10497SOL     OW32389   2.179   6.895   1.912
10497SOL    HW132390   2.144   6.889   2.005
10497SOL    HW232391   2.163   6.808   1.865
10498SOL     OW32392   4.762   5.413   0.444
10498SOL    HW132393   4.723   5.359   0.519
10498SOL    HW232394   4.688   5.448   0.386
10499SOL     OW32395   4.699   0.067   2.273
10499SOL    HW132396   4.641   0.114   2.340
10499SOL    HW232397   4.673   6.997   2.268
10500SOL     OW32398   5.994   1.528   5.952
10500SOL    HW132399   6.037   1.619   5.947
10500SOL    HW232400   6.019   1.485   6.039
10501SOL     OW32401   1.981   5.344   2.381
10501SOL    HW132402   2.037   5.386   2.309
10501SOL    HW232403   1.885   5.362   2.363
10502SOL     OW32404   2.610   2.110   1.929
10502SOL    HW132405   2.653   2.142   2.013
10502SOL    HW232406   2.590   2.188   1.870
10503SOL     OW32407   5.067   2.885   1.212
10503SOL    HW132408   5.095   2.799   1.170
10503SOL    HW232409   5.005   2.867   1.288
10504SOL     OW32410   1.342   2.540   5.793
10504SOL    HW132411   1.319   2.576   5.703
10504SOL    HW232412   1.316   2.606   5.864
10505SOL     OW32413   5.450   5.091   0.994
10505SOL    HW132414   5.507   5.173   0.990
10505SOL    HW232415   5.420   5.076   1.088
10506SOL     OW32416   0.340   3.468   0.040
10506SOL    HW132417   0.371   3.563   0.039
10506SOL    HW232418   0.345   3.432   0.133
10507SOL     OW32419   1.521   6.488   0.920
10507SOL    HW132420   1.590   6.418   0.942
10507SOL    HW232421   1.566   6.574   0.897
10508SOL     OW32422   6.676   5.688   4.635
10508SOL    HW132423   6.771   5.674   4.606
10508SOL    HW232424   6.676   5.732   4.726
10509SOL     OW32425   6.911   5.617   5.725
10509SOL    HW132426   6.913   5.613   5.625
10509SOL    HW232427   6.832   5.672   5.754
10510SOL     OW32428   4.787   6.160   6.813
10510SOL    HW132429   4.768   6.181   6.717
10510SOL    HW232430   4.755   6.235   6.870
10511SOL     OW32431   2.673   1.125   1.938
10511SOL    HW132432   2.680   1.225   1.949
10511SOL    HW232433   2.596   1.104   1.878
10512SOL     OW32434   4.592   0.665   5.448
10512SOL    HW132435   4.557   0.674   5.541
10512SOL    HW232436   4.692   0.663   5.450
10513SOL     OW32437   6.313   2.683   3.697
10513SOL    HW132438   6.343   2.591   3.672
10513SOL    HW232439   6.229   2.677   3.751
10514SOL     OW32440   0.743   3.254   1.240
10514SOL    HW132441   0.704   3.185   1.302
10514SOL    HW232442   0.670   3.316   1.210
10515SOL     OW32443   0.901   3.342   4.037
10515SOL    HW132444   0.841   3.390   4.101
10515SOL    HW232445   0.986   3.318   4.083
10516SOL     OW32446   3.646   1.933   0.474
10516SOL    HW132447   3.664   1.854   0.415
10516SOL    HW232448   3.723   1.947   0.536
10517SOL     OW32449   0.776   3.009   1.089
10517SOL    HW132450   0.772   3.105   1.117
10517SOL    HW232451   0.709   2.956   1.141
10518SOL     OW32452   6.683   5.892   0.737
10518SOL    HW132453   6.739   5.868   0.658
10518SOL    HW232454   6.689   5.991   0.753
10519SOL     OW32455   3.121   3.411   0.832
10519SOL    HW132456   3.116   3.497   0.883
10519SOL    HW232457   3.045   3.352   0.859
10520SOL     OW32458   0.791   2.376   6.148
10520SOL    HW132459   0.854   2.404   6.076
10520SOL    HW232460   0.842   2.328   6.220
10521SOL     OW32461   6.533   5.635   1.432
10521SOL    HW132462   6.613   5.659   1.377
10521SOL    HW232463   6.498   5.546   1.403
10522SOL     OW32464   0.565   0.921   4.388
10522SOL    HW132465   0.574   0.997   4.452
10522SOL    HW232466   0.656   0.885   4.367
10523SOL     OW32467   0.657   4.507   2.810
10523SOL    HW132468   0.655   4.594   2.861
10523SOL    HW232469   0.740   4.457   2.833
10524SOL     OW32470   0.630   6.401   3.782
10524SOL    HW132471   0.589   6.361   3.864
10524SOL    HW232472   0.601   6.497   3.774
10525SOL     OW32473   4.231   0.440   5.617
10525SOL    HW132474   4.168   0.363   5.612
10525SOL    HW232475   4.309   0.425   5.555
10526SOL     OW32476   1.234   6.324   2.966
10526SOL    HW132477   1.333   6.321   2.951
10526SOL    HW232478   1.201   6.416   2.950
10527SOL     OW32479   1.162   1.013   5.482
10527SOL    HW132480   1.189   0.925   5.521
10527SOL    HW232481   1.064   1.027   5.495
10528SOL     OW32482   1.482   3.415   5.959
10528SOL    HW132483   1.393   3.391   5.998
10528SOL    HW232484   1.470   3.441   5.863
10529SOL     OW32485   3.017   6.499   4.112
10529SOL    HW132486   2.965   6.584   4.121
10529SOL    HW232487   3.057   6.475   4.200
10530SOL     OW32488   1.261   0.518   6.595
10530SOL    HW132489   1.189   0.517   6.525
10530SOL    HW232490   1.244   0.594   6.659
10531SOL     OW32491   1.683   2.599   4.173
10531SOL    HW132492   1.607   2.534   4.169
10531SOL    HW232493   1.695   2.642   4.084
10532SOL     OW32494   0.953   7.012   6.134
10532SOL    HW132495   0.901   0.042   6.199
10532SOL    HW232496   0.975   0.040   6.053
10533SOL     OW32497   2.935   6.724   3.196
10533SOL    HW132498   3.027   6.759   3.216
10533SOL    HW232499   2.920   6.639   3.246
10534SOL     OW32500   6.376   5.475   2.257
10534SOL    HW132501   6.381   5.438   2.164
10534SOL    HW232502   6.285   5.513   2.272
10535SOL     OW32503   1.595   2.104   2.129
10535SOL    HW132504   1.603   2.005   2.136
10535SOL    HW232505   1.605   2.145   2.220
10536SOL     OW32506   4.316   0.549   4.264
10536SOL    HW132507   4.257   0.477   4.226
10536SOL    HW232508   4.307   0.550   4.363
10537SOL     OW32509   4.277   6.036   4.542
10537SOL    HW132510   4.224   6.104   4.490
10537SOL    HW232511   4.302   6.074   4.631
10538SOL     OW32512   6.470   3.368   1.041
10538SOL    HW132513   6.464   3.441   0.974
10538SOL    HW232514   6.516   3.289   1.001
10539SOL     OW32515   0.643   4.818   0.302
10539SOL    HW132516   0.584   4.805   0.222
10539SOL    HW232517   0.655   4.916   0.318
10540SOL     OW32518   1.583   3.220   5.626
10540SOL    HW132519   1.598   3.153   5.553
10540SOL    HW232520   1.671   3.256   5.656
10541SOL     OW32521   3.528   3.948   1.980
10541SOL    HW132522   3.518   3.986   2.072
10541SOL    HW232523   3.511   3.849   1.983
10542SOL     OW32524   0.424   0.939   5.704
10542SOL    HW132525   0.327   0.924   5.726
10542SOL    HW232526   0.433   0.958   5.606
10543SOL     OW32527   0.361   1.797   4.700
10543SOL    HW132528   0.383   1.893   4.716
10543SOL    HW232529   0.374   1.745   4.784
10544SOL     OW32530   2.891   6.964   1.760
10544SOL    HW132531   2.886   7.017   1.845
10544SOL    HW232532   2.798   6.943   1.728
10545SOL     OW32533   0.494   2.065   1.158
10545SOL    HW132534   0.527   1.982   1.113
10545SOL    HW232535   0.394   2.067   1.154
10546SOL     OW32536   1.414   0.006   0.751
10546SOL    HW132537   1.395   6.961   0.818
10546SOL    HW232538   1.499   0.054   0.775
10547SOL     OW32539   5.319   2.933   3.317
10547SOL    HW132540   5.222   2.910   3.318
10547SOL    HW232541   5.361   2.899   3.233
10548SOL     OW32542   5.760   4.648   4.546
10548SOL    HW132543   5.751   4.550   4.528
10548SOL    HW232544   5.847   4.666   4.593
10549SOL     OW32545   0.762   0.484   1.861
10549SOL    HW132546   0.825   0.539   1.916
10549SOL    HW232547   0.688   0.541   1.826
10550SOL     OW32548   5.167   6.651   3.758
10550SOL    HW132549   5.186   6.737   3.807
10550SOL    HW232550   5.102   6.669   3.684
10551SOL     OW32551   1.611   2.544   6.992
10551SOL    HW132552   1.585   2.503   6.904
10551SOL    HW232553   1.638   2.640   6.977
10552SOL     OW32554   2.372   1.224   5.695
10552SOL    HW132555   2.289   1.227   5.640
10552SOL    HW232556   2.367   1.293   5.767
10553SOL     OW32557   0.709   4.518   1.076
10553SOL    HW132558   0.744   4.611   1.093
10553SOL    HW232559   0.664   4.515   0.987
10554SOL     OW32560   4.979   4.638   0.817
10554SOL    HW132561   5.065   4.679   0.846
10554SOL    HW232562   4.982   4.619   0.718
10555SOL     OW32563   2.278   2.049   0.653
10555SOL    HW132564   2.210   1.998   0.599
10555SOL    HW232565   2.260   2.035   0.750
10556SOL     OW32566   1.551   1.471   4.397
10556SOL    HW132567   1.597   1.445   4.482
10556SOL    HW232568   1.545   1.570   4.391
10557SOL     OW32569   1.814   3.133   2.772
10557SOL    HW132570   1.806   3.124   2.872
10557SOL    HW232571   1.814   3.043   2.730
10558SOL     OW32572   4.245   6.678   4.925
10558SOL    HW132573   4.304   6.603   4.954
10558SOL    HW232574   4.215   6.729   5.006
10559SOL     OW32575   4.850   0.858   1.837
10559SOL    HW132576   4.885   0.766   1.821
10559SOL    HW232577   4.895   0.922   1.774
10560SOL     OW32578   5.015   6.405   2.230
10560SOL    HW132579   5.098   6.355   2.207
10560SOL    HW232580   4.942   6.378   2.167
10561SOL     OW32581   3.704   4.368   1.725
10561SOL    HW132582   3.671   4.309   1.798
10561SOL    HW232583   3.665   4.460   1.737
10562SOL     OW32584   3.926   5.206   0.304
10562SOL    HW132585   3.858   5.253   0.360
10562SOL    HW232586   3.943   5.115   0.340
10563SOL     OW32587   0.176   1.320   3.007
10563SOL    HW132588   0.218   1.401   3.046
10563SOL    HW232589   0.213   1.302   2.916
10564SOL     OW32590   5.758   5.600   2.957
10564SOL    HW132591   5.848   5.623   2.920
10564SOL    HW232592   5.732   5.669   3.025
10565SOL     OW32593   0.579   6.866   5.951
10565SOL    HW132594   0.584   6.784   5.893
10565SOL    HW232595   0.550   6.839   6.043
10566SOL     OW32596   3.650   1.717   6.633
10566SOL    HW132597   3.739   1.759   6.618
10566SOL    HW232598   3.659   1.617   6.628
10567SOL     OW32599   2.339   2.431   5.066
10567SOL    HW132600   2.257   2.479   5.034
10567SOL    HW232601   2.420   2.476   5.029
10568SOL     OW32602   6.648   2.971   1.286
10568SOL    HW132603   6.634   2.914   1.366
10568SOL    HW232604   6.563   2.977   1.234
10569SOL     OW32605   5.258   1.080   2.295
10569SOL    HW132606   5.204   1.017   2.352
10569SOL    HW232607   5.306   1.028   2.225
10570SOL     OW32608   1.440   4.408   3.211
10570SOL    HW132609   1.478   4.316   3.218
10570SOL    HW232610   1.450   4.455   3.299
10571SOL     OW32611   0.058   4.341   5.085
10571SOL    HW132612   0.088   4.367   4.993
10571SOL    HW232613   0.016   4.420   5.129
10572SOL     OW32614   6.698   4.366   2.828
10572SOL    HW132615   6.659   4.275   2.810
10572SOL    HW232616   6.760   4.391   2.754
10573SOL     OW32617   5.745   0.344   4.989
10573SOL    HW132618   5.822   0.407   4.975
10573SOL    HW232619   5.659   0.392   4.971
10574SOL     OW32620   0.727   1.697   4.149
10574SOL    HW132621   0.693   1.672   4.239
10574SOL    HW232622   0.767   1.617   4.105
10575SOL     OW32623   0.042   1.218   3.624
10575SOL    HW132624   7.015   1.295   3.589
10575SOL    HW232625   0.105   1.187   3.554
10576SOL     OW32626   0.219   5.582   4.923
10576SOL    HW132627   0.160   5.638   4.981
10576SOL    HW232628   0.199   5.600   4.827
10577SOL     OW32629   2.149   4.641   0.191
10577SOL    HW132630   2.069   4.634   0.131
10577SOL    HW232631   2.119   4.634   0.286
10578SOL     OW32632   4.896   1.438   2.786
10578SOL    HW132633   4.962   1.512   2.769
10578SOL    HW232634   4.838   1.426   2.706
10579SOL     OW32635   4.470   2.957   1.641
10579SOL    HW132636   4.528   2.922   1.568
10579SOL    HW232637   4.524   2.964   1.725
10580SOL     OW32638   6.592   0.723   6.594
10580SOL    HW132639   6.633   0.683   6.677
10580SOL    HW232640   6.659   0.721   6.520
10581SOL     OW32641   5.845   6.994   3.169
10581SOL    HW132642   5.779   7.015   3.241
10581SOL    HW232643   5.934   0.005   3.194
10582SOL     OW32644   4.606   4.267   5.579
10582SOL    HW132645   4.688   4.285   5.525
10582SOL    HW232646   4.620   4.296   5.673
10583SOL     OW32647   3.412   1.212   4.049
10583SOL    HW132648   3.481   1.173   3.988
10583SOL    HW232649   3.457   1.263   4.122
10584SOL     OW32650   6.906   0.530   0.234
10584SOL    HW132651   6.834   0.592   0.206
10584SOL    HW232652   6.875   0.435   0.224
10585SOL     OW32653   2.680   2.166   5.469
10585SOL    HW132654   2.630   2.165   5.382
10585SOL    HW232655   2.778   2.155   5.450
10586SOL     OW32656   5.957   4.869   5.448
10586SOL    HW132657   5.956   4.773   5.476
10586SOL    HW232658   5.936   4.927   5.526
10587SOL     OW32659   6.291   4.966   0.011
10587SOL    HW132660   6.272   5.050   6.986
10587SOL    HW232661   6.257   4.976   0.105
10588SOL     OW32662   1.634   2.643   4.748
10588SOL    HW132663   1.630   2.601   4.658
10588SOL    HW232664   1.683   2.583   4.811
10589SOL     OW32665   6.271   0.924   4.547
10589SOL    HW132666   6.301   1.015   4.575
10589SOL    HW232667   6.192   0.931   4.486
10590SOL     OW32668   0.245   0.670   1.078
10590SOL    HW132669   0.320   0.604   1.082
10590SOL    HW232670   0.262   0.744   1.143
10591SOL     OW32671   1.495   2.192   0.303
10591SOL    HW132672   1.512   2.249   0.223
10591SOL    HW232673   1.574   2.133   0.320
10592SOL     OW32674   6.012   3.615   2.917
10592SOL    HW132675   6.018   3.516   2.921
10592SOL    HW232676   5.942   3.646   2.982
10593SOL     OW32677   2.358   5.722   0.302
10593SOL    HW132678   2.329   5.812   0.270
10593SOL    HW232679   2.457   5.717   0.302
10594SOL     OW32680   5.110   1.225   3.384
10594SOL    HW132681   5.010   1.226   3.372
10594SOL    HW232682   5.153   1.269   3.305
10595SOL     OW32683   5.224   6.926   0.012
10595SOL    HW132684   5.153   6.856   0.008
10595SOL    HW232685   5.214   6.988   6.960
10596SOL     OW32686   4.606   1.481   0.377
10596SOL    HW132687   4.535   1.509   0.441
10596SOL    HW232688   4.642   1.392   0.404
10597SOL     OW32689   3.137   1.499   5.764
10597SOL    HW132690   3.144   1.492   5.864
10597SOL    HW232691   3.045   1.529   5.739
10598SOL     OW32692   3.151   2.535   6.955
10598SOL    HW132693   3.079   2.572   7.015
10598SOL    HW232694   3.190   2.453   6.997
10599SOL     OW32695   5.440   3.640   6.287
10599SOL    HW132696   5.349   3.678   6.275
10599SOL    HW232697   5.463   3.637   6.385
10600SOL     OW32698   3.437   2.701   0.703
10600SOL    HW132699   3.337   2.709   0.706
10600SOL    HW232700   3.478   2.773   0.759
10601SOL     OW32701   1.227   5.088   5.093
10601SOL    HW132702   1.184   5.172   5.060
10601SOL    HW232703   1.317   5.077   5.050
10602SOL     OW32704   2.176   0.731   2.164
10602SOL    HW132705   2.196   0.809   2.224
10602SOL    HW232706   2.118   0.761   2.088
10603SOL     OW32707   3.713   0.353   3.420
10603SOL    HW132708   3.754   0.444   3.425
10603SOL    HW232709   3.782   0.287   3.390
10604SOL     OW32710   6.521   5.794   5.515
10604SOL    HW132711   6.478   5.704   5.520
10604SOL    HW232712   6.451   5.864   5.502
10605SOL     OW32713   2.322   6.768   6.791
10605SOL    HW132714   2.280   6.840   6.736
10605SOL    HW232715   2.418   6.758   6.765
10606SOL     OW32716   0.475   0.247   1.612
10606SOL    HW132717   0.397   0.277   1.557
10606SOL    HW232718   0.444   0.228   1.705
10607SOL     OW32719   3.990   5.246   5.999
10607SOL    HW132720   4.041   5.238   5.914
10607SOL    HW232721   4.023   5.325   6.051
10608SOL     OW32722   6.308   3.126   5.010
10608SOL    HW132723   6.265   3.165   4.929
10608SOL    HW232724   6.244   3.062   5.054
10609SOL     OW32725   2.750   6.541   0.026
10609SOL    HW132726   2.837   6.538   0.076
10609SOL    HW232727   2.707   6.451   0.029
10610SOL     OW32728   0.802   2.003   3.734
10610SOL    HW132729   0.747   2.060   3.672
10610SOL    HW232730   0.899   2.020   3.717
10611SOL     OW32731   2.163   4.247   6.569
10611SOL    HW132732   2.065   4.230   6.579
10611SOL    HW232733   2.178   4.312   6.494
10612SOL     OW32734   3.308   2.129   4.808
10612SOL    HW132735   3.224   2.083   4.777
10612SOL    HW232736   3.291   2.172   4.897
10613SOL     OW32737   5.497   6.092   5.463
10613SOL    HW132738   5.450   6.100   5.375
10613SOL    HW232739   5.573   6.027   5.455
10614SOL     OW32740   5.220   1.878   5.048
10614SOL    HW132741   5.139   1.920   5.088
10614SOL    HW232742   5.243   1.925   4.963
10615SOL     OW32743   4.548   0.507   5.231
10615SOL    HW132744   4.571   0.555   5.316
10615SOL    HW232745   4.538   0.409   5.250
10616SOL     OW32746   1.887   0.168   0.547
10616SOL    HW132747   1.932   0.215   0.472
10616SOL    HW232748   1.925   0.076   0.557
10617SOL     OW32749   3.103   4.162   1.203
10617SOL    HW132750   3.157   4.222   1.263
10617SOL    HW232751   3.122   4.067   1.224
10618SOL     OW32752   1.234   3.745   6.043
10618SOL    HW132753   1.234   3.672   5.975
10618SOL    HW232754   1.186   3.825   6.007
10619SOL     OW32755   0.499   2.919   2.706
10619SOL    HW132756   0.574   2.984   2.697
10619SOL    HW232757   0.422   2.962   2.753
10620SOL     OW32758   1.234   6.636   5.217
10620SOL    HW132759   1.286   6.722   5.208
10620SOL    HW232760   1.139   6.652   5.193
10621SOL     OW32761   0.558   5.041   1.676
10621SOL    HW132762   0.468   5.013   1.710
10621SOL    HW232763   0.602   4.964   1.632
10622SOL     OW32764   4.909   2.080   2.144
10622SOL    HW132765   4.971   2.114   2.215
10622SOL    HW232766   4.876   1.989   2.170
10623SOL     OW32767   0.650   5.002   5.496
10623SOL    HW132768   0.674   4.914   5.454
10623SOL    HW232769   0.593   5.054   5.433
10624SOL     OW32770   1.131   2.312   4.546
10624SOL    HW132771   1.048   2.321   4.600
10624SOL    HW232772   1.135   2.386   4.479
10625SOL     OW32773   0.293   4.638   0.997
10625SOL    HW132774   0.386   4.607   0.979
10625SOL    HW232775   0.288   4.738   0.990
10626SOL     OW32776   2.407   2.985   0.424
10626SOL    HW132777   2.432   2.996   0.520
10626SOL    HW232778   2.482   3.018   0.366
10627SOL     OW32779   4.934   0.388   6.862
10627SOL    HW132780   5.001   0.454   6.895
10627SOL    HW232781   4.842   0.422   6.879
10628SOL     OW32782   4.779   6.051   0.590
10628SOL    HW132783   4.714   6.000   0.533
10628SOL    HW232784   4.872   6.034   0.558
10629SOL     OW32785   2.600   5.042   4.850
10629SOL    HW132786   2.583   4.983   4.772
10629SOL    HW232787   2.603   4.987   4.934
10630SOL     OW32788   6.384   1.286   3.598
10630SOL    HW132789   6.395   1.232   3.514
10630SOL    HW232790   6.302   1.256   3.646
10631SOL     OW32791   3.582   5.110   5.142
10631SOL    HW132792   3.525   5.168   5.201
10631SOL    HW232793   3.524   5.057   5.081
10632SOL     OW32794   5.311   0.136   3.940
10632SOL    HW132795   5.385   0.097   3.995
10632SOL    HW232796   5.248   0.186   4.000
10633SOL     OW32797   2.359   2.840   0.707
10633SOL    HW132798   2.450   2.830   0.666
10633SOL    HW232799   2.301   2.765   0.678
10634SOL     OW32800   3.232   4.215   0.309
10634SOL    HW132801   3.184   4.128   0.319
10634SOL    HW232802   3.268   4.223   0.216
10635SOL     OW32803   2.016   3.578   6.839
10635SOL    HW132804   1.964   3.636   6.902
10635SOL    HW232805   2.072   3.636   6.780
10636SOL     OW32806   0.236   1.980   0.838
10636SOL    HW132807   0.211   1.910   0.904
10636SOL    HW232808   0.200   2.068   0.867
10637SOL     OW32809   1.663   4.416   6.079
10637SOL    HW132810   1.753   4.372   6.078
10637SOL    HW232811   1.592   4.347   6.096
10638SOL     OW32812   5.804   5.491   2.493
10638SOL    HW132813   5.772   5.425   2.562
10638SOL    HW232814   5.794   5.452   2.402
10639SOL     OW32815   0.822   3.909   3.052
10639SOL    HW132816   0.899   3.880   2.994
10639SOL    HW232817   0.856   3.964   3.127
10640SOL     OW32818   4.576   6.769   4.744
10640SOL    HW132819   4.531   6.714   4.673
10640SOL    HW232820   4.517   6.773   4.825
10641SOL     OW32821   2.163   1.922   2.149
10641SOL    HW132822   2.241   1.965   2.195
10641SOL    HW232823   2.106   1.876   2.217
10642SOL     OW32824   6.571   2.546   1.515
10642SOL    HW132825   6.580   2.457   1.561
10642SOL    HW232826   6.523   2.533   1.428
10643SOL     OW32827   1.304   5.417   4.473
10643SOL    HW132828   1.221   5.368   4.447
10643SOL    HW232829   1.287   5.515   4.472
10644SOL     OW32830   5.714   2.826   2.605
10644SOL    HW132831   5.630   2.865   2.642
10644SOL    HW232832   5.693   2.740   2.559
10645SOL     OW32833   2.056   2.808   4.530
10645SOL    HW132834   1.989   2.849   4.592
10645SOL    HW232835   2.148   2.821   4.567
10646SOL     OW32836   0.506   0.355   0.035
10646SOL    HW132837   0.567   0.283   7.026
10646SOL    HW232838   0.557   0.412   0.100
10647SOL     OW32839   3.078   5.509   4.786
10647SOL    HW132840   3.014   5.462   4.725
10647SOL    HW232841   3.086   5.605   4.760
10648SOL     OW32842   5.985   3.869   6.429
10648SOL    HW132843   5.923   3.832   6.498
10648SOL    HW232844   6.080   3.858   6.460
10649SOL     OW32845   0.085   4.531   2.423
10649SOL    HW132846   0.151   4.602   2.400
10649SOL    HW232847   0.059   4.539   2.519
10650SOL     OW32848   0.914   0.632   3.785
10650SOL    HW132849   0.871   0.711   3.829
10650SOL    HW232850   0.956   0.575   3.855
10651SOL     OW32851   5.240   6.640   0.284
10651SOL    HW132852   5.214   6.732   0.253
10651SOL    HW232853   5.292   6.595   0.212
10652SOL     OW32854   3.631   6.765   5.550
10652SOL    HW132855   3.688   6.735   5.474
10652SOL    HW232856   3.552   6.705   5.558
10653SOL     OW32857   4.009   5.412   3.522
10653SOL    HW132858   3.964   5.414   3.612
10653SOL    HW232859   3.951   5.363   3.457
10654SOL     OW32860   5.412   0.967   1.239
10654SOL    HW132861   5.325   1.015   1.231
10654SOL    HW232862   5.399   0.870   1.216
10655SOL     OW32863   2.509   5.669   0.567
10655SOL    HW132864   2.586   5.720   0.605
10655SOL    HW232865   2.437   5.734   0.539
10656SOL     OW32866   0.008   1.965   2.879
10656SOL    HW132867   6.952   2.018   2.901
10656SOL    HW232868   7.011   1.895   2.811
10657SOL     OW32869   5.884   0.832   5.646
10657SOL    HW132870   5.926   0.823   5.737
10657SOL    HW232871   5.803   0.773   5.641
10658SOL     OW32872   6.594   4.919   5.079
10658SOL    HW132873   6.564   4.972   5.158
10658SOL    HW232874   6.669   4.860   5.105
10659SOL     OW32875   0.450   5.509   1.104
10659SOL    HW132876   0.486   5.422   1.072
10659SOL    HW232877   0.483   5.527   1.196
10660SOL     OW32878   5.054   3.860   6.340
10660SOL    HW132879   5.082   3.778   6.289
10660SOL    HW232880   5.034   3.934   6.276
10661SOL     OW32881   1.026   6.668   1.626
10661SOL    HW132882   1.033   6.682   1.725
10661SOL    HW232883   1.099   6.606   1.597
10662SOL     OW32884   5.659   6.631   3.176
10662SOL    HW132885   5.638   6.541   3.137
10662SOL    HW232886   5.579   6.690   3.170
10663SOL     OW32887   0.747   2.117   2.650
10663SOL    HW132888   0.676   2.106   2.581
10663SOL    HW232889   0.743   2.210   2.687
10664SOL     OW32890   6.289   4.295   4.827
10664SOL    HW132891   6.198   4.296   4.785
10664SOL    HW232892   6.341   4.374   4.794
10665SOL     OW32893   0.886   1.981   0.868
10665SOL    HW132894   0.834   1.972   0.783
10665SOL    HW232895   0.942   2.063   0.864
10666SOL     OW32896   3.479   4.087   1.659
10666SOL    HW132897   3.540   4.044   1.592
10666SOL    HW232898   3.450   4.177   1.625
10667SOL     OW32899   4.615   3.074   5.668
10667SOL    HW132900   4.655   2.995   5.623
10667SOL    HW232901   4.566   3.044   5.750
10668SOL     OW32902   2.638   0.541   5.125
10668SOL    HW132903   2.543   0.530   5.156
10668SOL    HW232904   2.639   0.592   5.039
10669SOL     OW32905   5.383   6.971   1.320
10669SOL    HW132906   5.291   6.934   1.329
10669SOL    HW232907   5.423   6.941   1.234
10670SOL     OW32908   5.261   4.100   5.134
10670SOL    HW132909   5.246   4.039   5.056
10670SOL    HW232910   5.272   4.045   5.217
10671SOL     OW32911   2.458   2.401   3.137
10671SOL    HW132912   2.425   2.306   3.143
10671SOL    HW232913   2.482   2.422   3.042
10672SOL     OW32914   6.569   3.131   0.960
10672SOL    HW132915   6.542   3.066   1.032
10672SOL    HW232916   6.663   3.113   0.932
10673SOL     OW32917   1.217   0.909   6.540
10673SOL    HW132918   1.201   0.895   6.638
10673SOL    HW232919   1.158   0.982   6.506
10674SOL     OW32920   3.591   4.084   2.210
10674SOL    HW132921   3.684   4.083   2.174
10674SOL    HW232922   3.586   4.145   2.289
10675SOL     OW32923   1.847   0.185   6.638
10675SOL    HW132924   1.916   0.250   6.668
10675SOL    HW232925   1.798   0.222   6.559
10676SOL     OW32926   6.564   6.181   6.131
10676SOL    HW132927   6.532   6.153   6.041
10676SOL    HW232928   6.539   6.276   6.147
10677SOL     OW32929   1.364   0.133   2.359
10677SOL    HW132930   1.438   0.110   2.296
10677SOL    HW232931   1.400   0.141   2.451
10678SOL     OW32932   4.025   5.644   4.536
10678SOL    HW132933   3.959   5.711   4.567
10678SOL    HW232934   4.118   5.677   4.555
10679SOL     OW32935   4.554   5.549   6.159
10679SOL    HW132936   4.640   5.510   6.192
10679SOL    HW232937   4.573   5.633   6.108
10680SOL     OW32938   3.072   1.571   3.388
10680SOL    HW132939   3.075   1.638   3.314
10680SOL    HW232940   3.126   1.491   3.363
10681SOL     OW32941   0.575   3.556   0.704
10681SOL    HW132942   0.630   3.579   0.784
10681SOL    HW232943   0.569   3.457   0.694
10682SOL     OW32944   1.457   1.256   4.989
10682SOL    HW132945   1.407   1.263   5.076
10682SOL    HW232946   1.410   1.194   4.928
10683SOL     OW32947   3.729   1.860   3.678
10683SOL    HW132948   3.769   1.844   3.769
10683SOL    HW232949   3.661   1.933   3.685
10684SOL     OW32950   5.552   4.200   1.434
10684SOL    HW132951   5.642   4.228   1.467
10684SOL    HW232952   5.525   4.115   1.480
10685SOL     OW32953   0.613   5.491   2.426
10685SOL    HW132954   0.610   5.391   2.431
10685SOL    HW232955   0.574   5.529   2.510
10686SOL     OW32956   0.805   4.782   6.105
10686SOL    HW132957   0.712   4.779   6.067
10686SOL    HW232958   0.818   4.869   6.152
10687SOL     OW32959   6.731   5.278   1.636
10687SOL    HW132960   6.759   5.182   1.633
10687SOL    HW232961   6.807   5.336   1.606
10688SOL     OW32962   6.648   4.103   2.845
10688SOL    HW132963   6.560   4.079   2.804
10688SOL    HW232964   6.694   4.020   2.877
10689SOL     OW32965   0.531   5.645   3.520
10689SOL    HW132966   0.573   5.678   3.605
10689SOL    HW232967   0.549   5.710   3.446
10690SOL     OW32968   0.283   6.066   3.295
10690SOL    HW132969   0.295   6.127   3.373
10690SOL    HW232970   0.185   6.057   3.274
10691SOL     OW32971   0.554   2.613   2.458
10691SOL    HW132972   0.651   2.604   2.483
10691SOL    HW232973   0.547   2.655   2.368
10692SOL     OW32974   2.832   6.129   3.101
10692SOL    HW132975   2.900   6.062   3.130
10692SOL    HW232976   2.784   6.095   3.021
10693SOL     OW32977   2.215   6.993   0.026
10693SOL    HW132978   2.235   0.013   6.966
10693SOL    HW232979   2.124   6.951   0.021
10694SOL     OW32980   5.421   6.132   1.797
10694SOL    HW132981   5.383   6.224   1.798
10694SOL    HW232982   5.483   6.119   1.874
10695SOL     OW32983   5.277   1.892   3.210
10695SOL    HW132984   5.306   1.976   3.256
10695SOL    HW232985   5.226   1.915   3.127
10696SOL     OW32986   0.180   3.495   3.593
10696SOL    HW132987   0.275   3.468   3.581
10696SOL    HW232988   0.163   3.581   3.546
10697SOL     OW32989   6.968   6.081   4.598
10697SOL    HW132990   6.881   6.050   4.559
10697SOL    HW232991   6.995   6.167   4.555
10698SOL     OW32992   4.803   5.593   5.484
10698SOL    HW132993   4.805   5.671   5.422
10698SOL    HW232994   4.838   5.620   5.574
10699SOL     OW32995   3.995   3.362   2.067
10699SOL    HW132996   3.905   3.349   2.025
10699SOL    HW232997   4.015   3.459   2.074
10700SOL     OW32998   6.975   0.031   2.115
10700SOL    HW132999   0.048   0.026   2.117
10700SOL    HW233000   6.944   0.046   2.020
10701SOL     OW33001   3.554   5.985   6.945
10701SOL    HW133002   3.503   6.069   6.966
10701SOL    HW233003   3.514   5.941   6.864
10702SOL     OW33004   5.876   2.927   2.267
10702SOL    HW133005   5.797   2.866   2.269
10702SOL    HW233006   5.866   2.996   2.340
10703SOL     OW33007   3.135   4.109   4.932
10703SOL    HW133008   3.116   4.205   4.955
10703SOL    HW233009   3.227   4.102   4.895
10704SOL     OW33010   6.485   5.367   1.708
10704SOL    HW133011   6.570   5.320   1.688
10704SOL    HW233012   6.426   5.308   1.763
10705SOL     OW33013   6.153   4.744   1.822
10705SOL    HW133014   6.170   4.658   1.774
10705SOL    HW233015   6.239   4.780   1.858
10706SOL     OW33016   5.070   6.887   2.447
10706SOL    HW133017   5.166   6.915   2.440
10706SOL    HW233018   5.038   6.855   2.358
10707SOL     OW33019   0.235   6.220   3.761
10707SOL    HW133020   0.272   6.249   3.849
10707SOL    HW233021   0.163   6.152   3.775
10708SOL     OW33022   4.209   0.702   2.257
10708SOL    HW133023   4.209   0.798   2.230
10708SOL    HW233024   4.177   0.694   2.351
10709SOL     OW33025   6.298   6.544   4.937
10709SOL    HW133026   6.289   6.598   4.853
10709SOL    HW233027   6.362   6.469   4.921
10710SOL     OW33028   0.412   6.705   4.993
10710SOL    HW133029   0.511   6.700   5.004
10710SOL    HW233030   0.368   6.645   5.060
10711SOL     OW33031   1.632   6.234   3.955
10711SOL    HW133032   1.547   6.274   3.923
10711SOL    HW233033   1.614   6.175   4.034
10712SOL     OW33034   2.812   1.269   1.523
10712SOL    HW133035   2.877   1.345   1.525
10712SOL    HW233036   2.720   1.303   1.542
10713SOL     OW33037   1.444   4.232   1.537
10713SOL    HW133038   1.475   4.138   1.551
10713SOL    HW233039   1.507   4.280   1.475
10714SOL     OW33040   6.042   3.839   4.549
10714SOL    HW133041   6.054   3.806   4.642
10714SOL    HW233042   6.041   3.761   4.486
10715SOL     OW33043   5.145   6.705   2.702
10715SOL    HW133044   5.075   6.776   2.697
10715SOL    HW233045   5.115   6.624   2.652
10716SOL     OW33046   5.635   2.409   4.623
10716SOL    HW133047   5.559   2.421   4.559
10716SOL    HW233048   5.717   2.451   4.585
10717SOL     OW33049   1.118   2.703   1.186
10717SOL    HW133050   1.079   2.689   1.095
10717SOL    HW233051   1.096   2.795   1.217
10718SOL     OW33052   1.594   3.144   6.689
10718SOL    HW133053   1.576   3.141   6.590
10718SOL    HW233054   1.692   3.136   6.705
10719SOL     OW33055   5.225   5.801   0.478
10719SOL    HW133056   5.145   5.791   0.419
10719SOL    HW233057   5.306   5.767   0.430
10720SOL     OW33058   6.580   3.601   4.964
10720SOL    HW133059   6.540   3.632   5.050
10720SOL    HW233060   6.651   3.665   4.935
10721SOL     OW33061   6.064   4.131   5.401
10721SOL    HW133062   6.023   4.046   5.435
10721SOL    HW233063   6.037   4.145   5.306
10722SOL     OW33064   0.220   3.502   0.769
10722SOL    HW133065   0.126   3.537   0.772
10722SOL    HW233066   0.234   3.450   0.685
10723SOL     OW33067   0.655   3.891   5.927
10723SOL    HW133068   0.652   3.960   6.000
10723SOL    HW233069   0.707   3.927   5.850
10724SOL     OW33070   4.664   1.243   0.097
10724SOL    HW133071   4.753   1.284   0.117
10724SOL    HW233072   4.677   1.148   0.070
10725SOL     OW33073   0.087   4.595   4.539
10725SOL    HW133074   0.127   4.509   4.508
10725SOL    HW233075   0.110   4.667   4.473
10726SOL     OW33076   5.440   6.867   5.879
10726SOL    HW133077   5.384   6.938   5.922
10726SOL    HW233078   5.382   6.802   5.831
10727SOL     OW33079   0.620   5.145   4.125
10727SOL    HW133080   0.695   5.198   4.167
10727SOL    HW233081   0.563   5.106   4.197
10728SOL     OW33082   6.242   6.189   1.150
10728SOL    HW133083   6.339   6.171   1.166
10728SOL    HW233084   6.222   6.283   1.175
10729SOL     OW33085   5.384   1.176   2.669
10729SOL    HW133086   5.424   1.122   2.744
10729SOL    HW233087   5.452   1.185   2.596
10730SOL     OW33088   2.330   0.182   2.044
10730SOL    HW133089   2.275   0.194   1.961
10730SOL    HW233090   2.277   0.132   2.113
10731SOL     OW33091   2.976   5.895   0.435
10731SOL    HW133092   2.910   5.919   0.364
10731SOL    HW233093   3.047   5.836   0.396
10732SOL     OW33094   5.046   5.205   2.336
10732SOL    HW133095   4.981   5.254   2.395
10732SOL    HW233096   5.139   5.230   2.361
10733SOL     OW33097   4.883   2.091   6.810
10733SOL    HW133098   4.823   2.067   6.734
10733SOL    HW233099   4.978   2.067   6.788
10734SOL     OW33100   1.177   0.338   0.288
10734SOL    HW133101   1.090   0.335   0.338
10734SOL    HW233102   1.190   0.429   0.248
10735SOL     OW33103   1.555   4.677   2.769
10735SOL    HW133104   1.525   4.620   2.693
10735SOL    HW233105   1.510   4.646   2.853
10736SOL     OW33106   0.396   0.705   3.518
10736SOL    HW133107   0.464   0.769   3.553
10736SOL    HW233108   0.324   0.755   3.471
10737SOL     OW33109   1.151   1.757   0.583
10737SOL    HW133110   1.135   1.799   0.494
10737SOL    HW233111   1.136   1.825   0.655
10738SOL     OW33112   2.616   0.804   3.186
10738SOL    HW133113   2.617   0.719   3.133
10738SOL    HW233114   2.525   0.846   3.179
10739SOL     OW33115   7.017   1.378   1.145
10739SOL    HW133116   0.083   1.375   1.107
10739SOL    HW233117   7.020   1.348   1.241
10740SOL     OW33118   0.896   4.782   5.418
10740SOL    HW133119   0.984   4.809   5.459
10740SOL    HW233120   0.877   4.839   5.339
10741SOL     OW33121   0.386   0.500   3.001
10741SOL    HW133122   0.467   0.445   2.983
10741SOL    HW233123   0.407   0.569   3.071
10742SOL     OW33124   5.913   7.022   1.347
10742SOL    HW133125   5.876   0.055   1.419
10742SOL    HW233126   5.911   0.044   1.260
10743SOL     OW33127   2.213   1.662   4.718
10743SOL    HW133128   2.241   1.642   4.624
10743SOL    HW233129   2.228   1.582   4.775
10744SOL     OW33130   3.020   1.158   2.236
10744SOL    HW133131   3.097   1.115   2.284
10744SOL    HW233132   3.034   1.257   2.234
10745SOL     OW33133   1.174   5.010   0.871
10745SOL    HW133134   1.160   4.975   0.964
10745SOL    HW233135   1.211   4.937   0.813
10746SOL     OW33136   1.800   3.761   1.597
10746SOL    HW133137   1.805   3.704   1.679
10746SOL    HW233138   1.870   3.731   1.532
10747SOL     OW33139   4.314   0.757   2.909
10747SOL    HW133140   4.227   0.749   2.860
10747SOL    HW233141   4.326   0.679   2.970
10748SOL     OW33142   3.565   0.704   1.298
10748SOL    HW133143   3.506   0.630   1.332
10748SOL    HW233144   3.580   0.691   1.200
10749SOL     OW33145   6.986   4.908   3.919
10749SOL    HW133146   6.896   4.871   3.896
10749SOL    HW233147   6.991   4.924   4.018
10750SOL     OW33148   3.885   5.882   4.625
10750SOL    HW133149   3.924   5.945   4.692
10750SOL    HW233150   3.786   5.884   4.631
10751SOL     OW33151   0.914   4.163   4.556
10751SOL    HW133152   0.842   4.128   4.615
10751SOL    HW233153   0.997   4.179   4.610
10752SOL     OW33154   6.589   3.819   6.142
10752SOL    HW133155   6.649   3.877   6.198
10752SOL    HW233156   6.541   3.755   6.202
10753SOL     OW33157   4.986   0.554   4.256
10753SOL    HW133158   4.981   0.553   4.156
10753SOL    HW233159   5.068   0.505   4.286
10754SOL     OW33160   1.365   1.871   3.708
10754SOL    HW133161   1.274   1.830   3.718
10754SOL    HW233162   1.401   1.896   3.797
10755SOL     OW33163   0.349   2.448   0.267
10755SOL    HW133164   0.440   2.431   0.307
10755SOL    HW233165   0.360   2.482   0.174
10756SOL     OW33166   6.462   4.528   6.861
10756SOL    HW133167   6.550   4.506   6.904
10756SOL    HW233168   6.401   4.568   6.930
10757SOL     OW33169   1.143   3.218   0.310
10757SOL    HW133170   1.203   3.285   0.265
10757SOL    HW233171   1.180   3.126   0.298
10758SOL     OW33172   0.962   6.874   5.333
10758SOL    HW133173   1.031   6.937   5.369
10758SOL    HW233174   0.997   6.831   5.250
10759SOL     OW33175   1.928   3.159   6.956
10759SOL    HW133176   1.834   3.167   6.990
10759SOL    HW233177   1.981   3.238   6.985
10760SOL     OW33178   6.489   1.030   0.322
10760SOL    HW133179   6.482   0.985   0.410
10760SOL    HW233180   6.445   0.974   0.252
10761SOL     OW33181   1.207   2.155   6.271
10761SOL    HW133182   1.204   2.071   6.218
10761SOL    HW233183   1.144   2.149   6.349
10762SOL     OW33184   3.874   1.637   4.969
10762SOL    HW133185   3.847   1.712   5.030
10762SOL    HW233186   3.792   1.601   4.923
10763SOL     OW33187   4.620   6.522   1.234
10763SOL    HW133188   4.624   6.584   1.312
10763SOL    HW233189   4.713   6.509   1.198
10764SOL     OW33190   5.964   2.028   5.315
10764SOL    HW133191   5.962   1.932   5.285
10764SOL    HW233192   5.989   2.086   5.237
10765SOL     OW33193   5.848   2.834   1.004
10765SOL    HW133194   5.887   2.781   0.929
10765SOL    HW233195   5.766   2.882   0.973
10766SOL     OW33196   3.659   3.005   1.045
10766SOL    HW133197   3.724   2.972   1.114
10766SOL    HW233198   3.707   3.021   0.959
10767SOL     OW33199   1.435   0.467   6.889
10767SOL    HW133200   1.374   0.390   6.870
10767SOL    HW233201   1.475   0.456   6.980
10768SOL     OW33202   4.150   5.414   0.985
10768SOL    HW133203   4.082   5.368   1.042
10768SOL    HW233204   4.241   5.406   1.027
10769SOL     OW33205   2.063   5.174   4.922
10769SOL    HW133206   2.045   5.227   5.005
10769SOL    HW233207   2.161   5.177   4.901
10770SOL     OW33208   5.769   0.161   4.763
10770SOL    HW133209   5.704   0.102   4.715
10770SOL    HW233210   5.728   0.194   4.848
10771SOL     OW33211   5.403   1.296   4.808
10771SOL    HW133212   5.361   1.326   4.894
10771SOL    HW233213   5.338   1.310   4.733
10772SOL     OW33214   6.841   6.548   4.723
10772SOL    HW133215   6.931   6.522   4.686
10772SOL    HW233216   6.850   6.573   4.819
10773SOL     OW33217   6.433   5.480   6.618
10773SOL    HW133218   6.527   5.513   6.610
10773SOL    HW233219   6.373   5.557   6.639
10774SOL     OW33220   1.723   1.708   0.009
10774SOL    HW133221   1.759   1.705   6.942
10774SOL    HW233222   1.771   1.778   0.062
10775SOL     OW33223   0.630   2.680   0.731
10775SOL    HW133224   0.543   2.643   0.700
10775SOL    HW233225   0.678   2.611   0.786
10776SOL     OW33226   1.527   6.531   6.986
10776SOL    HW133227   1.620   6.552   6.957
10776SOL    HW233228   1.524   6.439   7.025
10777SOL     OW33229   4.115   6.184   4.363
10777SOL    HW133230   4.042   6.136   4.314
10777SOL    HW233231   4.193   6.197   4.301
10778SOL     OW33232   5.680   6.238   5.196
10778SOL    HW133233   5.682   6.242   5.096
10778SOL    HW233234   5.656   6.327   5.233
10779SOL     OW33235   6.243   4.961   3.341
10779SOL    HW133236   6.237   5.019   3.422
10779SOL    HW233237   6.335   4.921   3.336
10780SOL     OW33238   1.439   0.254   3.601
10780SOL    HW133239   1.378   0.209   3.666
10780SOL    HW233240   1.420   0.353   3.601
10781SOL     OW33241   3.863   1.584   2.796
10781SOL    HW133242   3.940   1.574   2.858
10781SOL    HW233243   3.779   1.557   2.843
10782SOL     OW33244   7.018   1.521   3.511
10782SOL    HW133245   0.052   1.517   3.592
10782SOL    HW233246   7.000   1.617   3.489
10783SOL     OW33247   0.926   3.424   3.422
10783SOL    HW133248   1.018   3.395   3.447
10783SOL    HW233249   0.889   3.362   3.352
10784SOL     OW33250   3.231   0.396   3.371
10784SOL    HW133251   3.320   0.356   3.349
10784SOL    HW233252   3.166   0.375   3.298
10785SOL     OW33253   0.512   5.035   0.965
10785SOL    HW133254   0.584   4.971   0.937
10785SOL    HW233255   0.519   5.119   0.911
10786SOL     OW33256   4.993   4.640   2.183
10786SOL    HW133257   4.923   4.674   2.121
10786SOL    HW233258   4.978   4.678   2.275
10787SOL     OW33259   3.238   1.352   4.715
10787SOL    HW133260   3.284   1.382   4.631
10787SOL    HW233261   3.279   1.398   4.794
10788SOL     OW33262   2.256   5.124   6.560
10788SOL    HW133263   2.343   5.118   6.610
10788SOL    HW233264   2.209   5.036   6.564
10789SOL     OW33265   5.963   2.684   0.389
10789SOL    HW133266   5.901   2.757   0.417
10789SOL    HW233267   5.969   2.682   0.290
10790SOL     OW33268   1.212   0.438   2.439
10790SOL    HW133269   1.253   0.352   2.470
10790SOL    HW233270   1.254   0.514   2.488
10791SOL     OW33271   0.036   0.408   1.024
10791SOL    HW133272   0.050   0.473   0.949
10791SOL    HW233273   0.123   0.364   1.046
10792SOL     OW33274   3.855   3.877   2.106
10792SOL    HW133275   3.911   3.826   2.171
10792SOL    HW233276   3.909   3.898   2.025
10793SOL     OW33277   5.156   2.484   4.244
10793SOL    HW133278   5.063   2.457   4.219
10793SOL    HW233279   5.208   2.507   4.162
10794SOL     OW33280   2.879   3.700   3.653
10794SOL    HW133281   2.974   3.693   3.683
10794SOL    HW233282   2.867   3.781   3.596
10795SOL     OW33283   6.919   3.501   3.418
10795SOL    HW133284   6.882   3.493   3.510
10795SOL    HW233285   7.016   3.526   3.422
10796SOL     OW33286   5.326   6.377   0.460
10796SOL    HW133287   5.266   6.456   0.454
10796SOL    HW233288   5.354   6.364   0.556
10797SOL     OW33289   3.627   2.010   1.326
10797SOL    HW133290   3.579   1.938   1.275
10797SOL    HW233291   3.560   2.072   1.367
10798SOL     OW33292   2.628   6.289   1.077
10798SOL    HW133293   2.723   6.268   1.055
10798SOL    HW233294   2.612   6.387   1.065
10799SOL     OW33295   3.782   0.944   2.139
10799SOL    HW133296   3.724   0.911   2.214
10799SOL    HW233297   3.764   0.890   2.057
10800SOL     OW33298   0.347   0.216   0.231
10800SOL    HW133299   0.374   0.234   0.325
10800SOL    HW233300   0.391   0.282   0.170
10801SOL     OW33301   0.973   0.010   5.688
10801SOL    HW133302   0.900   0.063   5.732
10801SOL    HW233303   0.939   6.945   5.666
10802SOL     OW33304   1.418   2.766   3.415
10802SOL    HW133305   1.423   2.832   3.341
10802SOL    HW233306   1.329   2.774   3.461
10803SOL     OW33307   3.766   4.031   5.725
10803SOL    HW133308   3.772   4.024   5.626
10803SOL    HW233309   3.800   4.120   5.755
10804SOL     OW33310   5.759   3.150   1.873
10804SOL    HW133311   5.797   3.199   1.951
10804SOL    HW233312   5.822   3.157   1.795
10805SOL     OW33313   3.940   6.943   6.969
10805SOL    HW133314   3.932   7.016   6.900
10805SOL    HW233315   3.907   6.857   6.930
10806SOL     OW33316   4.646   4.359   5.825
10806SOL    HW133317   4.597   4.411   5.895
10806SOL    HW233318   4.744   4.361   5.845
10807SOL     OW33319   1.211   6.429   3.247
10807SOL    HW133320   1.221   6.337   3.210
10807SOL    HW233321   1.118   6.462   3.230
10808SOL     OW33322   6.511   3.624   6.328
10808SOL    HW133323   6.497   3.538   6.279
10808SOL    HW233324   6.550   3.605   6.418
10809SOL     OW33325   2.955   6.091   3.735
10809SOL    HW133326   2.997   6.073   3.824
10809SOL    HW233327   2.906   6.178   3.738
10810SOL     OW33328   2.125   0.330   4.800
10810SOL    HW133329   2.124   0.292   4.892
10810SOL    HW233330   2.063   0.278   4.741
10811SOL     OW33331   4.173   4.764   5.781
10811SOL    HW133332   4.128   4.840   5.735
10811SOL    HW233333   4.106   4.712   5.834
10812SOL     OW33334   1.048   3.440   1.761
10812SOL    HW133335   1.107   3.383   1.818
10812SOL    HW233336   1.050   3.534   1.796
10813SOL     OW33337   2.050   5.583   0.038
10813SOL    HW133338   2.012   5.629   0.118
10813SOL    HW233339   2.117   5.514   0.067
10814SOL     OW33340   1.486   6.739   6.384
10814SOL    HW133341   1.459   6.816   6.441
10814SOL    HW233342   1.405   6.697   6.343
10815SOL     OW33343   4.587   4.413   3.372
10815SOL    HW133344   4.658   4.432   3.440
10815SOL    HW233345   4.513   4.361   3.414
10816SOL     OW33346   1.941   2.523   1.468
10816SOL    HW133347   1.915   2.515   1.564
10816SOL    HW233348   1.976   2.435   1.436
10817SOL     OW33349   5.765   6.634   2.799
10817SOL    HW133350   5.807   6.700   2.861
10817SOL    HW233351   5.709   6.570   2.853
10818SOL     OW33352   4.392   4.483   5.418
10818SOL    HW133353   4.388   4.383   5.426
10818SOL    HW233354   4.335   4.525   5.489
10819SOL     OW33355   6.907   4.405   0.111
10819SOL    HW133356   6.897   4.310   0.081
10819SOL    HW233357   6.852   4.464   0.052
10820SOL     OW33358   5.880   5.835   3.735
10820SOL    HW133359   5.896   5.833   3.636
10820SOL    HW233360   5.870   5.929   3.765
10821SOL     OW33361   5.712   6.425   2.220
10821SOL    HW133362   5.764   6.425   2.306
10821SOL    HW233363   5.653   6.506   2.217
10822SOL     OW33364   0.977   3.037   3.338
10822SOL    HW133365   0.926   3.121   3.321
10822SOL    HW233366   1.034   3.016   3.258
10823SOL     OW33367   1.872   5.407   1.458
10823SOL    HW133368   1.806   5.341   1.421
10823SOL    HW233369   1.848   5.426   1.554
10824SOL     OW33370   5.981   0.990   3.594
10824SOL    HW133371   6.065   1.012   3.643
10824SOL    HW233372   5.977   1.044   3.510
10825SOL     OW33373   3.256   0.176   6.316
10825SOL    HW133374   3.241   0.255   6.256
10825SOL    HW233375   3.169   0.132   6.335
10826SOL     OW33376   0.307   3.596   3.341
10826SOL    HW133377   0.374   3.527   3.370
10826SOL    HW233378   0.354   3.678   3.309
10827SOL     OW33379   6.248   4.298   4.530
10827SOL    HW133380   6.183   4.361   4.572
10827SOL    HW233381   6.223   4.283   4.434
10828SOL     OW33382   0.732   5.091   1.893
10828SOL    HW133383   0.816   5.046   1.861
10828SOL    HW233384   0.659   5.075   1.827
10829SOL     OW33385   3.612   2.322   0.919
10829SOL    HW133386   3.690   2.324   0.856
10829SOL    HW233387   3.528   2.330   0.866
10830SOL     OW33388   5.372   1.615   3.909
10830SOL    HW133389   5.301   1.568   3.961
10830SOL    HW233390   5.396   1.560   3.829
10831SOL     OW33391   3.710   6.036   2.166
10831SOL    HW133392   3.626   6.080   2.199
10831SOL    HW233393   3.719   5.945   2.206
10832SOL     OW33394   1.213   2.675   0.391
10832SOL    HW133395   1.205   2.576   0.392
10832SOL    HW233396   1.307   2.701   0.414
10833SOL     OW33397   1.442   1.397   2.113
10833SOL    HW133398   1.485   1.333   2.049
10833SOL    HW233399   1.364   1.442   2.068
10834SOL     OW33400   1.303   2.275   6.847
10834SOL    HW133401   1.276   2.308   6.756
10834SOL    HW233402   1.289   2.176   6.853
10835SOL     OW33403   6.465   2.387   6.972
10835SOL    HW133404   6.523   2.315   6.934
10835SOL    HW233405   6.515   2.474   6.971
10836SOL     OW33406   0.207   1.903   4.394
10836SOL    HW133407   0.185   2.000   4.406
10836SOL    HW233408   0.130   1.856   4.352
10837SOL     OW33409   0.166   4.952   0.319
10837SOL    HW133410   0.128   5.044   0.313
10837SOL    HW233411   0.261   4.958   0.351
10838SOL     OW33412   5.952   6.563   4.922
10838SOL    HW133413   5.978   6.503   4.998
10838SOL    HW233414   5.862   6.537   4.889
10839SOL     OW33415   3.941   2.785   0.969
10839SOL    HW133416   3.980   2.865   1.016
10839SOL    HW233417   3.880   2.737   1.031
10840SOL     OW33418   3.768   5.220   2.156
10840SOL    HW133419   3.768   5.126   2.121
10840SOL    HW233420   3.795   5.282   2.083
10841SOL     OW33421   4.583   5.589   0.268
10841SOL    HW133422   4.602   5.681   0.235
10841SOL    HW233423   4.534   5.537   0.197
10842SOL     OW33424   5.250   2.435   1.235
10842SOL    HW133425   5.300   2.349   1.242
10842SOL    HW233426   5.155   2.417   1.210
10843SOL     OW33427   0.913   2.304   1.152
10843SOL    HW133428   0.881   2.237   1.219
10843SOL    HW233429   0.835   2.357   1.119
10844SOL     OW33430   0.329   7.025   4.016
10844SOL    HW133431   0.346   0.052   3.933
10844SOL    HW233432   0.416   6.991   4.052
10845SOL     OW33433   3.303   0.290   5.834
10845SOL    HW133434   3.214   0.254   5.862
10845SOL    HW233435   3.300   0.316   5.738
10846SOL     OW33436   4.864   2.670   1.270
10846SOL    HW133437   4.923   2.641   1.195
10846SOL    HW233438   4.871   2.604   1.345
10847SOL     OW33439   3.740   3.842   6.407
10847SOL    HW133440   3.688   3.762   6.378
10847SOL    HW233441   3.693   3.925   6.378
10848SOL     OW33442   2.783   2.649   0.073
10848SOL    HW133443   2.721   2.727   0.083
10848SOL    HW233444   2.792   2.626   7.002
10849SOL     OW33445   2.770   5.027   2.904
10849SOL    HW133446   2.687   4.992   2.948
10849SOL    HW233447   2.751   5.046   2.808
10850SOL     OW33448   4.023   5.833   0.050
10850SOL    HW133449   3.982   5.745   0.072
10850SOL    HW233450   3.957   5.888   7.024
10851SOL     OW33451   2.513   3.189   6.587
10851SOL    HW133452   2.606   3.161   6.565
10851SOL    HW233453   2.448   3.143   6.526
10852SOL     OW33454   0.858   6.931   6.982
10852SOL    HW133455   0.843   6.867   6.907
10852SOL    HW233456   0.947   6.913   7.024
10853SOL     OW33457   3.447   2.330   5.589
10853SOL    HW133458   3.499   2.414   5.603
10853SOL    HW233459   3.503   2.252   5.615
10854SOL     OW33460   5.310   0.250   5.204
10854SOL    HW133461   5.336   0.161   5.241
10854SOL    HW233462   5.341   0.257   5.109
10855SOL     OW33463   2.707   6.618   1.810
10855SOL    HW133464   2.640   6.565   1.863
10855SOL    HW233465   2.790   6.629   1.863
10856SOL     OW33466   5.893   1.799   2.001
10856SOL    HW133467   5.880   1.878   1.941
10856SOL    HW233468   5.845   1.720   1.962
10857SOL     OW33469   5.617   2.503   3.132
10857SOL    HW133470   5.609   2.573   3.203
10857SOL    HW233471   5.560   2.528   3.054
10858SOL     OW33472   0.655   2.213   6.629
10858SOL    HW133473   0.693   2.304   6.644
10858SOL    HW233474   0.665   2.159   6.712
10859SOL     OW33475   2.130   3.451   4.042
10859SOL    HW133476   2.149   3.356   4.068
10859SOL    HW233477   2.112   3.505   4.125
10860SOL     OW33478   6.435   1.373   6.096
10860SOL    HW133479   6.386   1.410   6.017
10860SOL    HW233480   6.448   1.444   6.164
10861SOL     OW33481   3.866   3.292   3.047
10861SOL    HW133482   3.961   3.321   3.036
10861SOL    HW233483   3.857   3.237   3.130
10862SOL     OW33484   2.577   1.770   6.370
10862SOL    HW133485   2.665   1.780   6.324
10862SOL    HW233486   2.503   1.792   6.306
10863SOL     OW33487   3.846   0.446   2.849
10863SOL    HW133488   3.869   0.393   2.767
10863SOL    HW233489   3.815   0.537   2.822
10864SOL     OW33490   3.755   5.180   0.494
10864SOL    HW133491   3.795   5.174   0.586
10864SOL    HW233492   3.660   5.151   0.497
10865SOL     OW33493   6.049   1.325   3.027
10865SOL    HW133494   6.070   1.265   3.104
10865SOL    HW233495   6.081   1.283   2.942
10866SOL     OW33496   4.463   4.619   0.211
10866SOL    HW133497   4.428   4.612   0.117
10866SOL    HW233498   4.386   4.628   0.274
10867SOL     OW33499   2.903   3.872   0.352
10867SOL    HW133500   2.847   3.830   0.280
10867SOL    HW233501   2.864   3.960   0.378
10868SOL     OW33502   2.648   2.259   3.664
10868SOL    HW133503   2.553   2.274   3.639
10868SOL    HW233504   2.704   2.334   3.627
10869NA      NA33505   0.562   2.429   6.195
10870NA      NA33506   4.300   4.633   5.247
10871NA      NA33507   2.112   4.228   2.335
10872NA      NA33508   4.887   4.323   3.758
10873NA      NA33509   4.315   2.302   5.160
10874NA      NA33510   3.206   4.411   1.556
10875NA      NA33511   0.290   4.503   0.318
10876NA      NA33512   3.080   3.435   2.861
10877NA      NA33513   4.870   5.151   1.065
10878NA      NA33514   3.538   6.985   5.480
10879NA      NA33515   5.878   5.816   1.074
10880NA      NA33516   2.223   0.831   5.014
10881NA      NA33517   4.149   4.899   1.785
10882NA      NA33518   4.093   3.161   1.667
   7.02622   7.02622   7.02622
