Generated by trjconv : CNT in water t= 242.00000
33518
    1C        C    1   2.842   2.768   4.747
    1C        C    2   2.896   2.715   4.866
    1C        C    3   2.844   2.773   4.982
    1C        C    4   2.844   2.767   4.259
    1C        C    5   2.896   2.723   4.382
    1C        C    6   2.841   2.766   4.506
    1C        C    7   3.008   2.633   4.624
    1C        C    8   2.893   2.715   4.627
    1C        C    9   3.069   2.591   4.745
    1C        C   10   3.005   2.625   4.866
    1C        C   11   3.179   2.486   4.972
    1C        C   12   3.063   2.565   4.978
    1C        C   13   2.846   2.767   3.771
    1C        C   14   2.897   2.718   3.893
    1C        C   15   2.844   2.768   4.014
    1C        C   16   3.014   2.642   4.137
    1C        C   17   2.896   2.719   4.136
    1C        C   18   3.075   2.607   4.259
    1C        C   19   3.013   2.645   4.381
    1C        C   20   3.205   2.554   4.503
    1C        C   21   3.075   2.609   4.503
    1C        C   22   3.274   2.534   4.625
    1C        C   23   3.204   2.546   4.746
    1C        C   24   3.413   2.482   4.867
    1C        C   25   3.271   2.504   4.864
    1C        C   26   3.488   2.475   4.985
    1C        C   27   2.848   2.765   3.280
    1C        C   28   2.901   2.722   3.404
    1C        C   29   2.847   2.767   3.527
    1C        C   30   3.015   2.637   3.650
    1C        C   31   2.904   2.724   3.649
    1C        C   32   3.076   2.603   3.772
    1C        C   33   3.013   2.637   3.894
    1C        C   34   3.209   2.554   4.017
    1C        C   35   3.078   2.606   4.016
    1C        C   36   3.275   2.529   4.139
    1C        C   37   3.207   2.557   4.260
    1C        C   38   3.414   2.507   4.379
    1C        C   39   3.275   2.534   4.382
    1C        C   40   3.484   2.505   4.502
    1C        C   41   3.414   2.514   4.624
    1C        C   42   3.626   2.488   4.743
    1C        C   43   3.484   2.486   4.744
    1C        C   44   3.701   2.490   4.863
    1C        C   45   3.627   2.469   4.980
    1C        C   46   2.834   2.751   2.792
    1C        C   47   2.893   2.709   2.914
    1C        C   48   2.845   2.760   3.037
    1C        C   49   3.017   2.636   3.161
    1C        C   50   2.900   2.715   3.159
    1C        C   51   3.077   2.600   3.284
    1C        C   52   3.013   2.635   3.405
    1C        C   53   3.203   2.543   3.528
    1C        C   54   3.073   2.599   3.527
    1C        C   55   3.273   2.525   3.649
    1C        C   56   3.207   2.550   3.772
    1C        C   57   3.415   2.506   3.893
    1C        C   58   3.277   2.536   3.894
    1C        C   59   3.484   2.496   4.016
    1C        C   60   3.413   2.498   4.138
    1C        C   61   3.626   2.501   4.259
    1C        C   62   3.485   2.490   4.259
    1C        C   63   3.698   2.512   4.380
    1C        C   64   3.625   2.509   4.501
    1C        C   65   3.831   2.551   4.621
    1C        C   66   3.697   2.508   4.623
    1C        C   67   3.903   2.561   4.743
    1C        C   68   3.838   2.524   4.863
    1C        C   69   4.050   2.583   4.975
    1C        C   70   3.918   2.533   4.977
    1C        C   71   2.823   2.736   2.309
    1C        C   72   2.880   2.687   2.429
    1C        C   73   2.831   2.744   2.549
    1C        C   74   3.008   2.628   2.671
    1C        C   75   2.887   2.700   2.671
    1C        C   76   3.072   2.596   2.793
    1C        C   77   3.009   2.629   2.915
    1C        C   78   3.205   2.545   3.037
    1C        C   79   3.075   2.600   3.037
    1C        C   80   3.270   2.522   3.160
    1C        C   81   3.205   2.541   3.284
    1C        C   82   3.412   2.498   3.402
    1C        C   83   3.272   2.519   3.407
    1C        C   84   3.482   2.494   3.524
    1C        C   85   3.412   2.501   3.647
    1C        C   86   3.624   2.498   3.770
    1C        C   87   3.482   2.495   3.769
    1C        C   88   3.696   2.508   3.890
    1C        C   89   3.625   2.505   4.013
    1C        C   90   3.832   2.547   4.136
    1C        C   91   3.694   2.516   4.136
    1C        C   92   3.899   2.578   4.256
    1C        C   93   3.833   2.552   4.379
    1C        C   94   4.027   2.637   4.500
    1C        C   95   3.901   2.575   4.500
    1C        C   96   4.094   2.667   4.621
    1C        C   97   4.029   2.627   4.740
    1C        C   98   4.196   2.758   4.858
    1C        C   99   4.100   2.652   4.861
    1C        C  100   4.211   2.843   4.968
    1C        C  101   2.817   2.730   2.072
    1C        C  102   2.992   2.597   2.188
    1C        C  103   2.878   2.683   2.189
    1C        C  104   3.062   2.572   2.309
    1C        C  105   2.998   2.611   2.430
    1C        C  106   3.199   2.534   2.551
    1C        C  107   3.069   2.590   2.550
    1C        C  108   3.270   2.513   2.672
    1C        C  109   3.201   2.538   2.793
    1C        C  110   3.409   2.492   2.913
    1C        C  111   3.270   2.519   2.914
    1C        C  112   3.480   2.489   3.035
    1C        C  113   3.410   2.498   3.158
    1C        C  114   3.623   2.504   3.277
    1C        C  115   3.482   2.496   3.279
    1C        C  116   3.689   2.517   3.401
    1C        C  117   3.623   2.501   3.525
    1C        C  118   3.831   2.541   3.646
    1C        C  119   3.693   2.512   3.647
    1C        C  120   3.896   2.570   3.769
    1C        C  121   3.830   2.554   3.892
    1C        C  122   4.025   2.636   4.013
    1C        C  123   3.898   2.574   4.014
    1C        C  124   4.086   2.673   4.135
    1C        C  125   4.027   2.638   4.258
    1C        C  126   4.198   2.767   4.378
    1C        C  127   4.087   2.679   4.379
    1C        C  128   4.248   2.818   4.500
    1C        C  129   4.195   2.765   4.619
    1C        C  130   4.330   2.933   4.740
    1C        C  131   4.245   2.819   4.740
    1C        C  132   4.359   3.000   4.861
    1C        C  133   4.292   2.956   4.975
    1C        C  134   3.169   2.472   2.083
    1C        C  135   3.034   2.509   2.083
    1C        C  136   3.258   2.479   2.191
    1C        C  137   3.195   2.521   2.310
    1C        C  138   3.406   2.484   2.428
    1C        C  139   3.267   2.510   2.430
    1C        C  140   3.479   2.484   2.549
    1C        C  141   3.409   2.491   2.672
    1C        C  142   3.624   2.500   2.793
    1C        C  143   3.483   2.490   2.793
    1C        C  144   3.694   2.504   2.915
    1C        C  145   3.621   2.489   3.035
    1C        C  146   3.832   2.536   3.156
    1C        C  147   3.695   2.502   3.155
    1C        C  148   3.895   2.565   3.279
    1C        C  149   3.827   2.549   3.401
    1C        C  150   4.025   2.623   3.524
    1C        C  151   3.896   2.565   3.523
    1C        C  152   4.084   2.662   3.646
    1C        C  153   4.023   2.633   3.769
    1C        C  154   4.194   2.763   3.888
    1C        C  155   4.081   2.678   3.890
    1C        C  156   4.245   2.813   4.010
    1C        C  157   4.194   2.764   4.132
    1C        C  158   4.338   2.921   4.251
    1C        C  159   4.247   2.813   4.254
    1C        C  160   4.375   2.984   4.372
    1C        C  161   4.332   2.932   4.496
    1C        C  162   4.441   3.114   4.614
    1C        C  163   4.372   2.991   4.618
    1C        C  164   4.470   3.182   4.735
    1C        C  165   4.432   3.121   4.857
    1C        C  166   4.511   3.324   4.973
    1C        C  167   4.473   3.190   4.972
    1C        C  168   3.473   2.434   2.074
    1C        C  169   3.398   2.461   2.189
    1C        C  170   3.618   2.466   2.306
    1C        C  171   3.476   2.465   2.307
    1C        C  172   3.691   2.490   2.425
    1C        C  173   3.620   2.485   2.546
    1C        C  174   3.828   2.535   2.668
    1C        C  175   3.690   2.504   2.668
    1C        C  176   3.896   2.561   2.788
    1C        C  177   3.831   2.540   2.912
    1C        C  178   4.023   2.627   3.032
    1C        C  179   3.898   2.561   3.034
    1C        C  180   4.080   2.668   3.155
    1C        C  181   4.020   2.631   3.278
    1C        C  182   4.191   2.753   3.398
    1C        C  183   4.084   2.660   3.401
    1C        C  184   4.241   2.804   3.520
    1C        C  185   4.192   2.754   3.643
    1C        C  186   4.336   2.914   3.763
    1C        C  187   4.245   2.806   3.764
    1C        C  188   4.380   2.973   3.883
    1C        C  189   4.334   2.923   4.007
    1C        C  190   4.446   3.103   4.128
    1C        C  191   4.377   2.979   4.129
    1C        C  192   4.468   3.172   4.250
    1C        C  193   4.440   3.110   4.373
    1C        C  194   4.503   3.317   4.489
    1C        C  195   4.467   3.181   4.493
    1C        C  196   4.519   3.388   4.610
    1C        C  197   4.508   3.319   4.733
    1C        C  198   4.555   3.534   4.848
    1C        C  199   4.532   3.392   4.852
    1C        C  200   4.583   3.617   4.961
    1C        C  201   3.613   2.425   2.073
    1C        C  202   3.828   2.510   2.187
    1C        C  203   3.694   2.460   2.186
    1C        C  204   3.901   2.539   2.305
    1C        C  205   3.829   2.522   2.426
    1C        C  206   4.021   2.620   2.544
    1C        C  207   3.895   2.556   2.546
    1C        C  208   4.084   2.657   2.665
    1C        C  209   4.023   2.624   2.788
    1C        C  210   4.198   2.746   2.908
    1C        C  211   4.086   2.660   2.910
    1C        C  212   4.251   2.794   3.030
    1C        C  213   4.196   2.748   3.152
    1C        C  214   4.338   2.902   3.270
    1C        C  215   4.244   2.797   3.275
    1C        C  216   4.375   2.963   3.392
    1C        C  217   4.334   2.910   3.516
    1C        C  218   4.435   3.097   3.637
    1C        C  219   4.374   2.969   3.638
    1C        C  220   4.463   3.165   3.757
    1C        C  221   4.444   3.099   3.881
    1C        C  222   4.506   3.300   4.002
    1C        C  223   4.473   3.163   4.003
    1C        C  224   4.517   3.377   4.121
    1C        C  225   4.506   3.308   4.244
    1C        C  226   4.515   3.523   4.364
    1C        C  227   4.517   3.382   4.364
    1C        C  228   4.512   3.599   4.483
    1C        C  229   4.531   3.528   4.604
    1C        C  230   4.498   3.738   4.727
    1C        C  231   4.537   3.601   4.724
    1C        C  232   4.500   3.821   4.842
    1C        C  233   4.541   3.751   4.956
    1C        C  234   4.018   2.604   2.068
    1C        C  235   3.896   2.539   2.068
    1C        C  236   4.090   2.644   2.182
    1C        C  237   4.029   2.601   2.302
    1C        C  238   4.203   2.729   2.420
    1C        C  239   4.087   2.647   2.422
    1C        C  240   4.254   2.783   2.541
    1C        C  241   4.194   2.745   2.663
    1C        C  242   4.338   2.902   2.782
    1C        C  243   4.246   2.795   2.785
    1C        C  244   4.384   2.956   2.904
    1C        C  245   4.343   2.901   3.027
    1C        C  246   4.441   3.090   3.149
    1C        C  247   4.381   2.962   3.149
    1C        C  248   4.462   3.157   3.272
    1C        C  249   4.437   3.090   3.394
    1C        C  250   4.495   3.299   3.512
    1C        C  251   4.460   3.162   3.514
    1C        C  252   4.512   3.369   3.634
    1C        C  253   4.502   3.301   3.757
    1C        C  254   4.513   3.511   3.877
    1C        C  255   4.513   3.370   3.879
    1C        C  256   4.515   3.586   3.996
    1C        C  257   4.518   3.518   4.120
    1C        C  258   4.488   3.731   4.241
    1C        C  259   4.513   3.592   4.240
    1C        C  260   4.475   3.803   4.361
    1C        C  261   4.488   3.738   4.486
    1C        C  262   4.429   3.942   4.601
    1C        C  263   4.476   3.809   4.608
    1C        C  264   4.402   4.012   4.721
    1C        C  265   4.438   3.948   4.841
    1C        C  266   4.319   4.130   4.958
    1C        C  267   4.399   4.017   4.956
    1C        C  268   4.267   2.770   2.062
    1C        C  269   4.200   2.732   2.180
    1C        C  270   4.350   2.887   2.298
    1C        C  271   4.257   2.779   2.300
    1C        C  272   4.389   2.950   2.418
    1C        C  273   4.343   2.893   2.539
    1C        C  274   4.446   3.083   2.662
    1C        C  275   4.381   2.957   2.659
    1C        C  276   4.469   3.151   2.784
    1C        C  277   4.447   3.083   2.905
    1C        C  278   4.497   3.292   3.022
    1C        C  279   4.471   3.153   3.026
    1C        C  280   4.507   3.361   3.145
    1C        C  281   4.495   3.294   3.269
    1C        C  282   4.510   3.508   3.390
    1C        C  283   4.506   3.367   3.389
    1C        C  284   4.509   3.580   3.511
    1C        C  285   4.511   3.511   3.634
    1C        C  286   4.488   3.723   3.754
    1C        C  287   4.506   3.583   3.755
    1C        C  288   4.469   3.793   3.876
    1C        C  289   4.483   3.724   3.998
    1C        C  290   4.421   3.931   4.117
    1C        C  291   4.466   3.797   4.118
    1C        C  292   4.398   4.002   4.237
    1C        C  293   4.424   3.935   4.358
    1C        C  294   4.327   4.127   4.478
    1C        C  295   4.393   4.002   4.479
    1C        C  296   4.288   4.190   4.598
    1C        C  297   4.334   4.138   4.721
    1C        C  298   4.202   4.314   4.840
    1C        C  299   4.287   4.199   4.840
    1C        C  300   4.171   4.405   4.946
    1C        C  301   4.353   2.879   2.061
    1C        C  302   4.469   3.068   2.174
    1C        C  303   4.400   2.943   2.177
    1C        C  304   4.481   3.141   2.296
    1C        C  305   4.450   3.077   2.417
    1C        C  306   4.508   3.282   2.537
    1C        C  307   4.472   3.146   2.539
    1C        C  308   4.516   3.356   2.657
    1C        C  309   4.507   3.287   2.780
    1C        C  310   4.524   3.501   2.900
    1C        C  311   4.522   3.359   2.901
    1C        C  312   4.512   3.573   3.021
    1C        C  313   4.517   3.502   3.144
    1C        C  314   4.488   3.714   3.266
    1C        C  315   4.510   3.575   3.265
    1C        C  316   4.467   3.786   3.387
    1C        C  317   4.489   3.720   3.510
    1C        C  318   4.423   3.923   3.628
    1C        C  319   4.473   3.791   3.631
    1C        C  320   4.396   3.989   3.750
    1C        C  321   4.422   3.926   3.874
    1C        C  322   4.318   4.115   3.990
    1C        C  323   4.391   3.994   3.994
    1C        C  324   4.282   4.177   4.112
    1C        C  325   4.325   4.123   4.235
    1C        C  326   4.189   4.288   4.353
    1C        C  327   4.282   4.182   4.356
    1C        C  328   4.140   4.339   4.476
    1C        C  329   4.195   4.296   4.599
    1C        C  330   4.028   4.438   4.711
    1C        C  331   4.141   4.352   4.717
    1C        C  332   3.971   4.492   4.828
    1C        C  333   4.051   4.477   4.943
    1C        C  334   4.553   3.266   2.064
    1C        C  335   4.536   3.127   2.062
    1C        C  336   4.540   3.350   2.175
    1C        C  337   4.517   3.279   2.295
    1C        C  338   4.527   3.494   2.414
    1C        C  339   4.523   3.353   2.415
    1C        C  340   4.522   3.568   2.534
    1C        C  341   4.520   3.497   2.656
    1C        C  342   4.492   3.708   2.776
    1C        C  343   4.518   3.569   2.777
    1C        C  344   4.472   3.779   2.897
    1C        C  345   4.490   3.712   3.020
    1C        C  346   4.422   3.912   3.139
    1C        C  347   4.474   3.780   3.142
    1C        C  348   4.390   3.980   3.259
    1C        C  349   4.423   3.920   3.383
    1C        C  350   4.319   4.104   3.502
    1C        C  351   4.398   3.987   3.505
    1C        C  352   4.276   4.164   3.622
    1C        C  353   4.320   4.108   3.744
    1C        C  354   4.178   4.268   3.865
    1C        C  355   4.272   4.162   3.865
    1C        C  356   4.124   4.316   3.986
    1C        C  357   4.181   4.276   4.109
    1C        C  358   4.014   4.405   4.231
    1C        C  359   4.133   4.329   4.230
    1C        C  360   3.952   4.446   4.352
    1C        C  361   4.019   4.413   4.472
    1C        C  362   3.828   4.515   4.590
    1C        C  363   3.956   4.456   4.590
    1C        C  364   3.763   4.545   4.711
    1C        C  365   3.840   4.543   4.830
    1C        C  366   3.628   4.581   4.948
    1C        C  367   3.767   4.571   4.946
    1C        C  368   4.517   3.562   2.053
    1C        C  369   4.524   3.491   2.174
    1C        C  370   4.504   3.706   2.289
    1C        C  371   4.522   3.566   2.293
    1C        C  372   4.486   3.776   2.410
    1C        C  373   4.497   3.707   2.532
    1C        C  374   4.429   3.910   2.648
    1C        C  375   4.476   3.777   2.653
    1C        C  376   4.389   3.971   2.769
    1C        C  377   4.424   3.911   2.892
    1C        C  378   4.317   4.092   3.011
    1C        C  379   4.395   3.974   3.015
    1C        C  380   4.271   4.150   3.131
    1C        C  381   4.314   4.098   3.256
    1C        C  382   4.174   4.256   3.377
    1C        C  383   4.270   4.153   3.379
    1C        C  384   4.126   4.310   3.499
    1C        C  385   4.181   4.269   3.622
    1C        C  386   4.006   4.392   3.742
    1C        C  387   4.127   4.318   3.743
    1C        C  388   3.947   4.432   3.864
    1C        C  389   4.005   4.392   3.986
    1C        C  390   3.820   4.492   4.107
    1C        C  391   3.949   4.435   4.109
    1C        C  392   3.752   4.513   4.229
    1C        C  393   3.821   4.498   4.351
    1C        C  394   3.614   4.552   4.473
    1C        C  395   3.754   4.531   4.471
    1C        C  396   3.545   4.563   4.596
    1C        C  397   3.623   4.564   4.714
    1C        C  398   3.410   4.541   4.836
    1C        C  399   3.548   4.572   4.833
    1C        C  400   3.342   4.516   4.955
    1C        C  401   4.504   3.700   2.053
    1C        C  402   4.456   3.915   2.169
    1C        C  403   4.497   3.780   2.168
    1C        C  404   4.406   3.975   2.287
    1C        C  405   4.430   3.906   2.408
    1C        C  406   4.325   4.097   2.525
    1C        C  407   4.397   3.975   2.527
    1C        C  408   4.270   4.145   2.646
    1C        C  409   4.308   4.087   2.769
    1C        C  410   4.166   4.245   2.886
    1C        C  411   4.267   4.146   2.891
    1C        C  412   4.114   4.290   3.009
    1C        C  413   4.170   4.249   3.132
    1C        C  414   4.002   4.378   3.253
    1C        C  415   4.119   4.300   3.254
    1C        C  416   3.946   4.419   3.377
    1C        C  417   4.007   4.387   3.500
    1C        C  418   3.811   4.476   3.619
    1C        C  419   3.941   4.421   3.620
    1C        C  420   3.746   4.502   3.742
    1C        C  421   3.815   4.483   3.863
    1C        C  422   3.610   4.534   3.988
    1C        C  423   3.749   4.507   3.986
    1C        C  424   3.539   4.539   4.110
    1C        C  425   3.612   4.535   4.231
    1C        C  426   3.402   4.542   4.355
    1C        C  427   3.542   4.555   4.352
    1C        C  428   3.330   4.540   4.477
    1C        C  429   3.404   4.551   4.597
    1C        C  430   3.193   4.512   4.724
    1C        C  431   3.333   4.538   4.718
    1C        C  432   3.121   4.493   4.845
    1C        C  433   3.204   4.494   4.957
    1C        C  434   4.379   4.118   2.050
    1C        C  435   4.443   3.993   2.053
    1C        C  436   4.302   4.162   2.162
    1C        C  437   4.328   4.093   2.284
    1C        C  438   4.176   4.248   2.401
    1C        C  439   4.279   4.151   2.403
    1C        C  440   4.121   4.297   2.521
    1C        C  441   4.175   4.249   2.643
    1C        C  442   4.000   4.375   2.765
    1C        C  443   4.117   4.295   2.763
    1C        C  444   3.941   4.412   2.888
    1C        C  445   4.000   4.373   3.011
    1C        C  446   3.808   4.466   3.130
    1C        C  447   3.937   4.409   3.132
    1C        C  448   3.745   4.494   3.253
    1C        C  449   3.815   4.473   3.374
    1C        C  450   3.608   4.519   3.497
    1C        C  451   3.747   4.498   3.495
    1C        C  452   3.539   4.534   3.620
    1C        C  453   3.607   4.531   3.744
    1C        C  454   3.397   4.539   3.865
    1C        C  455   3.538   4.542   3.867
    1C        C  456   3.328   4.528   3.988
    1C        C  457   3.398   4.534   4.110
    1C        C  458   3.192   4.497   4.237
    1C        C  459   3.330   4.528   4.234
    1C        C  460   3.124   4.485   4.360
    1C        C  461   3.192   4.508   4.481
    1C        C  462   2.995   4.429   4.603
    1C        C  463   3.125   4.485   4.603
    1C        C  464   2.929   4.396   4.723
    1C        C  465   2.990   4.434   4.845
    1C        C  466   2.796   4.336   4.960
    1C        C  467   2.904   4.426   4.960
    1C        C  468   4.124   4.285   2.040
    1C        C  469   4.185   4.245   2.160
    1C        C  470   4.005   4.373   2.275
    1C        C  471   4.123   4.294   2.278
    1C        C  472   3.941   4.402   2.398
    1C        C  473   4.001   4.372   2.522
    1C        C  474   3.810   4.468   2.641
    1C        C  475   3.939   4.410   2.643
    1C        C  476   3.743   4.489   2.763
    1C        C  477   3.809   4.461   2.885
    1C        C  478   3.604   4.518   3.010
    1C        C  479   3.741   4.483   3.007
    1C        C  480   3.535   4.534   3.132
    1C        C  481   3.608   4.526   3.254
    1C        C  482   3.395   4.535   3.377
    1C        C  483   3.536   4.530   3.375
    1C        C  484   3.325   4.531   3.499
    1C        C  485   3.398   4.537   3.620
    1C        C  486   3.191   4.497   3.745
    1C        C  487   3.327   4.534   3.742
    1C        C  488   3.125   4.470   3.867
    1C        C  489   3.190   4.497   3.990
    1C        C  490   3.001   4.410   4.116
    1C        C  491   3.126   4.475   4.114
    1C        C  492   2.942   4.376   4.240
    1C        C  493   2.998   4.421   4.362
    1C        C  494   2.821   4.301   4.482
    1C        C  495   2.934   4.387   4.483
    1C        C  496   2.769   4.256   4.605
    1C        C  497   2.813   4.313   4.727
    1C        C  498   2.659   4.163   4.846
    1C        C  499   2.748   4.272   4.845
    1C        C  500   2.594   4.115   4.961
    1C        C  501   4.003   4.353   2.035
    1C        C  502   3.813   4.460   2.151
    1C        C  503   3.942   4.402   2.152
    1C        C  504   3.744   4.477   2.273
    1C        C  505   3.809   4.452   2.396
    1C        C  506   3.607   4.518   2.519
    1C        C  507   3.743   4.480   2.517
    1C        C  508   3.535   4.523   2.641
    1C        C  509   3.603   4.513   2.764
    1C        C  510   3.393   4.527   2.886
    1C        C  511   3.534   4.521   2.887
    1C        C  512   3.324   4.520   3.009
    1C        C  513   3.394   4.530   3.131
    1C        C  514   3.188   4.491   3.255
    1C        C  515   3.325   4.527   3.254
    1C        C  516   3.121   4.470   3.378
    1C        C  517   3.187   4.501   3.499
    1C        C  518   2.996   4.415   3.626
    1C        C  519   3.123   4.477   3.623
    1C        C  520   2.936   4.373   3.747
    1C        C  521   3.000   4.404   3.869
    1C        C  522   2.833   4.282   3.994
    1C        C  523   2.942   4.371   3.993
    1C        C  524   2.783   4.236   4.118
    1C        C  525   2.832   4.288   4.240
    1C        C  526   2.685   4.136   4.364
    1C        C  527   2.774   4.245   4.361
    1C        C  528   2.647   4.077   4.487
    1C        C  529   2.686   4.142   4.606
    1C        C  530   2.569   3.965   4.730
    1C        C  531   2.631   4.093   4.727
    1C        C  532   2.537   3.901   4.853
    1C        C  533   2.528   3.992   4.963
    1C        C  534   3.613   4.550   2.039
    1C        C  535   3.748   4.511   2.038
    1C        C  536   3.534   4.531   2.157
    1C        C  537   3.606   4.509   2.277
    1C        C  538   3.393   4.524   2.400
    1C        C  539   3.534   4.526   2.398
    1C        C  540   3.322   4.520   2.523
    1C        C  541   3.394   4.520   2.644
    1C        C  542   3.182   4.489   2.766
    1C        C  543   3.321   4.518   2.765
    1C        C  544   3.115   4.467   2.889
    1C        C  545   3.186   4.487   3.009
    1C        C  546   2.993   4.409   3.134
    1C        C  547   3.121   4.468   3.133
    1C        C  548   2.936   4.369   3.257
    1C        C  549   2.993   4.411   3.379
    1C        C  550   2.830   4.282   3.504
    1C        C  551   2.935   4.377   3.504
    1C        C  552   2.774   4.235   3.624
    1C        C  553   2.824   4.287   3.746
    1C        C  554   2.699   4.122   3.874
    1C        C  555   2.782   4.236   3.870
    1C        C  556   2.657   4.065   3.997
    1C        C  557   2.695   4.125   4.119
    1C        C  558   2.591   3.944   4.245
    1C        C  559   2.658   4.069   4.243
    1C        C  560   2.564   3.880   4.368
    1C        C  561   2.592   3.947   4.490
    1C        C  562   2.531   3.748   4.616
    1C        C  563   2.561   3.886   4.613
    1C        C  564   2.515   3.680   4.738
    1C        C  565   2.518   3.759   4.856
    1C        C  566   2.526   3.544   4.977
    1C        C  567   2.522   3.683   4.974
    1C        C  568   3.329   4.473   2.037
    1C        C  569   3.394   4.508   2.156
    1C        C  570   3.184   4.476   2.278
    1C        C  571   3.322   4.511   2.279
    1C        C  572   3.116   4.461   2.401
    1C        C  573   3.184   4.490   2.520
    1C        C  574   2.992   4.403   2.644
    1C        C  575   3.117   4.469   2.643
    1C        C  576   2.932   4.362   2.765
    1C        C  577   2.991   4.399   2.888
    1C        C  578   2.822   4.280   3.015
    1C        C  579   2.931   4.370   3.013
    1C        C  580   2.779   4.225   3.138
    1C        C  581   2.832   4.273   3.260
    1C        C  582   2.694   4.116   3.383
    1C        C  583   2.782   4.226   3.383
    1C        C  584   2.657   4.058   3.506
    1C        C  585   2.691   4.121   3.628
    1C        C  586   2.601   3.933   3.755
    1C        C  587   2.662   4.060   3.753
    1C        C  588   2.567   3.873   3.878
    1C        C  589   2.595   3.938   4.000
    1C        C  590   2.541   3.737   4.127
    1C        C  591   2.570   3.875   4.124
    1C        C  592   2.530   3.670   4.251
    1C        C  593   2.539   3.741   4.372
    1C        C  594   2.507   3.534   4.496
    1C        C  595   2.522   3.674   4.496
    1C        C  596   2.515   3.464   4.619
    1C        C  597   2.519   3.538   4.739
    1C        C  598   2.536   3.325   4.861
    1C        C  599   2.526   3.466   4.861
    1C        C  600   2.534   3.249   4.978
    1C        C  601   3.197   4.436   2.043
    1C        C  602   2.981   4.394   2.160
    1C        C  603   3.117   4.440   2.158
    1C        C  604   2.923   4.359   2.285
    1C        C  605   2.991   4.395   2.403
    1C        C  606   2.823   4.266   2.528
    1C        C  607   2.929   4.360   2.526
    1C        C  608   2.777   4.214   2.651
    1C        C  609   2.822   4.274   2.771
    1C        C  610   2.686   4.115   2.894
    1C        C  611   2.772   4.227   2.894
    1C        C  612   2.650   4.057   3.018
    1C        C  613   2.695   4.111   3.140
    1C        C  614   2.595   3.925   3.262
    1C        C  615   2.655   4.053   3.262
    1C        C  616   2.572   3.863   3.387
    1C        C  617   2.596   3.931   3.509
    1C        C  618   2.534   3.731   3.638
    1C        C  619   2.571   3.868   3.633
    1C        C  620   2.517   3.665   3.762
    1C        C  621   2.532   3.737   3.883
    1C        C  622   2.515   3.525   4.009
    1C        C  623   2.528   3.666   4.005
    1C        C  624   2.521   3.456   4.132
    1C        C  625   2.524   3.529   4.252
    1C        C  626   2.540   3.322   4.378
    1C        C  627   2.514   3.461   4.376
    1C        C  628   2.558   3.252   4.500
    1C        C  629   2.539   3.325   4.620
    1C        C  630   2.597   3.117   4.741
    1C        C  631   2.557   3.254   4.741
    1C        C  632   2.615   3.048   4.864
    1C        C  633   2.564   3.112   4.982
    1C        C  634   2.788   4.301   2.052
    1C        C  635   2.892   4.395   2.049
    1C        C  636   2.749   4.230   2.166
    1C        C  637   2.809   4.274   2.286
    1C        C  638   2.678   4.108   2.411
    1C        C  639   2.764   4.220   2.409
    1C        C  640   2.641   4.047   2.533
    1C        C  641   2.692   4.101   2.653
    1C        C  642   2.589   3.919   2.777
    1C        C  643   2.650   4.047   2.776
    1C        C  644   2.566   3.856   2.901
    1C        C  645   2.590   3.929   3.020
    1C        C  646   2.532   3.722   3.147
    1C        C  647   2.564   3.859   3.141
    1C        C  648   2.521   3.654   3.270
    1C        C  649   2.535   3.727   3.390
    1C        C  650   2.517   3.522   3.518
    1C        C  651   2.519   3.663   3.515
    1C        C  652   2.523   3.454   3.641
    1C        C  653   2.514   3.524   3.764
    1C        C  654   2.536   3.315   3.888
    1C        C  655   2.513   3.454   3.886
    1C        C  656   2.551   3.247   4.012
    1C        C  657   2.537   3.315   4.135
    1C        C  658   2.607   3.117   4.259
    1C        C  659   2.561   3.251   4.258
    1C        C  660   2.634   3.050   4.380
    1C        C  661   2.601   3.117   4.500
    1C        C  662   2.706   2.933   4.624
    1C        C  663   2.625   3.049   4.621
    1C        C  664   2.744   2.872   4.746
    1C        C  665   2.693   2.928   4.866
    1C        C  666   2.745   2.871   4.983
    1C        C  667   2.681   4.026   2.050
    1C        C  668   2.687   4.103   2.167
    1C        C  669   2.584   3.917   2.291
    1C        C  670   2.642   4.047   2.289
    1C        C  671   2.562   3.848   2.412
    1C        C  672   2.579   3.920   2.533
    1C        C  673   2.518   3.718   2.661
    1C        C  674   2.555   3.855   2.656
    1C        C  675   2.509   3.648   2.783
    1C        C  676   2.530   3.720   2.903
    1C        C  677   2.508   3.509   3.029
    1C        C  678   2.520   3.650   3.025
    1C        C  679   2.513   3.441   3.152
    1C        C  680   2.512   3.513   3.274
    1C        C  681   2.541   3.307   3.398
    1C        C  682   2.518   3.446   3.398
    1C        C  683   2.557   3.241   3.522
    1C        C  684   2.541   3.313   3.643
    1C        C  685   2.604   3.114   3.768
    1C        C  686   2.553   3.246   3.766
    1C        C  687   2.635   3.052   3.891
    1C        C  688   2.603   3.116   4.013
    1C        C  689   2.717   2.938   4.137
    1C        C  690   2.635   3.053   4.136
    1C        C  691   2.760   2.880   4.258
    1C        C  692   2.714   2.934   4.381
    1C        C  693   2.756   2.879   4.504
    1C        C  694   2.632   3.895   2.058
    1C        C  695   2.529   3.706   2.178
    1C        C  696   2.577   3.839   2.174
    1C        C  697   2.512   3.639   2.301
    1C        C  698   2.524   3.712   2.422
    1C        C  699   2.490   3.502   2.542
    1C        C  700   2.499   3.643   2.542
    1C        C  701   2.499   3.434   2.665
    1C        C  702   2.500   3.507   2.786
    1C        C  703   2.518   3.295   2.910
    1C        C  704   2.504   3.436   2.908
    1C        C  705   2.538   3.226   3.032
    1C        C  706   2.532   3.301   3.152
    1C        C  707   2.596   3.103   3.277
    1C        C  708   2.551   3.237   3.276
    1C        C  709   2.632   3.045   3.401
    1C        C  710   2.604   3.108   3.525
    1C        C  711   2.709   2.926   3.649
    1C        C  712   2.633   3.045   3.648
    1C        C  713   2.753   2.873   3.772
    1C        C  714   2.711   2.933   3.893
    1C        C  715   2.753   2.875   4.015
    1C        C  716   2.448   3.504   2.063
    1C        C  717   2.486   3.639   2.063
    1C        C  718   2.467   3.425   2.181
    1C        C  719   2.482   3.500   2.301
    1C        C  720   2.511   3.288   2.423
    1C        C  721   2.488   3.428   2.422
    1C        C  722   2.536   3.224   2.547
    1C        C  723   2.518   3.294   2.668
    1C        C  724   2.586   3.093   2.792
    1C        C  725   2.531   3.223   2.790
    1C        C  726   2.611   3.025   2.913
    1C        C  727   2.579   3.091   3.034
    1C        C  728   2.709   2.922   3.157
    1C        C  729   2.624   3.035   3.156
    1C        C  730   2.754   2.870   3.281
    1C        C  731   2.711   2.928   3.402
    1C        C  732   2.751   2.871   3.525
    1C        C  733   2.485   3.197   2.073
    1C        C  734   2.484   3.283   2.183
    1C        C  735   2.582   3.088   2.305
    1C        C  736   2.516   3.214   2.303
    1C        C  737   2.614   3.024   2.427
    1C        C  738   2.587   3.092   2.548
    1C        C  739   2.694   2.910   2.669
    1C        C  740   2.617   3.028   2.670
    1C        C  741   2.736   2.853   2.791
    1C        C  742   2.697   2.913   2.913
    1C        C  743   2.747   2.862   3.035
    1C        C  744   2.547   3.072   2.074
    1C        C  745   2.684   2.897   2.186
    1C        C  746   2.606   3.014   2.187
    1C        C  747   2.726   2.839   2.308
    1C        C  748   2.688   2.904   2.428
    1C        C  749   2.737   2.850   2.549
    1C        C  750   2.731   2.839   2.068
    1C        C  751   3.660   2.355   1.952
    1C        O  752   3.666   2.229   1.940
    1C        O  753   3.656   2.410   1.823
    1C        C  754   4.636   3.057   1.977
    1C        O  755   4.606   3.001   1.869
    1C        O  756   4.775   3.056   1.997
    1C        C  757   4.460   4.218   1.977
    1C        O  758   4.570   4.252   2.028
    1C        O  759   4.461   4.224   1.837
    1C        C  760   3.572   4.641   1.929
    1C        O  761   3.614   4.760   1.930
    1C        O  762   3.564   4.592   1.798
    1C        C  763   2.863   4.520   1.975
    1C        O  764   2.830   4.507   1.854
    1C        O  765   2.787   4.617   2.042
    1C        C  766   2.354   3.465   1.955
    1C        O  767   2.395   3.460   1.836
    1C        O  768   2.215   3.480   1.964
    1C        C  769   4.692   3.587   5.057
    1C        O  770   4.663   3.567   5.178
    1C        O  771   4.822   3.559   5.012
    1C        C  772   4.274   4.462   5.035
    1C        O  773   4.277   4.412   5.151
    1C        O  774   4.334   4.585   5.007
    1C        C  775   4.150   2.520   5.065
    1C        O  776   4.155   2.395   5.062
    1C        O  777   4.131   2.551   5.200
    1C        C  778   2.874   4.551   5.034
    1C        O  779   2.824   4.653   4.981
    1C        O  780   2.920   4.557   5.166
    1C        C  781   2.484   3.036   5.080
    1C        O  782   2.358   3.033   5.075
    1C        O  783   2.522   3.014   5.212
    1C        C  784   2.417   3.996   5.062
    1C        O  785   2.304   4.041   5.031
    1C        O  786   2.456   3.999   5.196
    1C        C  787   2.941   2.416   2.016
    1C        O  788   2.950   2.389   1.893
    1C        O  789   2.916   2.299   2.088
    1C        C  790   3.165   2.364   5.055
    1C        O  791   3.144   2.249   5.008
    1C        O  792   3.095   2.368   5.176
    1C        H  793   4.256   3.033   5.041
    1C        H  794   4.170   2.814   5.063
    1C        H  795   4.478   3.139   5.066
    1C        H  796   4.556   3.362   5.062
    1C        H  797   4.502   3.782   5.051
    1C        H  798   4.449   3.998   5.049
    1C        H  799   4.279   4.171   5.049
    1C        H  800   4.015   4.514   5.036
    1C        H  801   3.818   4.637   5.013
    1C        H  802   3.582   4.617   5.037
    1C        H  803   3.378   4.562   5.045
    1C        H  804   3.166   4.468   5.053
    1C        H  805   3.878   2.495   5.069
    1C        H  806   3.665   2.393   5.045
    1C        H  807   3.038   2.595   5.078
    1C        H  808   3.438   2.474   5.079
    1C        H  809   2.863   2.721   5.074
    1C        H  810   2.699   2.908   5.073
    1C        H  811   2.486   3.290   5.064
    1C        H  812   2.594   3.507   5.051
    1C        H  813   2.471   3.731   5.055
    1C        H  814   2.566   4.187   5.035
    1C        H  815   2.724   4.360   5.035
    1C        H  816   2.665   2.839   1.983
    1C        H  817   2.853   2.701   1.976
    1C        H  818   3.202   2.433   1.989
    1C        H  819   3.421   2.405   1.985
    1C        H  820   3.893   2.458   1.997
    1C        H  821   4.080   2.587   1.983
    1C        H  822   4.287   2.688   1.997
    1C        H  823   4.404   2.891   1.968
    1C        H  824   4.608   3.309   1.984
    1C        H  825   4.475   3.513   1.968
    1C        H  826   4.500   3.747   1.957
    1C        H  827   3.811   4.554   1.964
    1C        H  828   3.948   4.353   1.943
    1C        H  829   4.186   4.298   1.954
    1C        H  830   4.489   3.967   1.960
    1C        H  831   2.682   3.824   1.995
    1C        H  832   2.716   4.057   1.954
    1C        H  833   2.756   4.270   1.955
    1C        H  834   3.388   4.440   1.954
    1C        H  835   3.143   4.434   1.950
    1C        H  836   2.553   3.023   1.979
    1C        H  837   2.440   3.225   1.980
    1C        H  838   2.468   3.695   1.973
    2V3OU   H29  839   2.796   3.549   2.512
    2V3OU   C27  840   2.793   3.505   2.615
    2V3OU   H27  841   2.738   3.573   2.684
    2V3OU   H28  842   2.736   3.408   2.616
    2V3OU   O11  843   2.919   3.475   2.677
    2V3OU   C15  844   2.933   3.394   2.788
    2V3OU   C13  845   3.054   3.373   2.857
    2V3OU   C14  846   3.082   3.270   2.948
    2V3OU   C16  847   2.977   3.186   2.983
    2V3OU    H6  848   2.991   3.097   3.047
    2V3OU   C12  849   3.212   3.231   3.006
    2V3OU    O2  850   3.236   3.129   3.075
    2V3OU   C10  851   3.326   3.309   2.955
    2V3OU    C8  852   3.456   3.274   2.992
    2V3OU   O10  853   3.486   3.157   3.053
    2V3OU   H26  854   3.400   3.112   3.063
    2V3OU    C6  855   3.565   3.352   2.943
    2V3OU    C5  856   3.539   3.466   2.867
    2V3OU    C4  857   3.702   3.294   2.940
    2V3OU    H4  858   3.728   3.223   3.024
    2V3OU    H5  859   3.715   3.231   2.847
    2V3OU    C2  860   3.815   3.396   2.939
    2V3OU    O6  861   3.808   3.475   3.059
    2V3OU   H21  862   3.762   3.555   3.028
    2V3OU    C3  863   3.784   3.494   2.826
    2V3OU    H2  864   3.867   3.569   2.822
    2V3OU    H3  865   3.781   3.439   2.728
    2V3OU   C25  866   3.951   3.328   2.921
    2V3OU    O7  867   3.993   3.299   2.809
    2V3OU   C26  868   4.034   3.296   3.044
    2V3OU   H22  869   4.069   3.385   3.102
    2V3OU   H23  870   4.117   3.226   3.016
    2V3OU    O8  871   3.962   3.212   3.131
    2V3OU   H24  872   3.917   3.264   3.200
    2V3OU    C1  873   3.650   3.564   2.843
    2V3OU    H1  874   3.624   3.621   2.749
    2V3OU    O3  875   3.652   3.653   2.955
    2V3OU   C19  876   3.612   3.790   2.940
    2V3OU    H9  877   3.522   3.799   2.872
    2V3OU    O4  878   3.710   3.842   2.853
    2V3OU   C20  879   3.843   3.875   2.894
    2V3OU   H10  880   3.891   3.775   2.915
    2V3OU   C24  881   3.604   3.858   3.077
    2V3OU   H16  882   3.537   3.800   3.145
    2V3OU   H17  883   3.561   3.961   3.065
    2V3OU   C23  884   3.747   3.875   3.130
    2V3OU   H15  885   3.787   3.769   3.144
    2V3OU    N1  886   3.734   3.959   3.248
    2V3OU   H19  887   3.801   3.920   3.311
    2V3OU   H20  888   3.646   3.934   3.290
    2V3OU   C21  889   3.847   3.942   3.032
    2V3OU   H11  890   3.953   3.928   3.070
    2V3OU    O5  891   3.829   4.083   3.031
    2V3OU   H18  892   3.778   4.105   3.110
    2V3OU   C22  893   3.915   3.945   2.781
    2V3OU   H12  894   3.865   4.045   2.771
    2V3OU   H13  895   3.897   3.895   2.683
    2V3OU   H14  896   4.025   3.958   2.803
    2V3OU   C11  897   3.162   3.473   2.852
    2V3OU    O1  898   3.137   3.587   2.806
    2V3OU    C9  899   3.299   3.428   2.883
    2V3OU    C7  900   3.405   3.506   2.838
    2V3OU    O9  901   3.384   3.619   2.762
    2V3OU   H25  902   3.287   3.624   2.765
    2V3OU   C17  903   2.831   3.308   2.831
    2V3OU    H7  904   2.732   3.345   2.804
    2V3OU   C18  905   2.852   3.211   2.929
    2V3OU    H8  906   2.780   3.163   2.996
    3SOL     OW  907   2.686   5.090   0.160
    3SOL    HW1  908   2.703   5.112   0.256
    3SOL    HW2  909   2.769   5.051   0.119
    4SOL     OW  910   6.977   6.914   2.300
    4SOL    HW1  911   6.923   6.998   2.297
    4SOL    HW2  912   6.931   6.842   2.247
    5SOL     OW  913   4.335   1.883   2.690
    5SOL    HW1  914   4.347   1.802   2.746
    5SOL    HW2  915   4.264   1.867   2.622
    6SOL     OW  916   4.128   1.192   1.737
    6SOL    HW1  917   4.165   1.126   1.671
    6SOL    HW2  918   4.194   1.206   1.810
    7SOL     OW  919   0.102   3.407   2.780
    7SOL    HW1  920   0.124   3.323   2.828
    7SOL    HW2  921   0.182   3.439   2.729
    8SOL     OW  922   3.518   0.683   6.990
    8SOL    HW1  923   3.426   0.678   0.008
    8SOL    HW2  924   3.580   0.626   0.022
    9SOL     OW  925   4.798   0.977   5.763
    9SOL    HW1  926   4.762   1.069   5.780
    9SOL    HW2  927   4.820   0.933   5.850
   10SOL     OW  928   1.622   4.881   6.038
   10SOL    HW1  929   1.567   4.916   5.961
   10SOL    HW2  930   1.718   4.900   6.021
   11SOL     OW  931   2.869   7.013   5.884
   11SOL    HW1  932   2.784   6.982   5.926
   11SOL    HW2  933   2.945   6.998   5.948
   12SOL     OW  934   3.704   5.557   3.555
   12SOL    HW1  935   3.757   5.514   3.628
   12SOL    HW2  936   3.737   5.650   3.541
   13SOL     OW  937   3.953   6.441   4.270
   13SOL    HW1  938   4.044   6.454   4.229
   13SOL    HW2  939   3.964   6.402   4.362
   14SOL     OW  940   3.900   5.700   5.746
   14SOL    HW1  941   3.860   5.739   5.663
   14SOL    HW2  942   3.834   5.640   5.790
   15SOL     OW  943   0.693   6.595   2.274
   15SOL    HW1  944   0.691   6.661   2.198
   15SOL    HW2  945   0.761   6.524   2.255
   16SOL     OW  946   5.118   2.691   6.001
   16SOL    HW1  947   5.134   2.781   5.962
   16SOL    HW2  948   5.027   2.687   6.041
   17SOL     OW  949   5.575   6.514   6.072
   17SOL    HW1  950   5.644   6.485   6.138
   17SOL    HW2  951   5.608   6.594   6.021
   18SOL     OW  952   3.157   0.806   5.546
   18SOL    HW1  953   3.069   0.771   5.577
   18SOL    HW2  954   3.229   0.774   5.608
   19SOL     OW  955   0.220   1.972   3.056
   19SOL    HW1  956   0.142   1.910   3.054
   19SOL    HW2  957   0.280   1.953   2.978
   20SOL     OW  958   5.128   1.616   3.778
   20SOL    HW1  959   5.089   1.552   3.845
   20SOL    HW2  960   5.217   1.647   3.810
   21SOL     OW  961   3.379   1.313   2.805
   21SOL    HW1  962   3.379   1.390   2.742
   21SOL    HW2  963   3.433   1.238   2.766
   22SOL     OW  964   2.224   6.553   6.928
   22SOL    HW1  965   2.225   6.540   0.005
   22SOL    HW2  966   2.140   6.601   6.902
   23SOL     OW  967   5.427   5.530   3.127
   23SOL    HW1  968   5.430   5.450   3.066
   23SOL    HW2  969   5.386   5.607   3.079
   24SOL     OW  970   4.242   0.130   3.386
   24SOL    HW1  971   4.289   0.048   3.418
   24SOL    HW2  972   4.144   0.120   3.401
   25SOL     OW  973   3.276   0.722   4.947
   25SOL    HW1  974   3.317   0.737   5.037
   25SOL    HW2  975   3.215   0.643   4.952
   26SOL     OW  976   0.460   0.858   0.436
   26SOL    HW1  977   0.378   0.827   0.483
   26SOL    HW2  978   0.541   0.834   0.489
   27SOL     OW  979   1.226   2.441   2.392
   27SOL    HW1  980   1.322   2.440   2.364
   27SOL    HW2  981   1.211   2.517   2.456
   28SOL     OW  982   2.915   1.711   6.042
   28SOL    HW1  983   2.971   1.754   5.971
   28SOL    HW2  984   2.833   1.672   6.000
   29SOL     OW  985   6.322   1.771   2.186
   29SOL    HW1  986   6.306   1.862   2.224
   29SOL    HW2  987   6.409   1.735   2.222
   30SOL     OW  988   4.155   0.815   3.839
   30SOL    HW1  989   4.062   0.811   3.878
   30SOL    HW2  990   4.217   0.854   3.907
   31SOL     OW  991   0.820   2.701   6.214
   31SOL    HW1  992   0.806   2.659   6.304
   31SOL    HW2  993   0.857   2.633   6.151
   32SOL     OW  994   0.776   1.789   2.628
   32SOL    HW1  995   0.731   1.711   2.672
   32SOL    HW2  996   0.752   1.791   2.531
   33SOL     OW  997   1.319   4.817   5.675
   33SOL    HW1  998   1.298   4.724   5.705
   33SOL    HW2  999   1.388   4.814   5.603
   34SOL     OW 1000   2.813   0.234   4.288
   34SOL    HW1 1001   2.862   0.170   4.347
   34SOL    HW2 1002   2.743   0.185   4.237
   35SOL     OW 1003   3.628   3.834   6.797
   35SOL    HW1 1004   3.579   3.777   6.731
   35SOL    HW2 1005   3.699   3.886   6.749
   36SOL     OW 1006   5.770   1.689   4.853
   36SOL    HW1 1007   5.834   1.761   4.826
   36SOL    HW2 1008   5.820   1.605   4.875
   37SOL     OW 1009   1.240   2.172   0.514
   37SOL    HW1 1010   1.252   2.074   0.502
   37SOL    HW2 1011   1.160   2.202   0.463
   38SOL     OW 1012   0.453   5.071   2.055
   38SOL    HW1 1013   0.426   4.976   2.069
   38SOL    HW2 1014   0.375   5.131   2.071
   39SOL     OW 1015   6.804   4.177   6.749
   39SOL    HW1 1016   6.774   4.244   6.817
   39SOL    HW2 1017   6.730   4.113   6.730
   40SOL     OW 1018   5.169   1.490   0.373
   40SOL    HW1 1019   5.130   1.575   0.409
   40SOL    HW2 1020   5.192   1.502   0.276
   41SOL     OW 1021   6.639   5.212   3.265
   41SOL    HW1 1022   6.613   5.278   3.195
   41SOL    HW2 1023   6.559   5.156   3.288
   42SOL     OW 1024   2.682   5.429   4.882
   42SOL    HW1 1025   2.652   5.417   4.788
   42SOL    HW2 1026   2.767   5.482   4.884
   43SOL     OW 1027   5.154   0.112   5.514
   43SOL    HW1 1028   5.125   0.167   5.592
   43SOL    HW2 1029   5.252   0.125   5.498
   44SOL     OW 1030   4.106   1.302   5.997
   44SOL    HW1 1031   4.192   1.256   5.973
   44SOL    HW2 1032   4.126   1.393   6.033
   45SOL     OW 1033   4.537   5.976   2.017
   45SOL    HW1 1034   4.499   5.997   2.107
   45SOL    HW2 1035   4.533   6.058   1.959
   46SOL     OW 1036   0.296   3.206   2.620
   46SOL    HW1 1037   0.337   3.286   2.663
   46SOL    HW2 1038   0.255   3.148   2.690
   47SOL     OW 1039   4.872   3.874   1.068
   47SOL    HW1 1040   4.955   3.820   1.059
   47SOL    HW2 1041   4.868   3.942   0.994
   48SOL     OW 1042   6.614   3.266   5.649
   48SOL    HW1 1043   6.697   3.262   5.705
   48SOL    HW2 1044   6.578   3.359   5.650
   49SOL     OW 1045   5.083   3.664   1.806
   49SOL    HW1 1046   5.082   3.756   1.767
   49SOL    HW2 1047   5.169   3.618   1.780
   50SOL     OW 1048   5.724   1.166   5.384
   50SOL    HW1 1049   5.631   1.137   5.409
   50SOL    HW2 1050   5.722   1.262   5.356
   51SOL     OW 1051   2.494   6.604   3.041
   51SOL    HW1 1052   2.476   6.506   3.051
   51SOL    HW2 1053   2.549   6.620   2.959
   52SOL     OW 1054   6.272   3.511   3.029
   52SOL    HW1 1055   6.220   3.587   2.990
   52SOL    HW2 1056   6.369   3.523   3.007
   53SOL     OW 1057   3.795   6.378   3.728
   53SOL    HW1 1058   3.747   6.339   3.807
   53SOL    HW2 1059   3.784   6.477   3.728
   54SOL     OW 1060   3.880   4.751   1.012
   54SOL    HW1 1061   3.842   4.840   0.983
   54SOL    HW2 1062   3.963   4.732   0.960
   55SOL     OW 1063   2.117   2.959   6.377
   55SOL    HW1 1064   2.176   2.917   6.446
   55SOL    HW2 1065   2.112   3.057   6.392
   56SOL     OW 1066   0.206   0.663   1.314
   56SOL    HW1 1067   0.294   0.708   1.300
   56SOL    HW2 1068   0.157   0.708   1.389
   57SOL     OW 1069   4.577   1.134   1.902
   57SOL    HW1 1070   4.633   1.128   1.819
   57SOL    HW2 1071   4.635   1.144   1.982
   58SOL     OW 1072   0.359   6.440   5.782
   58SOL    HW1 1073   0.341   6.539   5.774
   58SOL    HW2 1074   0.415   6.423   5.862
   59SOL     OW 1075   1.446   2.587   5.584
   59SOL    HW1 1076   1.456   2.499   5.629
   59SOL    HW2 1077   1.467   2.578   5.487
   60SOL     OW 1078   5.291   2.596   4.801
   60SOL    HW1 1079   5.317   2.682   4.846
   60SOL    HW2 1080   5.366   2.530   4.809
   61SOL     OW 1081   6.660   2.156   4.621
   61SOL    HW1 1082   6.621   2.128   4.709
   61SOL    HW2 1083   6.623   2.098   4.548
   62SOL     OW 1084   1.213   1.368   2.148
   62SOL    HW1 1085   1.123   1.327   2.131
   62SOL    HW2 1086   1.229   1.441   2.081
   63SOL     OW 1087   5.643   1.191   3.560
   63SOL    HW1 1088   5.548   1.171   3.536
   63SOL    HW2 1089   5.647   1.225   3.654
   64SOL     OW 1090   0.501   3.452   5.904
   64SOL    HW1 1091   0.524   3.362   5.940
   64SOL    HW2 1092   0.439   3.443   5.827
   65SOL     OW 1093   0.532   5.032   6.782
   65SOL    HW1 1094   0.532   5.112   6.843
   65SOL    HW2 1095   0.440   5.018   6.745
   66SOL     OW 1096   4.247   1.191   5.360
   66SOL    HW1 1097   4.249   1.286   5.390
   66SOL    HW2 1098   4.221   1.187   5.263
   67SOL     OW 1099   5.774   3.790   5.777
   67SOL    HW1 1100   5.860   3.784   5.727
   67SOL    HW2 1101   5.749   3.699   5.811
   68SOL     OW 1102   6.271   0.798   6.598
   68SOL    HW1 1103   6.283   0.850   6.514
   68SOL    HW2 1104   6.182   0.751   6.597
   69SOL     OW 1105   0.828   3.686   6.043
   69SOL    HW1 1106   0.741   3.724   6.010
   69SOL    HW2 1107   0.826   3.679   6.142
   70SOL     OW 1108   5.422   4.052   5.227
   70SOL    HW1 1109   5.344   4.030   5.286
   70SOL    HW2 1110   5.452   4.146   5.246
   71SOL     OW 1111   4.369   1.428   4.050
   71SOL    HW1 1112   4.408   1.505   4.101
   71SOL    HW2 1113   4.284   1.457   4.007
   72SOL     OW 1114   1.913   0.369   4.145
   72SOL    HW1 1115   1.866   0.454   4.171
   72SOL    HW2 1116   1.979   0.389   4.073
   73SOL     OW 1117   3.772   0.887   1.327
   73SOL    HW1 1118   3.793   0.801   1.372
   73SOL    HW2 1119   3.687   0.925   1.365
   74SOL     OW 1120   4.186   0.497   0.254
   74SOL    HW1 1121   4.250   0.567   0.221
   74SOL    HW2 1122   4.198   0.413   0.201
   75SOL     OW 1123   4.415   0.832   0.888
   75SOL    HW1 1124   4.410   0.828   0.988
   75SOL    HW2 1125   4.401   0.927   0.858
   76SOL     OW 1126   2.763   3.553   1.521
   76SOL    HW1 1127   2.715   3.518   1.440
   76SOL    HW2 1128   2.720   3.517   1.603
   77SOL     OW 1129   0.798   6.828   3.481
   77SOL    HW1 1130   0.774   6.920   3.514
   77SOL    HW2 1131   0.728   6.763   3.509
   78SOL     OW 1132   5.911   1.422   0.238
   78SOL    HW1 1133   5.846   1.407   0.162
   78SOL    HW2 1134   5.863   1.467   0.314
   79SOL     OW 1135   3.157   5.889   0.847
   79SOL    HW1 1136   3.065   5.852   0.844
   79SOL    HW2 1137   3.205   5.853   0.928
   80SOL     OW 1138   5.107   1.389   4.655
   80SOL    HW1 1139   5.058   1.459   4.707
   80SOL    HW2 1140   5.066   1.299   4.674
   81SOL     OW 1141   2.174   0.230   2.279
   81SOL    HW1 1142   2.137   0.181   2.357
   81SOL    HW2 1143   2.259   0.186   2.249
   82SOL     OW 1144   5.691   4.843   0.588
   82SOL    HW1 1145   5.603   4.798   0.579
   82SOL    HW2 1146   5.764   4.780   0.561
   83SOL     OW 1147   0.810   0.286   0.200
   83SOL    HW1 1148   0.798   0.204   0.257
   83SOL    HW2 1149   0.904   0.287   0.164
   84SOL     OW 1150   6.506   2.703   3.391
   84SOL    HW1 1151   6.479   2.621   3.442
   84SOL    HW2 1152   6.547   2.769   3.455
   85SOL     OW 1153   1.706   1.196   4.085
   85SOL    HW1 1154   1.748   1.105   4.080
   85SOL    HW2 1155   1.716   1.241   3.996
   86SOL     OW 1156   0.567   1.636   6.075
   86SOL    HW1 1157   0.609   1.725   6.057
   86SOL    HW2 1158   0.490   1.623   6.014
   87SOL     OW 1159   4.777   4.404   1.211
   87SOL    HW1 1160   4.810   4.497   1.229
   87SOL    HW2 1161   4.818   4.340   1.276
   88SOL     OW 1162   3.734   1.857   6.104
   88SOL    HW1 1163   3.645   1.816   6.122
   88SOL    HW2 1164   3.730   1.909   6.018
   89SOL     OW 1165   2.276   2.620   6.225
   89SOL    HW1 1166   2.347   2.682   6.191
   89SOL    HW2 1167   2.312   2.527   6.226
   90SOL     OW 1168   4.237   5.120   2.380
   90SOL    HW1 1169   4.248   5.057   2.457
   90SOL    HW2 1170   4.286   5.205   2.399
   91SOL     OW 1171   5.990   4.038   5.896
   91SOL    HW1 1172   5.921   4.057   5.826
   91SOL    HW2 1173   6.065   3.986   5.854
   92SOL     OW 1174   4.375   4.734   0.716
   92SOL    HW1 1175   4.452   4.690   0.670
   92SOL    HW2 1176   4.407   4.818   0.761
   93SOL     OW 1177   3.128   3.662   0.356
   93SOL    HW1 1178   3.108   3.591   0.423
   93SOL    HW2 1179   3.048   3.721   0.344
   94SOL     OW 1180   2.034   6.015   5.895
   94SOL    HW1 1181   2.079   5.998   5.808
   94SOL    HW2 1182   2.082   5.967   5.968
   95SOL     OW 1183   0.921   0.058   2.696
   95SOL    HW1 1184   0.990   0.114   2.743
   95SOL    HW2 1185   0.955   6.987   2.687
   96SOL     OW 1186   3.389   0.413   4.860
   96SOL    HW1 1187   3.398   0.512   4.864
   96SOL    HW2 1188   3.478   0.372   4.841
   97SOL     OW 1189   2.548   3.277   6.125
   97SOL    HW1 1190   2.469   3.217   6.110
   97SOL    HW2 1191   2.518   3.361   6.169
   98SOL     OW 1192   0.676   3.534   0.806
   98SOL    HW1 1193   0.647   3.439   0.807
   98SOL    HW2 1194   0.661   3.573   0.715
   99SOL     OW 1195   3.703   2.591   1.421
   99SOL    HW1 1196   3.641   2.513   1.414
   99SOL    HW2 1197   3.708   2.620   1.517
  100SOL     OW 1198   0.821   6.784   4.897
  100SOL    HW1 1199   0.750   6.846   4.863
  100SOL    HW2 1200   0.780   6.717   4.959
  101SOL     OW 1201   1.782   5.079   2.469
  101SOL    HW1 1202   1.789   5.151   2.399
  101SOL    HW2 1203   1.722   5.006   2.436
  102SOL     OW 1204   3.850   5.347   1.443
  102SOL    HW1 1205   3.752   5.356   1.457
  102SOL    HW2 1206   3.883   5.424   1.388
  103SOL     OW 1207   2.056   2.333   1.585
  103SOL    HW1 1208   2.029   2.238   1.602
  103SOL    HW2 1209   2.129   2.358   1.648
  104SOL     OW 1210   1.676   5.945   2.598
  104SOL    HW1 1211   1.741   5.958   2.674
  104SOL    HW2 1212   1.690   5.854   2.558
  105SOL     OW 1213   6.842   1.086   6.117
  105SOL    HW1 1214   6.843   0.988   6.093
  105SOL    HW2 1215   6.923   1.130   6.080
  106SOL     OW 1216   3.580   6.482   4.812
  106SOL    HW1 1217   3.601   6.456   4.718
  106SOL    HW2 1218   3.603   6.407   4.874
  107SOL     OW 1219   0.805   1.144   0.916
  107SOL    HW1 1220   0.790   1.045   0.924
  107SOL    HW2 1221   0.722   1.193   0.941
  108SOL     OW 1222   2.624   6.846   5.865
  108SOL    HW1 1223   2.694   6.774   5.869
  108SOL    HW2 1224   2.589   6.853   5.771
  109SOL     OW 1225   0.958   1.115   2.462
  109SOL    HW1 1226   1.035   1.104   2.525
  109SOL    HW2 1227   0.954   1.210   2.431
  110SOL     OW 1228   3.089   5.903   4.027
  110SOL    HW1 1229   3.050   5.819   3.990
  110SOL    HW2 1230   3.177   5.882   4.071
  111SOL     OW 1231   1.491   1.168   4.243
  111SOL    HW1 1232   1.525   1.128   4.328
  111SOL    HW2 1233   1.569   1.192   4.185
  112SOL     OW 1234   3.249   6.110   6.296
  112SOL    HW1 1235   3.167   6.055   6.283
  112SOL    HW2 1236   3.314   6.090   6.223
  113SOL     OW 1237   0.676   5.337   2.530
  113SOL    HW1 1238   0.626   5.339   2.616
  113SOL    HW2 1239   0.772   5.313   2.548
  114SOL     OW 1240   1.287   6.831   2.491
  114SOL    HW1 1241   1.376   6.833   2.536
  114SOL    HW2 1242   1.252   6.738   2.490
  115SOL     OW 1243   4.873   1.383   3.396
  115SOL    HW1 1244   4.900   1.392   3.301
  115SOL    HW2 1245   4.912   1.458   3.450
  116SOL     OW 1246   6.119   5.708   1.894
  116SOL    HW1 1247   6.028   5.674   1.870
  116SOL    HW2 1248   6.113   5.762   1.978
  117SOL     OW 1249   1.655   2.095   0.627
  117SOL    HW1 1250   1.640   2.181   0.677
  117SOL    HW2 1251   1.566   2.055   0.604
  118SOL     OW 1252   1.629   0.617   2.624
  118SOL    HW1 1253   1.623   0.517   2.625
  118SOL    HW2 1254   1.612   0.650   2.531
  119SOL     OW 1255   0.693   0.629   6.995
  119SOL    HW1 1256   0.695   0.716   0.022
  119SOL    HW2 1257   0.663   0.556   0.035
  120SOL     OW 1258   5.751   0.134   6.359
  120SOL    HW1 1259   5.832   0.077   6.344
  120SOL    HW2 1260   5.710   0.111   6.447
  121SOL     OW 1261   1.880   3.420   6.339
  121SOL    HW1 1262   1.882   3.445   6.243
  121SOL    HW2 1263   1.841   3.495   6.392
  122SOL     OW 1264   1.310   3.700   6.721
  122SOL    HW1 1265   1.364   3.772   6.764
  122SOL    HW2 1266   1.233   3.676   6.781
  123SOL     OW 1267   0.589   0.979   2.812
  123SOL    HW1 1268   0.572   1.009   2.906
  123SOL    HW2 1269   0.504   0.948   2.770
  124SOL     OW 1270   3.531   2.599   0.580
  124SOL    HW1 1271   3.613   2.542   0.589
  124SOL    HW2 1272   3.457   2.545   0.542
  125SOL     OW 1273   3.575   1.837   0.763
  125SOL    HW1 1274   3.651   1.870   0.707
  125SOL    HW2 1275   3.602   1.751   0.808
  126SOL     OW 1276   1.888   4.090   0.687
  126SOL    HW1 1277   1.985   4.071   0.702
  126SOL    HW2 1278   1.848   4.131   0.769
  127SOL     OW 1279   0.830   4.658   6.931
  127SOL    HW1 1280   0.863   4.649   6.836
  127SOL    HW2 1281   0.757   4.726   6.935
  128SOL     OW 1282   5.021   2.278   1.176
  128SOL    HW1 1283   5.018   2.244   1.081
  128SOL    HW2 1284   4.955   2.227   1.231
  129SOL     OW 1285   3.033   3.331   6.342
  129SOL    HW1 1286   2.956   3.296   6.395
  129SOL    HW2 1287   3.094   3.383   6.402
  130SOL     OW 1288   1.296   1.869   4.411
  130SOL    HW1 1289   1.210   1.876   4.359
  130SOL    HW2 1290   1.350   1.952   4.398
  131SOL     OW 1291   4.960   0.530   3.335
  131SOL    HW1 1292   4.911   0.589   3.399
  131SOL    HW2 1293   4.899   0.504   3.260
  132SOL     OW 1294   2.822   3.019   1.721
  132SOL    HW1 1295   2.845   2.989   1.628
  132SOL    HW2 1296   2.906   3.023   1.776
  133SOL     OW 1297   5.252   1.275   4.239
  133SOL    HW1 1298   5.258   1.214   4.160
  133SOL    HW2 1299   5.266   1.369   4.210
  134SOL     OW 1300   6.962   1.066   2.549
  134SOL    HW1 1301   6.965   0.997   2.477
  134SOL    HW2 1302   6.906   1.144   2.520
  135SOL     OW 1303   5.639   3.878   3.840
  135SOL    HW1 1304   5.629   3.792   3.889
  135SOL    HW2 1305   5.732   3.914   3.853
  136SOL     OW 1306   2.030   5.489   5.196
  136SOL    HW1 1307   2.024   5.585   5.169
  136SOL    HW2 1308   1.996   5.478   5.290
  137SOL     OW 1309   5.596   1.275   3.226
  137SOL    HW1 1310   5.681   1.229   3.202
  137SOL    HW2 1311   5.518   1.221   3.193
  138SOL     OW 1312   1.206   3.996   2.527
  138SOL    HW1 1313   1.144   4.025   2.601
  138SOL    HW2 1314   1.258   3.916   2.557
  139SOL     OW 1315   1.285   0.145   5.176
  139SOL    HW1 1316   1.242   0.200   5.105
  139SOL    HW2 1317   1.336   0.070   5.134
  140SOL     OW 1318   1.241   6.646   3.737
  140SOL    HW1 1319   1.154   6.680   3.701
  140SOL    HW2 1320   1.236   6.639   3.836
  141SOL     OW 1321   0.124   2.591   5.092
  141SOL    HW1 1322   0.062   2.568   5.166
  141SOL    HW2 1323   0.072   2.608   5.008
  142SOL     OW 1324   1.146   4.278   1.264
  142SOL    HW1 1325   1.210   4.315   1.331
  142SOL    HW2 1326   1.192   4.207   1.210
  143SOL     OW 1327   5.531   3.950   0.673
  143SOL    HW1 1328   5.624   3.985   0.656
  143SOL    HW2 1329   5.536   3.867   0.727
  144SOL     OW 1330   1.018   4.699   5.914
  144SOL    HW1 1331   1.098   4.678   5.858
  144SOL    HW2 1332   1.046   4.750   5.995
  145SOL     OW 1333   0.819   5.345   1.112
  145SOL    HW1 1334   0.910   5.333   1.153
  145SOL    HW2 1335   0.828   5.361   1.014
  146SOL     OW 1336   4.569   0.871   6.101
  146SOL    HW1 1337   4.482   0.914   6.078
  146SOL    HW2 1338   4.570   0.777   6.065
  147SOL     OW 1339   5.396   3.413   6.226
  147SOL    HW1 1340   5.296   3.417   6.235
  147SOL    HW2 1341   5.429   3.326   6.262
  148SOL     OW 1342   6.873   5.451   1.105
  148SOL    HW1 1343   6.804   5.465   1.176
  148SOL    HW2 1344   6.829   5.429   1.018
  149SOL     OW 1345   3.885   2.164   4.014
  149SOL    HW1 1346   3.936   2.202   3.936
  149SOL    HW2 1347   3.946   2.158   4.093
  150SOL     OW 1348   5.839   0.221   0.731
  150SOL    HW1 1349   5.799   0.236   0.641
  150SOL    HW2 1350   5.768   0.193   0.795
  151SOL     OW 1351   3.215   1.739   1.350
  151SOL    HW1 1352   3.266   1.667   1.397
  151SOL    HW2 1353   3.145   1.698   1.291
  152SOL     OW 1354   0.092   0.772   1.550
  152SOL    HW1 1355   0.127   0.697   1.606
  152SOL    HW2 1356   0.003   0.802   1.584
  153SOL     OW 1357   3.357   0.847   3.534
  153SOL    HW1 1358   3.355   0.915   3.461
  153SOL    HW2 1359   3.366   0.755   3.495
  154SOL     OW 1360   0.891   3.235   1.868
  154SOL    HW1 1361   0.981   3.271   1.894
  154SOL    HW2 1362   0.857   3.285   1.789
  155SOL     OW 1363   0.555   1.545   4.682
  155SOL    HW1 1364   0.617   1.536   4.604
  155SOL    HW2 1365   0.609   1.546   4.766
  156SOL     OW 1366   0.334   0.495   0.974
  156SOL    HW1 1367   0.343   0.416   1.035
  156SOL    HW2 1368   0.403   0.563   0.997
  157SOL     OW 1369   5.317   2.861   1.573
  157SOL    HW1 1370   5.218   2.863   1.583
  157SOL    HW2 1371   5.357   2.936   1.627
  158SOL     OW 1372   1.770   3.502   2.032
  158SOL    HW1 1373   1.747   3.555   1.950
  158SOL    HW2 1374   1.860   3.530   2.065
  159SOL     OW 1375   4.718   4.205   2.730
  159SOL    HW1 1376   4.651   4.275   2.754
  159SOL    HW2 1377   4.745   4.215   2.635
  160SOL     OW 1378   5.271   5.915   0.760
  160SOL    HW1 1379   5.185   5.953   0.793
  160SOL    HW2 1380   5.293   5.832   0.811
  161SOL     OW 1381   1.579   6.191   3.388
  161SOL    HW1 1382   1.524   6.171   3.307
  161SOL    HW2 1383   1.630   6.275   3.374
  162SOL     OW 1384   3.382   6.372   0.187
  162SOL    HW1 1385   3.309   6.437   0.207
  162SOL    HW2 1386   3.471   6.414   0.205
  163SOL     OW 1387   6.304   5.380   1.494
  163SOL    HW1 1388   6.326   5.363   1.398
  163SOL    HW2 1389   6.304   5.479   1.511
  164SOL     OW 1390   7.012   4.528   2.217
  164SOL    HW1 1391   7.017   4.562   2.311
  164SOL    HW2 1392   0.081   4.502   2.185
  165SOL     OW 1393   5.470   3.369   1.195
  165SOL    HW1 1394   5.447   3.387   1.290
  165SOL    HW2 1395   5.558   3.411   1.174
  166SOL     OW 1396   1.445   3.883   2.171
  166SOL    HW1 1397   1.347   3.864   2.163
  166SOL    HW2 1398   1.495   3.833   2.101
  167SOL     OW 1399   4.625   3.559   6.882
  167SOL    HW1 1400   4.664   3.501   6.811
  167SOL    HW2 1401   4.626   3.510   6.969
  168SOL     OW 1402   3.152   2.846   0.664
  168SOL    HW1 1403   3.139   2.767   0.725
  168SOL    HW2 1404   3.134   2.930   0.714
  169SOL     OW 1405   5.550   1.930   1.890
  169SOL    HW1 1406   5.648   1.924   1.909
  169SOL    HW2 1407   5.523   2.027   1.884
  170SOL     OW 1408   0.627   6.886   2.974
  170SOL    HW1 1409   0.545   6.829   2.965
  170SOL    HW2 1410   0.634   6.946   2.894
  171SOL     OW 1411   2.225   4.690   6.999
  171SOL    HW1 1412   2.271   4.703   6.911
  171SOL    HW2 1413   2.275   4.741   0.047
  172SOL     OW 1414   6.689   1.007   2.683
  172SOL    HW1 1415   6.667   0.942   2.610
  172SOL    HW2 1416   6.725   0.957   2.762
  173SOL     OW 1417   6.508   1.101   4.074
  173SOL    HW1 1418   6.447   1.180   4.080
  173SOL    HW2 1419   6.599   1.126   4.107
  174SOL     OW 1420   4.030   5.739   3.942
  174SOL    HW1 1421   4.047   5.812   3.877
  174SOL    HW2 1422   4.111   5.680   3.948
  175SOL     OW 1423   3.051   6.800   2.018
  175SOL    HW1 1424   2.967   6.853   2.010
  175SOL    HW2 1425   3.122   6.840   1.959
  176SOL     OW 1426   6.572   4.130   0.787
  176SOL    HW1 1427   6.544   4.211   0.736
  176SOL    HW2 1428   6.633   4.158   0.862
  177SOL     OW 1429   6.483   3.083   2.929
  177SOL    HW1 1430   6.481   3.025   2.847
  177SOL    HW2 1431   6.502   3.027   3.009
  178SOL     OW 1432   2.823   3.618   6.370
  178SOL    HW1 1433   2.835   3.521   6.391
  178SOL    HW2 1434   2.773   3.663   6.445
  179SOL     OW 1435   4.367   1.621   5.787
  179SOL    HW1 1436   4.275   1.653   5.810
  179SOL    HW2 1437   4.368   1.589   5.692
  180SOL     OW 1438   2.361   6.795   0.232
  180SOL    HW1 1439   2.307   6.723   0.188
  180SOL    HW2 1440   2.453   6.795   0.194
  181SOL     OW 1441   3.506   3.413   5.890
  181SOL    HW1 1442   3.420   3.363   5.897
  181SOL    HW2 1443   3.566   3.368   5.824
  182SOL     OW 1444   3.534   1.713   5.324
  182SOL    HW1 1445   3.503   1.766   5.246
  182SOL    HW2 1446   3.491   1.747   5.408
  183SOL     OW 1447   3.720   2.071   3.138
  183SOL    HW1 1448   3.725   2.099   3.234
  183SOL    HW2 1449   3.624   2.072   3.109
  184SOL     OW 1450   0.954   6.690   4.653
  184SOL    HW1 1451   0.932   6.733   4.740
  184SOL    HW2 1452   0.896   6.609   4.641
  185SOL     OW 1453   0.464   1.223   6.330
  185SOL    HW1 1454   0.537   1.212   6.397
  185SOL    HW2 1455   0.486   1.172   6.247
  186SOL     OW 1456   5.925   0.834   4.188
  186SOL    HW1 1457   6.001   0.786   4.231
  186SOL    HW2 1458   5.954   0.928   4.166
  187SOL     OW 1459   5.204   0.142   2.486
  187SOL    HW1 1460   5.159   0.178   2.568
  187SOL    HW2 1461   5.201   0.042   2.487
  188SOL     OW 1462   0.998   2.775   2.880
  188SOL    HW1 1463   0.904   2.808   2.888
  188SOL    HW2 1464   1.038   2.806   2.794
  189SOL     OW 1465   2.661   5.395   1.288
  189SOL    HW1 1466   2.734   5.445   1.334
  189SOL    HW2 1467   2.584   5.384   1.351
  190SOL     OW 1468   5.023   2.787   5.273
  190SOL    HW1 1469   5.048   2.696   5.308
  190SOL    HW2 1470   5.012   2.850   5.349
  191SOL     OW 1471   6.169   0.303   6.749
  191SOL    HW1 1472   6.172   0.269   6.655
  191SOL    HW2 1473   6.262   0.327   6.779
  192SOL     OW 1474   0.883   5.192   1.986
  192SOL    HW1 1475   0.830   5.243   2.053
  192SOL    HW2 1476   0.909   5.253   1.911
  193SOL     OW 1477   4.550   3.704   5.376
  193SOL    HW1 1478   4.471   3.649   5.348
  193SOL    HW2 1479   4.634   3.663   5.340
  194SOL     OW 1480   4.107   0.500   2.692
  194SOL    HW1 1481   4.084   0.581   2.639
  194SOL    HW2 1482   4.118   0.526   2.788
  195SOL     OW 1483   1.874   0.079   4.060
  195SOL    HW1 1484   1.895   0.174   4.082
  195SOL    HW2 1485   1.844   0.031   4.143
  196SOL     OW 1486   3.183   0.401   0.913
  196SOL    HW1 1487   3.159   0.338   0.987
  196SOL    HW2 1488   3.099   0.439   0.874
  197SOL     OW 1489   2.162   0.159   1.282
  197SOL    HW1 1490   2.143   0.063   1.259
  197SOL    HW2 1491   2.260   0.172   1.291
  198SOL     OW 1492   5.313   6.735   1.411
  198SOL    HW1 1493   5.268   6.676   1.345
  198SOL    HW2 1494   5.246   6.796   1.454
  199SOL     OW 1495   0.097   1.180   3.265
  199SOL    HW1 1496   0.025   1.188   3.196
  199SOL    HW2 1497   0.063   1.217   3.352
  200SOL     OW 1498   1.054   4.716   2.125
  200SOL    HW1 1499   1.074   4.812   2.143
  200SOL    HW2 1500   1.088   4.660   2.201
  201SOL     OW 1501   6.384   6.541   6.170
  201SOL    HW1 1502   6.471   6.537   6.219
  201SOL    HW2 1503   6.359   6.636   6.152
  202SOL     OW 1504   4.503   0.538   6.533
  202SOL    HW1 1505   4.572   0.585   6.589
  202SOL    HW2 1506   4.515   0.439   6.542
  203SOL     OW 1507   4.548   2.613   4.531
  203SOL    HW1 1508   4.515   2.518   4.531
  203SOL    HW2 1509   4.547   2.648   4.625
  204SOL     OW 1510   0.859   0.937   6.359
  204SOL    HW1 1511   0.849   0.867   6.430
  204SOL    HW2 1512   0.769   0.967   6.329
  205SOL     OW 1513   0.658   1.355   3.049
  205SOL    HW1 1514   0.624   1.370   3.142
  205SOL    HW2 1515   0.615   1.273   3.011
  206SOL     OW 1516   6.857   4.844   0.982
  206SOL    HW1 1517   6.868   4.793   1.068
  206SOL    HW2 1518   6.947   4.868   0.946
  207SOL     OW 1519   5.285   1.323   3.534
  207SOL    HW1 1520   5.200   1.310   3.585
  207SOL    HW2 1521   5.283   1.266   3.452
  208SOL     OW 1522   5.838   2.855   5.204
  208SOL    HW1 1523   5.930   2.839   5.167
  208SOL    HW2 1524   5.823   2.953   5.213
  209SOL     OW 1525   0.275   4.534   3.789
  209SOL    HW1 1526   0.338   4.603   3.824
  209SOL    HW2 1527   0.188   4.542   3.836
  210SOL     OW 1528   3.945   1.694   0.866
  210SOL    HW1 1529   3.891   1.766   0.911
  210SOL    HW2 1530   3.974   1.627   0.935
  211SOL     OW 1531   2.565   6.341   3.108
  211SOL    HW1 1532   2.599   6.302   3.193
  211SOL    HW2 1533   2.643   6.365   3.049
  212SOL     OW 1534   1.211   4.424   1.901
  212SOL    HW1 1535   1.261   4.493   1.953
  212SOL    HW2 1536   1.212   4.448   1.804
  213SOL     OW 1537   3.228   0.604   0.035
  213SOL    HW1 1538   3.211   0.547   0.116
  213SOL    HW2 1539   3.192   0.557   6.977
  214SOL     OW 1540   4.645   4.998   1.528
  214SOL    HW1 1541   4.649   5.095   1.552
  214SOL    HW2 1542   4.567   4.956   1.574
  215SOL     OW 1543   1.914   3.537   1.150
  215SOL    HW1 1544   1.996   3.543   1.094
  215SOL    HW2 1545   1.841   3.491   1.099
  216SOL     OW 1546   2.221   5.871   3.807
  216SOL    HW1 1547   2.276   5.807   3.754
  216SOL    HW2 1548   2.246   5.964   3.784
  217SOL     OW 1549   2.155   2.326   4.111
  217SOL    HW1 1550   2.116   2.310   4.020
  217SOL    HW2 1551   2.082   2.348   4.175
  218SOL     OW 1552   0.678   3.482   4.295
  218SOL    HW1 1553   0.626   3.561   4.262
  218SOL    HW2 1554   0.765   3.513   4.333
  219SOL     OW 1555   4.587   6.311   6.323
  219SOL    HW1 1556   4.621   6.400   6.294
  219SOL    HW2 1557   4.618   6.241   6.259
  220SOL     OW 1558   3.826   6.967   1.227
  220SOL    HW1 1559   3.773   7.002   1.150
  220SOL    HW2 1560   3.921   6.952   1.198
  221SOL     OW 1561   6.280   3.009   1.305
  221SOL    HW1 1562   6.371   2.987   1.270
  221SOL    HW2 1563   6.289   3.071   1.383
  222SOL     OW 1564   2.454   4.999   5.002
  222SOL    HW1 1565   2.518   4.923   5.016
  222SOL    HW2 1566   2.390   4.975   4.928
  223SOL     OW 1567   5.592   2.586   0.073
  223SOL    HW1 1568   5.557   2.646   0.145
  223SOL    HW2 1569   5.672   2.628   0.031
  224SOL     OW 1570   2.208   2.206   4.569
  224SOL    HW1 1571   2.150   2.201   4.650
  224SOL    HW2 1572   2.256   2.119   4.556
  225SOL     OW 1573   4.729   2.934   6.402
  225SOL    HW1 1574   4.735   3.034   6.405
  225SOL    HW2 1575   4.693   2.905   6.313
  226SOL     OW 1576   1.148   0.800   6.046
  226SOL    HW1 1577   1.171   0.877   6.106
  226SOL    HW2 1578   1.080   0.742   6.091
  227SOL     OW 1579   1.437   3.264   3.129
  227SOL    HW1 1580   1.480   3.182   3.092
  227SOL    HW2 1581   1.504   3.316   3.182
  228SOL     OW 1582   3.068   6.279   3.933
  228SOL    HW1 1583   2.992   6.344   3.939
  228SOL    HW2 1584   3.139   6.304   3.999
  229SOL     OW 1585   4.966   5.801   0.135
  229SOL    HW1 1586   4.899   5.862   0.176
  229SOL    HW2 1587   4.927   5.709   0.125
  230SOL     OW 1588   3.380   4.965   3.703
  230SOL    HW1 1589   3.427   4.895   3.648
  230SOL    HW2 1590   3.358   5.043   3.646
  231SOL     OW 1591   6.127   2.234   0.091
  231SOL    HW1 1592   6.182   2.260   0.011
  231SOL    HW2 1593   6.101   2.316   0.142
  232SOL     OW 1594   0.969   3.447   6.497
  232SOL    HW1 1595   1.034   3.374   6.516
  232SOL    HW2 1596   0.876   3.412   6.507
  233SOL     OW 1597   2.708   2.051   3.645
  233SOL    HW1 1598   2.661   2.080   3.729
  233SOL    HW2 1599   2.733   2.132   3.591
  234SOL     OW 1600   5.012   0.003   5.013
  234SOL    HW1 1601   5.097   6.973   5.005
  234SOL    HW2 1602   5.007   0.044   5.104
  235SOL     OW 1603   3.454   2.898   1.545
  235SOL    HW1 1604   3.526   2.932   1.485
  235SOL    HW2 1605   3.455   2.949   1.631
  236SOL     OW 1606   4.415   3.274   6.955
  236SOL    HW1 1607   4.379   3.368   6.960
  236SOL    HW2 1608   4.462   3.261   6.869
  237SOL     OW 1609   5.993   5.031   1.984
  237SOL    HW1 1610   5.999   4.963   2.056
  237SOL    HW2 1611   6.034   4.994   1.900
  238SOL     OW 1612   5.071   1.746   0.420
  238SOL    HW1 1613   4.991   1.795   0.388
  238SOL    HW2 1614   5.154   1.787   0.382
  239SOL     OW 1615   0.426   5.503   6.427
  239SOL    HW1 1616   0.410   5.472   6.333
  239SOL    HW2 1617   0.477   5.433   6.476
  240SOL     OW 1618   0.533   2.769   3.433
  240SOL    HW1 1619   0.503   2.862   3.411
  240SOL    HW2 1620   0.474   2.732   3.504
  241SOL     OW 1621   1.602   0.251   4.666
  241SOL    HW1 1622   1.670   0.195   4.617
  241SOL    HW2 1623   1.631   0.262   4.761
  242SOL     OW 1624   3.280   3.283   5.270
  242SOL    HW1 1625   3.353   3.216   5.288
  242SOL    HW2 1626   3.210   3.241   5.213
  243SOL     OW 1627   3.958   0.252   5.608
  243SOL    HW1 1628   4.001   0.181   5.552
  243SOL    HW2 1629   3.943   0.216   5.700
  244SOL     OW 1630   5.722   2.180   4.429
  244SOL    HW1 1631   5.776   2.128   4.495
  244SOL    HW2 1632   5.686   2.263   4.474
  245SOL     OW 1633   6.414   3.592   4.290
  245SOL    HW1 1634   6.495   3.650   4.293
  245SOL    HW2 1635   6.360   3.605   4.373
  246SOL     OW 1636   5.090   2.541   3.350
  246SOL    HW1 1637   5.061   2.575   3.440
  246SOL    HW2 1638   5.096   2.441   3.353
  247SOL     OW 1639   2.806   1.912   1.736
  247SOL    HW1 1640   2.897   1.873   1.749
  247SOL    HW2 1641   2.793   1.988   1.800
  248SOL     OW 1642   3.842   2.145   2.777
  248SOL    HW1 1643   3.914   2.154   2.709
  248SOL    HW2 1644   3.881   2.152   2.869
  249SOL     OW 1645   4.028   6.925   5.126
  249SOL    HW1 1646   4.033   6.892   5.032
  249SOL    HW2 1647   4.120   6.932   5.164
  250SOL     OW 1648   5.370   2.483   1.013
  250SOL    HW1 1649   5.282   2.448   0.978
  250SOL    HW2 1650   5.394   2.567   0.965
  251SOL     OW 1651   4.378   3.732   5.825
  251SOL    HW1 1652   4.283   3.708   5.847
  251SOL    HW2 1653   4.383   3.762   5.730
  252SOL     OW 1654   6.483   6.701   6.541
  252SOL    HW1 1655   6.435   6.614   6.546
  252SOL    HW2 1656   6.581   6.686   6.554
  253SOL     OW 1657   2.853   4.487   6.873
  253SOL    HW1 1658   2.799   4.410   6.839
  253SOL    HW2 1659   2.946   4.480   6.836
  254SOL     OW 1660   4.983   2.965   3.161
  254SOL    HW1 1661   5.015   2.917   3.079
  254SOL    HW2 1662   5.051   3.032   3.189
  255SOL     OW 1663   1.835   2.755   4.590
  255SOL    HW1 1664   1.857   2.806   4.674
  255SOL    HW2 1665   1.747   2.787   4.556
  256SOL     OW 1666   6.393   4.210   6.142
  256SOL    HW1 1667   6.383   4.256   6.054
  256SOL    HW2 1668   6.473   4.151   6.140
  257SOL     OW 1669   5.280   6.468   3.742
  257SOL    HW1 1670   5.355   6.432   3.797
  257SOL    HW2 1671   5.313   6.542   3.684
  258SOL     OW 1672   1.014   4.873   4.574
  258SOL    HW1 1673   0.996   4.966   4.544
  258SOL    HW2 1674   1.093   4.873   4.635
  259SOL     OW 1675   1.679   1.795   2.543
  259SOL    HW1 1676   1.717   1.762   2.457
  259SOL    HW2 1677   1.592   1.842   2.525
  260SOL     OW 1678   4.468   1.066   0.641
  260SOL    HW1 1679   4.565   1.081   0.622
  260SOL    HW2 1680   4.439   1.129   0.713
  261SOL     OW 1681   6.088   3.924   0.100
  261SOL    HW1 1682   6.015   3.865   0.136
  261SOL    HW2 1683   6.170   3.914   0.156
  262SOL     OW 1684   6.557   4.283   0.551
  262SOL    HW1 1685   6.500   4.324   0.480
  262SOL    HW2 1686   6.630   4.230   0.509
  263SOL     OW 1687   0.393   1.366   3.633
  263SOL    HW1 1688   0.442   1.326   3.555
  263SOL    HW2 1689   0.447   1.352   3.716
  264SOL     OW 1690   4.971   3.243   6.636
  264SOL    HW1 1691   5.050   3.183   6.626
  264SOL    HW2 1692   4.993   3.317   6.699
  265SOL     OW 1693   4.756   5.179   3.006
  265SOL    HW1 1694   4.843   5.193   2.959
  265SOL    HW2 1695   4.681   5.203   2.945
  266SOL     OW 1696   3.442   3.083   5.344
  266SOL    HW1 1697   3.377   3.012   5.316
  266SOL    HW2 1698   3.484   3.058   5.431
  267SOL     OW 1699   0.254   1.764   6.426
  267SOL    HW1 1700   0.246   1.670   6.391
  267SOL    HW2 1701   0.295   1.822   6.356
  268SOL     OW 1702   3.948   0.350   5.129
  268SOL    HW1 1703   4.047   0.337   5.136
  268SOL    HW2 1704   3.901   0.265   5.156
  269SOL     OW 1705   1.485   3.317   1.172
  269SOL    HW1 1706   1.458   3.364   1.257
  269SOL    HW2 1707   1.416   3.335   1.102
  270SOL     OW 1708   0.091   0.714   0.106
  270SOL    HW1 1709   0.089   0.614   0.108
  270SOL    HW2 1710   0.165   0.746   0.165
  271SOL     OW 1711   1.625   1.761   0.073
  271SOL    HW1 1712   1.579   1.719   0.151
  271SOL    HW2 1713   1.565   1.759   7.016
  272SOL     OW 1714   3.195   4.930   4.715
  272SOL    HW1 1715   3.294   4.946   4.710
  272SOL    HW2 1716   3.172   4.889   4.804
  273SOL     OW 1717   1.859   4.160   5.118
  273SOL    HW1 1718   1.878   4.147   5.021
  273SOL    HW2 1719   1.770   4.204   5.129
  274SOL     OW 1720   4.881   1.783   2.973
  274SOL    HW1 1721   4.786   1.808   2.993
  274SOL    HW2 1722   4.914   1.839   2.896
  275SOL     OW 1723   6.392   4.342   5.234
  275SOL    HW1 1724   6.353   4.333   5.143
  275SOL    HW2 1725   6.405   4.252   5.275
  276SOL     OW 1726   6.990   5.424   2.419
  276SOL    HW1 1727   0.005   5.490   2.354
  276SOL    HW2 1728   6.918   5.469   2.473
  277SOL     OW 1729   1.662   3.982   1.076
  277SOL    HW1 1730   1.624   3.952   1.164
  277SOL    HW2 1731   1.640   3.914   1.006
  278SOL     OW 1732   6.639   5.020   1.642
  278SOL    HW1 1733   6.552   5.031   1.690
  278SOL    HW2 1734   6.651   5.096   1.578
  279SOL     OW 1735   6.236   2.896   4.775
  279SOL    HW1 1736   6.192   2.821   4.823
  279SOL    HW2 1737   6.167   2.952   4.729
  280SOL     OW 1738   2.645   6.836   2.797
  280SOL    HW1 1739   2.601   6.766   2.739
  280SOL    HW2 1740   2.680   6.909   2.740
  281SOL     OW 1741   3.237   4.862   1.853
  281SOL    HW1 1742   3.332   4.883   1.829
  281SOL    HW2 1743   3.188   4.832   1.772
  282SOL     OW 1744   3.629   1.457   5.321
  282SOL    HW1 1745   3.585   1.545   5.341
  282SOL    HW2 1746   3.693   1.469   5.245
  283SOL     OW 1747   6.947   1.097   5.719
  283SOL    HW1 1748   6.870   1.148   5.758
  283SOL    HW2 1749   6.916   1.047   5.638
  284SOL     OW 1750   0.999   4.193   4.400
  284SOL    HW1 1751   0.939   4.249   4.342
  284SOL    HW2 1752   0.950   4.166   4.482
  285SOL     OW 1753   5.586   5.082   5.735
  285SOL    HW1 1754   5.672   5.134   5.729
  285SOL    HW2 1755   5.594   4.998   5.683
  286SOL     OW 1756   3.438   5.606   4.914
  286SOL    HW1 1757   3.465   5.535   4.980
  286SOL    HW2 1758   3.344   5.633   4.930
  287SOL     OW 1759   0.507   4.632   0.070
  287SOL    HW1 1760   0.549   4.541   0.067
  287SOL    HW2 1761   0.410   4.625   0.044
  288SOL     OW 1762   4.016   1.848   6.188
  288SOL    HW1 1763   3.928   1.886   6.161
  288SOL    HW2 1764   4.023   1.846   6.288
  289SOL     OW 1765   0.256   5.162   4.943
  289SOL    HW1 1766   0.257   5.141   5.040
  289SOL    HW2 1767   0.175   5.217   4.921
  290SOL     OW 1768   5.385   1.704   3.854
  290SOL    HW1 1769   5.478   1.688   3.821
  290SOL    HW2 1770   5.388   1.759   3.937
  291SOL     OW 1771   2.092   2.248   4.802
  291SOL    HW1 1772   2.129   2.177   4.862
  291SOL    HW2 1773   1.995   2.230   4.784
  292SOL     OW 1774   1.881   1.983   3.173
  292SOL    HW1 1775   1.825   2.035   3.237
  292SOL    HW2 1776   1.976   2.014   3.178
  293SOL     OW 1777   4.839   4.573   1.982
  293SOL    HW1 1778   4.761   4.556   1.921
  293SOL    HW2 1779   4.870   4.487   2.021
  294SOL     OW 1780   6.442   5.461   6.090
  294SOL    HW1 1781   6.422   5.460   6.189
  294SOL    HW2 1782   6.393   5.537   6.048
  295SOL     OW 1783   3.187   1.882   4.208
  295SOL    HW1 1784   3.272   1.833   4.226
  295SOL    HW2 1785   3.196   1.977   4.236
  296SOL     OW 1786   5.594   1.917   2.201
  296SOL    HW1 1787   5.595   1.978   2.279
  296SOL    HW2 1788   5.533   1.953   2.131
  297SOL     OW 1789   2.944   4.827   3.014
  297SOL    HW1 1790   2.868   4.787   2.964
  297SOL    HW2 1791   2.954   4.781   3.102
  298SOL     OW 1792   3.454   5.969   0.531
  298SOL    HW1 1793   3.459   5.882   0.482
  298SOL    HW2 1794   3.542   6.016   0.524
  299SOL     OW 1795   3.730   3.596   6.429
  299SOL    HW1 1796   3.780   3.559   6.507
  299SOL    HW2 1797   3.739   3.534   6.351
  300SOL     OW 1798   5.553   0.596   1.949
  300SOL    HW1 1799   5.644   0.604   1.989
  300SOL    HW2 1800   5.484   0.603   2.022
  301SOL     OW 1801   5.586   2.911   1.009
  301SOL    HW1 1802   5.496   2.871   0.994
  301SOL    HW2 1803   5.576   3.005   1.042
  302SOL     OW 1804   0.542   1.023   3.453
  302SOL    HW1 1805   0.585   0.956   3.393
  302SOL    HW2 1806   0.443   1.010   3.453
  303SOL     OW 1807   6.164   6.716   1.775
  303SOL    HW1 1808   6.182   6.640   1.713
  303SOL    HW2 1809   6.135   6.796   1.723
  304SOL     OW 1810   1.913   0.281   5.262
  304SOL    HW1 1811   1.846   0.208   5.248
  304SOL    HW2 1812   1.954   0.306   5.175
  305SOL     OW 1813   0.501   3.273   0.374
  305SOL    HW1 1814   0.488   3.248   0.469
  305SOL    HW2 1815   0.411   3.290   0.332
  306SOL     OW 1816   2.321   0.359   3.804
  306SOL    HW1 1817   2.279   0.322   3.722
  306SOL    HW2 1818   2.395   0.422   3.779
  307SOL     OW 1819   4.942   6.142   0.450
  307SOL    HW1 1820   4.952   6.045   0.472
  307SOL    HW2 1821   4.897   6.152   0.362
  308SOL     OW 1822   6.314   3.174   4.318
  308SOL    HW1 1823   6.260   3.258   4.316
  308SOL    HW2 1824   6.408   3.194   4.290
  309SOL     OW 1825   2.892   5.805   6.508
  309SOL    HW1 1826   2.817   5.740   6.502
  309SOL    HW2 1827   2.970   5.772   6.455
  310SOL     OW 1828   6.283   6.752   5.271
  310SOL    HW1 1829   6.218   6.801   5.213
  310SOL    HW2 1830   6.296   6.660   5.236
  311SOL     OW 1831   4.830   4.923   3.032
  311SOL    HW1 1832   4.780   4.857   2.976
  311SOL    HW2 1833   4.783   5.012   3.030
  312SOL     OW 1834   4.078   1.049   4.764
  312SOL    HW1 1835   4.054   1.056   4.860
  312SOL    HW2 1836   4.133   0.966   4.749
  313SOL     OW 1837   3.319   3.749   2.375
  313SOL    HW1 1838   3.239   3.734   2.316
  313SOL    HW2 1839   3.312   3.839   2.418
  314SOL     OW 1840   3.537   5.642   6.872
  314SOL    HW1 1841   3.558   5.637   6.774
  314SOL    HW2 1842   3.531   5.549   6.909
  315SOL     OW 1843   1.444   2.680   3.930
  315SOL    HW1 1844   1.483   2.614   3.995
  315SOL    HW2 1845   1.435   2.769   3.974
  316SOL     OW 1846   2.973   1.836   4.046
  316SOL    HW1 1847   3.064   1.854   4.083
  316SOL    HW2 1848   2.946   1.743   4.070
  317SOL     OW 1849   0.418   0.817   1.229
  317SOL    HW1 1850   0.411   0.835   1.131
  317SOL    HW2 1851   0.388   0.897   1.280
  318SOL     OW 1852   1.171   5.465   6.550
  318SOL    HW1 1853   1.244   5.531   6.568
  318SOL    HW2 1854   1.183   5.425   6.459
  319SOL     OW 1855   6.699   0.468   3.609
  319SOL    HW1 1856   6.684   0.543   3.673
  319SOL    HW2 1857   6.611   0.432   3.578
  320SOL     OW 1858   6.161   2.297   0.582
  320SOL    HW1 1859   6.123   2.248   0.504
  320SOL    HW2 1860   6.130   2.392   0.579
  321SOL     OW 1861   3.927   1.559   7.002
  321SOL    HW1 1862   3.999   1.499   6.968
  321SOL    HW2 1863   3.915   1.546   0.078
  322SOL     OW 1864   3.965   3.150   4.636
  322SOL    HW1 1865   3.974   3.133   4.734
  322SOL    HW2 1866   3.970   3.248   4.618
  323SOL     OW 1867   0.943   3.130   6.252
  323SOL    HW1 1868   0.950   3.043   6.203
  323SOL    HW2 1869   1.027   3.147   6.302
  324SOL     OW 1870   2.456   1.178   5.061
  324SOL    HW1 1871   2.526   1.154   4.994
  324SOL    HW2 1872   2.429   1.273   5.047
  325SOL     OW 1873   1.069   2.904   1.874
  325SOL    HW1 1874   1.119   2.837   1.819
  325SOL    HW2 1875   1.012   2.857   1.941
  326SOL     OW 1876   1.280   5.195   7.006
  326SOL    HW1 1877   1.284   5.095   6.997
  326SOL    HW2 1878   1.218   5.232   6.936
  327SOL     OW 1879   1.526   5.011   3.692
  327SOL    HW1 1880   1.558   4.923   3.658
  327SOL    HW2 1881   1.435   5.000   3.733
  328SOL     OW 1882   1.324   5.186   2.098
  328SOL    HW1 1883   1.346   5.170   2.002
  328SOL    HW2 1884   1.225   5.195   2.108
  329SOL     OW 1885   3.939   3.858   4.805
  329SOL    HW1 1886   3.911   3.951   4.781
  329SOL    HW2 1887   3.935   3.847   4.904
  330SOL     OW 1888   3.474   7.013   1.653
  330SOL    HW1 1889   3.398   0.026   1.598
  330SOL    HW2 1890   3.439   6.946   1.718
  331SOL     OW 1891   3.350   4.974   0.824
  331SOL    HW1 1892   3.421   5.040   0.850
  331SOL    HW2 1893   3.296   5.013   0.749
  332SOL     OW 1894   4.048   1.542   5.104
  332SOL    HW1 1895   4.036   1.639   5.125
  332SOL    HW2 1896   4.104   1.533   5.021
  333SOL     OW 1897   3.045   6.974   6.098
  333SOL    HW1 1898   3.140   6.944   6.097
  333SOL    HW2 1899   3.029   0.008   6.180
  334SOL     OW 1900   2.709   0.479   1.561
  334SOL    HW1 1901   2.683   0.548   1.629
  334SOL    HW2 1902   2.750   0.524   1.482
  335SOL     OW 1903   3.994   6.804   4.775
  335SOL    HW1 1904   4.006   6.731   4.708
  335SOL    HW2 1905   3.899   6.835   4.773
  336SOL     OW 1906   2.112   0.671   3.513
  336SOL    HW1 1907   2.142   0.759   3.548
  336SOL    HW2 1908   2.056   0.685   3.431
  337SOL     OW 1909   0.424   2.807   0.106
  337SOL    HW1 1910   0.452   2.889   0.055
  337SOL    HW2 1911   0.424   2.827   0.204
  338SOL     OW 1912   2.654   2.477   1.484
  338SOL    HW1 1913   2.607   2.563   1.506
  338SOL    HW2 1914   2.608   2.433   1.406
  339SOL     OW 1915   3.034   6.239   3.455
  339SOL    HW1 1916   3.119   6.249   3.507
  339SOL    HW2 1917   2.981   6.324   3.460
  340SOL     OW 1918   4.788   4.504   5.354
  340SOL    HW1 1919   4.828   4.556   5.430
  340SOL    HW2 1920   4.856   4.495   5.281
  341SOL     OW 1921   6.716   1.177   4.666
  341SOL    HW1 1922   6.698   1.104   4.601
  341SOL    HW2 1923   6.793   1.151   4.724
  342SOL     OW 1924   5.796   3.684   6.896
  342SOL    HW1 1925   5.755   3.766   6.938
  342SOL    HW2 1926   5.786   3.689   6.797
  343SOL     OW 1927   1.953   5.266   0.681
  343SOL    HW1 1928   1.948   5.168   0.700
  343SOL    HW2 1929   1.992   5.281   0.590
  344SOL     OW 1930   0.910   5.157   2.361
  344SOL    HW1 1931   0.820   5.124   2.332
  344SOL    HW2 1932   0.980   5.094   2.329
  345SOL     OW 1933   4.783   1.612   3.774
  345SOL    HW1 1934   4.854   1.610   3.844
  345SOL    HW2 1935   4.696   1.639   3.816
  346SOL     OW 1936   2.462   0.660   2.731
  346SOL    HW1 1937   2.371   0.621   2.746
  346SOL    HW2 1938   2.461   0.757   2.756
  347SOL     OW 1939   3.348   5.667   6.254
  347SOL    HW1 1940   3.359   5.679   6.156
  347SOL    HW2 1941   3.374   5.574   6.279
  348SOL     OW 1942   5.378   3.924   2.279
  348SOL    HW1 1943   5.446   3.976   2.330
  348SOL    HW2 1944   5.333   3.858   2.340
  349SOL     OW 1945   6.761   4.810   0.615
  349SOL    HW1 1946   6.687   4.859   0.661
  349SOL    HW2 1947   6.812   4.756   0.682
  350SOL     OW 1948   3.712   3.455   1.026
  350SOL    HW1 1949   3.659   3.377   1.059
  350SOL    HW2 1950   3.810   3.435   1.033
  351SOL     OW 1951   1.534   2.839   0.468
  351SOL    HW1 1952   1.438   2.849   0.493
  351SOL    HW2 1953   1.590   2.833   0.550
  352SOL     OW 1954   3.018   1.255   4.681
  352SOL    HW1 1955   3.046   1.334   4.627
  352SOL    HW2 1956   2.925   1.269   4.715
  353SOL     OW 1957   2.602   6.274   0.620
  353SOL    HW1 1958   2.524   6.233   0.667
  353SOL    HW2 1959   2.666   6.202   0.593
  354SOL     OW 1960   3.429   2.838   0.613
  354SOL    HW1 1961   3.339   2.833   0.655
  354SOL    HW2 1962   3.477   2.751   0.627
  355SOL     OW 1963   0.919   3.595   2.832
  355SOL    HW1 1964   0.990   3.604   2.763
  355SOL    HW2 1965   0.859   3.675   2.829
  356SOL     OW 1966   3.175   6.987   5.546
  356SOL    HW1 1967   3.230   7.019   5.623
  356SOL    HW2 1968   3.221   7.010   5.460
  357SOL     OW 1969   6.876   6.890   5.476
  357SOL    HW1 1970   6.841   6.867   5.385
  357SOL    HW2 1971   6.940   6.966   5.468
  358SOL     OW 1972   4.774   0.425   1.312
  358SOL    HW1 1973   4.814   0.338   1.284
  358SOL    HW2 1974   4.754   0.480   1.231
  359SOL     OW 1975   1.685   2.646   2.018
  359SOL    HW1 1976   1.729   2.562   2.050
  359SOL    HW2 1977   1.738   2.686   1.944
  360SOL     OW 1978   0.816   5.425   6.350
  360SOL    HW1 1979   0.848   5.518   6.332
  360SOL    HW2 1980   0.806   5.376   6.264
  361SOL     OW 1981   5.745   5.696   2.879
  361SOL    HW1 1982   5.833   5.667   2.843
  361SOL    HW2 1983   5.737   5.667   2.974
  362SOL     OW 1984   4.037   3.809   1.959
  362SOL    HW1 1985   4.083   3.833   2.044
  362SOL    HW2 1986   3.947   3.771   1.979
  363SOL     OW 1987   5.245   4.685   3.877
  363SOL    HW1 1988   5.335   4.713   3.844
  363SOL    HW2 1989   5.254   4.600   3.930
  364SOL     OW 1990   6.007   5.432   5.877
  364SOL    HW1 1991   5.961   5.445   5.789
  364SOL    HW2 1992   5.979   5.505   5.940
  365SOL     OW 1993   5.477   6.012   2.192
  365SOL    HW1 1994   5.397   6.059   2.230
  365SOL    HW2 1995   5.487   5.923   2.237
  366SOL     OW 1996   6.573   0.808   6.137
  366SOL    HW1 1997   6.528   0.894   6.162
  366SOL    HW2 1998   6.623   0.773   6.217
  367SOL     OW 1999   4.622   3.003   0.950
  367SOL    HW1 2000   4.563   2.938   0.998
  367SOL    HW2 2001   4.568   3.081   0.919
  368SOL     OW 2002   0.362   3.686   5.311
  368SOL    HW1 2003   0.307   3.605   5.291
  368SOL    HW2 2004   0.354   3.751   5.236
  369SOL     OW 2005   6.610   5.484   1.205
  369SOL    HW1 2006   6.626   5.582   1.210
  369SOL    HW2 2007   6.523   5.466   1.160
  370SOL     OW 2008   2.714   1.607   5.942
  370SOL    HW1 2009   2.711   1.507   5.937
  370SOL    HW2 2010   2.660   1.646   5.868
  371SOL     OW 2011   2.576   3.598   6.620
  371SOL    HW1 2012   2.646   3.531   6.596
  371SOL    HW2 2013   2.521   3.619   6.539
  372SOL     OW 2014   0.970   6.535   6.088
  372SOL    HW1 2015   1.063   6.550   6.054
  372SOL    HW2 2016   0.905   6.551   6.013
  373SOL     OW 2017   6.909   6.596   4.161
  373SOL    HW1 2018   6.999   6.633   4.187
  373SOL    HW2 2019   6.921   6.503   4.126
  374SOL     OW 2020   2.769   1.828   2.990
  374SOL    HW1 2021   2.816   1.826   2.902
  374SOL    HW2 2022   2.763   1.923   3.022
  375SOL     OW 2023   0.687   4.616   3.794
  375SOL    HW1 2024   0.661   4.619   3.890
  375SOL    HW2 2025   0.725   4.526   3.773
  376SOL     OW 2026   2.132   1.438   4.821
  376SOL    HW1 2027   2.097   1.369   4.884
  376SOL    HW2 2028   2.056   1.496   4.789
  377SOL     OW 2029   0.849   1.966   1.592
  377SOL    HW1 2030   0.829   2.062   1.613
  377SOL    HW2 2031   0.764   1.919   1.567
  378SOL     OW 2032   3.151   2.410   5.620
  378SOL    HW1 2033   3.127   2.447   5.530
  378SOL    HW2 2034   3.093   2.452   5.690
  379SOL     OW 2035   6.090   4.231   0.627
  379SOL    HW1 2036   6.158   4.226   0.554
  379SOL    HW2 2037   6.082   4.141   0.671
  380SOL     OW 2038   2.696   0.966   1.049
  380SOL    HW1 2039   2.670   1.039   0.986
  380SOL    HW2 2040   2.795   0.957   1.052
  381SOL     OW 2041   1.224   4.587   2.525
  381SOL    HW1 2042   1.209   4.570   2.428
  381SOL    HW2 2043   1.209   4.502   2.576
  382SOL     OW 2044   5.423   6.301   5.982
  382SOL    HW1 2045   5.436   6.355   5.899
  382SOL    HW2 2046   5.476   6.341   6.056
  383SOL     OW 2047   4.623   3.029   5.493
  383SOL    HW1 2048   4.553   3.010   5.562
  383SOL    HW2 2049   4.609   3.120   5.455
  384SOL     OW 2050   6.217   5.363   4.556
  384SOL    HW1 2051   6.122   5.329   4.553
  384SOL    HW2 2052   6.230   5.433   4.486
  385SOL     OW 2053   4.198   6.097   5.370
  385SOL    HW1 2054   4.194   6.084   5.271
  385SOL    HW2 2055   4.105   6.101   5.407
  386SOL     OW 2056   3.013   6.432   5.162
  386SOL    HW1 2057   3.105   6.428   5.200
  386SOL    HW2 2058   2.947   6.450   5.235
  387SOL     OW 2059   1.106   6.793   3.364
  387SOL    HW1 2060   1.053   6.715   3.331
  387SOL    HW2 2061   1.059   6.836   3.441
  388SOL     OW 2062   1.575   1.880   4.120
  388SOL    HW1 2063   1.606   1.966   4.079
  388SOL    HW2 2064   1.570   1.891   4.219
  389SOL     OW 2065   4.425   4.157   1.456
  389SOL    HW1 2066   4.460   4.226   1.392
  389SOL    HW2 2067   4.501   4.118   1.507
  390SOL     OW 2068   3.438   1.239   0.083
  390SOL    HW1 2069   3.528   1.216   0.046
  390SOL    HW2 2070   3.368   1.186   0.034
  391SOL     OW 2071   2.166   3.800   5.615
  391SOL    HW1 2072   2.255   3.778   5.574
  391SOL    HW2 2073   2.094   3.784   5.547
  392SOL     OW 2074   1.811   4.478   1.625
  392SOL    HW1 2075   1.771   4.413   1.690
  392SOL    HW2 2076   1.800   4.571   1.660
  393SOL     OW 2077   1.106   4.679   0.006
  393SOL    HW1 2078   1.025   4.664   6.971
  393SOL    HW2 2079   1.166   4.600   0.001
  394SOL     OW 2080   7.001   2.803   0.159
  394SOL    HW1 2081   6.934   2.734   0.131
  394SOL    HW2 2082   0.070   2.762   0.161
  395SOL     OW 2083   4.884   4.430   3.334
  395SOL    HW1 2084   4.806   4.369   3.347
  395SOL    HW2 2085   4.897   4.446   3.236
  396SOL     OW 2086   2.944   3.132   2.290
  396SOL    HW1 2087   3.006   3.070   2.241
  396SOL    HW2 2088   2.871   3.078   2.332
  397SOL     OW 2089   5.556   1.971   6.154
  397SOL    HW1 2090   5.468   2.006   6.186
  397SOL    HW2 2091   5.621   2.047   6.147
  398SOL     OW 2092   1.425   0.060   3.304
  398SOL    HW1 2093   1.470   0.047   3.393
  398SOL    HW2 2094   1.416   0.157   3.285
  399SOL     OW 2095   5.488   6.161   4.164
  399SOL    HW1 2096   5.550   6.234   4.194
  399SOL    HW2 2097   5.541   6.088   4.123
  400SOL     OW 2098   6.329   6.431   5.655
  400SOL    HW1 2099   6.252   6.451   5.594
  400SOL    HW2 2100   6.403   6.497   5.638
  401SOL     OW 2101   4.950   0.118   6.443
  401SOL    HW1 2102   4.936   0.019   6.444
  401SOL    HW2 2103   5.038   0.139   6.399
  402SOL     OW 2104   6.574   0.890   3.455
  402SOL    HW1 2105   6.640   0.881   3.380
  402SOL    HW2 2106   6.574   0.984   3.488
  403SOL     OW 2107   3.781   1.022   5.206
  403SOL    HW1 2108   3.791   0.985   5.114
  403SOL    HW2 2109   3.767   0.948   5.271
  404SOL     OW 2110   1.577   4.785   4.316
  404SOL    HW1 2111   1.550   4.807   4.222
  404SOL    HW2 2112   1.655   4.842   4.342
  405SOL     OW 2113   2.186   3.110   3.024
  405SOL    HW1 2114   2.221   3.046   2.956
  405SOL    HW2 2115   2.110   3.068   3.073
  406SOL     OW 2116   0.281   4.080   5.185
  406SOL    HW1 2117   0.341   4.077   5.264
  406SOL    HW2 2118   0.190   4.111   5.214
  407SOL     OW 2119   1.543   2.519   5.329
  407SOL    HW1 2120   1.499   2.447   5.277
  407SOL    HW2 2121   1.609   2.568   5.271
  408SOL     OW 2122   3.504   2.091   2.990
  408SOL    HW1 2123   3.543   2.069   2.900
  408SOL    HW2 2124   3.404   2.094   2.983
  409SOL     OW 2125   6.600   3.269   1.604
  409SOL    HW1 2126   6.612   3.173   1.628
  409SOL    HW2 2127   6.511   3.300   1.635
  410SOL     OW 2128   0.912   1.462   1.305
  410SOL    HW1 2129   1.012   1.461   1.308
  410SOL    HW2 2130   0.877   1.513   1.385
  411SOL     OW 2131   6.691   0.953   1.494
  411SOL    HW1 2132   6.698   1.031   1.432
  411SOL    HW2 2133   6.656   0.873   1.444
  412SOL     OW 2134   3.712   4.873   2.592
  412SOL    HW1 2135   3.656   4.918   2.662
  412SOL    HW2 2136   3.807   4.869   2.623
  413SOL     OW 2137   5.555   4.223   1.416
  413SOL    HW1 2138   5.534   4.275   1.333
  413SOL    HW2 2139   5.488   4.244   1.487
  414SOL     OW 2140   3.336   6.407   3.826
  414SOL    HW1 2141   3.356   6.351   3.906
  414SOL    HW2 2142   3.393   6.489   3.828
  415SOL     OW 2143   0.486   0.464   6.873
  415SOL    HW1 2144   0.459   0.375   6.909
  415SOL    HW2 2145   0.578   0.486   6.904
  416SOL     OW 2146   4.918   5.312   5.246
  416SOL    HW1 2147   5.004   5.353   5.214
  416SOL    HW2 2148   4.882   5.366   5.322
  417SOL     OW 2149   2.173   0.170   5.905
  417SOL    HW1 2150   2.103   0.122   5.851
  417SOL    HW2 2151   2.254   0.111   5.914
  418SOL     OW 2152   3.155   0.027   6.471
  418SOL    HW1 2153   3.083   6.998   6.518
  418SOL    HW2 2154   3.240   6.996   6.471
  419SOL     OW 2155   0.816   6.660   2.900
  419SOL    HW1 2156   0.887   6.696   2.838
  419SOL    HW2 2157   0.756   6.735   2.928
  420SOL     OW 2158   5.622   1.536   6.570
  420SOL    HW1 2159   5.549   1.565   6.509
  420SOL    HW2 2160   5.641   1.439   6.557
  421SOL     OW 2161   5.663   3.697   4.593
  421SOL    HW1 2162   5.723   3.762   4.640
  421SOL    HW2 2163   5.574   3.695   4.637
  422SOL     OW 2164   4.934   3.191   0.665
  422SOL    HW1 2165   4.860   3.124   0.658
  422SOL    HW2 2166   4.896   3.284   0.660
  423SOL     OW 2167   1.770   2.237   0.162
  423SOL    HW1 2168   1.704   2.286   0.105
  423SOL    HW2 2169   1.773   2.141   0.134
  424SOL     OW 2170   1.843   4.429   2.301
  424SOL    HW1 2171   1.930   4.381   2.294
  424SOL    HW2 2172   1.859   4.528   2.300
  425SOL     OW 2173   4.994   2.016   4.066
  425SOL    HW1 2174   4.914   1.959   4.085
  425SOL    HW2 2175   5.019   2.008   3.969
  426SOL     OW 2176   2.640   2.385   4.702
  426SOL    HW1 2177   2.555   2.359   4.747
  426SOL    HW2 2178   2.712   2.398   4.770
  427SOL     OW 2179   6.292   0.076   4.124
  427SOL    HW1 2180   6.237   7.021   4.092
  427SOL    HW2 2181   6.232   0.155   4.139
  428SOL     OW 2182   4.104   0.487   2.958
  428SOL    HW1 2183   4.089   0.392   2.986
  428SOL    HW2 2184   4.023   0.541   2.979
  429SOL     OW 2185   0.646   4.728   3.544
  429SOL    HW1 2186   0.553   4.765   3.543
  429SOL    HW2 2187   0.664   4.686   3.633
  430SOL     OW 2188   1.197   6.600   4.599
  430SOL    HW1 2189   1.118   6.661   4.599
  430SOL    HW2 2190   1.198   6.546   4.683
  431SOL     OW 2191   2.826   1.244   0.741
  431SOL    HW1 2192   2.911   1.257   0.689
  431SOL    HW2 2193   2.845   1.254   0.838
  432SOL     OW 2194   5.926   2.012   0.895
  432SOL    HW1 2195   5.929   1.945   0.821
  432SOL    HW2 2196   5.920   2.104   0.856
  433SOL     OW 2197   2.352   6.624   5.730
  433SOL    HW1 2198   2.403   6.580   5.805
  433SOL    HW2 2199   2.261   6.649   5.763
  434SOL     OW 2200   4.476   6.248   3.599
  434SOL    HW1 2201   4.442   6.297   3.519
  434SOL    HW2 2202   4.401   6.198   3.642
  435SOL     OW 2203   3.683   2.210   5.426
  435SOL    HW1 2204   3.735   2.175   5.503
  435SOL    HW2 2205   3.691   2.146   5.349
  436SOL     OW 2206   3.180   5.851   2.110
  436SOL    HW1 2207   3.256   5.904   2.146
  436SOL    HW2 2208   3.100   5.863   2.169
  437SOL     OW 2209   0.716   1.485   6.236
  437SOL    HW1 2210   0.641   1.523   6.182
  437SOL    HW2 2211   0.802   1.491   6.185
  438SOL     OW 2212   1.065   3.620   3.939
  438SOL    HW1 2213   0.978   3.617   3.989
  438SOL    HW2 2214   1.051   3.665   3.851
  439SOL     OW 2215   5.488   6.488   2.195
  439SOL    HW1 2216   5.435   6.445   2.121
  439SOL    HW2 2217   5.496   6.425   2.272
  440SOL     OW 2218   3.042   1.510   5.868
  440SOL    HW1 2219   3.028   1.508   5.967
  440SOL    HW2 2220   2.972   1.566   5.826
  441SOL     OW 2221   6.487   3.442   3.725
  441SOL    HW1 2222   6.510   3.367   3.788
  441SOL    HW2 2223   6.393   3.471   3.741
  442SOL     OW 2224   4.854   5.462   5.827
  442SOL    HW1 2225   4.812   5.470   5.736
  442SOL    HW2 2226   4.949   5.432   5.817
  443SOL     OW 2227   5.422   3.945   4.275
  443SOL    HW1 2228   5.337   3.940   4.327
  443SOL    HW2 2229   5.405   3.994   4.189
  444SOL     OW 2230   4.374   0.446   6.077
  444SOL    HW1 2231   4.308   0.396   6.020
  444SOL    HW2 2232   4.369   0.412   6.171
  445SOL     OW 2233   2.358   6.067   2.817
  445SOL    HW1 2234   2.440   6.041   2.766
  445SOL    HW2 2235   2.352   6.166   2.824
  446SOL     OW 2236   4.368   5.981   2.761
  446SOL    HW1 2237   4.406   6.060   2.712
  446SOL    HW2 2238   4.270   5.993   2.772
  447SOL     OW 2239   6.507   3.769   4.875
  447SOL    HW1 2240   6.589   3.714   4.889
  447SOL    HW2 2241   6.511   3.812   4.785
  448SOL     OW 2242   2.789   0.595   2.836
  448SOL    HW1 2243   2.720   0.620   2.904
  448SOL    HW2 2244   2.749   0.530   2.771
  449SOL     OW 2245   2.905   1.578   4.046
  449SOL    HW1 2246   2.891   1.528   4.131
  449SOL    HW2 2247   2.973   1.531   3.990
  450SOL     OW 2248   1.641   4.841   3.420
  450SOL    HW1 2249   1.608   4.828   3.326
  450SOL    HW2 2250   1.737   4.866   3.419
  451SOL     OW 2251   2.018   2.309   4.397
  451SOL    HW1 2252   2.084   2.302   4.472
  451SOL    HW2 2253   1.961   2.227   4.395
  452SOL     OW 2254   4.378   6.487   1.867
  452SOL    HW1 2255   4.396   6.478   1.769
  452SOL    HW2 2256   4.289   6.531   1.880
  453SOL     OW 2257   3.652   6.664   6.099
  453SOL    HW1 2258   3.555   6.650   6.120
  453SOL    HW2 2259   3.660   6.711   6.011
  454SOL     OW 2260   0.119   3.755   6.561
  454SOL    HW1 2261   0.153   3.810   6.638
  454SOL    HW2 2262   0.074   3.674   6.596
  455SOL     OW 2263   6.047   2.731   4.851
  455SOL    HW1 2264   6.042   2.647   4.905
  455SOL    HW2 2265   6.004   2.806   4.901
  456SOL     OW 2266   1.348   0.811   4.475
  456SOL    HW1 2267   1.263   0.785   4.521
  456SOL    HW2 2268   1.410   0.732   4.474
  457SOL     OW 2269   2.263   4.218   4.299
  457SOL    HW1 2270   2.328   4.280   4.342
  457SOL    HW2 2271   2.177   4.266   4.282
  458SOL     OW 2272   3.127   0.399   2.811
  458SOL    HW1 2273   3.151   0.315   2.859
  458SOL    HW2 2274   3.103   0.470   2.878
  459SOL     OW 2275   1.701   0.481   5.065
  459SOL    HW1 2276   1.771   0.548   5.043
  459SOL    HW2 2277   1.682   0.483   5.163
  460SOL     OW 2278   1.194   0.283   4.952
  460SOL    HW1 2279   1.241   0.233   4.880
  460SOL    HW2 2280   1.212   0.381   4.942
  461SOL     OW 2281   6.494   4.613   6.139
  461SOL    HW1 2282   6.449   4.694   6.178
  461SOL    HW2 2283   6.471   4.606   6.042
  462SOL     OW 2284   3.961   3.551   5.635
  462SOL    HW1 2285   3.908   3.510   5.561
  462SOL    HW2 2286   3.910   3.627   5.674
  463SOL     OW 2287   0.464   0.278   3.643
  463SOL    HW1 2288   0.499   0.368   3.616
  463SOL    HW2 2289   0.456   0.273   3.742
  464SOL     OW 2290   2.867   0.674   6.201
  464SOL    HW1 2291   2.896   0.613   6.127
  464SOL    HW2 2292   2.859   0.768   6.165
  465SOL     OW 2293   0.567   2.611   0.032
  465SOL    HW1 2294   0.512   2.692   0.054
  465SOL    HW2 2295   0.562   2.593   6.956
  466SOL     OW 2296   2.433   6.534   4.110
  466SOL    HW1 2297   2.465   6.476   4.036
  466SOL    HW2 2298   2.347   6.498   4.147
  467SOL     OW 2299   1.518   1.650   2.869
  467SOL    HW1 2300   1.538   1.671   2.774
  467SOL    HW2 2301   1.594   1.599   2.909
  468SOL     OW 2302   4.420   5.436   5.502
  468SOL    HW1 2303   4.328   5.424   5.466
  468SOL    HW2 2304   4.432   5.530   5.533
  469SOL     OW 2305   3.136   4.263   5.802
  469SOL    HW1 2306   3.085   4.279   5.718
  469SOL    HW2 2307   3.232   4.247   5.780
  470SOL     OW 2308   4.080   6.028   1.648
  470SOL    HW1 2309   4.142   5.958   1.685
  470SOL    HW2 2310   4.001   6.038   1.709
  471SOL     OW 2311   2.933   2.241   4.023
  471SOL    HW1 2312   2.884   2.289   3.950
  471SOL    HW2 2313   2.900   2.273   4.112
  472SOL     OW 2314   5.898   4.861   6.938
  472SOL    HW1 2315   5.991   4.841   6.906
  472SOL    HW2 2316   5.854   4.925   6.875
  473SOL     OW 2317   0.962   2.497   2.094
  473SOL    HW1 2318   0.881   2.455   2.053
  473SOL    HW2 2319   0.969   2.469   2.190
  474SOL     OW 2320   5.606   5.578   5.373
  474SOL    HW1 2321   5.529   5.627   5.415
  474SOL    HW2 2322   5.572   5.494   5.330
  475SOL     OW 2323   6.161   3.259   0.281
  475SOL    HW1 2324   6.100   3.338   0.271
  475SOL    HW2 2325   6.123   3.182   0.230
  476SOL     OW 2326   6.916   3.379   2.165
  476SOL    HW1 2327   6.879   3.467   2.195
  476SOL    HW2 2328   7.015   3.379   2.176
  477SOL     OW 2329   2.695   5.746   3.671
  477SOL    HW1 2330   2.698   5.653   3.708
  477SOL    HW2 2331   2.715   5.743   3.573
  478SOL     OW 2332   4.134   6.230   3.489
  478SOL    HW1 2333   4.065   6.210   3.559
  478SOL    HW2 2334   4.117   6.174   3.408
  479SOL     OW 2335   3.633   3.050   5.168
  479SOL    HW1 2336   3.549   3.052   5.223
  479SOL    HW2 2337   3.633   2.968   5.111
  480SOL     OW 2338   2.793   0.261   1.384
  480SOL    HW1 2339   2.888   0.290   1.376
  480SOL    HW2 2340   2.758   0.288   1.474
  481SOL     OW 2341   0.419   6.345   1.734
  481SOL    HW1 2342   0.427   6.252   1.700
  481SOL    HW2 2343   0.420   6.409   1.657
  482SOL     OW 2344   4.700   4.720   2.901
  482SOL    HW1 2345   4.634   4.688   2.833
  482SOL    HW2 2346   4.691   4.664   2.984
  483SOL     OW 2347   0.078   2.022   2.528
  483SOL    HW1 2348   0.102   2.109   2.485
  483SOL    HW2 2349   0.154   1.957   2.517
  484SOL     OW 2350   1.578   4.177   4.647
  484SOL    HW1 2351   1.647   4.241   4.613
  484SOL    HW2 2352   1.489   4.197   4.606
  485SOL     OW 2353   5.196   4.749   2.651
  485SOL    HW1 2354   5.118   4.732   2.710
  485SOL    HW2 2355   5.235   4.661   2.621
  486SOL     OW 2356   5.878   1.661   6.715
  486SOL    HW1 2357   5.916   1.685   6.625
  486SOL    HW2 2358   5.791   1.614   6.702
  487SOL     OW 2359   0.916   0.618   2.992
  487SOL    HW1 2360   1.014   0.626   2.975
  487SOL    HW2 2361   0.869   0.703   2.968
  488SOL     OW 2362   0.918   6.714   2.435
  488SOL    HW1 2363   0.903   6.800   2.384
  488SOL    HW2 2364   0.834   6.660   2.432
  489SOL     OW 2365   5.962   5.829   4.964
  489SOL    HW1 2366   5.925   5.870   5.048
  489SOL    HW2 2367   5.906   5.750   4.938
  490SOL     OW 2368   1.529   5.849   4.133
  490SOL    HW1 2369   1.441   5.896   4.127
  490SOL    HW2 2370   1.526   5.765   4.079
  491SOL     OW 2371   1.153   3.328   1.232
  491SOL    HW1 2372   1.083   3.331   1.303
  491SOL    HW2 2373   1.174   3.421   1.202
  492SOL     OW 2374   1.461   1.073   5.603
  492SOL    HW1 2375   1.474   1.081   5.702
  492SOL    HW2 2376   1.370   1.108   5.579
  493SOL     OW 2377   2.496   0.227   5.740
  493SOL    HW1 2378   2.543   0.207   5.654
  493SOL    HW2 2379   2.432   0.303   5.726
  494SOL     OW 2380   1.629   1.457   6.496
  494SOL    HW1 2381   1.660   1.375   6.545
  494SOL    HW2 2382   1.552   1.433   6.436
  495SOL     OW 2383   3.619   6.346   4.551
  495SOL    HW1 2384   3.695   6.288   4.522
  495SOL    HW2 2385   3.533   6.295   4.545
  496SOL     OW 2386   6.314   1.857   1.803
  496SOL    HW1 2387   6.272   1.768   1.788
  496SOL    HW2 2388   6.412   1.846   1.817
  497SOL     OW 2389   3.231   1.177   4.809
  497SOL    HW1 2390   3.154   1.220   4.763
  497SOL    HW2 2391   3.214   1.175   4.908
  498SOL     OW 2392   0.766   4.474   2.729
  498SOL    HW1 2393   0.812   4.418   2.661
  498SOL    HW2 2394   0.673   4.440   2.743
  499SOL     OW 2395   1.646   5.504   5.035
  499SOL    HW1 2396   1.551   5.490   5.060
  499SOL    HW2 2397   1.666   5.602   5.031
  500SOL     OW 2398   5.448   2.482   6.716
  500SOL    HW1 2399   5.486   2.573   6.701
  500SOL    HW2 2400   5.484   2.444   6.801
  501SOL     OW 2401   4.032   6.953   1.009
  501SOL    HW1 2402   4.079   0.018   0.996
  501SOL    HW2 2403   3.953   6.949   0.948
  502SOL     OW 2404   0.588   4.674   6.173
  502SOL    HW1 2405   0.616   4.605   6.239
  502SOL    HW2 2406   0.518   4.733   6.213
  503SOL     OW 2407   2.038   5.028   6.425
  503SOL    HW1 2408   1.942   5.010   6.404
  503SOL    HW2 2409   2.096   4.976   6.363
  504SOL     OW 2410   0.678   5.595   1.454
  504SOL    HW1 2411   0.756   5.656   1.465
  504SOL    HW2 2412   0.661   5.580   1.357
  505SOL     OW 2413   4.482   6.891   4.917
  505SOL    HW1 2414   4.552   6.866   4.850
  505SOL    HW2 2415   4.402   6.833   4.905
  506SOL     OW 2416   3.021   6.110   1.969
  506SOL    HW1 2417   3.050   6.129   1.875
  506SOL    HW2 2418   3.072   6.169   2.032
  507SOL     OW 2419   3.851   0.073   2.511
  507SOL    HW1 2420   3.784   0.143   2.536
  507SOL    HW2 2421   3.815   0.016   2.437
  508SOL     OW 2422   0.033   2.633   2.624
  508SOL    HW1 2423   0.000   2.540   2.639
  508SOL    HW2 2424   0.124   2.643   2.665
  509SOL     OW 2425   4.117   1.403   0.659
  509SOL    HW1 2426   4.086   1.313   0.692
  509SOL    HW2 2427   4.082   1.474   0.719
  510SOL     OW 2428   6.877   4.876   5.942
  510SOL    HW1 2429   6.782   4.876   5.971
  510SOL    HW2 2430   6.929   4.943   5.995
  511SOL     OW 2431   0.908   2.217   6.825
  511SOL    HW1 2432   0.904   2.316   6.839
  511SOL    HW2 2433   0.816   2.183   6.804
  512SOL     OW 2434   6.076   2.689   6.849
  512SOL    HW1 2435   6.009   2.756   6.880
  512SOL    HW2 2436   6.059   2.667   6.752
  513SOL     OW 2437   5.252   6.771   2.970
  513SOL    HW1 2438   5.158   6.741   2.955
  513SOL    HW2 2439   5.257   6.871   2.960
  514SOL     OW 2440   0.038   0.592   4.369
  514SOL    HW1 2441   0.075   0.682   4.391
  514SOL    HW2 2442   6.961   0.596   4.365
  515SOL     OW 2443   1.997   0.063   0.128
  515SOL    HW1 2444   1.923   0.001   0.103
  515SOL    HW2 2445   1.961   0.156   0.139
  516SOL     OW 2446   2.706   4.699   2.344
  516SOL    HW1 2447   2.650   4.641   2.285
  516SOL    HW2 2448   2.792   4.720   2.298
  517SOL     OW 2449   3.407   4.595   1.589
  517SOL    HW1 2450   3.475   4.591   1.663
  517SOL    HW2 2451   3.344   4.671   1.606
  518SOL     OW 2452   2.760   2.354   3.848
  518SOL    HW1 2453   2.682   2.341   3.908
  518SOL    HW2 2454   2.744   2.434   3.789
  519SOL     OW 2455   0.139   6.389   3.503
  519SOL    HW1 2456   0.050   6.436   3.506
  519SOL    HW2 2457   0.125   6.291   3.497
  520SOL     OW 2458   0.011   3.542   6.713
  520SOL    HW1 2459   0.101   3.536   6.755
  520SOL    HW2 2460   7.008   3.454   6.674
  521SOL     OW 2461   5.359   5.710   4.903
  521SOL    HW1 2462   5.450   5.751   4.897
  521SOL    HW2 2463   5.290   5.777   4.873
  522SOL     OW 2464   4.142   3.687   2.742
  522SOL    HW1 2465   4.241   3.676   2.733
  522SOL    HW2 2466   4.118   3.693   2.839
  523SOL     OW 2467   6.822   5.693   1.779
  523SOL    HW1 2468   6.808   5.617   1.715
  523SOL    HW2 2469   6.896   5.752   1.745
  524SOL     OW 2470   1.572   2.673   2.578
  524SOL    HW1 2471   1.518   2.757   2.587
  524SOL    HW2 2472   1.610   2.667   2.486
  525SOL     OW 2473   1.669   3.937   6.176
  525SOL    HW1 2474   1.583   3.981   6.150
  525SOL    HW2 2475   1.745   3.999   6.156
  526SOL     OW 2476   3.265   6.773   4.094
  526SOL    HW1 2477   3.349   6.724   4.070
  526SOL    HW2 2478   3.278   6.819   4.182
  527SOL     OW 2479   0.286   2.328   0.477
  527SOL    HW1 2480   0.253   2.415   0.440
  527SOL    HW2 2481   0.384   2.334   0.495
  528SOL     OW 2482   1.766   2.779   3.915
  528SOL    HW1 2483   1.850   2.724   3.912
  528SOL    HW2 2484   1.728   2.776   4.007
  529SOL     OW 2485   1.732   6.873   4.701
  529SOL    HW1 2486   1.797   6.802   4.674
  529SOL    HW2 2487   1.775   6.933   4.769
  530SOL     OW 2488   4.100   3.440   2.605
  530SOL    HW1 2489   4.048   3.374   2.658
  530SOL    HW2 2490   4.105   3.527   2.654
  531SOL     OW 2491   1.435   1.064   2.748
  531SOL    HW1 2492   1.389   1.106   2.826
  531SOL    HW2 2493   1.498   0.994   2.780
  532SOL     OW 2494   1.343   3.706   0.441
  532SOL    HW1 2495   1.373   3.783   0.498
  532SOL    HW2 2496   1.410   3.632   0.448
  533SOL     OW 2497   4.633   6.946   3.396
  533SOL    HW1 2498   4.534   6.935   3.386
  533SOL    HW2 2499   4.653   6.998   3.479
  534SOL     OW 2500   6.009   6.176   2.575
  534SOL    HW1 2501   6.083   6.156   2.511
  534SOL    HW2 2502   5.970   6.091   2.609
  535SOL     OW 2503   0.023   4.050   2.733
  535SOL    HW1 2504   7.011   4.021   2.822
  535SOL    HW2 2505   0.120   4.029   2.727
  536SOL     OW 2506   6.174   5.114   2.573
  536SOL    HW1 2507   6.229   5.183   2.526
  536SOL    HW2 2508   6.088   5.101   2.524
  537SOL     OW 2509   3.815   0.597   4.109
  537SOL    HW1 2510   3.765   0.594   4.195
  537SOL    HW2 2511   3.772   0.537   4.042
  538SOL     OW 2512   0.760   4.487   4.385
  538SOL    HW1 2513   0.793   4.449   4.472
  538SOL    HW2 2514   0.729   4.581   4.400
  539SOL     OW 2515   1.792   5.295   2.261
  539SOL    HW1 2516   1.702   5.277   2.221
  539SOL    HW2 2517   1.807   5.394   2.267
  540SOL     OW 2518   1.918   1.019   3.391
  540SOL    HW1 2519   1.901   0.923   3.372
  540SOL    HW2 2520   1.897   1.038   3.487
  541SOL     OW 2521   4.925   5.449   3.975
  541SOL    HW1 2522   4.872   5.395   4.041
  541SOL    HW2 2523   5.020   5.419   3.976
  542SOL     OW 2524   4.109   6.457   0.066
  542SOL    HW1 2525   4.110   6.359   0.084
  542SOL    HW2 2526   4.202   6.488   0.044
  543SOL     OW 2527   6.069   3.677   3.593
  543SOL    HW1 2528   6.121   3.674   3.678
  543SOL    HW2 2529   6.133   3.669   3.516
  544SOL     OW 2530   0.418   5.179   6.991
  544SOL    HW1 2531   0.435   5.277   7.001
  544SOL    HW2 2532   0.337   5.154   0.022
  545SOL     OW 2533   3.830   1.121   1.238
  545SOL    HW1 2534   3.849   1.029   1.273
  545SOL    HW2 2535   3.756   1.117   1.171
  546SOL     OW 2536   1.364   4.125   1.679
  546SOL    HW1 2537   1.379   4.076   1.765
  546SOL    HW2 2538   1.268   4.155   1.675
  547SOL     OW 2539   3.168   2.440   1.021
  547SOL    HW1 2540   3.250   2.398   1.060
  547SOL    HW2 2541   3.124   2.375   0.959
  548SOL     OW 2542   3.408   3.585   1.890
  548SOL    HW1 2543   3.345   3.561   1.816
  548SOL    HW2 2544   3.477   3.514   1.899
  549SOL     OW 2545   5.227   2.491   1.832
  549SOL    HW1 2546   5.178   2.437   1.900
  549SOL    HW2 2547   5.171   2.568   1.802
  550SOL     OW 2548   1.198   5.605   3.436
  550SOL    HW1 2549   1.270   5.631   3.371
  550SOL    HW2 2550   1.115   5.657   3.416
  551SOL     OW 2551   0.388   7.008   1.947
  551SOL    HW1 2552   0.380   0.067   2.006
  551SOL    HW2 2553   0.392   0.015   1.852
  552SOL     OW 2554   6.084   4.393   5.960
  552SOL    HW1 2555   6.068   4.362   6.054
  552SOL    HW2 2556   6.081   4.493   5.957
  553SOL     OW 2557   2.641   6.971   3.813
  553SOL    HW1 2558   2.560   0.001   3.784
  553SOL    HW2 2559   2.687   7.019   3.887
  554SOL     OW 2560   5.864   6.853   0.301
  554SOL    HW1 2561   5.962   6.837   0.299
  554SOL    HW2 2562   5.837   6.906   0.220
  555SOL     OW 2563   3.046   4.854   4.942
  555SOL    HW1 2564   3.009   4.763   4.961
  555SOL    HW2 2565   2.971   4.918   4.928
  556SOL     OW 2566   4.592   1.777   3.920
  556SOL    HW1 2567   4.500   1.745   3.945
  556SOL    HW2 2568   4.584   1.842   3.844
  557SOL     OW 2569   6.765   5.231   6.669
  557SOL    HW1 2570   6.847   5.200   6.620
  557SOL    HW2 2571   6.785   5.316   6.717
  558SOL     OW 2572   3.234   2.961   3.767
  558SOL    HW1 2573   3.329   2.931   3.768
  558SOL    HW2 2574   3.201   2.972   3.860
  559SOL     OW 2575   0.018   5.571   5.531
  559SOL    HW1 2576   0.116   5.589   5.539
  559SOL    HW2 2577   6.998   5.640   5.473
  560SOL     OW 2578   6.269   3.969   3.595
  560SOL    HW1 2579   6.337   4.041   3.606
  560SOL    HW2 2580   6.281   3.900   3.666
  561SOL     OW 2581   0.171   1.966   0.642
  561SOL    HW1 2582   0.257   1.943   0.598
  561SOL    HW2 2583   0.097   1.965   0.575
  562SOL     OW 2584   4.090   0.232   6.253
  562SOL    HW1 2585   4.019   0.283   6.302
  562SOL    HW2 2586   4.179   0.274   6.271
  563SOL     OW 2587   2.595   1.249   4.037
  563SOL    HW1 2588   2.548   1.212   4.118
  563SOL    HW2 2589   2.691   1.223   4.040
  564SOL     OW 2590   0.777   3.351   0.070
  564SOL    HW1 2591   0.856   3.370   0.011
  564SOL    HW2 2592   0.699   3.407   0.040
  565SOL     OW 2593   3.466   3.483   4.104
  565SOL    HW1 2594   3.508   3.569   4.135
  565SOL    HW2 2595   3.463   3.481   4.004
  566SOL     OW 2596   0.936   3.453   3.542
  566SOL    HW1 2597   0.854   3.482   3.591
  566SOL    HW2 2598   1.012   3.444   3.606
  567SOL     OW 2599   3.421   2.665   1.252
  567SOL    HW1 2600   3.466   2.737   1.306
  567SOL    HW2 2601   3.395   2.590   1.312
  568SOL     OW 2602   4.430   0.333   0.260
  568SOL    HW1 2603   4.367   0.257   0.241
  568SOL    HW2 2604   4.404   0.376   0.346
  569SOL     OW 2605   0.895   3.273   0.557
  569SOL    HW1 2606   0.902   3.264   0.458
  569SOL    HW2 2607   0.941   3.357   0.586
  570SOL     OW 2608   3.480   0.463   6.626
  570SOL    HW1 2609   3.391   0.480   6.583
  570SOL    HW2 2610   3.467   0.417   6.714
  571SOL     OW 2611   3.291   5.073   3.471
  571SOL    HW1 2612   3.205   5.041   3.511
  571SOL    HW2 2613   3.309   5.024   3.386
  572SOL     OW 2614   2.537   5.080   5.299
  572SOL    HW1 2615   2.605   5.023   5.344
  572SOL    HW2 2616   2.535   5.059   5.201
  573SOL     OW 2617   5.724   1.216   6.048
  573SOL    HW1 2618   5.677   1.138   6.087
  573SOL    HW2 2619   5.657   1.284   6.016
  574SOL     OW 2620   3.433   1.154   4.394
  574SOL    HW1 2621   3.525   1.188   4.372
  574SOL    HW2 2622   3.439   1.093   4.473
  575SOL     OW 2623   4.448   3.035   1.677
  575SOL    HW1 2624   4.490   3.035   1.767
  575SOL    HW2 2625   4.438   2.941   1.644
  576SOL     OW 2626   1.250   2.912   3.187
  576SOL    HW1 2627   1.178   2.852   3.222
  576SOL    HW2 2628   1.209   2.998   3.156
  577SOL     OW 2629   1.331   0.832   2.313
  577SOL    HW1 2630   1.338   0.903   2.383
  577SOL    HW2 2631   1.392   0.854   2.237
  578SOL     OW 2632   0.182   5.310   4.112
  578SOL    HW1 2633   0.083   5.322   4.120
  578SOL    HW2 2634   0.226   5.334   4.198
  579SOL     OW 2635   1.694   3.325   3.744
  579SOL    HW1 2636   1.761   3.304   3.673
  579SOL    HW2 2637   1.742   3.342   3.830
  580SOL     OW 2638   4.353   5.078   5.479
  580SOL    HW1 2639   4.355   5.127   5.567
  580SOL    HW2 2640   4.261   5.083   5.441
  581SOL     OW 2641   1.469   2.981   1.987
  581SOL    HW1 2642   1.545   3.044   2.006
  581SOL    HW2 2643   1.496   2.888   2.011
  582SOL     OW 2644   4.656   5.456   2.405
  582SOL    HW1 2645   4.566   5.435   2.367
  582SOL    HW2 2646   4.663   5.555   2.420
  583SOL     OW 2647   2.745   6.337   5.043
  583SOL    HW1 2648   2.683   6.385   5.106
  583SOL    HW2 2649   2.751   6.388   4.957
  584SOL     OW 2650   3.119   6.293   6.447
  584SOL    HW1 2651   3.029   6.317   6.409
  584SOL    HW2 2652   3.171   6.241   6.379
  585SOL     OW 2653   4.470   1.010   6.745
  585SOL    HW1 2654   4.436   0.981   6.834
  585SOL    HW2 2655   4.395   1.009   6.679
  586SOL     OW 2656   3.122   0.248   6.691
  586SOL    HW1 2657   3.150   0.188   6.616
  586SOL    HW2 2658   3.040   0.210   6.735
  587SOL     OW 2659   4.791   2.481   3.858
  587SOL    HW1 2660   4.717   2.481   3.790
  587SOL    HW2 2661   4.862   2.546   3.830
  588SOL     OW 2662   2.478   4.889   1.867
  588SOL    HW1 2663   2.536   4.808   1.880
  588SOL    HW2 2664   2.411   4.894   1.942
  589SOL     OW 2665   3.546   5.440   1.585
  589SOL    HW1 2666   3.525   5.446   1.487
  589SOL    HW2 2667   3.552   5.532   1.623
  590SOL     OW 2668   5.497   2.451   1.858
  590SOL    HW1 2669   5.407   2.491   1.875
  590SOL    HW2 2670   5.535   2.487   1.773
  591SOL     OW 2671   3.805   5.805   3.523
  591SOL    HW1 2672   3.776   5.888   3.476
  591SOL    HW2 2673   3.893   5.820   3.567
  592SOL     OW 2674   4.422   0.765   1.342
  592SOL    HW1 2675   4.479   0.785   1.421
  592SOL    HW2 2676   4.382   0.674   1.352
  593SOL     OW 2677   4.536   2.551   3.996
  593SOL    HW1 2678   4.532   2.651   3.989
  593SOL    HW2 2679   4.628   2.519   3.974
  594SOL     OW 2680   5.606   0.855   0.600
  594SOL    HW1 2681   5.553   0.780   0.640
  594SOL    HW2 2682   5.698   0.854   0.641
  595SOL     OW 2683   5.663   0.190   3.626
  595SOL    HW1 2684   5.667   0.219   3.531
  595SOL    HW2 2685   5.732   0.119   3.643
  596SOL     OW 2686   0.275   4.840   3.333
  596SOL    HW1 2687   0.306   4.930   3.365
  596SOL    HW2 2688   0.178   4.830   3.353
  597SOL     OW 2689   2.243   0.069   6.937
  597SOL    HW1 2690   2.308   0.134   6.898
  597SOL    HW2 2691   2.176   0.119   6.993
  598SOL     OW 2692   3.889   4.119   4.688
  598SOL    HW1 2693   3.875   4.096   4.592
  598SOL    HW2 2694   3.931   4.209   4.696
  599SOL     OW 2695   2.878   5.815   3.000
  599SOL    HW1 2696   2.780   5.833   3.011
  599SOL    HW2 2697   2.929   5.901   3.007
  600SOL     OW 2698   6.000   1.935   6.669
  600SOL    HW1 2699   5.974   1.869   6.598
  600SOL    HW2 2700   5.967   2.026   6.644
  601SOL     OW 2701   1.623   1.009   3.793
  601SOL    HW1 2702   1.630   0.951   3.874
  601SOL    HW2 2703   1.558   1.083   3.811
  602SOL     OW 2704   1.561   0.918   6.436
  602SOL    HW1 2705   1.594   0.894   6.344
  602SOL    HW2 2706   1.581   0.844   6.499
  603SOL     OW 2707   3.032   2.955   5.372
  603SOL    HW1 2708   2.965   2.881   5.372
  603SOL    HW2 2709   2.989   3.040   5.342
  604SOL     OW 2710   0.621   1.567   1.721
  604SOL    HW1 2711   0.570   1.609   1.796
  604SOL    HW2 2712   0.570   1.489   1.685
  605SOL     OW 2713   6.765   5.276   0.103
  605SOL    HW1 2714   6.706   5.261   0.024
  605SOL    HW2 2715   6.710   5.304   0.181
  606SOL     OW 2716   4.985   6.282   5.563
  606SOL    HW1 2717   4.987   6.381   5.548
  606SOL    HW2 2718   5.032   6.259   5.648
  607SOL     OW 2719   6.298   4.592   5.303
  607SOL    HW1 2720   6.321   4.636   5.389
  607SOL    HW2 2721   6.338   4.500   5.301
  608SOL     OW 2722   4.221   6.217   6.574
  608SOL    HW1 2723   4.192   6.308   6.603
  608SOL    HW2 2724   4.319   6.206   6.593
  609SOL     OW 2725   3.928   3.107   2.649
  609SOL    HW1 2726   3.965   3.188   2.694
  609SOL    HW2 2727   3.904   3.039   2.717
  610SOL     OW 2728   5.872   3.461   0.611
  610SOL    HW1 2729   5.862   3.372   0.566
  610SOL    HW2 2730   5.853   3.534   0.546
  611SOL     OW 2731   4.733   6.838   1.872
  611SOL    HW1 2732   4.796   6.777   1.920
  611SOL    HW2 2733   4.641   6.830   1.911
  612SOL     OW 2734   4.048   5.635   4.357
  612SOL    HW1 2735   3.975   5.700   4.338
  612SOL    HW2 2736   4.009   5.547   4.383
  613SOL     OW 2737   4.658   5.371   4.758
  613SOL    HW1 2738   4.566   5.334   4.771
  613SOL    HW2 2739   4.696   5.338   4.672
  614SOL     OW 2740   5.044   5.385   6.524
  614SOL    HW1 2741   5.055   5.329   6.442
  614SOL    HW2 2742   5.126   5.378   6.581
  615SOL     OW 2743   6.777   1.937   1.358
  615SOL    HW1 2744   6.767   1.992   1.275
  615SOL    HW2 2745   6.773   1.840   1.334
  616SOL     OW 2746   0.237   3.077   2.203
  616SOL    HW1 2747   0.181   3.096   2.284
  616SOL    HW2 2748   0.181   3.030   2.135
  617SOL     OW 2749   0.109   4.377   6.054
  617SOL    HW1 2750   0.193   4.373   6.109
  617SOL    HW2 2751   0.087   4.472   6.034
  618SOL     OW 2752   0.268   2.537   0.711
  618SOL    HW1 2753   0.352   2.580   0.744
  618SOL    HW2 2754   0.239   2.583   0.627
  619SOL     OW 2755   3.637   1.650   0.344
  619SOL    HW1 2756   3.666   1.703   0.265
  619SOL    HW2 2757   3.582   1.708   0.404
  620SOL     OW 2758   4.199   2.572   1.604
  620SOL    HW1 2759   4.205   2.487   1.657
  620SOL    HW2 2760   4.206   2.550   1.506
  621SOL     OW 2761   2.805   6.331   6.651
  621SOL    HW1 2762   2.854   6.328   6.739
  621SOL    HW2 2763   2.805   6.239   6.610
  622SOL     OW 2764   1.165   0.838   6.329
  622SOL    HW1 2765   1.262   0.864   6.327
  622SOL    HW2 2766   1.154   0.754   6.382
  623SOL     OW 2767   0.687   5.404   5.857
  623SOL    HW1 2768   0.632   5.468   5.911
  623SOL    HW2 2769   0.698   5.439   5.764
  624SOL     OW 2770   0.003   2.365   0.557
  624SOL    HW1 2771   0.092   2.333   0.524
  624SOL    HW2 2772   0.012   2.399   0.651
  625SOL     OW 2773   2.392   1.227   1.059
  625SOL    HW1 2774   2.373   1.325   1.058
  625SOL    HW2 2775   2.319   1.179   1.109
  626SOL     OW 2776   2.488   5.685   3.436
  626SOL    HW1 2777   2.431   5.655   3.513
  626SOL    HW2 2778   2.493   5.785   3.436
  627SOL     OW 2779   5.071   0.036   0.567
  627SOL    HW1 2780   4.992   0.043   0.506
  627SOL    HW2 2781   5.094   0.128   0.601
  628SOL     OW 2782   6.035   5.598   5.592
  628SOL    HW1 2783   6.036   5.501   5.568
  628SOL    HW2 2784   5.951   5.641   5.557
  629SOL     OW 2785   0.034   0.065   0.235
  629SOL    HW1 2786   0.008   0.162   0.238
  629SOL    HW2 2787   0.011   0.027   0.146
  630SOL     OW 2788   6.600   1.715   2.221
  630SOL    HW1 2789   6.637   1.662   2.144
  630SOL    HW2 2790   6.625   1.811   2.211
  631SOL     OW 2791   3.075   6.619   4.977
  631SOL    HW1 2792   3.041   6.543   5.034
  631SOL    HW2 2793   3.154   6.588   4.924
  632SOL     OW 2794   2.943   1.470   0.436
  632SOL    HW1 2795   3.032   1.503   0.406
  632SOL    HW2 2796   2.881   1.548   0.447
  633SOL     OW 2797   5.011   4.465   0.216
  633SOL    HW1 2798   5.013   4.366   0.208
  633SOL    HW2 2799   5.076   4.505   0.152
  634SOL     OW 2800   4.804   4.201   1.915
  634SOL    HW1 2801   4.709   4.217   1.942
  634SOL    HW2 2802   4.865   4.253   1.975
  635SOL     OW 2803   4.786   5.016   1.058
  635SOL    HW1 2804   4.765   4.928   1.016
  635SOL    HW2 2805   4.808   5.002   1.154
  636SOL     OW 2806   4.243   5.807   6.601
  636SOL    HW1 2807   4.312   5.741   6.571
  636SOL    HW2 2808   4.288   5.880   6.653
  637SOL     OW 2809   6.340   3.634   2.316
  637SOL    HW1 2810   6.433   3.643   2.349
  637SOL    HW2 2811   6.325   3.541   2.282
  638SOL     OW 2812   5.642   2.659   2.370
  638SOL    HW1 2813   5.676   2.634   2.280
  638SOL    HW2 2814   5.572   2.594   2.399
  639SOL     OW 2815   5.193   4.229   2.718
  639SOL    HW1 2816   5.262   4.255   2.651
  639SOL    HW2 2817   5.192   4.295   2.793
  640SOL     OW 2818   0.653   4.800   4.283
  640SOL    HW1 2819   0.739   4.816   4.332
  640SOL    HW2 2820   0.641   4.870   4.213
  641SOL     OW 2821   0.520   5.537   4.189
  641SOL    HW1 2822   0.544   5.594   4.111
  641SOL    HW2 2823   0.562   5.574   4.272
  642SOL     OW 2824   0.220   3.522   4.704
  642SOL    HW1 2825   0.287   3.546   4.774
  642SOL    HW2 2826   0.250   3.439   4.656
  643SOL     OW 2827   5.127   5.443   5.102
  643SOL    HW1 2828   5.094   5.537   5.098
  643SOL    HW2 2829   5.102   5.396   5.017
  644SOL     OW 2830   1.347   6.294   4.294
  644SOL    HW1 2831   1.375   6.248   4.378
  644SOL    HW2 2832   1.293   6.375   4.317
  645SOL     OW 2833   5.379   2.106   4.390
  645SOL    HW1 2834   5.427   2.022   4.367
  645SOL    HW2 2835   5.442   2.169   4.435
  646SOL     OW 2836   3.088   1.407   3.916
  646SOL    HW1 2837   3.109   1.309   3.923
  646SOL    HW2 2838   3.164   1.461   3.951
  647SOL     OW 2839   5.357   2.175   5.536
  647SOL    HW1 2840   5.362   2.177   5.436
  647SOL    HW2 2841   5.324   2.264   5.569
  648SOL     OW 2842   6.652   4.033   3.373
  648SOL    HW1 2843   6.658   3.992   3.464
  648SOL    HW2 2844   6.577   4.100   3.372
  649SOL     OW 2845   3.802   4.251   0.421
  649SOL    HW1 2846   3.812   4.351   0.417
  649SOL    HW2 2847   3.857   4.215   0.497
  650SOL     OW 2848   5.831   4.867   0.879
  650SOL    HW1 2849   5.876   4.780   0.856
  650SOL    HW2 2850   5.784   4.902   0.798
  651SOL     OW 2851   6.744   6.428   6.675
  651SOL    HW1 2852   6.799   6.391   6.750
  651SOL    HW2 2853   6.744   6.363   6.599
  652SOL     OW 2854   5.621   6.157   3.797
  652SOL    HW1 2855   5.717   6.186   3.795
  652SOL    HW2 2856   5.597   6.115   3.709
  653SOL     OW 2857   3.409   0.001   4.807
  653SOL    HW1 2858   3.330   7.006   4.865
  653SOL    HW2 2859   3.486   6.969   4.838
  654SOL     OW 2860   0.038   3.888   5.424
  654SOL    HW1 2861   0.016   3.851   5.334
  654SOL    HW2 2862   0.039   3.813   5.490
  655SOL     OW 2863   0.710   6.815   1.823
  655SOL    HW1 2864   0.705   6.827   1.922
  655SOL    HW2 2865   0.620   6.791   1.787
  656SOL     OW 2866   1.685   5.781   1.624
  656SOL    HW1 2867   1.766   5.735   1.589
  656SOL    HW2 2868   1.709   5.838   1.702
  657SOL     OW 2869   1.411   2.089   1.993
  657SOL    HW1 2870   1.411   2.108   1.895
  657SOL    HW2 2871   1.484   2.142   2.037
  658SOL     OW 2872   3.123   3.631   6.750
  658SOL    HW1 2873   3.062   3.661   6.823
  658SOL    HW2 2874   3.138   3.706   6.686
  659SOL     OW 2875   2.123   6.075   5.616
  659SOL    HW1 2876   2.130   6.030   5.527
  659SOL    HW2 2877   2.206   6.060   5.668
  660SOL     OW 2878   4.911   4.336   2.127
  660SOL    HW1 2879   4.979   4.362   2.196
  660SOL    HW2 2880   4.828   4.304   2.172
  661SOL     OW 2881   3.938   6.162   3.662
  661SOL    HW1 2882   3.980   6.149   3.752
  661SOL    HW2 2883   3.867   6.233   3.668
  662SOL     OW 2884   4.013   0.606   5.273
  662SOL    HW1 2885   3.950   0.545   5.225
  662SOL    HW2 2886   4.000   0.700   5.239
  663SOL     OW 2887   2.502   3.998   6.246
  663SOL    HW1 2888   2.443   4.024   6.169
  663SOL    HW2 2889   2.572   4.068   6.260
  664SOL     OW 2890   0.180   5.854   5.823
  664SOL    HW1 2891   0.163   5.929   5.759
  664SOL    HW2 2892   0.123   5.866   5.904
  665SOL     OW 2893   4.790   5.146   1.870
  665SOL    HW1 2894   4.764   5.233   1.912
  665SOL    HW2 2895   4.711   5.105   1.825
  666SOL     OW 2896   5.582   2.277   2.157
  666SOL    HW1 2897   5.486   2.290   2.132
  666SOL    HW2 2898   5.592   2.190   2.206
  667SOL     OW 2899   1.363   4.617   3.011
  667SOL    HW1 2900   1.400   4.590   2.922
  667SOL    HW2 2901   1.350   4.536   3.068
  668SOL     OW 2902   4.751   6.111   5.535
  668SOL    HW1 2903   4.745   6.073   5.443
  668SOL    HW2 2904   4.839   6.157   5.547
  669SOL     OW 2905   4.670   0.160   2.762
  669SOL    HW1 2906   4.688   0.199   2.852
  669SOL    HW2 2907   4.582   0.112   2.764
  670SOL     OW 2908   3.168   2.783   1.847
  670SOL    HW1 2909   3.200   2.787   1.941
  670SOL    HW2 2910   3.238   2.739   1.790
  671SOL     OW 2911   2.520   6.528   0.638
  671SOL    HW1 2912   2.594   6.594   0.627
  671SOL    HW2 2913   2.558   6.435   0.633
  672SOL     OW 2914   0.116   5.399   1.644
  672SOL    HW1 2915   0.147   5.332   1.711
  672SOL    HW2 2916   0.161   5.382   1.556
  673SOL     OW 2917   0.119   0.293   1.749
  673SOL    HW1 2918   0.078   0.347   1.822
  673SOL    HW2 2919   0.148   0.353   1.675
  674SOL     OW 2920   0.784   1.333   5.272
  674SOL    HW1 2921   0.881   1.330   5.246
  674SOL    HW2 2922   0.730   1.369   5.196
  675SOL     OW 2923   0.546   1.233   2.475
  675SOL    HW1 2924   0.614   1.307   2.482
  675SOL    HW2 2925   0.591   1.145   2.491
  676SOL     OW 2926   3.527   5.572   2.651
  676SOL    HW1 2927   3.439   5.525   2.653
  676SOL    HW2 2928   3.577   5.552   2.736
  677SOL     OW 2929   5.570   1.502   0.714
  677SOL    HW1 2930   5.503   1.468   0.779
  677SOL    HW2 2931   5.565   1.449   0.630
  678SOL     OW 2932   2.432   0.305   5.187
  678SOL    HW1 2933   2.373   0.250   5.128
  678SOL    HW2 2934   2.513   0.252   5.212
  679SOL     OW 2935   4.463   2.426   3.182
  679SOL    HW1 2936   4.424   2.360   3.247
  679SOL    HW2 2937   4.427   2.406   3.091
  680SOL     OW 2938   5.415   5.401   5.199
  680SOL    HW1 2939   5.486   5.425   5.133
  680SOL    HW2 2940   5.325   5.410   5.156
  681SOL     OW 2941   4.999   4.900   1.870
  681SOL    HW1 2942   4.916   4.854   1.839
  681SOL    HW2 2943   5.047   4.939   1.791
  682SOL     OW 2944   6.717   1.163   1.332
  682SOL    HW1 2945   6.663   1.231   1.382
  682SOL    HW2 2946   6.676   1.148   1.242
  683SOL     OW 2947   5.145   2.923   0.393
  683SOL    HW1 2948   5.139   2.922   0.493
  683SOL    HW2 2949   5.138   2.829   0.359
  684SOL     OW 2950   6.523   0.822   0.248
  684SOL    HW1 2951   6.533   0.890   0.175
  684SOL    HW2 2952   6.610   0.809   0.294
  685SOL     OW 2953   4.141   1.737   3.566
  685SOL    HW1 2954   4.078   1.660   3.574
  685SOL    HW2 2955   4.109   1.813   3.623
  686SOL     OW 2956   4.901   2.758   3.803
  686SOL    HW1 2957   4.986   2.756   3.857
  686SOL    HW2 2958   4.823   2.755   3.865
  687SOL     OW 2959   0.109   2.570   4.496
  687SOL    HW1 2960   0.097   2.550   4.593
  687SOL    HW2 2961   0.023   2.552   4.447
  688SOL     OW 2962   0.198   1.723   0.095
  688SOL    HW1 2963   0.264   1.656   0.129
  688SOL    HW2 2964   0.105   1.691   0.116
  689SOL     OW 2965   0.816   4.783   6.475
  689SOL    HW1 2966   0.868   4.698   6.488
  689SOL    HW2 2967   0.771   4.781   6.385
  690SOL     OW 2968   0.232   3.146   2.896
  690SOL    HW1 2969   0.329   3.152   2.921
  690SOL    HW2 2970   0.190   3.069   2.944
  691SOL     OW 2971   2.749   0.872   0.413
  691SOL    HW1 2972   2.667   0.820   0.437
  691SOL    HW2 2973   2.725   0.948   0.353
  692SOL     OW 2974   4.027   0.702   3.611
  692SOL    HW1 2975   4.057   0.727   3.703
  692SOL    HW2 2976   3.964   0.624   3.617
  693SOL     OW 2977   5.558   0.206   4.376
  693SOL    HW1 2978   5.633   0.227   4.312
  693SOL    HW2 2979   5.597   0.183   4.465
  694SOL     OW 2980   4.450   0.098   4.293
  694SOL    HW1 2981   4.357   0.126   4.317
  694SOL    HW2 2982   4.479   0.144   4.209
  695SOL     OW 2983   4.920   6.585   4.077
  695SOL    HW1 2984   4.972   6.517   4.129
  695SOL    HW2 2985   4.939   6.573   3.980
  696SOL     OW 2986   4.575   4.927   3.368
  696SOL    HW1 2987   4.594   4.829   3.365
  696SOL    HW2 2988   4.651   4.975   3.410
  697SOL     OW 2989   1.275   4.118   3.165
  697SOL    HW1 2990   1.194   4.070   3.200
  697SOL    HW2 2991   1.346   4.051   3.141
  698SOL     OW 2992   4.596   6.206   0.995
  698SOL    HW1 2993   4.553   6.160   1.073
  698SOL    HW2 2994   4.555   6.172   0.910
  699SOL     OW 2995   1.830   3.987   6.638
  699SOL    HW1 2996   1.765   3.950   6.571
  699SOL    HW2 2997   1.781   4.045   6.703
  700SOL     OW 2998   2.537   0.595   1.937
  700SOL    HW1 2999   2.482   0.517   1.907
  700SOL    HW2 3000   2.605   0.564   2.003
  701SOL     OW 3001   6.293   3.863   6.903
  701SOL    HW1 3002   6.318   3.955   6.872
  701SOL    HW2 3003   6.220   3.871   6.971
  702SOL     OW 3004   1.547   6.500   5.215
  702SOL    HW1 3005   1.564   6.522   5.311
  702SOL    HW2 3006   1.601   6.560   5.156
  703SOL     OW 3007   3.501   2.951   6.771
  703SOL    HW1 3008   3.482   2.907   6.858
  703SOL    HW2 3009   3.431   3.020   6.752
  704SOL     OW 3010   1.549   2.758   6.982
  704SOL    HW1 3011   1.516   2.727   6.893
  704SOL    HW2 3012   1.602   2.842   6.970
  705SOL     OW 3013   6.208   5.018   2.817
  705SOL    HW1 3014   6.228   5.041   2.722
  705SOL    HW2 3015   6.250   5.086   2.877
  706SOL     OW 3016   4.270   2.082   5.241
  706SOL    HW1 3017   4.209   2.109   5.167
  706SOL    HW2 3018   4.256   1.985   5.262
  707SOL     OW 3019   4.382   4.669   3.173
  707SOL    HW1 3020   4.455   4.664   3.240
  707SOL    HW2 3021   4.389   4.592   3.109
  708SOL     OW 3022   2.804   0.836   2.136
  708SOL    HW1 3023   2.721   0.781   2.144
  708SOL    HW2 3024   2.844   0.823   2.045
  709SOL     OW 3025   0.453   5.898   0.602
  709SOL    HW1 3026   0.394   5.840   0.546
  709SOL    HW2 3027   0.399   5.974   0.640
  710SOL     OW 3028   3.350   2.269   1.123
  710SOL    HW1 3029   3.337   2.170   1.128
  710SOL    HW2 3030   3.428   2.295   1.179
  711SOL     OW 3031   6.886   3.289   5.809
  711SOL    HW1 3032   6.950   3.318   5.737
  711SOL    HW2 3033   6.938   3.262   5.890
  712SOL     OW 3034   3.778   2.083   1.205
  712SOL    HW1 3035   3.799   2.037   1.119
  712SOL    HW2 3036   3.847   2.059   1.273
  713SOL     OW 3037   4.035   3.088   6.161
  713SOL    HW1 3038   3.940   3.117   6.151
  713SOL    HW2 3039   4.085   3.109   6.077
  714SOL     OW 3040   0.653   4.552   3.286
  714SOL    HW1 3041   0.751   4.559   3.302
  714SOL    HW2 3042   0.606   4.538   3.373
  715SOL     OW 3043   5.066   6.113   6.940
  715SOL    HW1 3044   4.996   6.060   6.893
  715SOL    HW2 3045   5.053   6.210   6.919
  716SOL     OW 3046   0.496   1.042   2.225
  716SOL    HW1 3047   0.508   1.024   2.128
  716SOL    HW2 3048   0.487   1.140   2.240
  717SOL     OW 3049   6.397   4.300   3.629
  717SOL    HW1 3050   6.367   4.384   3.673
  717SOL    HW2 3051   6.419   4.318   3.534
  718SOL     OW 3052   4.302   3.497   6.239
  718SOL    HW1 3053   4.388   3.483   6.288
  718SOL    HW2 3054   4.286   3.421   6.176
  719SOL     OW 3055   6.921   0.395   3.004
  719SOL    HW1 3056   6.845   0.333   3.023
  719SOL    HW2 3057   7.007   0.345   3.011
  720SOL     OW 3058   2.537   0.146   6.121
  720SOL    HW1 3059   2.485   0.121   6.039
  720SOL    HW2 3060   2.599   0.072   6.145
  721SOL     OW 3061   3.036   1.676   2.417
  721SOL    HW1 3062   3.062   1.628   2.333
  721SOL    HW2 3063   2.949   1.639   2.450
  722SOL     OW 3064   2.723   0.526   5.270
  722SOL    HW1 3065   2.646   0.506   5.209
  722SOL    HW2 3066   2.689   0.554   5.360
  723SOL     OW 3067   1.495   4.452   3.541
  723SOL    HW1 3068   1.514   4.360   3.507
  723SOL    HW2 3069   1.466   4.511   3.465
  724SOL     OW 3070   1.003   1.567   4.004
  724SOL    HW1 3071   0.969   1.487   4.053
  724SOL    HW2 3072   1.036   1.634   4.070
  725SOL     OW 3073   1.620   5.536   2.198
  725SOL    HW1 3074   1.632   5.561   2.102
  725SOL    HW2 3075   1.525   5.555   2.225
  726SOL     OW 3076   3.650   4.358   1.423
  726SOL    HW1 3077   3.588   4.405   1.361
  726SOL    HW2 3078   3.705   4.292   1.372
  727SOL     OW 3079   6.035   4.559   5.251
  727SOL    HW1 3080   6.028   4.476   5.197
  727SOL    HW2 3081   6.126   4.563   5.295
  728SOL     OW 3082   6.125   2.845   3.503
  728SOL    HW1 3083   6.068   2.768   3.476
  728SOL    HW2 3084   6.087   2.930   3.465
  729SOL     OW 3085   0.484   1.652   1.153
  729SOL    HW1 3086   0.522   1.739   1.185
  729SOL    HW2 3087   0.558   1.587   1.140
  730SOL     OW 3088   6.674   0.122   4.193
  730SOL    HW1 3089   6.720   0.069   4.122
  730SOL    HW2 3090   6.614   0.062   4.246
  731SOL     OW 3091   4.608   5.183   6.852
  731SOL    HW1 3092   4.596   5.111   6.920
  731SOL    HW2 3093   4.541   5.255   6.869
  732SOL     OW 3094   5.646   2.549   1.393
  732SOL    HW1 3095   5.628   2.604   1.474
  732SOL    HW2 3096   5.744   2.549   1.373
  733SOL     OW 3097   5.133   0.180   4.220
  733SOL    HW1 3098   5.174   0.194   4.311
  733SOL    HW2 3099   5.089   0.265   4.190
  734SOL     OW 3100   5.993   4.746   2.876
  734SOL    HW1 3101   6.036   4.660   2.905
  734SOL    HW2 3102   6.018   4.819   2.940
  735SOL     OW 3103   4.217   1.865   0.492
  735SOL    HW1 3104   4.197   1.769   0.472
  735SOL    HW2 3105   4.134   1.909   0.527
  736SOL     OW 3106   0.436   2.130   3.553
  736SOL    HW1 3107   0.382   2.091   3.478
  736SOL    HW2 3108   0.388   2.115   3.639
  737SOL     OW 3109   5.779   2.064   5.954
  737SOL    HW1 3110   5.737   2.113   5.878
  737SOL    HW2 3111   5.765   2.114   6.039
  738SOL     OW 3112   2.413   3.528   1.251
  738SOL    HW1 3113   2.361   3.542   1.167
  738SOL    HW2 3114   2.483   3.599   1.260
  739SOL     OW 3115   5.314   1.269   4.507
  739SOL    HW1 3116   5.233   1.299   4.559
  739SOL    HW2 3117   5.296   1.280   4.409
  740SOL     OW 3118   5.793   1.480   1.880
  740SOL    HW1 3119   5.793   1.385   1.849
  740SOL    HW2 3120   5.783   1.482   1.980
  741SOL     OW 3121   1.930   6.984   2.923
  741SOL    HW1 3122   1.969   6.968   3.014
  741SOL    HW2 3123   1.994   0.017   2.869
  742SOL     OW 3124   2.390   6.764   2.276
  742SOL    HW1 3125   2.465   6.815   2.233
  742SOL    HW2 3126   2.384   6.673   2.235
  743SOL     OW 3127   1.186   5.266   3.617
  743SOL    HW1 3128   1.092   5.287   3.591
  743SOL    HW2 3129   1.248   5.293   3.544
  744SOL     OW 3130   5.627   0.577   1.094
  744SOL    HW1 3131   5.685   0.508   1.138
  744SOL    HW2 3132   5.684   0.645   1.049
  745SOL     OW 3133   1.403   5.425   5.170
  745SOL    HW1 3134   1.365   5.497   5.229
  745SOL    HW2 3135   1.448   5.356   5.226
  746SOL     OW 3136   6.337   4.317   5.876
  746SOL    HW1 3137   6.352   4.329   5.778
  746SOL    HW2 3138   6.251   4.362   5.903
  747SOL     OW 3139   3.686   6.215   4.821
  747SOL    HW1 3140   3.644   6.155   4.753
  747SOL    HW2 3141   3.785   6.217   4.808
  748SOL     OW 3142   4.016   5.307   2.319
  748SOL    HW1 3143   3.964   5.269   2.242
  748SOL    HW2 3144   4.098   5.252   2.334
  749SOL     OW 3145   6.224   3.788   3.803
  749SOL    HW1 3146   6.249   3.694   3.825
  749SOL    HW2 3147   6.133   3.807   3.842
  750SOL     OW 3148   2.592   1.171   1.279
  750SOL    HW1 3149   2.536   1.186   1.197
  750SOL    HW2 3150   2.654   1.094   1.264
  751SOL     OW 3151   4.464   1.273   6.629
  751SOL    HW1 3152   4.462   1.352   6.690
  751SOL    HW2 3153   4.478   1.190   6.683
  752SOL     OW 3154   2.633   2.487   0.963
  752SOL    HW1 3155   2.723   2.477   1.005
  752SOL    HW2 3156   2.642   2.495   0.864
  753SOL     OW 3157   0.855   3.663   6.377
  753SOL    HW1 3158   0.895   3.748   6.413
  753SOL    HW2 3159   0.907   3.585   6.412
  754SOL     OW 3160   4.874   1.908   6.010
  754SOL    HW1 3161   4.949   1.843   6.000
  754SOL    HW2 3162   4.909   2.001   5.996
  755SOL     OW 3163   1.503   4.396   5.142
  755SOL    HW1 3164   1.483   4.441   5.055
  755SOL    HW2 3165   1.552   4.459   5.202
  756SOL     OW 3166   2.743   6.094   6.480
  756SOL    HW1 3167   2.725   6.061   6.388
  756SOL    HW2 3168   2.758   6.016   6.541
  757SOL     OW 3169   0.181   6.961   4.239
  757SOL    HW1 3170   0.274   6.996   4.240
  757SOL    HW2 3171   0.132   6.994   4.319
  758SOL     OW 3172   3.950   0.770   3.226
  758SOL    HW1 3173   3.872   0.801   3.281
  758SOL    HW2 3174   4.010   0.713   3.281
  759SOL     OW 3175   0.647   2.668   1.968
  759SOL    HW1 3176   0.620   2.607   1.894
  759SOL    HW2 3177   0.581   2.742   1.977
  760SOL     OW 3178   6.189   6.864   4.047
  760SOL    HW1 3179   6.261   6.796   4.036
  760SOL    HW2 3180   6.100   6.822   4.030
  761SOL     OW 3181   5.393   3.698   6.561
  761SOL    HW1 3182   5.475   3.707   6.504
  761SOL    HW2 3183   5.317   3.746   6.518
  762SOL     OW 3184   2.526   0.429   4.947
  762SOL    HW1 3185   2.498   0.405   5.040
  762SOL    HW2 3186   2.446   0.460   4.895
  763SOL     OW 3187   3.941   5.739   6.343
  763SOL    HW1 3188   3.860   5.754   6.401
  763SOL    HW2 3189   4.002   5.674   6.388
  764SOL     OW 3190   5.429   1.020   5.716
  764SOL    HW1 3191   5.516   1.070   5.717
  764SOL    HW2 3192   5.431   0.949   5.786
  765SOL     OW 3193   1.506   5.638   1.255
  765SOL    HW1 3194   1.521   5.545   1.220
  765SOL    HW2 3195   1.594   5.687   1.258
  766SOL     OW 3196   2.501   1.963   5.961
  766SOL    HW1 3197   2.558   1.974   5.879
  766SOL    HW2 3198   2.438   1.887   5.947
  767SOL     OW 3199   6.507   5.833   3.462
  767SOL    HW1 3200   6.445   5.853   3.537
  767SOL    HW2 3201   6.523   5.734   3.457
  768SOL     OW 3202   2.124   5.152   2.865
  768SOL    HW1 3203   2.165   5.063   2.885
  768SOL    HW2 3204   2.050   5.169   2.928
  769SOL     OW 3205   2.356   1.426   5.401
  769SOL    HW1 3206   2.313   1.507   5.360
  769SOL    HW2 3207   2.448   1.449   5.431
  770SOL     OW 3208   1.575   5.281   3.531
  770SOL    HW1 3209   1.571   5.195   3.582
  770SOL    HW2 3210   1.482   5.316   3.518
  771SOL     OW 3211   1.257   5.385   2.799
  771SOL    HW1 3212   1.195   5.463   2.787
  771SOL    HW2 3213   1.213   5.314   2.853
  772SOL     OW 3214   5.551   4.770   6.221
  772SOL    HW1 3215   5.588   4.695   6.167
  772SOL    HW2 3216   5.451   4.761   6.227
  773SOL     OW 3217   0.392   4.435   3.529
  773SOL    HW1 3218   0.314   4.441   3.591
  773SOL    HW2 3219   0.477   4.445   3.580
  774SOL     OW 3220   1.711   1.009   1.353
  774SOL    HW1 3221   1.712   1.064   1.436
  774SOL    HW2 3222   1.646   0.934   1.364
  775SOL     OW 3223   2.532   2.205   4.225
  775SOL    HW1 3224   2.571   2.125   4.271
  775SOL    HW2 3225   2.466   2.175   4.156
  776SOL     OW 3226   0.267   0.494   5.442
  776SOL    HW1 3227   0.271   0.501   5.343
  776SOL    HW2 3228   0.173   0.476   5.471
  777SOL     OW 3229   1.382   4.876   0.549
  777SOL    HW1 3230   1.385   4.976   0.550
  777SOL    HW2 3231   1.474   4.840   0.565
  778SOL     OW 3232   2.110   0.821   1.724
  778SOL    HW1 3233   2.052   0.888   1.677
  778SOL    HW2 3234   2.205   0.851   1.720
  779SOL     OW 3235   7.018   2.305   2.382
  779SOL    HW1 3236   7.011   2.369   2.305
  779SOL    HW2 3237   0.091   2.280   2.396
  780SOL     OW 3238   0.949   2.803   4.451
  780SOL    HW1 3239   0.974   2.718   4.499
  780SOL    HW2 3240   0.860   2.791   4.407
  781SOL     OW 3241   5.821   6.153   0.650
  781SOL    HW1 3242   5.810   6.197   0.561
  781SOL    HW2 3243   5.909   6.106   0.653
  782SOL     OW 3244   1.175   3.251   6.543
  782SOL    HW1 3245   1.161   3.161   6.586
  782SOL    HW2 3246   1.261   3.252   6.494
  783SOL     OW 3247   5.133   4.605   1.816
  783SOL    HW1 3248   5.057   4.585   1.878
  783SOL    HW2 3249   5.171   4.694   1.838
  784SOL     OW 3250   4.058   4.566   0.652
  784SOL    HW1 3251   4.073   4.650   0.599
  784SOL    HW2 3252   4.100   4.576   0.743
  785SOL     OW 3253   0.281   1.993   3.355
  785SOL    HW1 3254   0.266   1.972   3.258
  785SOL    HW2 3255   0.196   2.025   3.396
  786SOL     OW 3256   0.519   0.287   2.895
  786SOL    HW1 3257   0.574   0.371   2.895
  786SOL    HW2 3258   0.527   0.242   2.983
  787SOL     OW 3259   1.213   1.129   6.751
  787SOL    HW1 3260   1.303   1.149   6.790
  787SOL    HW2 3261   1.143   1.155   6.817
  788SOL     OW 3262   4.010   1.457   1.015
  788SOL    HW1 3263   4.010   1.415   1.106
  788SOL    HW2 3264   4.098   1.442   0.971
  789SOL     OW 3265   4.270   4.248   1.653
  789SOL    HW1 3266   4.311   4.219   1.567
  789SOL    HW2 3267   4.337   4.238   1.727
  790SOL     OW 3268   1.994   1.608   3.040
  790SOL    HW1 3269   2.019   1.691   2.990
  790SOL    HW2 3270   2.050   1.600   3.122
  791SOL     OW 3271   1.524   5.990   4.766
  791SOL    HW1 3272   1.435   5.971   4.809
  791SOL    HW2 3273   1.579   5.907   4.767
  792SOL     OW 3274   0.797   0.985   1.964
  792SOL    HW1 3275   0.853   1.000   2.046
  792SOL    HW2 3276   0.837   1.034   1.887
  793SOL     OW 3277   5.101   5.248   4.222
  793SOL    HW1 3278   5.006   5.261   4.196
  793SOL    HW2 3279   5.106   5.187   4.301
  794SOL     OW 3280   3.001   4.035   5.854
  794SOL    HW1 3281   3.054   4.017   5.937
  794SOL    HW2 3282   3.034   4.119   5.810
  795SOL     OW 3283   3.994   0.575   4.910
  795SOL    HW1 3284   4.008   0.575   4.811
  795SOL    HW2 3285   4.023   0.488   4.948
  796SOL     OW 3286   1.247   2.515   6.347
  796SOL    HW1 3287   1.244   2.539   6.250
  796SOL    HW2 3288   1.162   2.468   6.373
  797SOL     OW 3289   5.108   0.583   1.229
  797SOL    HW1 3290   5.020   0.583   1.181
  797SOL    HW2 3291   5.095   0.549   1.322
  798SOL     OW 3292   3.773   6.390   1.830
  798SOL    HW1 3293   3.859   6.423   1.792
  798SOL    HW2 3294   3.760   6.426   1.922
  799SOL     OW 3295   0.267   6.895   6.156
  799SOL    HW1 3296   0.185   6.914   6.102
  799SOL    HW2 3297   0.240   6.868   6.249
  800SOL     OW 3298   5.929   0.725   2.328
  800SOL    HW1 3299   5.965   0.770   2.246
  800SOL    HW2 3300   5.995   0.734   2.403
  801SOL     OW 3301   2.468   4.535   4.137
  801SOL    HW1 3302   2.477   4.477   4.218
  801SOL    HW2 3303   2.454   4.477   4.056
  802SOL     OW 3304   2.797   1.890   0.799
  802SOL    HW1 3305   2.819   1.800   0.761
  802SOL    HW2 3306   2.854   1.907   0.879
  803SOL     OW 3307   1.295   0.443   5.711
  803SOL    HW1 3308   1.344   0.358   5.730
  803SOL    HW2 3309   1.276   0.491   5.796
  804SOL     OW 3310   5.820   6.459   0.918
  804SOL    HW1 3311   5.871   6.375   0.905
  804SOL    HW2 3312   5.854   6.529   0.855
  805SOL     OW 3313   2.358   0.897   4.404
  805SOL    HW1 3314   2.364   0.968   4.474
  805SOL    HW2 3315   2.296   0.825   4.435
  806SOL     OW 3316   5.634   1.038   4.536
  806SOL    HW1 3317   5.635   1.097   4.455
  806SOL    HW2 3318   5.621   1.094   4.618
  807SOL     OW 3319   0.695   0.612   5.366
  807SOL    HW1 3320   0.748   0.534   5.399
  807SOL    HW2 3321   0.652   0.659   5.443
  808SOL     OW 3322   3.859   4.176   6.677
  808SOL    HW1 3323   3.914   4.189   6.595
  808SOL    HW2 3324   3.821   4.084   6.678
  809SOL     OW 3325   0.578   4.979   1.099
  809SOL    HW1 3326   0.557   4.909   1.031
  809SOL    HW2 3327   0.573   5.070   1.057
  810SOL     OW 3328   3.423   4.416   0.731
  810SOL    HW1 3329   3.356   4.483   0.762
  810SOL    HW2 3330   3.454   4.440   0.639
  811SOL     OW 3331   5.695   5.790   5.139
  811SOL    HW1 3332   5.629   5.730   5.184
  811SOL    HW2 3333   5.785   5.780   5.183
  812SOL     OW 3334   0.012   0.851   3.000
  812SOL    HW1 3335   0.077   0.911   3.047
  812SOL    HW2 3336   7.014   0.772   3.058
  813SOL     OW 3337   3.732   6.845   4.038
  813SOL    HW1 3338   3.817   6.794   4.052
  813SOL    HW2 3339   3.737   6.895   3.951
  814SOL     OW 3340   6.454   5.973   2.738
  814SOL    HW1 3341   6.479   6.005   2.647
  814SOL    HW2 3342   6.361   6.002   2.759
  815SOL     OW 3343   6.683   3.174   3.364
  815SOL    HW1 3344   6.747   3.113   3.318
  815SOL    HW2 3345   6.650   3.243   3.299
  816SOL     OW 3346   5.937   5.515   0.915
  816SOL    HW1 3347   5.918   5.430   0.965
  816SOL    HW2 3348   5.880   5.518   0.833
  817SOL     OW 3349   1.283   5.211   1.435
  817SOL    HW1 3350   1.360   5.164   1.392
  817SOL    HW2 3351   1.199   5.160   1.416
  818SOL     OW 3352   6.339   2.909   3.659
  818SOL    HW1 3353   6.409   2.942   3.595
  818SOL    HW2 3354   6.254   2.893   3.610
  819SOL     OW 3355   6.265   3.210   1.501
  819SOL    HW1 3356   6.290   3.255   1.587
  819SOL    HW2 3357   6.183   3.253   1.463
  820SOL     OW 3358   2.882   2.298   4.876
  820SOL    HW1 3359   2.809   2.249   4.923
  820SOL    HW2 3360   2.964   2.298   4.933
  821SOL     OW 3361   6.460   4.406   6.581
  821SOL    HW1 3362   6.491   4.386   6.488
  821SOL    HW2 3363   6.533   4.455   6.630
  822SOL     OW 3364   0.237   3.124   3.369
  822SOL    HW1 3365   0.156   3.152   3.317
  822SOL    HW2 3366   0.261   3.195   3.435
  823SOL     OW 3367   6.030   4.334   5.706
  823SOL    HW1 3368   6.064   4.347   5.799
  823SOL    HW2 3369   6.013   4.237   5.690
  824SOL     OW 3370   3.903   0.490   5.936
  824SOL    HW1 3371   3.946   0.539   6.012
  824SOL    HW2 3372   3.808   0.519   5.927
  825SOL     OW 3373   6.633   5.659   1.529
  825SOL    HW1 3374   6.726   5.623   1.527
  825SOL    HW2 3375   6.580   5.609   1.598
  826SOL     OW 3376   3.993   2.064   5.865
  826SOL    HW1 3377   3.909   2.074   5.812
  826SOL    HW2 3378   3.990   2.125   5.944
  827SOL     OW 3379   2.436   4.501   5.077
  827SOL    HW1 3380   2.459   4.521   4.982
  827SOL    HW2 3381   2.374   4.423   5.081
  828SOL     OW 3382   5.218   6.315   6.369
  828SOL    HW1 3383   5.264   6.393   6.327
  828SOL    HW2 3384   5.123   6.311   6.337
  829SOL     OW 3385   4.153   3.371   2.340
  829SOL    HW1 3386   4.133   3.396   2.434
  829SOL    HW2 3387   4.126   3.446   2.279
  830SOL     OW 3388   5.550   5.074   6.674
  830SOL    HW1 3389   5.603   5.116   6.600
  830SOL    HW2 3390   5.495   5.000   6.636
  831SOL     OW 3391   6.129   6.832   0.277
  831SOL    HW1 3392   6.214   6.805   0.323
  831SOL    HW2 3393   6.130   6.799   0.183
  832SOL     OW 3394   4.105   1.596   3.028
  832SOL    HW1 3395   4.101   1.687   3.069
  832SOL    HW2 3396   4.171   1.540   3.078
  833SOL     OW 3397   1.444   3.602   6.495
  833SOL    HW1 3398   1.427   3.647   6.407
  833SOL    HW2 3399   1.373   3.627   6.560
  834SOL     OW 3400   5.007   3.645   1.240
  834SOL    HW1 3401   4.942   3.602   1.178
  834SOL    HW2 3402   5.097   3.604   1.227
  835SOL     OW 3403   3.525   0.278   5.762
  835SOL    HW1 3404   3.560   0.371   5.768
  835SOL    HW2 3405   3.579   0.217   5.820
  836SOL     OW 3406   3.725   6.906   4.690
  836SOL    HW1 3407   3.733   6.853   4.606
  836SOL    HW2 3408   3.774   6.993   4.680
  837SOL     OW 3409   0.143   0.747   1.025
  837SOL    HW1 3410   0.175   0.726   1.118
  837SOL    HW2 3411   0.190   0.688   0.960
  838SOL     OW 3412   2.304   6.833   4.530
  838SOL    HW1 3413   2.315   6.737   4.503
  838SOL    HW2 3414   2.309   6.892   4.449
  839SOL     OW 3415   2.045   1.436   1.803
  839SOL    HW1 3416   1.958   1.399   1.770
  839SOL    HW2 3417   2.120   1.397   1.749
  840SOL     OW 3418   6.428   5.939   0.139
  840SOL    HW1 3419   6.401   6.009   0.074
  840SOL    HW2 3420   6.362   5.865   0.138
  841SOL     OW 3421   3.289   5.508   6.002
  841SOL    HW1 3422   3.313   5.428   6.058
  841SOL    HW2 3423   3.359   5.522   5.932
  842SOL     OW 3424   3.597   0.166   5.294
  842SOL    HW1 3425   3.564   0.177   5.200
  842SOL    HW2 3426   3.536   0.216   5.356
  843SOL     OW 3427   1.066   1.638   1.588
  843SOL    HW1 3428   1.135   1.680   1.530
  843SOL    HW2 3429   0.978   1.635   1.539
  844SOL     OW 3430   6.298   0.128   0.225
  844SOL    HW1 3431   6.259   0.161   0.312
  844SOL    HW2 3432   6.348   0.203   0.181
  845SOL     OW 3433   5.081   3.831   4.007
  845SOL    HW1 3434   5.036   3.815   3.919
  845SOL    HW2 3435   5.174   3.795   4.005
  846SOL     OW 3436   2.108   1.040   5.961
  846SOL    HW1 3437   2.164   1.112   5.920
  846SOL    HW2 3438   2.066   0.985   5.889
  847SOL     OW 3439   1.235   3.579   1.129
  847SOL    HW1 3440   1.192   3.664   1.100
  847SOL    HW2 3441   1.316   3.561   1.073
  848SOL     OW 3442   6.980   6.982   6.060
  848SOL    HW1 3443   6.957   6.886   6.076
  848SOL    HW2 3444   6.945   0.015   6.135
  849SOL     OW 3445   6.044   4.048   6.508
  849SOL    HW1 3446   6.083   4.135   6.479
  849SOL    HW2 3447   6.091   3.973   6.461
  850SOL     OW 3448   5.599   1.579   4.640
  850SOL    HW1 3449   5.677   1.563   4.579
  850SOL    HW2 3450   5.624   1.647   4.709
  851SOL     OW 3451   0.067   2.763   0.900
  851SOL    HW1 3452   0.007   2.701   0.850
  851SOL    HW2 3453   0.148   2.782   0.844
  852SOL     OW 3454   0.579   4.159   1.030
  852SOL    HW1 3455   0.667   4.178   1.075
  852SOL    HW2 3456   0.556   4.063   1.043
  853SOL     OW 3457   0.819   4.755   0.961
  853SOL    HW1 3458   0.915   4.740   0.986
  853SOL    HW2 3459   0.804   4.852   0.942
  854SOL     OW 3460   5.020   5.594   0.480
  854SOL    HW1 3461   5.102   5.587   0.537
  854SOL    HW2 3462   4.981   5.503   0.466
  855SOL     OW 3463   6.572   0.207   1.563
  855SOL    HW1 3464   6.669   0.230   1.572
  855SOL    HW2 3465   6.518   0.278   1.609
  856SOL     OW 3466   1.245   1.871   6.950
  856SOL    HW1 3467   1.274   1.927   0.006
  856SOL    HW2 3468   1.156   1.904   6.917
  857SOL     OW 3469   6.376   4.845   1.904
  857SOL    HW1 3470   6.386   4.748   1.883
  857SOL    HW2 3471   6.402   4.861   2.000
  858SOL     OW 3472   2.983   3.970   1.289
  858SOL    HW1 3473   3.003   4.067   1.305
  858SOL    HW2 3474   2.906   3.942   1.346
  859SOL     OW 3475   5.833   0.129   5.071
  859SOL    HW1 3476   5.921   0.175   5.069
  859SOL    HW2 3477   5.765   0.183   5.021
  860SOL     OW 3478   6.317   2.837   0.322
  860SOL    HW1 3479   6.400   2.832   0.377
  860SOL    HW2 3480   6.269   2.750   0.325
  861SOL     OW 3481   2.923   5.142   3.888
  861SOL    HW1 3482   2.879   5.108   3.804
  861SOL    HW2 3483   2.908   5.076   3.962
  862SOL     OW 3484   1.488   4.194   3.406
  862SOL    HW1 3485   1.501   4.149   3.495
  862SOL    HW2 3486   1.402   4.164   3.366
  863SOL     OW 3487   6.019   0.671   6.534
  863SOL    HW1 3488   5.960   0.722   6.471
  863SOL    HW2 3489   6.030   0.577   6.501
  864SOL     OW 3490   3.777   5.781   4.060
  864SOL    HW1 3491   3.854   5.774   3.997
  864SOL    HW2 3492   3.699   5.732   4.023
  865SOL     OW 3493   1.555   6.838   5.983
  865SOL    HW1 3494   1.536   6.859   6.079
  865SOL    HW2 3495   1.639   6.784   5.976
  866SOL     OW 3496   2.237   1.293   0.646
  866SOL    HW1 3497   2.221   1.299   0.548
  866SOL    HW2 3498   2.269   1.202   0.670
  867SOL     OW 3499   5.009   4.046   0.406
  867SOL    HW1 3500   5.062   3.962   0.394
  867SOL    HW2 3501   5.022   4.104   0.325
  868SOL     OW 3502   6.422   1.286   1.265
  868SOL    HW1 3503   6.459   1.239   1.186
  868SOL    HW2 3504   6.322   1.281   1.263
  869SOL     OW 3505   0.399   4.649   2.931
  869SOL    HW1 3506   0.306   4.614   2.946
  869SOL    HW2 3507   0.413   4.665   2.834
  870SOL     OW 3508   3.695   3.999   0.362
  870SOL    HW1 3509   3.746   4.083   0.377
  870SOL    HW2 3510   3.617   3.995   0.424
  871SOL     OW 3511   5.321   2.506   2.692
  871SOL    HW1 3512   5.358   2.542   2.777
  871SOL    HW2 3513   5.242   2.448   2.711
  872SOL     OW 3514   5.848   3.432   4.036
  872SOL    HW1 3515   5.820   3.491   3.960
  872SOL    HW2 3516   5.860   3.339   4.003
  873SOL     OW 3517   5.503   6.310   5.318
  873SOL    HW1 3518   5.410   6.298   5.351
  873SOL    HW2 3519   5.506   6.385   5.251
  874SOL     OW 3520   6.979   3.910   6.392
  874SOL    HW1 3521   0.025   3.955   6.335
  874SOL    HW2 3522   0.003   3.859   6.465
  875SOL     OW 3523   5.480   4.659   0.580
  875SOL    HW1 3524   5.420   4.616   0.512
  875SOL    HW2 3525   5.490   4.598   0.658
  876SOL     OW 3526   1.003   5.015   2.734
  876SOL    HW1 3527   1.005   5.023   2.834
  876SOL    HW2 3528   1.027   4.921   2.708
  877SOL     OW 3529   3.727   5.054   5.516
  877SOL    HW1 3530   3.808   5.091   5.561
  877SOL    HW2 3531   3.736   4.955   5.509
  878SOL     OW 3532   4.329   6.519   4.649
  878SOL    HW1 3533   4.407   6.468   4.611
  878SOL    HW2 3534   4.281   6.461   4.715
  879SOL     OW 3535   4.526   1.447   1.334
  879SOL    HW1 3536   4.516   1.350   1.357
  879SOL    HW2 3537   4.439   1.482   1.298
  880SOL     OW 3538   3.297   3.765   4.522
  880SOL    HW1 3539   3.366   3.698   4.551
  880SOL    HW2 3540   3.206   3.724   4.527
  881SOL     OW 3541   5.546   3.529   5.623
  881SOL    HW1 3542   5.595   3.473   5.689
  881SOL    HW2 3543   5.607   3.555   5.549
  882SOL     OW 3544   1.024   2.606   4.077
  882SOL    HW1 3545   0.966   2.536   4.117
  882SOL    HW2 3546   0.971   2.661   4.012
  883SOL     OW 3547   3.901   0.406   0.603
  883SOL    HW1 3548   3.815   0.357   0.618
  883SOL    HW2 3549   3.973   0.340   0.579
  884SOL     OW 3550   7.008   4.779   0.239
  884SOL    HW1 3551   6.976   4.871   0.261
  884SOL    HW2 3552   0.084   4.780   0.222
  885SOL     OW 3553   4.716   6.869   5.329
  885SOL    HW1 3554   4.676   6.937   5.267
  885SOL    HW2 3555   4.690   6.777   5.300
  886SOL     OW 3556   4.278   0.871   0.401
  886SOL    HW1 3557   4.309   0.780   0.372
  886SOL    HW2 3558   4.275   0.932   0.322
  887SOL     OW 3559   3.857   6.045   4.100
  887SOL    HW1 3560   3.784   5.977   4.104
  887SOL    HW2 3561   3.944   6.002   4.122
  888SOL     OW 3562   6.759   6.232   3.813
  888SOL    HW1 3563   6.805   6.283   3.740
  888SOL    HW2 3564   6.664   6.213   3.786
  889SOL     OW 3565   6.527   1.128   6.518
  889SOL    HW1 3566   6.512   1.077   6.602
  889SOL    HW2 3567   6.622   1.160   6.514
  890SOL     OW 3568   2.935   5.134   2.968
  890SOL    HW1 3569   2.872   5.207   2.998
  890SOL    HW2 3570   2.888   5.046   2.973
  891SOL     OW 3571   6.928   3.343   0.722
  891SOL    HW1 3572   6.937   3.287   0.805
  891SOL    HW2 3573   6.935   3.439   0.746
  892SOL     OW 3574   3.537   3.529   4.877
  892SOL    HW1 3575   3.490   3.517   4.964
  892SOL    HW2 3576   3.615   3.466   4.872
  893SOL     OW 3577   2.108   6.478   2.933
  893SOL    HW1 3578   2.166   6.559   2.938
  893SOL    HW2 3579   2.044   6.487   2.856
  894SOL     OW 3580   1.304   2.727   2.836
  894SOL    HW1 3581   1.258   2.788   2.901
  894SOL    HW2 3582   1.393   2.701   2.874
  895SOL     OW 3583   1.187   5.556   4.015
  895SOL    HW1 3584   1.258   5.515   3.959
  895SOL    HW2 3585   1.184   5.511   4.104
  896SOL     OW 3586   6.083   5.221   1.367
  896SOL    HW1 3587   6.061   5.214   1.270
  896SOL    HW2 3588   6.163   5.281   1.379
  897SOL     OW 3589   4.113   0.637   6.561
  897SOL    HW1 3590   4.209   0.658   6.543
  897SOL    HW2 3591   4.095   0.650   6.659
  898SOL     OW 3592   4.103   6.213   2.430
  898SOL    HW1 3593   4.176   6.197   2.363
  898SOL    HW2 3594   4.027   6.150   2.413
  899SOL     OW 3595   0.672   5.670   0.356
  899SOL    HW1 3596   0.669   5.758   0.404
  899SOL    HW2 3597   0.741   5.674   0.284
  900SOL     OW 3598   5.140   6.544   6.581
  900SOL    HW1 3599   5.219   6.555   6.520
  900SOL    HW2 3600   5.058   6.531   6.526
  901SOL     OW 3601   1.111   1.037   4.021
  901SOL    HW1 3602   1.172   0.967   3.983
  901SOL    HW2 3603   1.039   1.057   3.955
  902SOL     OW 3604   1.226   3.036   1.259
  902SOL    HW1 3605   1.199   3.131   1.243
  902SOL    HW2 3606   1.222   3.017   1.357
  903SOL     OW 3607   0.406   3.611   0.142
  903SOL    HW1 3608   0.468   3.579   0.071
  903SOL    HW2 3609   0.341   3.538   0.165
  904SOL     OW 3610   2.231   2.941   2.699
  904SOL    HW1 3611   2.246   2.871   2.768
  904SOL    HW2 3612   2.263   2.907   2.610
  905SOL     OW 3613   4.785   3.945   6.373
  905SOL    HW1 3614   4.707   3.996   6.407
  905SOL    HW2 3615   4.764   3.847   6.372
  906SOL     OW 3616   0.800   2.175   6.536
  906SOL    HW1 3617   0.897   2.197   6.525
  906SOL    HW2 3618   0.783   2.084   6.498
  907SOL     OW 3619   4.871   2.477   1.012
  907SOL    HW1 3620   4.957   2.428   0.995
  907SOL    HW2 3621   4.799   2.439   0.955
  908SOL     OW 3622   2.314   4.672   3.068
  908SOL    HW1 3623   2.368   4.653   3.150
  908SOL    HW2 3624   2.305   4.771   3.057
  909SOL     OW 3625   4.253   6.006   2.147
  909SOL    HW1 3626   4.261   6.102   2.122
  909SOL    HW2 3627   4.256   5.950   2.064
  910SOL     OW 3628   3.111   1.458   1.220
  910SOL    HW1 3629   3.116   1.361   1.196
  910SOL    HW2 3630   3.031   1.475   1.277
  911SOL     OW 3631   1.433   6.015   6.602
  911SOL    HW1 3632   1.427   6.029   6.701
  911SOL    HW2 3633   1.501   6.076   6.564
  912SOL     OW 3634   5.292   1.149   3.327
  912SOL    HW1 3635   5.315   1.134   3.230
  912SOL    HW2 3636   5.349   1.090   3.384
  913SOL     OW 3637   2.781   0.555   3.966
  913SOL    HW1 3638   2.684   0.551   3.944
  913SOL    HW2 3639   2.793   0.552   4.065
  914SOL     OW 3640   2.663   6.689   5.137
  914SOL    HW1 3641   2.594   6.641   5.083
  914SOL    HW2 3642   2.620   6.762   5.190
  915SOL     OW 3643   6.801   2.788   0.854
  915SOL    HW1 3644   6.834   2.881   0.867
  915SOL    HW2 3645   6.716   2.775   0.906
  916SOL     OW 3646   2.150   3.245   2.568
  916SOL    HW1 3647   2.212   3.167   2.561
  916SOL    HW2 3648   2.093   3.250   2.487
  917SOL     OW 3649   0.297   6.509   2.146
  917SOL    HW1 3650   0.236   6.556   2.083
  917SOL    HW2 3651   0.332   6.426   2.103
  918SOL     OW 3652   3.463   0.720   1.111
  918SOL    HW1 3653   3.452   0.749   1.207
  918SOL    HW2 3654   3.471   0.801   1.053
  919SOL     OW 3655   6.801   6.843   3.027
  919SOL    HW1 3656   6.801   6.921   3.090
  919SOL    HW2 3657   6.887   6.792   3.037
  920SOL     OW 3658   2.549   4.634   2.567
  920SOL    HW1 3659   2.492   4.713   2.589
  920SOL    HW2 3660   2.618   4.661   2.500
  921SOL     OW 3661   3.660   5.243   3.388
  921SOL    HW1 3662   3.660   5.343   3.381
  921SOL    HW2 3663   3.715   5.204   3.313
  922SOL     OW 3664   2.975   3.727   4.571
  922SOL    HW1 3665   2.971   3.662   4.648
  922SOL    HW2 3666   2.972   3.821   4.607
  923SOL     OW 3667   2.755   4.091   5.983
  923SOL    HW1 3668   2.677   4.050   5.936
  923SOL    HW2 3669   2.837   4.078   5.928
  924SOL     OW 3670   6.396   3.411   2.614
  924SOL    HW1 3671   6.320   3.449   2.667
  924SOL    HW2 3672   6.375   3.316   2.591
  925SOL     OW 3673   0.023   2.425   6.982
  925SOL    HW1 3674   0.001   2.327   6.982
  925SOL    HW2 3675   0.012   2.461   0.052
  926SOL     OW 3676   6.253   1.018   0.955
  926SOL    HW1 3677   6.274   0.994   1.049
  926SOL    HW2 3678   6.173   0.966   0.924
  927SOL     OW 3679   5.542   4.286   3.198
  927SOL    HW1 3680   5.489   4.225   3.140
  927SOL    HW2 3681   5.592   4.232   3.266
  928SOL     OW 3682   1.333   6.093   0.134
  928SOL    HW1 3683   1.273   6.031   0.185
  928SOL    HW2 3684   1.423   6.097   0.178
  929SOL     OW 3685   1.325   0.112   6.733
  929SOL    HW1 3686   1.274   0.117   6.648
  929SOL    HW2 3687   1.266   0.075   6.805
  930SOL     OW 3688   5.189   5.905   4.888
  930SOL    HW1 3689   5.198   5.910   4.789
  930SOL    HW2 3690   5.171   5.996   4.925
  931SOL     OW 3691   6.049   1.752   4.964
  931SOL    HW1 3692   6.126   1.752   5.028
  931SOL    HW2 3693   6.045   1.664   4.917
  932SOL     OW 3694   3.069   0.267   3.668
  932SOL    HW1 3695   3.151   0.234   3.622
  932SOL    HW2 3696   3.003   0.193   3.677
  933SOL     OW 3697   2.049   5.963   3.560
  933SOL    HW1 3698   1.970   6.024   3.558
  933SOL    HW2 3699   2.113   5.989   3.488
  934SOL     OW 3700   2.002   6.665   6.822
  934SOL    HW1 3701   1.951   6.698   6.742
  934SOL    HW2 3702   2.032   6.743   6.877
  935SOL     OW 3703   5.257   4.500   4.126
  935SOL    HW1 3704   5.287   4.483   4.220
  935SOL    HW2 3705   5.178   4.562   4.127
  936SOL     OW 3706   0.274   0.529   6.418
  936SOL    HW1 3707   0.344   0.601   6.415
  936SOL    HW2 3708   0.262   0.498   6.513
  937SOL     OW 3709   5.094   1.487   5.631
  937SOL    HW1 3710   5.149   1.505   5.713
  937SOL    HW2 3711   5.030   1.563   5.618
  938SOL     OW 3712   5.851   5.194   5.811
  938SOL    HW1 3713   5.867   5.158   5.902
  938SOL    HW2 3714   5.855   5.294   5.814
  939SOL     OW 3715   0.117   6.981   4.613
  939SOL    HW1 3716   0.068   6.905   4.571
  939SOL    HW2 3717   0.055   0.035   4.628
  940SOL     OW 3718   1.252   3.697   1.867
  940SOL    HW1 3719   1.336   3.719   1.817
  940SOL    HW2 3720   1.207   3.619   1.825
  941SOL     OW 3721   5.720   1.290   6.492
  941SOL    HW1 3722   5.767   1.210   6.531
  941SOL    HW2 3723   5.777   1.331   6.422
  942SOL     OW 3724   5.819   0.044   2.940
  942SOL    HW1 3725   5.755   0.057   3.016
  942SOL    HW2 3726   5.769   0.040   2.854
  943SOL     OW 3727   1.656   3.364   3.277
  943SOL    HW1 3728   1.747   3.347   3.239
  943SOL    HW2 3729   1.660   3.441   3.341
  944SOL     OW 3730   6.891   5.138   6.056
  944SOL    HW1 3731   6.882   5.211   5.989
  944SOL    HW2 3732   6.956   5.165   6.127
  945SOL     OW 3733   6.715   3.501   5.858
  945SOL    HW1 3734   6.763   3.422   5.820
  945SOL    HW2 3735   6.768   3.539   5.934
  946SOL     OW 3736   5.126   3.849   5.652
  946SOL    HW1 3737   5.217   3.889   5.649
  946SOL    HW2 3738   5.102   3.814   5.561
  947SOL     OW 3739   3.932   3.019   3.328
  947SOL    HW1 3740   3.971   3.085   3.391
  947SOL    HW2 3741   3.961   3.040   3.235
  948SOL     OW 3742   4.964   0.672   3.038
  948SOL    HW1 3743   4.943   0.715   3.126
  948SOL    HW2 3744   4.893   0.605   3.016
  949SOL     OW 3745   1.586   6.146   0.292
  949SOL    HW1 3746   1.540   6.165   0.379
  949SOL    HW2 3747   1.620   6.052   0.292
  950SOL     OW 3748   5.086   5.594   2.149
  950SOL    HW1 3749   5.071   5.527   2.076
  950SOL    HW2 3750   5.060   5.685   2.116
  951SOL     OW 3751   1.583   0.343   4.230
  951SOL    HW1 3752   1.606   0.438   4.248
  951SOL    HW2 3753   1.504   0.339   4.168
  952SOL     OW 3754   4.538   2.100   3.265
  952SOL    HW1 3755   4.591   2.097   3.180
  952SOL    HW2 3756   4.521   2.195   3.290
  953SOL     OW 3757   5.397   5.111   4.359
  953SOL    HW1 3758   5.299   5.107   4.379
  953SOL    HW2 3759   5.415   5.062   4.274
  954SOL     OW 3760   4.176   5.633   1.425
  954SOL    HW1 3761   4.131   5.617   1.513
  954SOL    HW2 3762   4.112   5.610   1.351
  955SOL     OW 3763   0.367   3.822   2.066
  955SOL    HW1 3764   0.351   3.911   2.025
  955SOL    HW2 3765   0.413   3.762   2.001
  956SOL     OW 3766   6.089   0.108   2.048
  956SOL    HW1 3767   6.157   0.054   1.999
  956SOL    HW2 3768   6.069   0.191   1.996
  957SOL     OW 3769   5.859   3.175   3.624
  957SOL    HW1 3770   5.811   3.178   3.712
  957SOL    HW2 3771   5.798   3.207   3.552
  958SOL     OW 3772   4.050   1.406   1.561
  958SOL    HW1 3773   4.013   1.484   1.610
  958SOL    HW2 3774   4.075   1.334   1.625
  959SOL     OW 3775   3.767   6.296   4.059
  959SOL    HW1 3776   3.845   6.344   4.100
  959SOL    HW2 3777   3.791   6.200   4.047
  960SOL     OW 3778   0.538   0.577   2.332
  960SOL    HW1 3779   0.607   0.636   2.289
  960SOL    HW2 3780   0.584   0.499   2.374
  961SOL     OW 3781   4.137   6.473   3.619
  961SOL    HW1 3782   4.140   6.381   3.582
  961SOL    HW2 3783   4.221   6.522   3.596
  962SOL     OW 3784   0.716   1.539   5.654
  962SOL    HW1 3785   0.666   1.519   5.570
  962SOL    HW2 3786   0.701   1.634   5.680
  963SOL     OW 3787   5.212   1.239   6.287
  963SOL    HW1 3788   5.305   1.260   6.317
  963SOL    HW2 3789   5.172   1.320   6.243
  964SOL     OW 3790   5.724   5.139   0.095
  964SOL    HW1 3791   5.823   5.142   0.080
  964SOL    HW2 3792   5.705   5.105   0.187
  965SOL     OW 3793   5.380   2.187   1.838
  965SOL    HW1 3794   5.401   2.178   1.741
  965SOL    HW2 3795   5.419   2.272   1.873
  966SOL     OW 3796   5.541   3.381   1.927
  966SOL    HW1 3797   5.571   3.458   1.983
  966SOL    HW2 3798   5.454   3.404   1.884
  967SOL     OW 3799   2.599   4.102   1.210
  967SOL    HW1 3800   2.607   4.029   1.141
  967SOL    HW2 3801   2.510   4.146   1.202
  968SOL     OW 3802   3.522   0.724   2.280
  968SOL    HW1 3803   3.477   0.667   2.348
  968SOL    HW2 3804   3.460   0.797   2.250
  969SOL     OW 3805   2.281   5.003   5.593
  969SOL    HW1 3806   2.356   5.069   5.606
  969SOL    HW2 3807   2.240   5.017   5.503
  970SOL     OW 3808   5.778   0.817   6.475
  970SOL    HW1 3809   5.760   0.729   6.520
  970SOL    HW2 3810   5.704   0.837   6.410
  971SOL     OW 3811   0.269   2.675   1.979
  971SOL    HW1 3812   0.273   2.601   1.912
  971SOL    HW2 3813   0.341   2.741   1.961
  972SOL     OW 3814   5.769   2.191   1.257
  972SOL    HW1 3815   5.678   2.150   1.250
  972SOL    HW2 3816   5.829   2.130   1.307
  973SOL     OW 3817   0.681   5.075   6.314
  973SOL    HW1 3818   0.742   5.029   6.249
  973SOL    HW2 3819   0.594   5.095   6.269
  974SOL     OW 3820   5.556   6.590   2.516
  974SOL    HW1 3821   5.539   6.502   2.559
  974SOL    HW2 3822   5.469   6.634   2.495
  975SOL     OW 3823   1.809   0.628   0.055
  975SOL    HW1 3824   1.905   0.641   0.079
  975SOL    HW2 3825   1.797   0.645   6.980
  976SOL     OW 3826   6.874   3.641   2.225
  976SOL    HW1 3827   6.963   3.687   2.232
  976SOL    HW2 3828   6.801   3.707   2.240
  977SOL     OW 3829   0.928   6.925   1.738
  977SOL    HW1 3830   1.003   6.879   1.786
  977SOL    HW2 3831   0.842   6.908   1.785
  978SOL     OW 3832   5.505   2.746   5.790
  978SOL    HW1 3833   5.476   2.653   5.769
  978SOL    HW2 3834   5.489   2.805   5.710
  979SOL     OW 3835   0.227   2.621   0.049
  979SOL    HW1 3836   0.250   2.554   7.001
  979SOL    HW2 3837   0.298   2.692   0.051
  980SOL     OW 3838   5.118   1.924   3.832
  980SOL    HW1 3839   5.198   1.981   3.812
  980SOL    HW2 3840   5.140   1.828   3.815
  981SOL     OW 3841   0.331   1.819   4.768
  981SOL    HW1 3842   0.278   1.810   4.683
  981SOL    HW2 3843   0.428   1.816   4.747
  982SOL     OW 3844   1.157   1.720   5.197
  982SOL    HW1 3845   1.100   1.662   5.140
  982SOL    HW2 3846   1.139   1.700   5.293
  983SOL     OW 3847   6.080   2.867   3.204
  983SOL    HW1 3848   6.125   2.955   3.186
  983SOL    HW2 3849   6.025   2.874   3.286
  984SOL     OW 3850   2.800   2.373   4.467
  984SOL    HW1 3851   2.732   2.406   4.533
  984SOL    HW2 3852   2.775   2.405   4.376
  985SOL     OW 3853   6.463   2.905   5.232
  985SOL    HW1 3854   6.489   2.995   5.267
  985SOL    HW2 3855   6.409   2.856   5.301
  986SOL     OW 3856   4.838   4.651   1.194
  986SOL    HW1 3857   4.936   4.671   1.190
  986SOL    HW2 3858   4.789   4.731   1.228
  987SOL     OW 3859   4.885   6.659   2.627
  987SOL    HW1 3860   4.849   6.725   2.561
  987SOL    HW2 3861   4.818   6.586   2.640
  988SOL     OW 3862   3.564   3.640   2.185
  988SOL    HW1 3863   3.545   3.541   2.187
  988SOL    HW2 3864   3.483   3.690   2.218
  989SOL     OW 3865   6.648   2.030   6.596
  989SOL    HW1 3866   6.591   2.093   6.543
  989SOL    HW2 3867   6.718   1.990   6.536
  990SOL     OW 3868   4.003   1.341   2.231
  990SOL    HW1 3869   4.073   1.289   2.180
  990SOL    HW2 3870   4.000   1.435   2.197
  991SOL     OW 3871   0.943   3.627   4.428
  991SOL    HW1 3872   0.988   3.606   4.515
  991SOL    HW2 3873   1.002   3.688   4.375
  992SOL     OW 3874   0.349   3.412   1.100
  992SOL    HW1 3875   0.346   3.332   1.160
  992SOL    HW2 3876   0.320   3.492   1.152
  993SOL     OW 3877   6.990   4.631   0.455
  993SOL    HW1 3878   0.060   4.638   0.493
  993SOL    HW2 3879   6.975   4.708   0.393
  994SOL     OW 3880   3.560   5.203   1.733
  994SOL    HW1 3881   3.655   5.182   1.711
  994SOL    HW2 3882   3.534   5.290   1.690
  995SOL     OW 3883   4.160   2.747   5.639
  995SOL    HW1 3884   4.176   2.836   5.598
  995SOL    HW2 3885   4.159   2.756   5.739
  996SOL     OW 3886   3.181   5.482   4.585
  996SOL    HW1 3887   3.156   5.389   4.557
  996SOL    HW2 3888   3.103   5.524   4.632
  997SOL     OW 3889   1.152   0.201   3.471
  997SOL    HW1 3890   1.193   0.121   3.515
  997SOL    HW2 3891   1.073   0.173   3.417
  998SOL     OW 3892   5.676   0.808   5.135
  998SOL    HW1 3893   5.707   0.731   5.192
  998SOL    HW2 3894   5.577   0.817   5.142
  999SOL     OW 3895   5.380   4.294   2.516
  999SOL    HW1 3896   5.431   4.220   2.472
  999SOL    HW2 3897   5.438   4.376   2.520
 1000SOL     OW 3898   3.519   1.453   1.709
 1000SOL    HW1 3899   3.471   1.534   1.676
 1000SOL    HW2 3900   3.457   1.397   1.765
 1001SOL     OW 3901   4.875   6.008   1.391
 1001SOL    HW1 3902   4.935   6.004   1.311
 1001SOL    HW2 3903   4.897   6.089   1.445
 1002SOL     OW 3904   5.609   1.908   1.351
 1002SOL    HW1 3905   5.580   1.877   1.441
 1002SOL    HW2 3906   5.696   1.865   1.328
 1003SOL     OW 3907   2.178   6.601   2.584
 1003SOL    HW1 3908   2.201   6.681   2.529
 1003SOL    HW2 3909   2.084   6.608   2.616
 1004SOL     OW 3910   0.531   0.949   1.972
 1004SOL    HW1 3911   0.492   0.924   1.883
 1004SOL    HW2 3912   0.630   0.935   1.970
 1005SOL     OW 3913   2.363   2.154   4.030
 1005SOL    HW1 3914   2.366   2.170   3.932
 1005SOL    HW2 3915   2.303   2.222   4.073
 1006SOL     OW 3916   1.282   4.561   0.234
 1006SOL    HW1 3917   1.372   4.602   0.226
 1006SOL    HW2 3918   1.287   4.463   0.216
 1007SOL     OW 3919   4.743   0.675   5.284
 1007SOL    HW1 3920   4.681   0.618   5.339
 1007SOL    HW2 3921   4.836   0.668   5.320
 1008SOL     OW 3922   0.594   2.880   6.144
 1008SOL    HW1 3923   0.680   2.836   6.171
 1008SOL    HW2 3924   0.602   2.916   6.051
 1009SOL     OW 3925   0.586   4.949   4.848
 1009SOL    HW1 3926   0.648   4.917   4.920
 1009SOL    HW2 3927   0.601   5.047   4.833
 1010SOL     OW 3928   2.924   1.750   0.001
 1010SOL    HW1 3929   2.951   1.814   6.951
 1010SOL    HW2 3930   2.979   1.767   0.083
 1011SOL     OW 3931   1.416   5.664   3.240
 1011SOL    HW1 3932   1.483   5.596   3.210
 1011SOL    HW2 3933   1.450   5.711   3.322
 1012SOL     OW 3934   0.493   6.725   2.556
 1012SOL    HW1 3935   0.504   6.823   2.538
 1012SOL    HW2 3936   0.430   6.686   2.489
 1013SOL     OW 3937   1.103   1.710   6.701
 1013SOL    HW1 3938   1.090   1.804   6.734
 1013SOL    HW2 3939   1.037   1.650   6.748
 1014SOL     OW 3940   6.870   4.546   5.541
 1014SOL    HW1 3941   6.954   4.587   5.505
 1014SOL    HW2 3942   6.820   4.614   5.595
 1015SOL     OW 3943   2.945   6.699   6.142
 1015SOL    HW1 3944   3.018   6.680   6.207
 1015SOL    HW2 3945   2.957   6.790   6.104
 1016SOL     OW 3946   4.494   3.536   0.225
 1016SOL    HW1 3947   4.487   3.631   0.255
 1016SOL    HW2 3948   4.570   3.527   0.160
 1017SOL     OW 3949   4.635   2.771   1.346
 1017SOL    HW1 3950   4.553   2.733   1.388
 1017SOL    HW2 3951   4.683   2.700   1.295
 1018SOL     OW 3952   0.875   4.333   4.198
 1018SOL    HW1 3953   0.919   4.385   4.126
 1018SOL    HW2 3954   0.816   4.393   4.252
 1019SOL     OW 3955   6.775   7.016   1.174
 1019SOL    HW1 3956   6.837   6.969   1.237
 1019SOL    HW2 3957   6.692   0.020   1.223
 1020SOL     OW 3958   6.565   1.135   1.100
 1020SOL    HW1 3959   6.496   1.064   1.114
 1020SOL    HW2 3960   6.607   1.125   1.010
 1021SOL     OW 3961   5.567   6.551   1.317
 1021SOL    HW1 3962   5.487   6.607   1.338
 1021SOL    HW2 3963   5.595   6.566   1.223
 1022SOL     OW 3964   2.750   4.703   5.314
 1022SOL    HW1 3965   2.659   4.666   5.300
 1022SOL    HW2 3966   2.818   4.645   5.268
 1023SOL     OW 3967   0.276   1.217   2.523
 1023SOL    HW1 3968   0.212   1.294   2.527
 1023SOL    HW2 3969   0.366   1.250   2.497
 1024SOL     OW 3970   0.324   2.604   4.341
 1024SOL    HW1 3971   0.239   2.606   4.394
 1024SOL    HW2 3972   0.325   2.681   4.276
 1025SOL     OW 3973   3.628   3.455   1.570
 1025SOL    HW1 3974   3.661   3.427   1.660
 1025SOL    HW2 3975   3.698   3.435   1.501
 1026SOL     OW 3976   2.634   2.655   1.760
 1026SOL    HW1 3977   2.628   2.555   1.771
 1026SOL    HW2 3978   2.720   2.678   1.714
 1027SOL     OW 3979   3.624   6.656   1.834
 1027SOL    HW1 3980   3.635   6.571   1.782
 1027SOL    HW2 3981   3.675   6.729   1.789
 1028SOL     OW 3982   1.504   7.006   2.598
 1028SOL    HW1 3983   1.496   7.018   2.499
 1028SOL    HW2 3984   1.596   6.973   2.621
 1029SOL     OW 3985   1.377   0.983   6.170
 1029SOL    HW1 3986   1.313   1.033   6.228
 1029SOL    HW2 3987   1.470   1.017   6.187
 1030SOL     OW 3988   3.309   3.242   2.066
 1030SOL    HW1 3989   3.240   3.314   2.074
 1030SOL    HW2 3990   3.269   3.155   2.093
 1031SOL     OW 3991   4.697   3.979   1.259
 1031SOL    HW1 3992   4.685   3.910   1.331
 1031SOL    HW2 3993   4.772   3.953   1.200
 1032SOL     OW 3994   1.265   1.825   5.877
 1032SOL    HW1 3995   1.355   1.839   5.834
 1032SOL    HW2 3996   1.213   1.759   5.823
 1033SOL     OW 3997   1.059   5.339   1.222
 1033SOL    HW1 3998   1.113   5.417   1.254
 1033SOL    HW2 3999   1.083   5.257   1.274
 1034SOL     OW 4000   1.058   5.164   4.480
 1034SOL    HW1 4001   1.038   5.255   4.517
 1034SOL    HW2 4002   1.157   5.148   4.482
 1035SOL     OW 4003   0.159   0.792   5.269
 1035SOL    HW1 4004   0.213   0.737   5.333
 1035SOL    HW2 4005   0.113   0.865   5.319
 1036SOL     OW 4006   3.691   0.605   2.091
 1036SOL    HW1 4007   3.638   0.666   2.150
 1036SOL    HW2 4008   3.637   0.524   2.068
 1037SOL     OW 4009   1.307   1.173   2.943
 1037SOL    HW1 4010   1.333   1.261   2.982
 1037SOL    HW2 4011   1.210   1.156   2.960
 1038SOL     OW 4012   2.015   1.023   5.571
 1038SOL    HW1 4013   2.112   1.047   5.572
 1038SOL    HW2 4014   1.996   0.962   5.648
 1039SOL     OW 4015   3.581   3.725   4.691
 1039SOL    HW1 4016   3.532   3.652   4.738
 1039SOL    HW2 4017   3.601   3.798   4.756
 1040SOL     OW 4018   4.906   1.349   2.272
 1040SOL    HW1 4019   4.926   1.362   2.369
 1040SOL    HW2 4020   4.976   1.290   2.231
 1041SOL     OW 4021   0.240   6.665   3.335
 1041SOL    HW1 4022   0.283   6.723   3.404
 1041SOL    HW2 4023   0.203   6.583   3.380
 1042SOL     OW 4024   3.975   5.510   2.473
 1042SOL    HW1 4025   4.007   5.415   2.466
 1042SOL    HW2 4026   4.023   5.567   2.406
 1043SOL     OW 4027   3.540   2.043   3.487
 1043SOL    HW1 4028   3.619   2.086   3.444
 1043SOL    HW2 4029   3.460   2.053   3.427
 1044SOL     OW 4030   5.684   4.972   2.147
 1044SOL    HW1 4031   5.688   5.026   2.062
 1044SOL    HW2 4032   5.774   4.931   2.164
 1045SOL     OW 4033   3.771   0.506   2.461
 1045SOL    HW1 4034   3.735   0.483   2.370
 1045SOL    HW2 4035   3.789   0.604   2.466
 1046SOL     OW 4036   1.620   1.221   0.273
 1046SOL    HW1 4037   1.615   1.313   0.234
 1046SOL    HW2 4038   1.554   1.213   0.348
 1047SOL     OW 4039   2.295   0.107   3.962
 1047SOL    HW1 4040   2.327   0.197   3.933
 1047SOL    HW2 4041   2.236   0.117   4.042
 1048SOL     OW 4042   4.182   6.478   3.301
 1048SOL    HW1 4043   4.177   6.408   3.373
 1048SOL    HW2 4044   4.114   6.458   3.230
 1049SOL     OW 4045   6.657   6.506   3.637
 1049SOL    HW1 4046   6.568   6.461   3.632
 1049SOL    HW2 4047   6.645   6.604   3.618
 1050SOL     OW 4048   3.255   5.267   1.833
 1050SOL    HW1 4049   3.328   5.220   1.882
 1050SOL    HW2 4050   3.207   5.329   1.895
 1051SOL     OW 4051   0.448   5.180   0.921
 1051SOL    HW1 4052   0.457   5.169   0.822
 1051SOL    HW2 4053   0.436   5.277   0.942
 1052SOL     OW 4054   4.441   0.560   5.396
 1052SOL    HW1 4055   4.459   0.533   5.491
 1052SOL    HW2 4056   4.439   0.660   5.390
 1053SOL     OW 4057   5.899   4.366   3.319
 1053SOL    HW1 4058   5.824   4.305   3.294
 1053SOL    HW2 4059   5.946   4.330   3.400
 1054SOL     OW 4060   2.886   3.469   0.801
 1054SOL    HW1 4061   2.887   3.461   0.901
 1054SOL    HW2 4062   2.957   3.411   0.762
 1055SOL     OW 4063   4.269   6.630   5.152
 1055SOL    HW1 4064   4.241   6.641   5.057
 1055SOL    HW2 4065   4.260   6.534   5.179
 1056SOL     OW 4066   2.122   3.920   0.348
 1056SOL    HW1 4067   2.142   3.992   0.415
 1056SOL    HW2 4068   2.027   3.927   0.319
 1057SOL     OW 4069   3.500   3.216   1.691
 1057SOL    HW1 4070   3.420   3.225   1.632
 1057SOL    HW2 4071   3.510   3.299   1.746
 1058SOL     OW 4072   5.462   2.556   3.474
 1058SOL    HW1 4073   5.477   2.462   3.503
 1058SOL    HW2 4074   5.415   2.556   3.386
 1059SOL     OW 4075   2.665   0.690   1.717
 1059SOL    HW1 4076   2.727   0.769   1.710
 1059SOL    HW2 4077   2.636   0.680   1.812
 1060SOL     OW 4078   0.198   4.958   3.926
 1060SOL    HW1 4079   0.207   4.986   4.022
 1060SOL    HW2 4080   0.253   4.875   3.911
 1061SOL     OW 4081   6.149   3.347   6.927
 1061SOL    HW1 4082   6.218   3.310   6.865
 1061SOL    HW2 4083   6.089   3.273   6.958
 1062SOL     OW 4084   5.489   5.757   5.558
 1062SOL    HW1 4085   5.395   5.760   5.593
 1062SOL    HW2 4086   5.553   5.750   5.634
 1063SOL     OW 4087   1.056   5.708   0.982
 1063SOL    HW1 4088   1.135   5.700   1.043
 1063SOL    HW2 4089   1.003   5.789   1.007
 1064SOL     OW 4090   1.835   4.704   3.122
 1064SOL    HW1 4091   1.742   4.738   3.137
 1064SOL    HW2 4092   1.834   4.604   3.121
 1065SOL     OW 4093   4.816   0.598   3.636
 1065SOL    HW1 4094   4.850   0.692   3.645
 1065SOL    HW2 4095   4.831   0.549   3.722
 1066SOL     OW 4096   4.963   6.762   2.885
 1066SOL    HW1 4097   4.928   6.856   2.888
 1066SOL    HW2 4098   4.928   6.716   2.804
 1067SOL     OW 4099   0.637   2.893   0.599
 1067SOL    HW1 4100   0.707   2.825   0.577
 1067SOL    HW2 4101   0.681   2.977   0.628
 1068SOL     OW 4102   6.349   5.157   2.315
 1068SOL    HW1 4103   6.358   5.058   2.317
 1068SOL    HW2 4104   6.284   5.184   2.244
 1069SOL     OW 4105   4.524   5.646   0.672
 1069SOL    HW1 4106   4.547   5.599   0.757
 1069SOL    HW2 4107   4.435   5.614   0.639
 1070SOL     OW 4108   0.713   0.120   1.681
 1070SOL    HW1 4109   0.801   0.085   1.712
 1070SOL    HW2 4110   0.680   0.191   1.744
 1071SOL     OW 4111   1.283   1.252   4.058
 1071SOL    HW1 4112   1.202   1.194   4.069
 1071SOL    HW2 4113   1.350   1.230   4.129
 1072SOL     OW 4114   1.706   0.815   1.138
 1072SOL    HW1 4115   1.684   0.720   1.162
 1072SOL    HW2 4116   1.791   0.841   1.183
 1073SOL     OW 4117   4.863   0.247   3.576
 1073SOL    HW1 4118   4.797   0.309   3.620
 1073SOL    HW2 4119   4.952   0.292   3.571
 1074SOL     OW 4120   2.445   5.573   1.620
 1074SOL    HW1 4121   2.522   5.620   1.579
 1074SOL    HW2 4122   2.414   5.624   1.701
 1075SOL     OW 4123   5.585   6.765   3.523
 1075SOL    HW1 4124   5.683   6.752   3.508
 1075SOL    HW2 4125   5.533   6.693   3.477
 1076SOL     OW 4126   0.541   2.870   5.591
 1076SOL    HW1 4127   0.492   2.894   5.507
 1076SOL    HW2 4128   0.633   2.839   5.567
 1077SOL     OW 4129   6.018   0.397   0.611
 1077SOL    HW1 4130   5.973   0.333   0.673
 1077SOL    HW2 4131   6.050   0.348   0.530
 1078SOL     OW 4132   0.363   0.676   2.497
 1078SOL    HW1 4133   0.341   0.770   2.470
 1078SOL    HW2 4134   0.434   0.640   2.436
 1079SOL     OW 4135   1.301   6.190   1.998
 1079SOL    HW1 4136   1.379   6.147   2.043
 1079SOL    HW2 4137   1.311   6.290   2.003
 1080SOL     OW 4138   2.294   5.550   3.246
 1080SOL    HW1 4139   2.267   5.629   3.191
 1080SOL    HW2 4140   2.360   5.579   3.315
 1081SOL     OW 4141   6.560   5.148   5.330
 1081SOL    HW1 4142   6.629   5.208   5.370
 1081SOL    HW2 4143   6.589   5.053   5.340
 1082SOL     OW 4144   5.394   2.386   5.292
 1082SOL    HW1 4145   5.424   2.475   5.324
 1082SOL    HW2 4146   5.473   2.335   5.257
 1083SOL     OW 4147   4.518   4.211   0.527
 1083SOL    HW1 4148   4.573   4.211   0.444
 1083SOL    HW2 4149   4.461   4.294   0.530
 1084SOL     OW 4150   6.173   5.813   6.363
 1084SOL    HW1 4151   6.174   5.913   6.372
 1084SOL    HW2 4152   6.254   5.775   6.406
 1085SOL     OW 4153   1.786   3.666   4.574
 1085SOL    HW1 4154   1.819   3.628   4.660
 1085SOL    HW2 4155   1.693   3.635   4.556
 1086SOL     OW 4156   0.266   4.793   0.270
 1086SOL    HW1 4157   0.267   4.742   0.356
 1086SOL    HW2 4158   0.358   4.794   0.231
 1087SOL     OW 4159   0.009   2.401   5.303
 1087SOL    HW1 4160   6.941   2.433   5.277
 1087SOL    HW2 4161   0.035   2.442   5.391
 1088SOL     OW 4162   0.243   3.560   2.503
 1088SOL    HW1 4163   0.192   3.645   2.519
 1088SOL    HW2 4164   0.319   3.555   2.567
 1089SOL     OW 4165   0.377   5.909   4.684
 1089SOL    HW1 4166   0.350   5.846   4.612
 1089SOL    HW2 4167   0.404   5.858   4.766
 1090SOL     OW 4168   2.929   1.890   3.354
 1090SOL    HW1 4169   2.843   1.879   3.404
 1090SOL    HW2 4170   2.972   1.977   3.381
 1091SOL     OW 4171   3.019   1.961   4.643
 1091SOL    HW1 4172   2.922   1.938   4.655
 1091SOL    HW2 4173   3.028   2.060   4.629
 1092SOL     OW 4174   0.804   4.229   0.707
 1092SOL    HW1 4175   0.713   4.269   0.719
 1092SOL    HW2 4176   0.874   4.300   0.717
 1093SOL     OW 4177   2.292   0.450   1.549
 1093SOL    HW1 4178   2.223   0.491   1.608
 1093SOL    HW2 4179   2.353   0.521   1.514
 1094SOL     OW 4180   0.995   6.797   2.721
 1094SOL    HW1 4181   1.052   6.853   2.781
 1094SOL    HW2 4182   1.051   6.726   2.678
 1095SOL     OW 4183   1.013   2.888   6.128
 1095SOL    HW1 4184   1.074   2.879   6.207
 1095SOL    HW2 4185   0.938   2.823   6.138
 1096SOL     OW 4186   3.360   4.065   1.665
 1096SOL    HW1 4187   3.302   3.988   1.637
 1096SOL    HW2 4188   3.383   4.055   1.762
 1097SOL     OW 4189   2.730   4.779   3.354
 1097SOL    HW1 4190   2.690   4.870   3.355
 1097SOL    HW2 4191   2.659   4.711   3.337
 1098SOL     OW 4192   4.427   3.694   6.739
 1098SOL    HW1 4193   4.331   3.690   6.768
 1098SOL    HW2 4194   4.481   3.630   6.794
 1099SOL     OW 4195   3.418   0.939   5.932
 1099SOL    HW1 4196   3.400   0.955   5.835
 1099SOL    HW2 4197   3.409   1.025   5.982
 1100SOL     OW 4198   4.167   1.301   4.671
 1100SOL    HW1 4199   4.142   1.211   4.707
 1100SOL    HW2 4200   4.237   1.291   4.600
 1101SOL     OW 4201   5.108   2.933   5.833
 1101SOL    HW1 4202   5.176   2.997   5.798
 1101SOL    HW2 4203   5.017   2.964   5.808
 1102SOL     OW 4204   1.021   0.321   4.636
 1102SOL    HW1 4205   1.048   0.227   4.656
 1102SOL    HW2 4206   0.922   0.330   4.645
 1103SOL     OW 4207   4.127   1.284   0.136
 1103SOL    HW1 4208   4.161   1.287   0.230
 1103SOL    HW2 4209   4.032   1.255   0.136
 1104SOL     OW 4210   2.040   3.376   5.618
 1104SOL    HW1 4211   2.105   3.385   5.693
 1104SOL    HW2 4212   1.976   3.454   5.620
 1105SOL     OW 4213   5.760   3.389   4.854
 1105SOL    HW1 4214   5.851   3.420   4.827
 1105SOL    HW2 4215   5.767   3.328   4.933
 1106SOL     OW 4216   0.070   2.403   0.835
 1106SOL    HW1 4217   0.141   2.442   0.777
 1106SOL    HW2 4218   0.109   2.382   0.925
 1107SOL     OW 4219   0.948   0.593   6.740
 1107SOL    HW1 4220   0.878   0.606   6.810
 1107SOL    HW2 4221   1.023   0.658   6.756
 1108SOL     OW 4222   3.392   6.951   5.375
 1108SOL    HW1 4223   3.489   6.970   5.388
 1108SOL    HW2 4224   3.370   6.862   5.414
 1109SOL     OW 4225   5.327   0.512   3.620
 1109SOL    HW1 4226   5.398   0.466   3.673
 1109SOL    HW2 4227   5.265   0.560   3.681
 1110SOL     OW 4228   4.130   1.955   3.008
 1110SOL    HW1 4229   4.210   1.903   2.978
 1110SOL    HW2 4230   4.098   1.920   3.096
 1111SOL     OW 4231   4.525   5.599   0.046
 1111SOL    HW1 4232   4.494   5.627   0.137
 1111SOL    HW2 4233   4.625   5.595   0.044
 1112SOL     OW 4234   5.653   0.818   2.278
 1112SOL    HW1 4235   5.686   0.884   2.211
 1112SOL    HW2 4236   5.714   0.739   2.280
 1113SOL     OW 4237   5.883   4.181   1.588
 1113SOL    HW1 4238   5.844   4.245   1.654
 1113SOL    HW2 4239   5.870   4.217   1.496
 1114SOL     OW 4240   2.941   1.318   5.725
 1114SOL    HW1 4241   2.982   1.227   5.726
 1114SOL    HW2 4242   2.994   1.380   5.783
 1115SOL     OW 4243   3.820   3.566   6.088
 1115SOL    HW1 4244   3.809   3.477   6.044
 1115SOL    HW2 4245   3.904   3.565   6.142
 1116SOL     OW 4246   4.615   6.340   5.636
 1116SOL    HW1 4247   4.630   6.245   5.608
 1116SOL    HW2 4248   4.553   6.342   5.714
 1117SOL     OW 4249   1.983   2.490   1.879
 1117SOL    HW1 4250   2.065   2.505   1.934
 1117SOL    HW2 4251   2.003   2.510   1.783
 1118SOL     OW 4252   2.841   4.888   0.708
 1118SOL    HW1 4253   2.901   4.908   0.785
 1118SOL    HW2 4254   2.830   4.789   0.699
 1119SOL     OW 4255   4.117   4.485   1.710
 1119SOL    HW1 4256   4.186   4.419   1.680
 1119SOL    HW2 4257   4.069   4.522   1.631
 1120SOL     OW 4258   5.548   6.396   0.698
 1120SOL    HW1 4259   5.627   6.385   0.758
 1120SOL    HW2 4260   5.538   6.493   0.674
 1121SOL     OW 4261   6.492   4.686   4.930
 1121SOL    HW1 4262   6.430   4.735   4.992
 1121SOL    HW2 4263   6.537   4.612   4.980
 1122SOL     OW 4264   5.095   2.705   1.393
 1122SOL    HW1 4265   5.102   2.605   1.404
 1122SOL    HW2 4266   5.064   2.745   1.479
 1123SOL     OW 4267   5.019   2.059   2.841
 1123SOL    HW1 4268   4.998   2.113   2.922
 1123SOL    HW2 4269   4.961   2.089   2.765
 1124SOL     OW 4270   6.812   3.608   5.238
 1124SOL    HW1 4271   6.871   3.661   5.178
 1124SOL    HW2 4272   6.825   3.638   5.332
 1125SOL     OW 4273   2.878   1.866   3.794
 1125SOL    HW1 4274   2.911   1.876   3.887
 1125SOL    HW2 4275   2.848   1.954   3.758
 1126SOL     OW 4276   5.347   5.639   6.885
 1126SOL    HW1 4277   5.288   5.633   6.805
 1126SOL    HW2 4278   5.292   5.631   6.968
 1127SOL     OW 4279   5.231   6.122   4.263
 1127SOL    HW1 4280   5.234   6.026   4.236
 1127SOL    HW2 4281   5.321   6.164   4.252
 1128SOL     OW 4282   6.006   1.497   4.789
 1128SOL    HW1 4283   6.032   1.561   4.716
 1128SOL    HW2 4284   6.050   1.409   4.772
 1129SOL     OW 4285   1.591   0.149   0.678
 1129SOL    HW1 4286   1.674   0.205   0.678
 1129SOL    HW2 4287   1.614   0.055   0.652
 1130SOL     OW 4288   2.349   5.082   0.409
 1130SOL    HW1 4289   2.343   5.157   0.474
 1130SOL    HW2 4290   2.421   5.018   0.437
 1131SOL     OW 4291   1.156   6.075   5.976
 1131SOL    HW1 4292   1.211   6.076   6.059
 1131SOL    HW2 4293   1.075   6.132   5.988
 1132SOL     OW 4294   5.321   0.388   2.542
 1132SOL    HW1 4295   5.281   0.300   2.516
 1132SOL    HW2 4296   5.389   0.373   2.613
 1133SOL     OW 4297   0.902   1.051   0.193
 1133SOL    HW1 4298   0.900   1.041   0.094
 1133SOL    HW2 4299   0.809   1.068   0.227
 1134SOL     OW 4300   5.680   6.753   2.722
 1134SOL    HW1 4301   5.680   6.852   2.705
 1134SOL    HW2 4302   5.658   6.705   2.637
 1135SOL     OW 4303   2.880   6.463   3.896
 1135SOL    HW1 4304   2.919   6.510   3.974
 1135SOL    HW2 4305   2.908   6.508   3.812
 1136SOL     OW 4306   4.358   4.586   3.531
 1136SOL    HW1 4307   4.404   4.502   3.560
 1136SOL    HW2 4308   4.352   4.587   3.431
 1137SOL     OW 4309   1.542   6.385   0.018
 1137SOL    HW1 4310   1.506   6.452   0.083
 1137SOL    HW2 4311   1.578   6.306   0.067
 1138SOL     OW 4312   0.411   0.975   5.719
 1138SOL    HW1 4313   0.481   1.035   5.757
 1138SOL    HW2 4314   0.407   0.987   5.619
 1139SOL     OW 4315   3.260   4.879   2.576
 1139SOL    HW1 4316   3.168   4.860   2.541
 1139SOL    HW2 4317   3.308   4.940   2.513
 1140SOL     OW 4318   2.828   0.989   2.358
 1140SOL    HW1 4319   2.818   0.946   2.269
 1140SOL    HW2 4320   2.772   1.072   2.362
 1141SOL     OW 4321   1.140   6.128   6.756
 1141SOL    HW1 4322   1.239   6.134   6.765
 1141SOL    HW2 4323   1.101   6.083   6.836
 1142SOL     OW 4324   3.338   0.127   3.920
 1142SOL    HW1 4325   3.277   0.056   3.956
 1142SOL    HW2 4326   3.301   0.217   3.943
 1143SOL     OW 4327   2.548   2.485   3.588
 1143SOL    HW1 4328   2.529   2.525   3.678
 1143SOL    HW2 4329   2.496   2.534   3.518
 1144SOL     OW 4330   6.278   4.548   3.661
 1144SOL    HW1 4331   6.234   4.624   3.613
 1144SOL    HW2 4332   6.321   4.582   3.745
 1145SOL     OW 4333   6.335   3.588   1.097
 1145SOL    HW1 4334   6.292   3.499   1.113
 1145SOL    HW2 4335   6.408   3.603   1.163
 1146SOL     OW 4336   6.948   0.874   2.310
 1146SOL    HW1 4337   6.891   0.811   2.257
 1146SOL    HW2 4338   0.014   0.885   2.266
 1147SOL     OW 4339   2.886   5.837   1.939
 1147SOL    HW1 4340   2.911   5.929   1.969
 1147SOL    HW2 4341   2.952   5.805   1.871
 1148SOL     OW 4342   4.391   6.043   0.205
 1148SOL    HW1 4343   4.322   6.103   0.165
 1148SOL    HW2 4344   4.431   5.986   0.133
 1149SOL     OW 4345   6.476   2.891   2.731
 1149SOL    HW1 4346   6.548   2.892   2.661
 1149SOL    HW2 4347   6.401   2.832   2.701
 1150SOL     OW 4348   0.580   4.117   0.129
 1150SOL    HW1 4349   0.589   4.055   0.051
 1150SOL    HW2 4350   0.484   4.121   0.157
 1151SOL     OW 4351   5.573   4.306   5.904
 1151SOL    HW1 4352   5.648   4.251   5.867
 1151SOL    HW2 4353   5.485   4.270   5.871
 1152SOL     OW 4354   4.800   5.019   0.201
 1152SOL    HW1 4355   4.892   5.059   0.206
 1152SOL    HW2 4356   4.796   4.954   0.126
 1153SOL     OW 4357   0.228   0.200   2.095
 1153SOL    HW1 4358   0.293   0.274   2.079
 1153SOL    HW2 4359   0.143   0.220   2.045
 1154SOL     OW 4360   0.072   4.462   1.406
 1154SOL    HW1 4361   0.038   4.536   1.464
 1154SOL    HW2 4362   0.154   4.422   1.447
 1155SOL     OW 4363   2.307   5.105   6.297
 1155SOL    HW1 4364   2.238   5.165   6.256
 1155SOL    HW2 4365   2.345   5.045   6.227
 1156SOL     OW 4366   4.257   2.029   4.882
 1156SOL    HW1 4367   4.301   2.050   4.795
 1156SOL    HW2 4368   4.229   1.933   4.883
 1157SOL     OW 4369   4.998   1.052   6.237
 1157SOL    HW1 4370   4.996   0.958   6.272
 1157SOL    HW2 4371   5.074   1.101   6.280
 1158SOL     OW 4372   6.894   5.175   5.098
 1158SOL    HW1 4373   6.798   5.191   5.121
 1158SOL    HW2 4374   6.899   5.131   5.008
 1159SOL     OW 4375   6.292   0.272   3.703
 1159SOL    HW1 4376   6.205   0.237   3.667
 1159SOL    HW2 4377   6.329   0.206   3.769
 1160SOL     OW 4378   5.347   4.571   0.923
 1160SOL    HW1 4379   5.432   4.577   0.871
 1160SOL    HW2 4380   5.333   4.476   0.953
 1161SOL     OW 4381   6.416   5.343   5.707
 1161SOL    HW1 4382   6.495   5.404   5.702
 1161SOL    HW2 4383   6.419   5.290   5.791
 1162SOL     OW 4384   2.345   2.282   6.911
 1162SOL    HW1 4385   2.418   2.307   6.975
 1162SOL    HW2 4386   2.376   2.205   6.854
 1163SOL     OW 4387   6.745   4.013   1.634
 1163SOL    HW1 4388   6.682   3.943   1.667
 1163SOL    HW2 4389   6.784   4.062   1.712
 1164SOL     OW 4390   5.278   2.683   3.678
 1164SOL    HW1 4391   5.325   2.714   3.760
 1164SOL    HW2 4392   5.310   2.735   3.599
 1165SOL     OW 4393   4.040   5.463   3.680
 1165SOL    HW1 4394   4.043   5.527   3.604
 1165SOL    HW2 4395   4.106   5.390   3.664
 1166SOL     OW 4396   3.420   6.863   0.426
 1166SOL    HW1 4397   3.512   6.898   0.411
 1166SOL    HW2 4398   3.368   6.865   0.341
 1167SOL     OW 4399   4.025   6.525   0.564
 1167SOL    HW1 4400   4.108   6.487   0.605
 1167SOL    HW2 4401   3.957   6.453   0.553
 1168SOL     OW 4402   5.115   2.753   1.870
 1168SOL    HW1 4403   5.058   2.833   1.890
 1168SOL    HW2 4404   5.199   2.759   1.923
 1169SOL     OW 4405   4.488   2.461   5.874
 1169SOL    HW1 4406   4.559   2.523   5.840
 1169SOL    HW2 4407   4.511   2.367   5.849
 1170SOL     OW 4408   5.270   0.042   3.009
 1170SOL    HW1 4409   5.204   0.110   2.977
 1170SOL    HW2 4410   5.269   0.038   3.108
 1171SOL     OW 4411   3.045   6.483   0.186
 1171SOL    HW1 4412   3.042   6.391   0.225
 1171SOL    HW2 4413   3.109   6.484   0.109
 1172SOL     OW 4414   3.394   3.853   1.336
 1172SOL    HW1 4415   3.343   3.838   1.251
 1172SOL    HW2 4416   3.333   3.841   1.414
 1173SOL     OW 4417   3.424   1.339   0.947
 1173SOL    HW1 4418   3.381   1.429   0.950
 1173SOL    HW2 4419   3.440   1.312   0.852
 1174SOL     OW 4420   2.316   4.866   2.096
 1174SOL    HW1 4421   2.228   4.876   2.051
 1174SOL    HW2 4422   2.313   4.790   2.161
 1175SOL     OW 4423   4.286   4.895   6.845
 1175SOL    HW1 4424   4.214   4.962   6.867
 1175SOL    HW2 4425   4.258   4.841   6.766
 1176SOL     OW 4426   5.630   3.759   6.419
 1176SOL    HW1 4427   5.699   3.723   6.483
 1176SOL    HW2 4428   5.673   3.827   6.359
 1177SOL     OW 4429   0.192   3.770   4.571
 1177SOL    HW1 4430   0.157   3.786   4.478
 1177SOL    HW2 4431   0.186   3.673   4.592
 1178SOL     OW 4432   3.808   4.395   1.053
 1178SOL    HW1 4433   3.738   4.327   1.075
 1178SOL    HW2 4434   3.763   4.479   1.020
 1179SOL     OW 4435   2.111   5.756   1.128
 1179SOL    HW1 4436   2.041   5.809   1.081
 1179SOL    HW2 4437   2.114   5.782   1.224
 1180SOL     OW 4438   2.808   5.818   4.304
 1180SOL    HW1 4439   2.798   5.855   4.212
 1180SOL    HW2 4440   2.736   5.856   4.363
 1181SOL     OW 4441   0.285   4.954   5.297
 1181SOL    HW1 4442   0.311   4.911   5.210
 1181SOL    HW2 4443   0.281   4.885   5.369
 1182SOL     OW 4444   4.474   5.271   3.875
 1182SOL    HW1 4445   4.393   5.215   3.857
 1182SOL    HW2 4446   4.549   5.243   3.816
 1183SOL     OW 4447   2.737   4.185   1.437
 1183SOL    HW1 4448   2.707   4.127   1.361
 1183SOL    HW2 4449   2.755   4.128   1.517
 1184SOL     OW 4450   0.198   1.298   5.148
 1184SOL    HW1 4451   0.238   1.207   5.135
 1184SOL    HW2 4452   0.101   1.289   5.170
 1185SOL     OW 4453   1.070   0.927   0.460
 1185SOL    HW1 4454   0.973   0.947   0.446
 1185SOL    HW2 4455   1.125   1.005   0.429
 1186SOL     OW 4456   4.833   5.999   5.288
 1186SOL    HW1 4457   4.758   6.045   5.239
 1186SOL    HW2 4458   4.899   5.964   5.222
 1187SOL     OW 4459   5.159   0.710   5.234
 1187SOL    HW1 4460   5.101   0.664   5.167
 1187SOL    HW2 4461   5.107   0.782   5.279
 1188SOL     OW 4462   3.430   5.809   5.949
 1188SOL    HW1 4463   3.363   5.763   5.891
 1188SOL    HW2 4464   3.484   5.742   5.999
 1189SOL     OW 4465   6.204   2.021   1.608
 1189SOL    HW1 4466   6.236   1.966   1.685
 1189SOL    HW2 4467   6.219   2.118   1.628
 1190SOL     OW 4468   3.587   5.914   3.189
 1190SOL    HW1 4469   3.608   5.819   3.170
 1190SOL    HW2 4470   3.648   5.947   3.262
 1191SOL     OW 4471   4.647   5.120   4.475
 1191SOL    HW1 4472   4.707   5.072   4.538
 1191SOL    HW2 4473   4.568   5.157   4.524
 1192SOL     OW 4474   5.296   4.626   2.994
 1192SOL    HW1 4475   5.351   4.621   2.910
 1192SOL    HW2 4476   5.348   4.672   3.066
 1193SOL     OW 4477   0.360   2.368   5.629
 1193SOL    HW1 4478   0.287   2.300   5.621
 1193SOL    HW2 4479   0.443   2.334   5.585
 1194SOL     OW 4480   6.076   0.708   1.307
 1194SOL    HW1 4481   6.143   0.742   1.374
 1194SOL    HW2 4482   6.050   0.614   1.331
 1195SOL     OW 4483   7.018   4.014   0.684
 1195SOL    HW1 4484   7.010   4.005   0.783
 1195SOL    HW2 4485   0.063   4.086   0.662
 1196SOL     OW 4486   6.437   4.856   3.688
 1196SOL    HW1 4487   6.413   4.811   3.602
 1196SOL    HW2 4488   6.498   4.933   3.669
 1197SOL     OW 4489   4.818   0.074   4.595
 1197SOL    HW1 4490   4.726   0.072   4.632
 1197SOL    HW2 4491   4.879   0.021   4.654
 1198SOL     OW 4492   1.915   3.777   2.720
 1198SOL    HW1 4493   1.954   3.686   2.704
 1198SOL    HW2 4494   1.984   3.847   2.698
 1199SOL     OW 4495   3.830   3.546   2.500
 1199SOL    HW1 4496   3.848   3.456   2.459
 1199SOL    HW2 4497   3.736   3.573   2.482
 1200SOL     OW 4498   3.221   4.034   4.514
 1200SOL    HW1 4499   3.246   3.938   4.498
 1200SOL    HW2 4500   3.138   4.037   4.570
 1201SOL     OW 4501   1.353   1.422   4.405
 1201SOL    HW1 4502   1.342   1.446   4.309
 1201SOL    HW2 4503   1.291   1.347   4.428
 1202SOL     OW 4504   0.251   5.474   5.016
 1202SOL    HW1 4505   0.313   5.449   5.090
 1202SOL    HW2 4506   0.170   5.520   5.055
 1203SOL     OW 4507   0.492   5.497   0.214
 1203SOL    HW1 4508   0.492   5.434   0.291
 1203SOL    HW2 4509   0.534   5.583   0.240
 1204SOL     OW 4510   4.624   1.221   1.608
 1204SOL    HW1 4511   4.550   1.273   1.567
 1204SOL    HW2 4512   4.707   1.277   1.609
 1205SOL     OW 4513   3.700   3.715   0.931
 1205SOL    HW1 4514   3.680   3.618   0.950
 1205SOL    HW2 4515   3.784   3.722   0.878
 1206SOL     OW 4516   2.646   2.584   5.429
 1206SOL    HW1 4517   2.581   2.508   5.436
 1206SOL    HW2 4518   2.608   2.655   5.370
 1207SOL     OW 4519   1.614   6.916   1.152
 1207SOL    HW1 4520   1.683   6.955   1.090
 1207SOL    HW2 4521   1.659   6.885   1.236
 1208SOL     OW 4522   3.493   3.412   1.230
 1208SOL    HW1 4523   3.451   3.476   1.294
 1208SOL    HW2 4524   3.442   3.412   1.144
 1209SOL     OW 4525   5.168   0.144   3.823
 1209SOL    HW1 4526   5.209   0.105   3.905
 1209SOL    HW2 4527   5.223   0.120   3.743
 1210SOL     OW 4528   4.352   6.887   3.457
 1210SOL    HW1 4529   4.321   6.839   3.374
 1210SOL    HW2 4530   4.360   6.821   3.532
 1211SOL     OW 4531   1.183   2.952   2.651
 1211SOL    HW1 4532   1.176   2.853   2.642
 1211SOL    HW2 4533   1.099   2.995   2.618
 1212SOL     OW 4534   6.385   0.428   6.467
 1212SOL    HW1 4535   6.423   0.487   6.538
 1212SOL    HW2 4536   6.443   0.348   6.455
 1213SOL     OW 4537   5.798   2.922   0.835
 1213SOL    HW1 4538   5.782   2.845   0.774
 1213SOL    HW2 4539   5.719   2.935   0.894
 1214SOL     OW 4540   0.564   3.963   6.892
 1214SOL    HW1 4541   0.554   3.983   6.794
 1214SOL    HW2 4542   0.481   3.918   6.926
 1215SOL     OW 4543   0.937   4.543   3.359
 1215SOL    HW1 4544   1.011   4.589   3.408
 1215SOL    HW2 4545   0.892   4.477   3.419
 1216SOL     OW 4546   5.073   0.282   0.691
 1216SOL    HW1 4547   4.981   0.243   0.695
 1216SOL    HW2 4548   5.082   0.350   0.765
 1217SOL     OW 4549   2.607   4.419   0.818
 1217SOL    HW1 4550   2.525   4.425   0.762
 1217SOL    HW2 4551   2.630   4.323   0.834
 1218SOL     OW 4552   0.882   3.310   4.653
 1218SOL    HW1 4553   0.823   3.297   4.573
 1218SOL    HW2 4554   0.920   3.222   4.681
 1219SOL     OW 4555   5.425   6.165   1.847
 1219SOL    HW1 4556   5.426   6.127   1.755
 1219SOL    HW2 4557   5.478   6.107   1.908
 1220SOL     OW 4558   1.210   4.853   3.017
 1220SOL    HW1 4559   1.118   4.825   3.043
 1220SOL    HW2 4560   1.272   4.774   3.020
 1221SOL     OW 4561   4.089   4.675   6.245
 1221SOL    HW1 4562   4.120   4.716   6.159
 1221SOL    HW2 4563   4.075   4.747   6.313
 1222SOL     OW 4564   6.715   1.190   6.973
 1222SOL    HW1 4565   6.786   1.227   0.010
 1222SOL    HW2 4566   6.690   1.257   6.903
 1223SOL     OW 4567   3.991   2.142   0.345
 1223SOL    HW1 4568   3.984   2.225   0.289
 1223SOL    HW2 4569   3.950   2.065   0.295
 1224SOL     OW 4570   3.785   5.629   0.608
 1224SOL    HW1 4571   3.706   5.656   0.662
 1224SOL    HW2 4572   3.838   5.710   0.582
 1225SOL     OW 4573   3.231   3.170   6.678
 1225SOL    HW1 4574   3.184   3.082   6.685
 1225SOL    HW2 4575   3.218   3.208   6.587
 1226SOL     OW 4576   2.091   6.332   1.623
 1226SOL    HW1 4577   2.123   6.255   1.678
 1226SOL    HW2 4578   2.169   6.380   1.584
 1227SOL     OW 4579   5.769   4.503   5.974
 1227SOL    HW1 4580   5.686   4.451   5.956
 1227SOL    HW2 4581   5.811   4.531   5.888
 1228SOL     OW 4582   3.123   1.925   6.032
 1228SOL    HW1 4583   3.098   1.876   6.116
 1228SOL    HW2 4584   3.216   1.901   6.006
 1229SOL     OW 4585   3.941   5.315   6.337
 1229SOL    HW1 4586   3.982   5.237   6.289
 1229SOL    HW2 4587   3.932   5.392   6.275
 1230SOL     OW 4588   4.725   6.754   2.353
 1230SOL    HW1 4589   4.690   6.671   2.309
 1230SOL    HW2 4590   4.649   6.813   2.378
 1231SOL     OW 4591   1.993   2.538   4.743
 1231SOL    HW1 4592   1.948   2.617   4.701
 1231SOL    HW2 4593   2.091   2.541   4.725
 1232SOL     OW 4594   0.306   2.062   5.413
 1232SOL    HW1 4595   0.362   1.984   5.386
 1232SOL    HW2 4596   0.301   2.066   5.512
 1233SOL     OW 4597   0.905   5.090   4.779
 1233SOL    HW1 4598   0.855   5.026   4.837
 1233SOL    HW2 4599   1.002   5.089   4.802
 1234SOL     OW 4600   6.229   2.846   5.884
 1234SOL    HW1 4601   6.288   2.874   5.960
 1234SOL    HW2 4602   6.197   2.927   5.834
 1235SOL     OW 4603   6.871   5.487   2.826
 1235SOL    HW1 4604   6.956   5.434   2.830
 1235SOL    HW2 4605   6.840   5.491   2.731
 1236SOL     OW 4606   5.159   1.217   6.937
 1236SOL    HW1 4607   5.165   1.139   6.999
 1236SOL    HW2 4608   5.202   1.296   6.979
 1237SOL     OW 4609   2.222   4.747   6.723
 1237SOL    HW1 4610   2.210   4.658   6.678
 1237SOL    HW2 4611   2.271   4.809   6.662
 1238SOL     OW 4612   1.544   1.615   0.707
 1238SOL    HW1 4613   1.459   1.667   0.710
 1238SOL    HW2 4614   1.525   1.520   0.732
 1239SOL     OW 4615   6.940   6.726   6.179
 1239SOL    HW1 4616   7.018   6.667   6.158
 1239SOL    HW2 4617   6.931   6.736   6.279
 1240SOL     OW 4618   5.269   6.338   1.450
 1240SOL    HW1 4619   5.328   6.264   1.483
 1240SOL    HW2 4620   5.220   6.378   1.527
 1241SOL     OW 4621   5.283   3.116   4.197
 1241SOL    HW1 4622   5.362   3.057   4.181
 1241SOL    HW2 4623   5.289   3.155   4.289
 1242SOL     OW 4624   0.475   3.386   1.580
 1242SOL    HW1 4625   0.387   3.415   1.618
 1242SOL    HW2 4626   0.531   3.467   1.560
 1243SOL     OW 4627   0.058   6.369   4.660
 1243SOL    HW1 4628   0.064   6.270   4.651
 1243SOL    HW2 4629   0.009   6.392   4.744
 1244SOL     OW 4630   5.873   6.701   4.991
 1244SOL    HW1 4631   5.868   6.601   4.990
 1244SOL    HW2 4632   5.882   6.735   4.898
 1245SOL     OW 4633   5.689   5.168   0.547
 1245SOL    HW1 4634   5.777   5.158   0.499
 1245SOL    HW2 4635   5.620   5.200   0.483
 1246SOL     OW 4636   2.960   6.971   1.204
 1246SOL    HW1 4637   2.886   6.995   1.267
 1246SOL    HW2 4638   2.922   6.955   1.113
 1247SOL     OW 4639   1.489   6.626   6.584
 1247SOL    HW1 4640   1.549   6.686   6.532
 1247SOL    HW2 4641   1.507   6.530   6.560
 1248SOL     OW 4642   2.235   6.898   5.129
 1248SOL    HW1 4643   2.254   6.997   5.128
 1248SOL    HW2 4644   2.248   6.861   5.037
 1249SOL     OW 4645   6.418   1.688   2.778
 1249SOL    HW1 4646   6.365   1.772   2.770
 1249SOL    HW2 4647   6.358   1.613   2.806
 1250SOL     OW 4648   5.435   5.530   4.092
 1250SOL    HW1 4649   5.344   5.498   4.118
 1250SOL    HW2 4650   5.444   5.526   3.992
 1251SOL     OW 4651   2.941   0.710   3.802
 1251SOL    HW1 4652   2.965   0.660   3.719
 1251SOL    HW2 4653   2.883   0.653   3.860
 1252SOL     OW 4654   4.359   3.788   6.280
 1252SOL    HW1 4655   4.316   3.816   6.194
 1252SOL    HW2 4656   4.339   3.692   6.297
 1253SOL     OW 4657   2.967   5.715   2.751
 1253SOL    HW1 4658   2.945   5.756   2.840
 1253SOL    HW2 4659   3.039   5.769   2.706
 1254SOL     OW 4660   1.070   2.750   2.237
 1254SOL    HW1 4661   0.988   2.786   2.193
 1254SOL    HW2 4662   1.045   2.707   2.324
 1255SOL     OW 4663   6.267   2.041   5.388
 1255SOL    HW1 4664   6.365   2.036   5.368
 1255SOL    HW2 4665   6.230   1.949   5.397
 1256SOL     OW 4666   6.911   6.514   3.481
 1256SOL    HW1 4667   6.937   6.596   3.430
 1256SOL    HW2 4668   6.847   6.538   3.553
 1257SOL     OW 4669   0.055   6.179   5.410
 1257SOL    HW1 4670   0.132   6.193   5.348
 1257SOL    HW2 4671   0.017   6.267   5.437
 1258SOL     OW 4672   1.988   5.269   3.144
 1258SOL    HW1 4673   1.916   5.265   3.213
 1258SOL    HW2 4674   1.954   5.317   3.063
 1259SOL     OW 4675   4.400   0.638   4.177
 1259SOL    HW1 4676   4.361   0.633   4.270
 1259SOL    HW2 4677   4.333   0.680   4.116
 1260SOL     OW 4678   2.071   1.351   6.977
 1260SOL    HW1 4679   1.982   1.372   6.935
 1260SOL    HW2 4680   2.106   1.432   0.001
 1261SOL     OW 4681   0.297   5.728   6.551
 1261SOL    HW1 4682   0.383   5.769   6.520
 1261SOL    HW2 4683   0.291   5.634   6.516
 1262SOL     OW 4684   5.434   4.782   1.079
 1262SOL    HW1 4685   5.390   4.700   1.042
 1262SOL    HW2 4686   5.419   4.786   1.177
 1263SOL     OW 4687   0.455   2.288   1.610
 1263SOL    HW1 4688   0.519   2.232   1.557
 1263SOL    HW2 4689   0.424   2.237   1.690
 1264SOL     OW 4690   6.404   4.697   0.624
 1264SOL    HW1 4691   6.358   4.754   0.692
 1264SOL    HW2 4692   6.454   4.624   0.670
 1265SOL     OW 4693   5.680   5.428   4.532
 1265SOL    HW1 4694   5.656   5.337   4.567
 1265SOL    HW2 4695   5.660   5.433   4.435
 1266SOL     OW 4696   0.539   1.363   4.133
 1266SOL    HW1 4697   0.557   1.264   4.125
 1266SOL    HW2 4698   0.568   1.394   4.223
 1267SOL     OW 4699   5.168   1.135   0.867
 1267SOL    HW1 4700   5.242   1.202   0.858
 1267SOL    HW2 4701   5.081   1.177   0.839
 1268SOL     OW 4702   2.950   2.735   6.918
 1268SOL    HW1 4703   2.938   2.714   7.015
 1268SOL    HW2 4704   2.932   2.833   6.903
 1269SOL     OW 4705   6.029   3.716   4.123
 1269SOL    HW1 4706   5.976   3.676   4.048
 1269SOL    HW2 4707   5.972   3.723   4.205
 1270SOL     OW 4708   1.452   3.902   3.160
 1270SOL    HW1 4709   1.433   3.871   3.253
 1270SOL    HW2 4710   1.541   3.866   3.131
 1271SOL     OW 4711   3.177   1.684   2.699
 1271SOL    HW1 4712   3.122   1.676   2.616
 1271SOL    HW2 4713   3.257   1.741   2.680
 1272SOL     OW 4714   5.729   4.637   6.993
 1272SOL    HW1 4715   5.792   4.715   6.995
 1272SOL    HW2 4716   5.678   4.633   0.057
 1273SOL     OW 4717   0.231   3.505   6.830
 1273SOL    HW1 4718   0.320   3.541   6.802
 1273SOL    HW2 4719   0.216   3.527   6.927
 1274SOL     OW 4720   6.925   4.741   1.228
 1274SOL    HW1 4721   6.964   4.771   1.315
 1274SOL    HW2 4722   6.988   4.676   1.185
 1275SOL     OW 4723   4.165   1.331   4.311
 1275SOL    HW1 4724   4.234   1.353   4.380
 1275SOL    HW2 4725   4.210   1.298   4.229
 1276SOL     OW 4726   6.608   5.231   5.051
 1276SOL    HW1 4727   6.613   5.173   4.970
 1276SOL    HW2 4728   6.551   5.187   5.121
 1277SOL     OW 4729   1.690   5.531   5.749
 1277SOL    HW1 4730   1.637   5.613   5.770
 1277SOL    HW2 4731   1.741   5.546   5.665
 1278SOL     OW 4732   0.919   0.233   5.046
 1278SOL    HW1 4733   0.890   0.317   5.093
 1278SOL    HW2 4734   1.015   0.241   5.021
 1279SOL     OW 4735   1.708   4.686   0.357
 1279SOL    HW1 4736   1.629   4.718   0.305
 1279SOL    HW2 4737   1.792   4.710   0.308
 1280SOL     OW 4738   4.519   6.900   4.068
 1280SOL    HW1 4739   4.510   6.999   4.073
 1280SOL    HW2 4740   4.606   6.872   4.109
 1281SOL     OW 4741   2.891   6.121   3.068
 1281SOL    HW1 4742   2.978   6.110   3.117
 1281SOL    HW2 4743   2.816   6.125   3.134
 1282SOL     OW 4744   6.378   2.702   6.888
 1282SOL    HW1 4745   6.392   2.744   6.977
 1282SOL    HW2 4746   6.288   2.726   6.853
 1283SOL     OW 4747   6.545   3.726   5.191
 1283SOL    HW1 4748   6.504   3.679   5.113
 1283SOL    HW2 4749   6.630   3.680   5.217
 1284SOL     OW 4750   4.715   2.209   2.042
 1284SOL    HW1 4751   4.768   2.135   2.084
 1284SOL    HW2 4752   4.765   2.246   1.964
 1285SOL     OW 4753   4.415   1.792   6.073
 1285SOL    HW1 4754   4.477   1.865   6.046
 1285SOL    HW2 4755   4.320   1.819   6.055
 1286SOL     OW 4756   4.253   3.748   1.277
 1286SOL    HW1 4757   4.287   3.680   1.213
 1286SOL    HW2 4758   4.205   3.703   1.352
 1287SOL     OW 4759   5.269   4.532   5.127
 1287SOL    HW1 4760   5.340   4.600   5.110
 1287SOL    HW2 4761   5.218   4.557   5.209
 1288SOL     OW 4762   3.743   3.270   6.431
 1288SOL    HW1 4763   3.656   3.307   6.464
 1288SOL    HW2 4764   3.800   3.245   6.510
 1289SOL     OW 4765   0.049   0.017   0.817
 1289SOL    HW1 4766   0.145   0.014   0.787
 1289SOL    HW2 4767   7.013   7.005   0.743
 1290SOL     OW 4768   1.263   6.344   6.995
 1290SOL    HW1 4769   1.346   6.396   6.974
 1290SOL    HW2 4770   1.278   6.290   0.055
 1291SOL     OW 4771   0.895   4.110   3.669
 1291SOL    HW1 4772   0.929   4.040   3.731
 1291SOL    HW2 4773   0.854   4.067   3.589
 1292SOL     OW 4774   0.548   5.730   2.374
 1292SOL    HW1 4775   0.644   5.705   2.372
 1292SOL    HW2 4776   0.515   5.743   2.280
 1293SOL     OW 4777   2.052   2.367   0.155
 1293SOL    HW1 4778   1.995   2.287   0.137
 1293SOL    HW2 4779   2.082   2.408   0.069
 1294SOL     OW 4780   0.033   3.724   5.659
 1294SOL    HW1 4781   0.128   3.751   5.674
 1294SOL    HW2 4782   6.997   3.760   5.732
 1295SOL     OW 4783   6.882   3.498   1.511
 1295SOL    HW1 4784   6.818   3.441   1.461
 1295SOL    HW2 4785   6.855   3.594   1.502
 1296SOL     OW 4786   3.969   6.347   5.092
 1296SOL    HW1 4787   3.891   6.286   5.077
 1296SOL    HW2 4788   3.960   6.391   5.182
 1297SOL     OW 4789   0.334   0.012   1.290
 1297SOL    HW1 4790   0.379   0.023   1.379
 1297SOL    HW2 4791   0.394   6.982   1.229
 1298SOL     OW 4792   4.924   5.328   3.535
 1298SOL    HW1 4793   4.963   5.256   3.477
 1298SOL    HW2 4794   4.834   5.300   3.567
 1299SOL     OW 4795   2.492   2.573   3.842
 1299SOL    HW1 4796   2.443   2.660   3.844
 1299SOL    HW2 4797   2.508   2.540   3.935
 1300SOL     OW 4798   1.476   3.230   0.409
 1300SOL    HW1 4799   1.502   3.182   0.492
 1300SOL    HW2 4800   1.513   3.182   0.329
 1301SOL     OW 4801   0.343   5.919   1.487
 1301SOL    HW1 4802   0.294   5.833   1.477
 1301SOL    HW2 4803   0.436   5.908   1.451
 1302SOL     OW 4804   4.847   6.607   5.122
 1302SOL    HW1 4805   4.875   6.528   5.067
 1302SOL    HW2 4806   4.748   6.621   5.114
 1303SOL     OW 4807   3.899   1.603   1.646
 1303SOL    HW1 4808   3.916   1.619   1.743
 1303SOL    HW2 4809   3.808   1.636   1.622
 1304SOL     OW 4810   1.640   0.593   0.627
 1304SOL    HW1 4811   1.683   0.548   0.705
 1304SOL    HW2 4812   1.682   0.683   0.613
 1305SOL     OW 4813   5.386   3.892   0.390
 1305SOL    HW1 4814   5.438   3.809   0.404
 1305SOL    HW2 4815   5.392   3.950   0.471
 1306SOL     OW 4816   1.093   5.810   3.966
 1306SOL    HW1 4817   1.124   5.717   3.985
 1306SOL    HW2 4818   1.136   5.842   3.881
 1307SOL     OW 4819   1.856   4.010   3.492
 1307SOL    HW1 4820   1.891   4.070   3.421
 1307SOL    HW2 4821   1.832   3.921   3.452
 1308SOL     OW 4822   6.261   0.123   5.625
 1308SOL    HW1 4823   6.332   0.162   5.567
 1308SOL    HW2 4824   6.173   0.164   5.602
 1309SOL     OW 4825   5.856   5.163   5.064
 1309SOL    HW1 4826   5.947   5.184   5.098
 1309SOL    HW2 4827   5.789   5.178   5.137
 1310SOL     OW 4828   6.708   3.833   3.604
 1310SOL    HW1 4829   6.640   3.777   3.556
 1310SOL    HW2 4830   6.670   3.862   3.692
 1311SOL     OW 4831   6.462   5.850   5.699
 1311SOL    HW1 4832   6.539   5.789   5.681
 1311SOL    HW2 4833   6.454   5.916   5.624
 1312SOL     OW 4834   1.717   6.655   0.151
 1312SOL    HW1 4835   1.671   6.687   0.068
 1312SOL    HW2 4836   1.651   6.608   0.210
 1313SOL     OW 4837   0.064   4.788   2.701
 1313SOL    HW1 4838   0.060   4.697   2.743
 1313SOL    HW2 4839   0.003   4.850   2.749
 1314SOL     OW 4840   4.064   1.543   4.787
 1314SOL    HW1 4841   4.059   1.451   4.750
 1314SOL    HW2 4842   3.973   1.574   4.814
 1315SOL     OW 4843   0.516   1.865   2.404
 1315SOL    HW1 4844   0.600   1.835   2.358
 1315SOL    HW2 4845   0.491   1.956   2.370
 1316SOL     OW 4846   3.361   6.566   5.888
 1316SOL    HW1 4847   3.339   6.615   5.973
 1316SOL    HW2 4848   3.358   6.630   5.812
 1317SOL     OW 4849   2.110   4.155   6.169
 1317SOL    HW1 4850   2.094   4.159   6.268
 1317SOL    HW2 4851   2.030   4.113   6.125
 1318SOL     OW 4852   0.660   2.607   1.030
 1318SOL    HW1 4853   0.705   2.662   1.101
 1318SOL    HW2 4854   0.721   2.533   1.001
 1319SOL     OW 4855   6.622   6.283   1.027
 1319SOL    HW1 4856   6.689   6.238   1.086
 1319SOL    HW2 4857   6.531   6.245   1.047
 1320SOL     OW 4858   4.179   4.676   6.672
 1320SOL    HW1 4859   4.195   4.584   6.636
 1320SOL    HW2 4860   4.096   4.677   6.727
 1321SOL     OW 4861   5.152   3.033   6.580
 1321SOL    HW1 4862   5.137   3.010   6.484
 1321SOL    HW2 4863   5.248   3.018   6.604
 1322SOL     OW 4864   4.095   1.679   4.175
 1322SOL    HW1 4865   4.017   1.742   4.171
 1322SOL    HW2 4866   4.098   1.624   4.092
 1323SOL     OW 4867   4.177   6.873   6.277
 1323SOL    HW1 4868   4.196   6.936   6.202
 1323SOL    HW2 4869   4.247   6.801   6.278
 1324SOL     OW 4870   0.348   3.832   7.017
 1324SOL    HW1 4871   0.366   3.762   0.063
 1324SOL    HW2 4872   0.251   3.856   7.018
 1325SOL     OW 4873   2.564   6.499   4.739
 1325SOL    HW1 4874   2.540   6.572   4.674
 1325SOL    HW2 4875   2.634   6.532   4.802
 1326SOL     OW 4876   5.345   3.319   5.656
 1326SOL    HW1 4877   5.409   3.395   5.662
 1326SOL    HW2 4878   5.270   3.333   5.721
 1327SOL     OW 4879   1.282   6.431   1.278
 1327SOL    HW1 4880   1.252   6.336   1.279
 1327SOL    HW2 4881   1.380   6.435   1.302
 1328SOL     OW 4882   2.660   3.092   1.150
 1328SOL    HW1 4883   2.668   3.090   1.249
 1328SOL    HW2 4884   2.701   3.010   1.111
 1329SOL     OW 4885   0.746   2.319   1.973
 1329SOL    HW1 4886   0.795   2.237   1.943
 1329SOL    HW2 4887   0.648   2.298   1.978
 1330SOL     OW 4888   1.279   1.560   1.943
 1330SOL    HW1 4889   1.379   1.568   1.940
 1330SOL    HW2 4890   1.240   1.641   1.987
 1331SOL     OW 4891   4.998   3.031   2.889
 1331SOL    HW1 4892   5.028   3.003   2.798
 1331SOL    HW2 4893   5.076   3.070   2.939
 1332SOL     OW 4894   2.938   6.882   6.875
 1332SOL    HW1 4895   2.869   6.831   6.928
 1332SOL    HW2 4896   2.913   6.979   6.874
 1333SOL     OW 4897   3.164   3.498   3.796
 1333SOL    HW1 4898   3.217   3.416   3.771
 1333SOL    HW2 4899   3.081   3.471   3.844
 1334SOL     OW 4900   6.134   1.351   3.830
 1334SOL    HW1 4901   6.219   1.393   3.797
 1334SOL    HW2 4902   6.142   1.251   3.824
 1335SOL     OW 4903   2.432   2.063   1.819
 1335SOL    HW1 4904   2.416   1.968   1.842
 1335SOL    HW2 4905   2.504   2.069   1.749
 1336SOL     OW 4906   2.341   2.040   5.228
 1336SOL    HW1 4907   2.373   1.949   5.255
 1336SOL    HW2 4908   2.274   2.032   5.154
 1337SOL     OW 4909   1.361   1.128   3.408
 1337SOL    HW1 4910   1.434   1.072   3.444
 1337SOL    HW2 4911   1.347   1.107   3.311
 1338SOL     OW 4912   6.828   2.631   4.646
 1338SOL    HW1 4913   6.867   2.603   4.559
 1338SOL    HW2 4914   6.765   2.561   4.680
 1339SOL     OW 4915   6.257   1.944   6.861
 1339SOL    HW1 4916   6.205   2.011   6.808
 1339SOL    HW2 4917   6.198   1.904   6.931
 1340SOL     OW 4918   5.667   2.343   2.538
 1340SOL    HW1 4919   5.747   2.374   2.488
 1340SOL    HW2 4920   5.689   2.339   2.636
 1341SOL     OW 4921   4.136   6.505   6.660
 1341SOL    HW1 4922   4.208   6.574   6.657
 1341SOL    HW2 4923   4.078   6.521   6.740
 1342SOL     OW 4924   3.101   5.906   6.063
 1342SOL    HW1 4925   3.022   5.952   6.023
 1342SOL    HW2 4926   3.161   5.875   5.989
 1343SOL     OW 4927   5.224   5.352   2.602
 1343SOL    HW1 4928   5.157   5.416   2.639
 1343SOL    HW2 4929   5.177   5.276   2.557
 1344SOL     OW 4930   0.581   6.095   4.648
 1344SOL    HW1 4931   0.606   6.102   4.552
 1344SOL    HW2 4932   0.500   6.037   4.658
 1345SOL     OW 4933   0.759   6.061   2.846
 1345SOL    HW1 4934   0.708   6.118   2.910
 1345SOL    HW2 4935   0.827   6.007   2.896
 1346SOL     OW 4936   1.196   5.737   4.420
 1346SOL    HW1 4937   1.270   5.688   4.373
 1346SOL    HW2 4938   1.195   5.710   4.516
 1347SOL     OW 4939   0.245   6.680   5.885
 1347SOL    HW1 4940   0.269   6.770   5.923
 1347SOL    HW2 4941   0.160   6.687   5.833
 1348SOL     OW 4942   5.962   6.522   4.161
 1348SOL    HW1 4943   6.005   6.498   4.248
 1348SOL    HW2 4944   6.032   6.550   4.095
 1349SOL     OW 4945   4.869   2.904   5.505
 1349SOL    HW1 4946   4.840   2.821   5.552
 1349SOL    HW2 4947   4.789   2.949   5.464
 1350SOL     OW 4948   5.473   5.275   5.449
 1350SOL    HW1 4949   5.434   5.328   5.373
 1350SOL    HW2 4950   5.432   5.306   5.535
 1351SOL     OW 4951   5.866   1.775   2.723
 1351SOL    HW1 4952   5.833   1.811   2.811
 1351SOL    HW2 4953   5.966   1.776   2.721
 1352SOL     OW 4954   6.540   5.920   3.956
 1352SOL    HW1 4955   6.583   5.995   4.008
 1352SOL    HW2 4956   6.454   5.895   4.000
 1353SOL     OW 4957   0.470   2.783   0.378
 1353SOL    HW1 4958   0.541   2.713   0.371
 1353SOL    HW2 4959   0.500   2.855   0.439
 1354SOL     OW 4960   0.733   3.761   1.751
 1354SOL    HW1 4961   0.780   3.703   1.818
 1354SOL    HW2 4962   0.718   3.851   1.790
 1355SOL     OW 4963   5.685   3.010   4.339
 1355SOL    HW1 4964   5.755   2.989   4.271
 1355SOL    HW2 4965   5.707   3.095   4.385
 1356SOL     OW 4966   3.486   3.377   2.211
 1356SOL    HW1 4967   3.454   3.364   2.305
 1356SOL    HW2 4968   3.424   3.331   2.148
 1357SOL     OW 4969   0.278   4.174   6.645
 1357SOL    HW1 4970   0.302   4.253   6.702
 1357SOL    HW2 4971   0.252   4.097   6.704
 1358SOL     OW 4972   4.891   6.498   6.419
 1358SOL    HW1 4973   4.857   6.563   6.351
 1358SOL    HW2 4974   4.936   6.422   6.372
 1359SOL     OW 4975   5.732   4.914   2.708
 1359SOL    HW1 4976   5.803   4.959   2.762
 1359SOL    HW2 4977   5.771   4.835   2.661
 1360SOL     OW 4978   2.520   3.484   0.230
 1360SOL    HW1 4979   2.439   3.516   0.180
 1360SOL    HW2 4980   2.532   3.539   0.312
 1361SOL     OW 4981   5.991   4.312   5.164
 1361SOL    HW1 4982   5.905   4.283   5.206
 1361SOL    HW2 4983   6.061   4.242   5.179
 1362SOL     OW 4984   3.810   3.688   3.625
 1362SOL    HW1 4985   3.748   3.760   3.655
 1362SOL    HW2 4986   3.857   3.648   3.704
 1363SOL     OW 4987   6.352   5.375   3.361
 1363SOL    HW1 4988   6.390   5.284   3.378
 1363SOL    HW2 4989   6.276   5.391   3.424
 1364SOL     OW 4990   5.710   4.490   1.247
 1364SOL    HW1 4991   5.722   4.554   1.171
 1364SOL    HW2 4992   5.674   4.538   1.327
 1365SOL     OW 4993   0.343   4.512   6.188
 1365SOL    HW1 4994   0.366   4.418   6.215
 1365SOL    HW2 4995   0.424   4.569   6.196
 1366SOL     OW 4996   1.417   5.783   0.254
 1366SOL    HW1 4997   1.477   5.818   0.183
 1366SOL    HW2 4998   1.465   5.782   0.341
 1367SOL     OW 4999   2.438   0.325   3.376
 1367SOL    HW1 5000   2.518   0.281   3.334
 1367SOL    HW2 5001   2.393   0.260   3.437
 1368SOL     OW 5002   6.092   0.292   4.588
 1368SOL    HW1 5003   6.064   0.321   4.496
 1368SOL    HW2 5004   6.110   0.373   4.644
 1369SOL     OW 5005   2.417   6.257   1.877
 1369SOL    HW1 5006   2.328   6.216   1.900
 1369SOL    HW2 5007   2.457   6.207   1.800
 1370SOL     OW 5008   3.731   0.922   1.044
 1370SOL    HW1 5009   3.750   0.900   1.140
 1370SOL    HW2 5010   3.680   0.847   1.002
 1371SOL     OW 5011   5.969   1.688   4.073
 1371SOL    HW1 5012   5.890   1.629   4.088
 1371SOL    HW2 5013   5.958   1.737   3.986
 1372SOL     OW 5014   1.214   2.996   0.281
 1372SOL    HW1 5015   1.263   2.984   0.195
 1372SOL    HW2 5016   1.219   2.911   0.334
 1373SOL     OW 5017   5.660   3.910   7.017
 1373SOL    HW1 5018   5.633   3.846   0.067
 1373SOL    HW2 5019   5.581   3.962   6.987
 1374SOL     OW 5020   4.555   2.190   0.315
 1374SOL    HW1 5021   4.547   2.283   0.277
 1374SOL    HW2 5022   4.471   2.166   0.363
 1375SOL     OW 5023   6.764   4.082   6.401
 1375SOL    HW1 5024   6.844   4.026   6.380
 1375SOL    HW2 5025   6.761   4.100   6.499
 1376SOL     OW 5026   4.929   3.435   3.987
 1376SOL    HW1 5027   4.941   3.441   4.086
 1376SOL    HW2 5028   4.871   3.356   3.965
 1377SOL     OW 5029   6.671   4.040   5.185
 1377SOL    HW1 5030   6.666   3.979   5.106
 1377SOL    HW2 5031   6.636   3.992   5.266
 1378SOL     OW 5032   6.449   1.106   4.919
 1378SOL    HW1 5033   6.467   1.171   4.845
 1378SOL    HW2 5034   6.528   1.045   4.930
 1379SOL     OW 5035   3.472   6.792   2.248
 1379SOL    HW1 5036   3.445   6.803   2.344
 1379SOL    HW2 5037   3.552   6.848   2.229
 1380SOL     OW 5038   0.362   0.296   2.387
 1380SOL    HW1 5039   0.263   0.301   2.374
 1380SOL    HW2 5040   0.383   0.253   2.474
 1381SOL     OW 5041   5.409   2.916   6.481
 1381SOL    HW1 5042   5.473   2.939   6.408
 1381SOL    HW2 5043   5.344   2.848   6.449
 1382SOL     OW 5044   4.787   4.744   0.935
 1382SOL    HW1 5045   4.830   4.674   0.992
 1382SOL    HW2 5046   4.795   4.718   0.839
 1383SOL     OW 5047   0.892   0.208   0.626
 1383SOL    HW1 5048   0.974   0.259   0.600
 1383SOL    HW2 5049   0.908   0.162   0.714
 1384SOL     OW 5050   3.882   1.048   2.527
 1384SOL    HW1 5051   3.855   1.015   2.618
 1384SOL    HW2 5052   3.911   1.143   2.534
 1385SOL     OW 5053   0.896   3.098   2.613
 1385SOL    HW1 5054   0.820   3.075   2.553
 1385SOL    HW2 5055   0.945   3.177   2.577
 1386SOL     OW 5056   2.212   0.974   4.655
 1386SOL    HW1 5057   2.125   1.023   4.656
 1386SOL    HW2 5058   2.205   0.892   4.713
 1387SOL     OW 5059   4.002   6.821   3.329
 1387SOL    HW1 5060   4.094   6.789   3.308
 1387SOL    HW2 5061   3.959   6.857   3.246
 1388SOL     OW 5062   0.599   6.366   3.700
 1388SOL    HW1 5063   0.611   6.280   3.749
 1388SOL    HW2 5064   0.553   6.432   3.760
 1389SOL     OW 5065   0.219   1.223   3.915
 1389SOL    HW1 5066   0.177   1.256   3.830
 1389SOL    HW2 5067   0.241   1.301   3.974
 1390SOL     OW 5068   4.512   2.276   6.195
 1390SOL    HW1 5069   4.591   2.233   6.238
 1390SOL    HW2 5070   4.509   2.373   6.220
 1391SOL     OW 5071   6.372   0.704   5.705
 1391SOL    HW1 5072   6.406   0.662   5.789
 1391SOL    HW2 5073   6.397   0.801   5.704
 1392SOL     OW 5074   5.331   5.013   5.913
 1392SOL    HW1 5075   5.420   5.050   5.939
 1392SOL    HW2 5076   5.343   4.921   5.875
 1393SOL     OW 5077   5.920   3.205   6.972
 1393SOL    HW1 5078   5.873   3.289   6.995
 1393SOL    HW2 5079   5.896   3.177   6.879
 1394SOL     OW 5080   3.864   0.329   3.791
 1394SOL    HW1 5081   3.830   0.249   3.742
 1394SOL    HW2 5082   3.958   0.348   3.762
 1395SOL     OW 5083   1.063   3.914   2.908
 1395SOL    HW1 5084   1.134   3.844   2.901
 1395SOL    HW2 5085   1.007   3.896   2.990
 1396SOL     OW 5086   1.756   6.940   3.374
 1396SOL    HW1 5087   1.713   6.862   3.328
 1396SOL    HW2 5088   1.692   7.016   3.376
 1397SOL     OW 5089   0.579   6.529   4.793
 1397SOL    HW1 5090   0.601   6.509   4.888
 1397SOL    HW2 5091   0.582   6.445   4.739
 1398SOL     OW 5092   0.758   1.925   0.231
 1398SOL    HW1 5093   0.726   1.954   0.141
 1398SOL    HW2 5094   0.856   1.943   0.239
 1399SOL     OW 5095   4.608   0.583   0.389
 1399SOL    HW1 5096   4.533   0.586   0.323
 1399SOL    HW2 5097   4.611   0.668   0.441
 1400SOL     OW 5098   6.128   1.141   4.387
 1400SOL    HW1 5099   6.103   1.091   4.470
 1400SOL    HW2 5100   6.202   1.205   4.408
 1401SOL     OW 5101   5.983   6.441   4.676
 1401SOL    HW1 5102   5.997   6.346   4.648
 1401SOL    HW2 5103   5.894   6.451   4.720
 1402SOL     OW 5104   5.619   4.391   6.972
 1402SOL    HW1 5105   5.520   4.383   6.967
 1402SOL    HW2 5106   5.644   4.488   6.973
 1403SOL     OW 5107   1.991   2.980   0.146
 1403SOL    HW1 5108   2.040   2.980   0.059
 1403SOL    HW2 5109   1.979   3.074   0.178
 1404SOL     OW 5110   4.478   6.847   0.613
 1404SOL    HW1 5111   4.397   6.816   0.663
 1404SOL    HW2 5112   4.516   6.770   0.561
 1405SOL     OW 5113   2.127   3.537   0.689
 1405SOL    HW1 5114   2.182   3.498   0.615
 1405SOL    HW2 5115   2.100   3.630   0.664
 1406SOL     OW 5116   2.265   4.604   0.917
 1406SOL    HW1 5117   2.333   4.551   0.969
 1406SOL    HW2 5118   2.184   4.618   0.975
 1407SOL     OW 5119   1.276   3.750   2.997
 1407SOL    HW1 5120   1.326   3.816   3.053
 1407SOL    HW2 5121   1.336   3.718   2.923
 1408SOL     OW 5122   5.609   6.122   6.725
 1408SOL    HW1 5123   5.531   6.174   6.691
 1408SOL    HW2 5124   5.577   6.040   6.771
 1409SOL     OW 5125   0.019   0.387   5.474
 1409SOL    HW1 5126   6.947   0.422   5.471
 1409SOL    HW2 5127   0.019   0.289   5.458
 1410SOL     OW 5128   2.911   3.702   6.900
 1410SOL    HW1 5129   2.922   3.772   6.971
 1410SOL    HW2 5130   2.814   3.686   6.884
 1411SOL     OW 5131   3.723   6.111   6.261
 1411SOL    HW1 5132   3.636   6.131   6.306
 1411SOL    HW2 5133   3.797   6.113   6.328
 1412SOL     OW 5134   0.358   3.948   1.695
 1412SOL    HW1 5135   0.413   3.937   1.777
 1412SOL    HW2 5136   0.325   4.042   1.689
 1413SOL     OW 5137   1.696   1.972   4.539
 1413SOL    HW1 5138   1.629   2.043   4.562
 1413SOL    HW2 5139   1.647   1.889   4.511
 1414SOL     OW 5140   1.545   2.783   1.553
 1414SOL    HW1 5141   1.631   2.737   1.533
 1414SOL    HW2 5142   1.471   2.715   1.557
 1415SOL     OW 5143   2.982   2.235   4.645
 1415SOL    HW1 5144   2.934   2.261   4.729
 1415SOL    HW2 5145   2.949   2.292   4.570
 1416SOL     OW 5146   4.345   0.557   4.808
 1416SOL    HW1 5147   4.389   0.487   4.752
 1416SOL    HW2 5148   4.336   0.524   4.902
 1417SOL     OW 5149   3.610   2.942   5.930
 1417SOL    HW1 5150   3.700   2.980   5.912
 1417SOL    HW2 5151   3.575   2.975   6.017
 1418SOL     OW 5152   2.926   3.687   0.612
 1418SOL    HW1 5153   2.966   3.769   0.652
 1418SOL    HW2 5154   2.899   3.623   0.685
 1419SOL     OW 5155   1.908   5.189   3.998
 1419SOL    HW1 5156   1.830   5.223   4.050
 1419SOL    HW2 5157   1.876   5.120   3.932
 1420SOL     OW 5158   4.291   5.667   3.142
 1420SOL    HW1 5159   4.193   5.684   3.151
 1420SOL    HW2 5160   4.317   5.591   3.201
 1421SOL     OW 5161   1.215   4.567   4.133
 1421SOL    HW1 5162   1.133   4.530   4.090
 1421SOL    HW2 5163   1.252   4.641   4.077
 1422SOL     OW 5164   2.380   4.775   5.838
 1422SOL    HW1 5165   2.479   4.761   5.845
 1422SOL    HW2 5166   2.348   4.747   5.748
 1423SOL     OW 5167   4.225   1.759   4.864
 1423SOL    HW1 5168   4.259   1.789   4.775
 1423SOL    HW2 5169   4.165   1.680   4.852
 1424SOL     OW 5170   5.815   3.686   6.619
 1424SOL    HW1 5171   5.885   3.756   6.633
 1424SOL    HW2 5172   5.858   3.603   6.584
 1425SOL     OW 5173   2.669   6.256   4.622
 1425SOL    HW1 5174   2.630   6.333   4.672
 1425SOL    HW2 5175   2.703   6.187   4.687
 1426SOL     OW 5176   1.619   2.015   6.221
 1426SOL    HW1 5177   1.696   2.036   6.160
 1426SOL    HW2 5178   1.641   2.046   6.313
 1427SOL     OW 5179   0.654   0.914   3.678
 1427SOL    HW1 5180   0.744   0.882   3.646
 1427SOL    HW2 5181   0.620   0.984   3.615
 1428SOL     OW 5182   0.227   2.143   1.316
 1428SOL    HW1 5183   0.194   2.181   1.402
 1428SOL    HW2 5184   0.205   2.205   1.241
 1429SOL     OW 5185   5.699   1.642   7.011
 1429SOL    HW1 5186   5.633   1.682   6.948
 1429SOL    HW2 5187   5.685   1.543   7.015
 1430SOL     OW 5188   2.182   3.977   4.546
 1430SOL    HW1 5189   2.137   3.893   4.515
 1430SOL    HW2 5190   2.222   4.024   4.467
 1431SOL     OW 5191   2.594   2.605   6.007
 1431SOL    HW1 5192   2.526   2.539   6.038
 1431SOL    HW2 5193   2.685   2.563   6.008
 1432SOL     OW 5194   2.254   1.103   1.254
 1432SOL    HW1 5195   2.163   1.090   1.213
 1432SOL    HW2 5196   2.252   1.073   1.349
 1433SOL     OW 5197   3.156   7.012   3.592
 1433SOL    HW1 5198   3.084   7.007   3.662
 1433SOL    HW2 5199   3.245   7.018   3.637
 1434SOL     OW 5200   6.142   1.566   6.356
 1434SOL    HW1 5201   6.164   1.525   6.267
 1434SOL    HW2 5202   6.209   1.535   6.424
 1435SOL     OW 5203   0.128   0.783   3.772
 1435SOL    HW1 5204   0.042   0.742   3.803
 1435SOL    HW2 5205   0.154   0.857   3.835
 1436SOL     OW 5206   5.751   3.419   0.318
 1436SOL    HW1 5207   5.793   3.353   0.380
 1436SOL    HW2 5208   5.769   3.512   0.352
 1437SOL     OW 5209   3.460   1.118   5.155
 1437SOL    HW1 5210   3.522   1.046   5.124
 1437SOL    HW2 5211   3.472   1.200   5.098
 1438SOL     OW 5212   2.998   1.295   1.511
 1438SOL    HW1 5213   2.980   1.390   1.483
 1438SOL    HW2 5214   3.078   1.293   1.571
 1439SOL     OW 5215   0.790   5.387   0.827
 1439SOL    HW1 5216   0.834   5.350   0.745
 1439SOL    HW2 5217   0.760   5.481   0.809
 1440SOL     OW 5218   3.572   3.326   4.351
 1440SOL    HW1 5219   3.501   3.257   4.362
 1440SOL    HW2 5220   3.600   3.331   4.255
 1441SOL     OW 5221   6.228   3.325   3.492
 1441SOL    HW1 5222   6.205   3.255   3.559
 1441SOL    HW2 5223   6.207   3.416   3.529
 1442SOL     OW 5224   5.893   4.683   0.506
 1442SOL    HW1 5225   5.867   4.704   0.411
 1442SOL    HW2 5226   5.986   4.715   0.522
 1443SOL     OW 5227   0.872   1.320   3.868
 1443SOL    HW1 5228   0.923   1.403   3.891
 1443SOL    HW2 5229   0.912   1.278   3.786
 1444SOL     OW 5230   4.714   5.758   1.970
 1444SOL    HW1 5231   4.654   5.838   1.978
 1444SOL    HW2 5232   4.691   5.692   2.042
 1445SOL     OW 5233   0.478   2.862   1.980
 1445SOL    HW1 5234   0.510   2.930   2.046
 1445SOL    HW2 5235   0.456   2.907   1.894
 1446SOL     OW 5236   5.195   3.046   0.046
 1446SOL    HW1 5237   5.132   3.057   6.992
 1446SOL    HW2 5238   5.169   2.965   0.100
 1447SOL     OW 5239   6.501   0.157   4.908
 1447SOL    HW1 5240   6.478   0.221   4.835
 1447SOL    HW2 5241   6.432   0.085   4.913
 1448SOL     OW 5242   5.984   1.306   0.556
 1448SOL    HW1 5243   5.899   1.257   0.576
 1448SOL    HW2 5244   5.987   1.390   0.610
 1449SOL     OW 5245   5.995   6.542   0.033
 1449SOL    HW1 5246   6.069   6.608   0.043
 1449SOL    HW2 5247   6.033   6.450   0.023
 1450SOL     OW 5248   0.434   1.971   2.163
 1450SOL    HW1 5249   0.515   1.930   2.119
 1450SOL    HW2 5250   0.445   2.070   2.167
 1451SOL     OW 5251   3.212   0.720   2.706
 1451SOL    HW1 5252   3.225   0.647   2.774
 1451SOL    HW2 5253   3.116   0.720   2.677
 1452SOL     OW 5254   5.009   2.010   4.764
 1452SOL    HW1 5255   5.007   2.058   4.852
 1452SOL    HW2 5256   5.092   1.954   4.759
 1453SOL     OW 5257   6.129   3.573   4.948
 1453SOL    HW1 5258   6.058   3.643   4.950
 1453SOL    HW2 5259   6.089   3.485   4.976
 1454SOL     OW 5260   6.259   3.366   2.208
 1454SOL    HW1 5261   6.228   3.321   2.293
 1454SOL    HW2 5262   6.356   3.346   2.193
 1455SOL     OW 5263   1.285   0.457   1.857
 1455SOL    HW1 5264   1.384   0.449   1.858
 1455SOL    HW2 5265   1.259   0.548   1.890
 1456SOL     OW 5266   6.748   6.542   5.084
 1456SOL    HW1 5267   6.816   6.614   5.093
 1456SOL    HW2 5268   6.785   6.456   5.121
 1457SOL     OW 5269   1.737   0.361   1.793
 1457SOL    HW1 5270   1.776   0.330   1.880
 1457SOL    HW2 5271   1.686   0.287   1.751
 1458SOL     OW 5272   5.402   6.474   4.425
 1458SOL    HW1 5273   5.438   6.386   4.457
 1458SOL    HW2 5274   5.473   6.521   4.373
 1459SOL     OW 5275   2.898   4.253   6.651
 1459SOL    HW1 5276   2.866   4.319   6.584
 1459SOL    HW2 5277   2.820   4.215   6.701
 1460SOL     OW 5278   6.629   5.678   5.594
 1460SOL    HW1 5279   6.691   5.711   5.523
 1460SOL    HW2 5280   6.677   5.611   5.652
 1461SOL     OW 5281   6.939   4.544   3.445
 1461SOL    HW1 5282   6.990   4.559   3.360
 1461SOL    HW2 5283   6.927   4.446   3.460
 1462SOL     OW 5284   5.954   1.744   6.455
 1462SOL    HW1 5285   6.020   1.682   6.415
 1462SOL    HW2 5286   5.868   1.739   6.403
 1463SOL     OW 5287   7.006   6.347   6.066
 1463SOL    HW1 5288   6.942   6.275   6.091
 1463SOL    HW2 5289   0.009   6.337   5.970
 1464SOL     OW 5290   6.767   0.480   1.075
 1464SOL    HW1 5291   6.836   0.478   1.147
 1464SOL    HW2 5292   6.807   0.446   0.990
 1465SOL     OW 5293   1.614   0.938   3.252
 1465SOL    HW1 5294   1.645   1.029   3.277
 1465SOL    HW2 5295   1.519   0.942   3.220
 1466SOL     OW 5296   0.745   0.072   3.162
 1466SOL    HW1 5297   0.715   0.000   3.098
 1466SOL    HW2 5298   0.668   0.131   3.184
 1467SOL     OW 5299   1.929   0.028   1.937
 1467SOL    HW1 5300   1.979   0.039   1.851
 1467SOL    HW2 5301   1.953   6.962   1.978
 1468SOL     OW 5302   5.686   5.971   2.936
 1468SOL    HW1 5303   5.702   5.877   2.906
 1468SOL    HW2 5304   5.772   6.022   2.934
 1469SOL     OW 5305   0.491   0.495   3.334
 1469SOL    HW1 5306   0.450   0.483   3.243
 1469SOL    HW2 5307   0.589   0.513   3.324
 1470SOL     OW 5308   0.870   0.579   2.589
 1470SOL    HW1 5309   0.967   0.562   2.572
 1470SOL    HW2 5310   0.859   0.670   2.629
 1471SOL     OW 5311   0.863   0.942   6.959
 1471SOL    HW1 5312   0.928   0.949   6.884
 1471SOL    HW2 5313   0.771   0.930   6.922
 1472SOL     OW 5314   4.179   5.390   5.086
 1472SOL    HW1 5315   4.274   5.362   5.069
 1472SOL    HW2 5316   4.177   5.461   5.156
 1473SOL     OW 5317   5.887   6.291   4.074
 1473SOL    HW1 5318   5.930   6.376   4.105
 1473SOL    HW2 5319   5.830   6.310   3.994
 1474SOL     OW 5320   6.771   5.925   3.513
 1474SOL    HW1 5321   6.755   5.909   3.611
 1474SOL    HW2 5322   6.683   5.922   3.465
 1475SOL     OW 5323   0.197   0.422   1.452
 1475SOL    HW1 5324   0.190   0.507   1.399
 1475SOL    HW2 5325   0.294   0.397   1.463
 1476SOL     OW 5326   1.377   1.268   1.461
 1476SOL    HW1 5327   1.339   1.327   1.533
 1476SOL    HW2 5328   1.466   1.303   1.432
 1477SOL     OW 5329   2.412   0.371   6.533
 1477SOL    HW1 5330   2.497   0.368   6.585
 1477SOL    HW2 5331   2.411   0.453   6.475
 1478SOL     OW 5332   5.378   4.261   0.514
 1478SOL    HW1 5333   5.378   4.206   0.431
 1478SOL    HW2 5334   5.312   4.225   0.579
 1479SOL     OW 5335   1.189   3.851   6.944
 1479SOL    HW1 5336   1.217   3.916   6.873
 1479SOL    HW2 5337   1.249   3.861   0.001
 1480SOL     OW 5338   2.843   0.429   0.222
 1480SOL    HW1 5339   2.830   0.364   0.297
 1480SOL    HW2 5340   2.842   0.522   0.258
 1481SOL     OW 5341   6.255   1.929   4.501
 1481SOL    HW1 5342   6.216   1.913   4.410
 1481SOL    HW2 5343   6.254   1.844   4.553
 1482SOL     OW 5344   5.270   1.653   1.145
 1482SOL    HW1 5345   5.217   1.732   1.115
 1482SOL    HW2 5346   5.364   1.662   1.111
 1483SOL     OW 5347   0.280   2.901   6.131
 1483SOL    HW1 5348   0.368   2.948   6.134
 1483SOL    HW2 5349   0.278   2.837   6.054
 1484SOL     OW 5350   6.257   4.200   4.115
 1484SOL    HW1 5351   6.332   4.182   4.051
 1484SOL    HW2 5352   6.195   4.268   4.075
 1485SOL     OW 5353   4.433   2.115   2.849
 1485SOL    HW1 5354   4.353   2.055   2.849
 1485SOL    HW2 5355   4.411   2.199   2.898
 1486SOL     OW 5356   4.676   2.595   3.109
 1486SOL    HW1 5357   4.688   2.674   3.169
 1486SOL    HW2 5358   4.595   2.543   3.139
 1487SOL     OW 5359   5.666   1.957   6.616
 1487SOL    HW1 5360   5.595   2.012   6.659
 1487SOL    HW2 5361   5.694   1.883   6.679
 1488SOL     OW 5362   5.989   2.128   2.670
 1488SOL    HW1 5363   5.953   2.122   2.577
 1488SOL    HW2 5364   6.026   2.220   2.685
 1489SOL     OW 5365   3.932   4.931   4.826
 1489SOL    HW1 5366   3.973   5.015   4.791
 1489SOL    HW2 5367   3.874   4.952   4.904
 1490SOL     OW 5368   1.328   2.609   1.092
 1490SOL    HW1 5369   1.372   2.628   1.005
 1490SOL    HW2 5370   1.240   2.656   1.097
 1491SOL     OW 5371   6.833   3.537   3.099
 1491SOL    HW1 5372   6.816   3.629   3.133
 1491SOL    HW2 5373   6.838   3.538   2.999
 1492SOL     OW 5374   5.920   1.896   1.670
 1492SOL    HW1 5375   5.905   1.835   1.591
 1492SOL    HW2 5376   6.017   1.920   1.675
 1493SOL     OW 5377   4.965   0.841   4.627
 1493SOL    HW1 5378   5.060   0.835   4.596
 1493SOL    HW2 5379   4.963   0.842   4.727
 1494SOL     OW 5380   4.472   2.560   6.128
 1494SOL    HW1 5381   4.373   2.571   6.137
 1494SOL    HW2 5382   4.493   2.513   6.042
 1495SOL     OW 5383   0.862   3.044   3.306
 1495SOL    HW1 5384   0.908   2.975   3.362
 1495SOL    HW2 5385   0.765   3.046   3.329
 1496SOL     OW 5386   0.720   0.694   2.151
 1496SOL    HW1 5387   0.670   0.699   2.065
 1496SOL    HW2 5388   0.705   0.778   2.203
 1497SOL     OW 5389   0.206   4.355   3.090
 1497SOL    HW1 5390   0.125   4.324   3.139
 1497SOL    HW2 5391   0.256   4.420   3.148
 1498SOL     OW 5392   1.468   4.773   6.601
 1498SOL    HW1 5393   1.470   4.839   6.676
 1498SOL    HW2 5394   1.373   4.747   6.582
 1499SOL     OW 5395   1.084   3.616   5.126
 1499SOL    HW1 5396   1.068   3.532   5.179
 1499SOL    HW2 5397   1.181   3.625   5.106
 1500SOL     OW 5398   5.714   6.518   0.065
 1500SOL    HW1 5399   5.700   6.427   0.026
 1500SOL    HW2 5400   5.812   6.537   0.070
 1501SOL     OW 5401   3.978   0.809   6.403
 1501SOL    HW1 5402   3.890   0.789   6.446
 1501SOL    HW2 5403   4.052   0.773   6.460
 1502SOL     OW 5404   6.163   6.682   1.022
 1502SOL    HW1 5405   6.191   6.714   0.931
 1502SOL    HW2 5406   6.210   6.736   1.092
 1503SOL     OW 5407   2.575   2.359   1.211
 1503SOL    HW1 5408   2.603   2.372   1.116
 1503SOL    HW2 5409   2.475   2.356   1.216
 1504SOL     OW 5410   1.935   0.306   4.988
 1504SOL    HW1 5411   1.899   0.321   4.896
 1504SOL    HW2 5412   2.029   0.341   4.994
 1505SOL     OW 5413   5.562   0.367   6.591
 1505SOL    HW1 5414   5.472   0.406   6.608
 1505SOL    HW2 5415   5.597   0.325   6.675
 1506SOL     OW 5416   1.575   5.415   2.434
 1506SOL    HW1 5417   1.483   5.378   2.444
 1506SOL    HW2 5418   1.587   5.452   2.342
 1507SOL     OW 5419   1.562   2.078   4.965
 1507SOL    HW1 5420   1.547   2.003   5.029
 1507SOL    HW2 5421   1.652   2.118   4.981
 1508SOL     OW 5422   5.428   0.319   0.924
 1508SOL    HW1 5423   5.383   0.368   0.999
 1508SOL    HW2 5424   5.404   0.222   0.929
 1509SOL     OW 5425   3.978   2.508   6.093
 1509SOL    HW1 5426   3.911   2.550   6.033
 1509SOL    HW2 5427   3.960   2.535   6.188
 1510SOL     OW 5428   6.015   1.950   3.719
 1510SOL    HW1 5429   6.021   1.861   3.764
 1510SOL    HW2 5430   5.990   1.937   3.623
 1511SOL     OW 5431   2.095   2.766   0.291
 1511SOL    HW1 5432   2.026   2.694   0.302
 1511SOL    HW2 5433   2.052   2.848   0.255
 1512SOL     OW 5434   0.122   6.652   1.988
 1512SOL    HW1 5435   0.033   6.615   2.017
 1512SOL    HW2 5436   0.107   6.731   1.928
 1513SOL     OW 5437   4.618   0.301   3.725
 1513SOL    HW1 5438   4.619   0.387   3.776
 1513SOL    HW2 5439   4.572   0.230   3.778
 1514SOL     OW 5440   5.566   1.956   4.745
 1514SOL    HW1 5441   5.616   1.958   4.831
 1514SOL    HW2 5442   5.512   2.040   4.736
 1515SOL     OW 5443   6.797   3.312   6.155
 1515SOL    HW1 5444   6.830   3.303   6.061
 1515SOL    HW2 5445   6.870   3.287   6.219
 1516SOL     OW 5446   0.717   0.431   0.735
 1516SOL    HW1 5447   0.790   0.372   0.702
 1516SOL    HW2 5448   0.629   0.396   0.703
 1517SOL     OW 5449   4.793   5.748   3.645
 1517SOL    HW1 5450   4.746   5.836   3.637
 1517SOL    HW2 5451   4.888   5.757   3.617
 1518SOL     OW 5452   6.816   2.974   0.223
 1518SOL    HW1 5453   6.813   2.982   0.323
 1518SOL    HW2 5454   6.872   2.895   0.198
 1519SOL     OW 5455   6.923   4.828   2.256
 1519SOL    HW1 5456   6.959   4.911   2.213
 1519SOL    HW2 5457   6.925   4.753   2.190
 1520SOL     OW 5458   1.597   3.235   2.324
 1520SOL    HW1 5459   1.532   3.222   2.399
 1520SOL    HW2 5460   1.665   3.161   2.326
 1521SOL     OW 5461   1.974   3.527   6.706
 1521SOL    HW1 5462   1.897   3.529   6.642
 1521SOL    HW2 5463   1.994   3.433   6.731
 1522SOL     OW 5464   6.871   1.752   5.551
 1522SOL    HW1 5465   6.855   1.826   5.484
 1522SOL    HW2 5466   6.786   1.702   5.565
 1523SOL     OW 5467   4.997   4.033   6.995
 1523SOL    HW1 5468   4.907   4.040   6.950
 1523SOL    HW2 5469   5.069   4.045   6.927
 1524SOL     OW 5470   1.086   1.886   1.704
 1524SOL    HW1 5471   1.104   1.788   1.713
 1524SOL    HW2 5472   1.010   1.900   1.641
 1525SOL     OW 5473   5.127   2.933   6.311
 1525SOL    HW1 5474   5.047   2.967   6.263
 1525SOL    HW2 5475   5.210   2.972   6.271
 1526SOL     OW 5476   1.200   1.506   0.831
 1526SOL    HW1 5477   1.104   1.531   0.849
 1526SOL    HW2 5478   1.203   1.416   0.786
 1527SOL     OW 5479   3.685   0.950   4.806
 1527SOL    HW1 5480   3.695   1.035   4.753
 1527SOL    HW2 5481   3.590   0.943   4.839
 1528SOL     OW 5482   5.336   5.957   2.643
 1528SOL    HW1 5483   5.426   5.977   2.682
 1528SOL    HW2 5484   5.311   5.862   2.663
 1529SOL     OW 5485   3.814   1.346   6.718
 1529SOL    HW1 5486   3.901   1.302   6.695
 1529SOL    HW2 5487   3.751   1.278   6.755
 1530SOL     OW 5488   3.589   0.493   1.119
 1530SOL    HW1 5489   3.549   0.584   1.105
 1530SOL    HW2 5490   3.667   0.501   1.181
 1531SOL     OW 5491   6.058   1.205   5.043
 1531SOL    HW1 5492   6.116   1.132   5.081
 1531SOL    HW2 5493   6.077   1.216   4.946
 1532SOL     OW 5494   2.364   2.341   4.750
 1532SOL    HW1 5495   2.295   2.303   4.689
 1532SOL    HW2 5496   2.327   2.420   4.799
 1533SOL     OW 5497   6.985   3.388   6.399
 1533SOL    HW1 5498   6.945   3.335   6.474
 1533SOL    HW2 5499   6.937   3.476   6.392
 1534SOL     OW 5500   1.675   4.979   0.155
 1534SOL    HW1 5501   1.635   5.005   0.067
 1534SOL    HW2 5502   1.762   5.027   0.167
 1535SOL     OW 5503   5.649   5.900   4.450
 1535SOL    HW1 5504   5.583   5.964   4.490
 1535SOL    HW2 5505   5.600   5.830   4.398
 1536SOL     OW 5506   3.632   4.870   5.220
 1536SOL    HW1 5507   3.609   4.960   5.185
 1536SOL    HW2 5508   3.555   4.808   5.205
 1537SOL     OW 5509   3.992   6.075   3.256
 1537SOL    HW1 5510   4.087   6.048   3.240
 1537SOL    HW2 5511   3.972   6.157   3.202
 1538SOL     OW 5512   3.288   5.740   5.379
 1538SOL    HW1 5513   3.246   5.650   5.363
 1538SOL    HW2 5514   3.217   5.806   5.403
 1539SOL     OW 5515   3.979   4.241   1.507
 1539SOL    HW1 5516   3.952   4.332   1.538
 1539SOL    HW2 5517   3.903   4.199   1.456
 1540SOL     OW 5518   0.645   6.897   5.387
 1540SOL    HW1 5519   0.660   6.852   5.475
 1540SOL    HW2 5520   0.549   6.924   5.379
 1541SOL     OW 5521   3.351   2.465   1.446
 1541SOL    HW1 5522   3.261   2.426   1.426
 1541SOL    HW2 5523   3.384   2.428   1.533
 1542SOL     OW 5524   6.433   5.856   1.534
 1542SOL    HW1 5525   6.443   5.929   1.601
 1542SOL    HW2 5526   6.506   5.789   1.547
 1543SOL     OW 5527   3.054   3.210   4.199
 1543SOL    HW1 5528   2.990   3.279   4.232
 1543SOL    HW2 5529   3.078   3.148   4.274
 1544SOL     OW 5530   3.319   4.011   2.443
 1544SOL    HW1 5531   3.387   4.071   2.485
 1544SOL    HW2 5532   3.290   4.049   2.355
 1545SOL     OW 5533   6.037   1.248   5.390
 1545SOL    HW1 5534   5.983   1.270   5.309
 1545SOL    HW2 5535   5.979   1.256   5.472
 1546SOL     OW 5536   4.870   6.952   6.015
 1546SOL    HW1 5537   4.926   6.999   6.083
 1546SOL    HW2 5538   4.926   6.884   5.967
 1547SOL     OW 5539   2.193   3.836   2.242
 1547SOL    HW1 5540   2.181   3.797   2.333
 1547SOL    HW2 5541   2.276   3.799   2.200
 1548SOL     OW 5542   4.395   3.822   5.566
 1548SOL    HW1 5543   4.306   3.800   5.525
 1548SOL    HW2 5544   4.468   3.801   5.501
 1549SOL     OW 5545   5.927   0.883   2.085
 1549SOL    HW1 5546   5.987   0.956   2.053
 1549SOL    HW2 5547   5.839   0.890   2.038
 1550SOL     OW 5548   2.855   6.658   5.884
 1550SOL    HW1 5549   2.877   6.657   5.982
 1550SOL    HW2 5550   2.920   6.602   5.834
 1551SOL     OW 5551   1.637   3.439   0.772
 1551SOL    HW1 5552   1.696   3.497   0.716
 1551SOL    HW2 5553   1.600   3.365   0.716
 1552SOL     OW 5554   0.744   6.945   1.236
 1552SOL    HW1 5555   0.660   6.910   1.196
 1552SOL    HW2 5556   0.808   6.870   1.252
 1553SOL     OW 5557   6.652   2.280   6.993
 1553SOL    HW1 5558   6.641   2.257   0.068
 1553SOL    HW2 5559   6.567   2.320   6.959
 1554SOL     OW 5560   3.618   2.035   2.738
 1554SOL    HW1 5561   3.699   2.090   2.757
 1554SOL    HW2 5562   3.609   2.022   2.639
 1555SOL     OW 5563   4.508   2.960   5.934
 1555SOL    HW1 5564   4.484   2.892   5.865
 1555SOL    HW2 5565   4.556   3.036   5.890
 1556SOL     OW 5566   4.457   1.124   0.226
 1556SOL    HW1 5567   4.497   1.187   0.159
 1556SOL    HW2 5568   4.503   1.036   0.220
 1557SOL     OW 5569   2.857   1.791   0.421
 1557SOL    HW1 5570   2.769   1.832   0.446
 1557SOL    HW2 5571   2.892   1.834   0.338
 1558SOL     OW 5572   5.963   1.828   4.418
 1558SOL    HW1 5573   5.871   1.861   4.395
 1558SOL    HW2 5574   6.026   1.854   4.346
 1559SOL     OW 5575   0.495   2.747   1.253
 1559SOL    HW1 5576   0.534   2.762   1.344
 1559SOL    HW2 5577   0.557   2.783   1.184
 1560SOL     OW 5578   3.085   1.283   6.801
 1560SOL    HW1 5579   3.038   1.342   6.867
 1560SOL    HW2 5580   3.135   1.212   6.850
 1561SOL     OW 5581   4.782   5.039   3.698
 1561SOL    HW1 5582   4.794   5.126   3.746
 1561SOL    HW2 5583   4.755   5.057   3.603
 1562SOL     OW 5584   3.661   6.367   2.406
 1562SOL    HW1 5585   3.672   6.282   2.354
 1562SOL    HW2 5586   3.566   6.376   2.436
 1563SOL     OW 5587   2.292   2.137   5.916
 1563SOL    HW1 5588   2.303   2.201   5.841
 1563SOL    HW2 5589   2.381   2.099   5.941
 1564SOL     OW 5590   1.609   2.196   2.423
 1564SOL    HW1 5591   1.659   2.257   2.485
 1564SOL    HW2 5592   1.522   2.170   2.465
 1565SOL     OW 5593   4.407   5.237   4.595
 1565SOL    HW1 5594   4.323   5.184   4.595
 1565SOL    HW2 5595   4.396   5.318   4.537
 1566SOL     OW 5596   6.223   5.176   4.204
 1566SOL    HW1 5597   6.286   5.118   4.152
 1566SOL    HW2 5598   6.262   5.194   4.295
 1567SOL     OW 5599   6.340   5.151   6.678
 1567SOL    HW1 5600   6.317   5.095   6.598
 1567SOL    HW2 5601   6.346   5.092   6.759
 1568SOL     OW 5602   2.779   6.343   2.924
 1568SOL    HW1 5603   2.835   6.421   2.896
 1568SOL    HW2 5604   2.828   6.289   2.992
 1569SOL     OW 5605   3.573   6.818   3.299
 1569SOL    HW1 5606   3.646   6.762   3.340
 1569SOL    HW2 5607   3.578   6.911   3.336
 1570SOL     OW 5608   1.905   6.768   6.577
 1570SOL    HW1 5609   1.972   6.797   6.509
 1570SOL    HW2 5610   1.832   6.836   6.584
 1571SOL     OW 5611   0.968   2.467   2.864
 1571SOL    HW1 5612   0.988   2.560   2.897
 1571SOL    HW2 5613   1.032   2.403   2.904
 1572SOL     OW 5614   2.028   5.267   2.612
 1572SOL    HW1 5615   1.936   5.307   2.607
 1572SOL    HW2 5616   2.041   5.225   2.702
 1573SOL     OW 5617   5.447   5.114   2.479
 1573SOL    HW1 5618   5.546   5.113   2.495
 1573SOL    HW2 5619   5.399   5.104   2.566
 1574SOL     OW 5620   6.558   2.906   2.462
 1574SOL    HW1 5621   6.506   2.841   2.407
 1574SOL    HW2 5622   6.543   2.999   2.428
 1575SOL     OW 5623   2.467   0.648   1.444
 1575SOL    HW1 5624   2.554   0.623   1.487
 1575SOL    HW2 5625   2.485   0.691   1.356
 1576SOL     OW 5626   1.009   6.527   3.029
 1576SOL    HW1 5627   0.999   6.436   2.988
 1576SOL    HW2 5628   0.927   6.581   3.012
 1577SOL     OW 5629   2.115   0.735   6.293
 1577SOL    HW1 5630   2.125   0.834   6.304
 1577SOL    HW2 5631   2.088   0.715   6.199
 1578SOL     OW 5632   4.589   1.271   6.068
 1578SOL    HW1 5633   4.664   1.245   6.129
 1578SOL    HW2 5634   4.533   1.341   6.113
 1579SOL     OW 5635   6.645   2.114   1.172
 1579SOL    HW1 5636   6.606   2.116   1.264
 1579SOL    HW2 5637   6.680   2.204   1.149
 1580SOL     OW 5638   3.305   4.084   3.447
 1580SOL    HW1 5639   3.387   4.136   3.469
 1580SOL    HW2 5640   3.330   3.990   3.425
 1581SOL     OW 5641   6.908   4.098   5.505
 1581SOL    HW1 5642   6.869   4.149   5.428
 1581SOL    HW2 5643   6.936   4.007   5.474
 1582SOL     OW 5644   3.321   6.517   4.835
 1582SOL    HW1 5645   3.282   6.524   4.743
 1582SOL    HW2 5646   3.419   6.502   4.829
 1583SOL     OW 5647   0.855   5.924   3.894
 1583SOL    HW1 5648   0.835   5.984   3.971
 1583SOL    HW2 5649   0.944   5.881   3.907
 1584SOL     OW 5650   1.070   4.990   6.569
 1584SOL    HW1 5651   0.977   4.965   6.598
 1584SOL    HW2 5652   1.066   5.069   6.508
 1585SOL     OW 5653   4.410   1.626   2.773
 1585SOL    HW1 5654   4.444   1.623   2.867
 1585SOL    HW2 5655   4.478   1.583   2.712
 1586SOL     OW 5656   3.506   4.899   3.129
 1586SOL    HW1 5657   3.444   4.843   3.075
 1586SOL    HW2 5658   3.600   4.885   3.097
 1587SOL     OW 5659   2.072   4.986   5.055
 1587SOL    HW1 5660   2.020   4.937   5.124
 1587SOL    HW2 5661   2.047   5.082   5.056
 1588SOL     OW 5662   4.652   1.020   2.538
 1588SOL    HW1 5663   4.569   0.967   2.521
 1588SOL    HW2 5664   4.729   0.978   2.488
 1589SOL     OW 5665   0.190   3.431   2.293
 1589SOL    HW1 5666   0.176   3.338   2.329
 1589SOL    HW2 5667   0.205   3.494   2.369
 1590SOL     OW 5668   5.170   0.682   3.846
 1590SOL    HW1 5669   5.135   0.729   3.928
 1590SOL    HW2 5670   5.178   0.584   3.866
 1591SOL     OW 5671   6.809   6.109   1.111
 1591SOL    HW1 5672   6.825   6.047   1.033
 1591SOL    HW2 5673   6.896   6.141   1.146
 1592SOL     OW 5674   1.888   3.705   0.077
 1592SOL    HW1 5675   1.854   3.621   0.117
 1592SOL    HW2 5676   1.961   3.684   0.011
 1593SOL     OW 5677   0.846   6.980   5.992
 1593SOL    HW1 5678   0.805   7.018   5.909
 1593SOL    HW2 5679   0.918   6.916   5.967
 1594SOL     OW 5680   0.248   5.945   2.116
 1594SOL    HW1 5681   0.226   6.018   2.181
 1594SOL    HW2 5682   0.214   5.970   2.025
 1595SOL     OW 5683   1.095   4.559   0.452
 1595SOL    HW1 5684   1.045   4.607   0.524
 1595SOL    HW2 5685   1.166   4.503   0.492
 1596SOL     OW 5686   6.606   3.213   2.489
 1596SOL    HW1 5687   6.688   3.230   2.435
 1596SOL    HW2 5688   6.632   3.171   2.576
 1597SOL     OW 5689   1.752   6.337   1.003
 1597SOL    HW1 5690   1.803   6.306   0.923
 1597SOL    HW2 5691   1.678   6.272   1.023
 1598SOL     OW 5692   1.276   4.904   6.338
 1598SOL    HW1 5693   1.249   4.853   6.420
 1598SOL    HW2 5694   1.263   5.002   6.354
 1599SOL     OW 5695   5.277   4.984   5.111
 1599SOL    HW1 5696   5.308   4.998   5.205
 1599SOL    HW2 5697   5.354   4.998   5.048
 1600SOL     OW 5698   3.233   1.464   2.442
 1600SOL    HW1 5699   3.295   1.467   2.520
 1600SOL    HW2 5700   3.164   1.536   2.452
 1601SOL     OW 5701   0.630   6.847   4.662
 1601SOL    HW1 5702   0.584   6.762   4.636
 1601SOL    HW2 5703   0.587   6.925   4.617
 1602SOL     OW 5704   4.343   5.458   4.413
 1602SOL    HW1 5705   4.325   5.550   4.448
 1602SOL    HW2 5706   4.306   5.450   4.321
 1603SOL     OW 5707   3.243   5.350   3.567
 1603SOL    HW1 5708   3.278   5.260   3.540
 1603SOL    HW2 5709   3.306   5.421   3.537
 1604SOL     OW 5710   4.123   4.864   1.217
 1604SOL    HW1 5711   4.069   4.920   1.279
 1604SOL    HW2 5712   4.062   4.812   1.157
 1605SOL     OW 5713   6.726   5.317   1.801
 1605SOL    HW1 5714   6.692   5.227   1.827
 1605SOL    HW2 5715   6.767   5.361   1.880
 1606SOL     OW 5716   3.848   5.454   5.465
 1606SOL    HW1 5717   3.785   5.517   5.508
 1606SOL    HW2 5718   3.825   5.445   5.368
 1607SOL     OW 5719   4.402   0.645   0.690
 1607SOL    HW1 5720   4.466   0.692   0.629
 1607SOL    HW2 5721   4.399   0.694   0.777
 1608SOL     OW 5722   6.870   0.545   2.761
 1608SOL    HW1 5723   6.946   0.535   2.697
 1608SOL    HW2 5724   6.890   0.496   2.845
 1609SOL     OW 5725   3.363   0.009   0.636
 1609SOL    HW1 5726   3.341   6.945   0.590
 1609SOL    HW2 5727   3.302   0.021   0.714
 1610SOL     OW 5728   4.810   5.870   0.764
 1610SOL    HW1 5729   4.838   5.774   0.761
 1610SOL    HW2 5730   4.787   5.901   0.672
 1611SOL     OW 5731   1.936   3.761   0.846
 1611SOL    HW1 5732   2.007   3.800   0.788
 1611SOL    HW2 5733   1.889   3.688   0.797
 1612SOL     OW 5734   3.900   6.874   1.509
 1612SOL    HW1 5735   3.865   6.886   1.416
 1612SOL    HW2 5736   3.999   6.889   1.511
 1613SOL     OW 5737   1.136   5.882   1.831
 1613SOL    HW1 5738   1.127   5.950   1.759
 1613SOL    HW2 5739   1.055   5.884   1.889
 1614SOL     OW 5740   5.757   1.762   6.271
 1614SOL    HW1 5741   5.722   1.842   6.222
 1614SOL    HW2 5742   5.747   1.681   6.213
 1615SOL     OW 5743   6.693   6.048   0.076
 1615SOL    HW1 5744   6.698   5.954   0.109
 1615SOL    HW2 5745   6.605   6.063   0.031
 1616SOL     OW 5746   4.256   0.107   3.761
 1616SOL    HW1 5747   4.280   0.180   3.825
 1616SOL    HW2 5748   4.209   0.146   3.682
 1617SOL     OW 5749   5.296   6.286   3.058
 1617SOL    HW1 5750   5.315   6.380   3.028
 1617SOL    HW2 5751   5.335   6.272   3.149
 1618SOL     OW 5752   1.626   6.473   3.278
 1618SOL    HW1 5753   1.594   6.441   3.189
 1618SOL    HW2 5754   1.668   6.564   3.268
 1619SOL     OW 5755   0.312   4.853   6.955
 1619SOL    HW1 5756   0.266   4.941   6.965
 1619SOL    HW2 5757   0.371   4.856   6.874
 1620SOL     OW 5758   3.722   4.359   1.689
 1620SOL    HW1 5759   3.685   4.432   1.746
 1620SOL    HW2 5760   3.718   4.386   1.593
 1621SOL     OW 5761   5.712   0.112   1.200
 1621SOL    HW1 5762   5.681   0.128   1.294
 1621SOL    HW2 5763   5.741   0.017   1.191
 1622SOL     OW 5764   0.954   3.558   5.654
 1622SOL    HW1 5765   0.864   3.594   5.678
 1622SOL    HW2 5766   1.021   3.633   5.654
 1623SOL     OW 5767   0.343   2.444   5.017
 1623SOL    HW1 5768   0.342   2.370   5.085
 1623SOL    HW2 5769   0.263   2.502   5.030
 1624SOL     OW 5770   4.127   1.216   5.658
 1624SOL    HW1 5771   4.175   1.183   5.576
 1624SOL    HW2 5772   4.195   1.239   5.728
 1625SOL     OW 5773   1.592   5.078   6.915
 1625SOL    HW1 5774   1.664   5.110   6.854
 1625SOL    HW2 5775   1.534   5.013   6.866
 1626SOL     OW 5776   3.176   1.190   1.101
 1626SOL    HW1 5777   3.172   1.119   1.172
 1626SOL    HW2 5778   3.263   1.182   1.051
 1627SOL     OW 5779   5.668   2.772   3.465
 1627SOL    HW1 5780   5.609   2.691   3.465
 1627SOL    HW2 5781   5.612   2.855   3.466
 1628SOL     OW 5782   4.331   5.329   0.091
 1628SOL    HW1 5783   4.393   5.272   0.145
 1628SOL    HW2 5784   4.382   5.407   0.054
 1629SOL     OW 5785   2.893   1.153   3.998
 1629SOL    HW1 5786   2.861   1.067   4.036
 1629SOL    HW2 5787   2.979   1.138   3.949
 1630SOL     OW 5788   0.238   4.036   5.556
 1630SOL    HW1 5789   0.276   3.961   5.610
 1630SOL    HW2 5790   0.153   4.006   5.512
 1631SOL     OW 5791   0.446   3.221   0.628
 1631SOL    HW1 5792   0.501   3.224   0.712
 1631SOL    HW2 5793   0.349   3.224   0.652
 1632SOL     OW 5794   4.940   3.490   2.643
 1632SOL    HW1 5795   4.870   3.529   2.583
 1632SOL    HW2 5796   5.001   3.563   2.676
 1633SOL     OW 5797   4.852   3.872   4.679
 1633SOL    HW1 5798   4.868   3.898   4.583
 1633SOL    HW2 5799   4.773   3.810   4.684
 1634SOL     OW 5800   4.834   0.231   4.155
 1634SOL    HW1 5801   4.873   0.163   4.216
 1634SOL    HW2 5802   4.886   0.316   4.163
 1635SOL     OW 5803   0.759   4.985   6.646
 1635SOL    HW1 5804   0.743   4.924   6.568
 1635SOL    HW2 5805   0.673   4.997   6.696
 1636SOL     OW 5806   3.173   5.159   1.612
 1636SOL    HW1 5807   3.198   5.201   1.699
 1636SOL    HW2 5808   3.160   5.060   1.625
 1637SOL     OW 5809   0.082   6.745   3.906
 1637SOL    HW1 5810   0.045   6.828   3.948
 1637SOL    HW2 5811   0.009   6.677   3.899
 1638SOL     OW 5812   0.640   3.165   2.358
 1638SOL    HW1 5813   0.627   3.104   2.435
 1638SOL    HW2 5814   0.582   3.246   2.368
 1639SOL     OW 5815   5.500   5.169   1.716
 1639SOL    HW1 5816   5.444   5.138   1.639
 1639SOL    HW2 5817   5.464   5.131   1.801
 1640SOL     OW 5818   6.104   0.463   0.343
 1640SOL    HW1 5819   6.070   0.456   0.249
 1640SOL    HW2 5820   6.094   0.557   0.375
 1641SOL     OW 5821   6.376   1.989   2.955
 1641SOL    HW1 5822   6.382   2.061   3.024
 1641SOL    HW2 5823   6.467   1.969   2.920
 1642SOL     OW 5824   6.532   3.010   6.891
 1642SOL    HW1 5825   6.459   3.076   6.869
 1642SOL    HW2 5826   6.504   2.955   6.970
 1643SOL     OW 5827   2.999   4.792   3.324
 1643SOL    HW1 5828   3.051   4.799   3.410
 1643SOL    HW2 5829   2.905   4.764   3.344
 1644SOL     OW 5830   5.262   3.882   6.843
 1644SOL    HW1 5831   5.218   3.822   6.910
 1644SOL    HW2 5832   5.262   3.839   6.753
 1645SOL     OW 5833   2.930   6.062   5.821
 1645SOL    HW1 5834   2.834   6.051   5.795
 1645SOL    HW2 5835   2.940   6.147   5.873
 1646SOL     OW 5836   2.429   6.800   0.520
 1646SOL    HW1 5837   2.357   6.825   0.454
 1646SOL    HW2 5838   2.396   6.726   0.578
 1647SOL     OW 5839   6.539   2.198   4.219
 1647SOL    HW1 5840   6.452   2.247   4.226
 1647SOL    HW2 5841   6.536   2.116   4.276
 1648SOL     OW 5842   5.660   6.109   0.104
 1648SOL    HW1 5843   5.582   6.060   0.143
 1648SOL    HW2 5844   5.735   6.045   0.088
 1649SOL     OW 5845   3.437   1.788   4.791
 1649SOL    HW1 5846   3.338   1.804   4.798
 1649SOL    HW2 5847   3.484   1.875   4.779
 1650SOL     OW 5848   0.562   5.316   4.580
 1650SOL    HW1 5849   0.525   5.311   4.673
 1650SOL    HW2 5850   0.652   5.274   4.578
 1651SOL     OW 5851   0.504   2.220   1.920
 1651SOL    HW1 5852   0.412   2.213   1.960
 1651SOL    HW2 5853   0.530   2.132   1.882
 1652SOL     OW 5854   1.471   3.450   2.602
 1652SOL    HW1 5855   1.442   3.473   2.509
 1652SOL    HW2 5856   1.439   3.521   2.665
 1653SOL     OW 5857   0.257   6.360   0.857
 1653SOL    HW1 5858   0.251   6.390   0.762
 1653SOL    HW2 5859   0.182   6.400   0.910
 1654SOL     OW 5860   6.677   3.363   1.359
 1654SOL    HW1 5861   6.648   3.331   1.449
 1654SOL    HW2 5862   6.617   3.325   1.289
 1655SOL     OW 5863   0.338   1.876   4.191
 1655SOL    HW1 5864   0.360   1.798   4.133
 1655SOL    HW2 5865   0.258   1.925   4.154
 1656SOL     OW 5866   1.964   5.533   3.262
 1656SOL    HW1 5867   2.010   5.618   3.234
 1656SOL    HW2 5868   2.013   5.455   3.223
 1657SOL     OW 5869   5.817   0.581   4.545
 1657SOL    HW1 5870   5.823   0.507   4.612
 1657SOL    HW2 5871   5.806   0.668   4.591
 1658SOL     OW 5872   6.030   0.862   1.101
 1658SOL    HW1 5873   6.070   0.788   1.155
 1658SOL    HW2 5874   6.001   0.936   1.162
 1659SOL     OW 5875   3.533   0.312   0.142
 1659SOL    HW1 5876   3.571   0.219   0.133
 1659SOL    HW2 5877   3.448   0.309   0.195
 1660SOL     OW 5878   1.532   6.127   2.153
 1660SOL    HW1 5879   1.473   6.099   2.229
 1660SOL    HW2 5880   1.578   6.213   2.176
 1661SOL     OW 5881   1.812   6.035   1.544
 1661SOL    HW1 5882   1.804   6.128   1.578
 1661SOL    HW2 5883   1.726   6.007   1.501
 1662SOL     OW 5884   0.091   0.844   4.165
 1662SOL    HW1 5885   0.178   0.878   4.128
 1662SOL    HW2 5886   0.101   0.831   4.264
 1663SOL     OW 5887   4.675   5.297   3.646
 1663SOL    HW1 5888   4.600   5.303   3.580
 1663SOL    HW2 5889   4.686   5.384   3.693
 1664SOL     OW 5890   2.193   5.917   5.419
 1664SOL    HW1 5891   2.161   5.823   5.428
 1664SOL    HW2 5892   2.134   5.966   5.354
 1665SOL     OW 5893   6.612   3.798   1.727
 1665SOL    HW1 5894   6.560   3.726   1.682
 1665SOL    HW2 5895   6.624   3.775   1.824
 1666SOL     OW 5896   5.975   0.492   0.043
 1666SOL    HW1 5897   5.967   0.489   6.965
 1666SOL    HW2 5898   5.966   0.586   0.074
 1667SOL     OW 5899   6.618   5.744   1.285
 1667SOL    HW1 5900   6.624   5.713   1.380
 1667SOL    HW2 5901   6.644   5.840   1.279
 1668SOL     OW 5902   4.428   4.821   3.685
 1668SOL    HW1 5903   4.382   4.764   3.617
 1668SOL    HW2 5904   4.361   4.859   3.748
 1669SOL     OW 5905   6.549   4.635   5.849
 1669SOL    HW1 5906   6.617   4.669   5.784
 1669SOL    HW2 5907   6.590   4.563   5.905
 1670SOL     OW 5908   0.311   4.710   5.443
 1670SOL    HW1 5909   0.391   4.703   5.384
 1670SOL    HW2 5910   0.283   4.618   5.472
 1671SOL     OW 5911   5.766   1.717   3.528
 1671SOL    HW1 5912   5.724   1.627   3.516
 1671SOL    HW2 5913   5.865   1.710   3.518
 1672SOL     OW 5914   2.654   3.515   0.674
 1672SOL    HW1 5915   2.622   3.428   0.638
 1672SOL    HW2 5916   2.740   3.501   0.725
 1673SOL     OW 5917   1.152   2.321   4.634
 1673SOL    HW1 5918   1.126   2.271   4.717
 1673SOL    HW2 5919   1.251   2.331   4.630
 1674SOL     OW 5920   0.191   3.144   1.858
 1674SOL    HW1 5921   0.169   3.194   1.942
 1674SOL    HW2 5922   0.108   3.101   1.822
 1675SOL     OW 5923   4.568   0.523   0.067
 1675SOL    HW1 5924   4.522   0.458   0.128
 1675SOL    HW2 5925   4.667   0.511   0.075
 1676SOL     OW 5926   2.330   2.782   2.125
 1676SOL    HW1 5927   2.287   2.699   2.161
 1676SOL    HW2 5928   2.272   2.861   2.146
 1677SOL     OW 5929   4.011   3.903   3.783
 1677SOL    HW1 5930   4.062   3.847   3.847
 1677SOL    HW2 5931   3.947   3.961   3.833
 1678SOL     OW 5932   0.254   5.244   2.105
 1678SOL    HW1 5933   0.221   5.333   2.074
 1678SOL    HW2 5934   0.177   5.190   2.140
 1679SOL     OW 5935   1.901   1.534   4.769
 1679SOL    HW1 5936   1.891   1.606   4.700
 1679SOL    HW2 5937   1.811   1.495   4.789
 1680SOL     OW 5938   5.982   3.795   5.616
 1680SOL    HW1 5939   6.075   3.827   5.637
 1680SOL    HW2 5940   5.984   3.738   5.534
 1681SOL     OW 5941   1.195   5.688   6.241
 1681SOL    HW1 5942   1.288   5.655   6.228
 1681SOL    HW2 5943   1.170   5.749   6.165
 1682SOL     OW 5944   1.439   0.482   5.374
 1682SOL    HW1 5945   1.537   0.500   5.362
 1682SOL    HW2 5946   1.426   0.388   5.404
 1683SOL     OW 5947   5.614   5.221   2.791
 1683SOL    HW1 5948   5.645   5.189   2.702
 1683SOL    HW2 5949   5.692   5.256   2.843
 1684SOL     OW 5950   6.966   5.763   2.038
 1684SOL    HW1 5951   6.918   5.701   1.976
 1684SOL    HW2 5952   0.035   5.781   2.001
 1685SOL     OW 5953   1.840   1.458   5.915
 1685SOL    HW1 5954   1.792   1.534   5.959
 1685SOL    HW2 5955   1.864   1.390   5.984
 1686SOL     OW 5956   2.406   6.178   4.210
 1686SOL    HW1 5957   2.349   6.105   4.247
 1686SOL    HW2 5958   2.471   6.208   4.280
 1687SOL     OW 5959   1.430   2.614   1.900
 1687SOL    HW1 5960   1.366   2.588   1.972
 1687SOL    HW2 5961   1.516   2.645   1.941
 1688SOL     OW 5962   1.878   1.478   3.669
 1688SOL    HW1 5963   1.816   1.458   3.592
 1688SOL    HW2 5964   1.875   1.575   3.690
 1689SOL     OW 5965   6.777   0.820   2.889
 1689SOL    HW1 5966   6.856   0.828   2.950
 1689SOL    HW2 5967   6.786   0.736   2.835
 1690SOL     OW 5968   1.357   2.703   4.809
 1690SOL    HW1 5969   1.414   2.630   4.771
 1690SOL    HW2 5970   1.282   2.724   4.747
 1691SOL     OW 5971   5.906   3.169   3.984
 1691SOL    HW1 5972   5.988   3.202   4.032
 1691SOL    HW2 5973   5.924   3.077   3.947
 1692SOL     OW 5974   4.227   6.175   1.471
 1692SOL    HW1 5975   4.311   6.122   1.459
 1692SOL    HW2 5976   4.164   6.126   1.531
 1693SOL     OW 5977   6.637   2.061   3.201
 1693SOL    HW1 5978   6.565   2.124   3.170
 1693SOL    HW2 5979   6.720   2.077   3.149
 1694SOL     OW 5980   6.699   1.554   3.771
 1694SOL    HW1 5981   6.618   1.532   3.717
 1694SOL    HW2 5982   6.779   1.510   3.732
 1695SOL     OW 5983   3.397   0.562   6.300
 1695SOL    HW1 5984   3.335   0.514   6.362
 1695SOL    HW2 5985   3.449   0.496   6.247
 1696SOL     OW 5986   3.299   6.090   1.175
 1696SOL    HW1 5987   3.398   6.081   1.163
 1696SOL    HW2 5988   3.275   6.079   1.271
 1697SOL     OW 5989   6.789   1.412   0.701
 1697SOL    HW1 5990   6.849   1.363   0.764
 1697SOL    HW2 5991   6.695   1.378   0.711
 1698SOL     OW 5992   3.787   0.292   1.393
 1698SOL    HW1 5993   3.861   0.311   1.329
 1698SOL    HW2 5994   3.771   0.194   1.399
 1699SOL     OW 5995   1.769   1.687   6.076
 1699SOL    HW1 5996   1.700   1.673   6.146
 1699SOL    HW2 5997   1.727   1.729   5.995
 1700SOL     OW 5998   6.633   4.448   2.932
 1700SOL    HW1 5999   6.639   4.472   2.835
 1700SOL    HW2 6000   6.606   4.352   2.941
 1701SOL     OW 6001   5.749   5.993   5.631
 1701SOL    HW1 6002   5.694   6.014   5.712
 1701SOL    HW2 6003   5.716   6.049   5.554
 1702SOL     OW 6004   6.772   1.438   1.144
 1702SOL    HW1 6005   6.814   1.360   1.099
 1702SOL    HW2 6006   6.808   1.523   1.105
 1703SOL     OW 6007   3.539   1.207   6.738
 1703SOL    HW1 6008   3.544   1.255   6.651
 1703SOL    HW2 6009   3.497   1.118   6.725
 1704SOL     OW 6010   0.996   2.553   0.202
 1704SOL    HW1 6011   1.001   2.542   0.301
 1704SOL    HW2 6012   0.935   2.629   0.179
 1705SOL     OW 6013   3.409   2.392   1.700
 1705SOL    HW1 6014   3.369   2.305   1.728
 1705SOL    HW2 6015   3.485   2.415   1.761
 1706SOL     OW 6016   4.267   1.841   2.022
 1706SOL    HW1 6017   4.299   1.936   2.022
 1706SOL    HW2 6018   4.212   1.824   1.940
 1707SOL     OW 6019   4.712   2.740   2.671
 1707SOL    HW1 6020   4.721   2.777   2.579
 1707SOL    HW2 6021   4.732   2.812   2.738
 1708SOL     OW 6022   4.373   5.595   1.749
 1708SOL    HW1 6023   4.455   5.545   1.776
 1708SOL    HW2 6024   4.375   5.611   1.650
 1709SOL     OW 6025   3.644   6.535   2.802
 1709SOL    HW1 6026   3.548   6.517   2.823
 1709SOL    HW2 6027   3.657   6.534   2.702
 1710SOL     OW 6028   4.118   4.756   3.530
 1710SOL    HW1 6029   4.088   4.800   3.615
 1710SOL    HW2 6030   4.183   4.683   3.552
 1711SOL     OW 6031   1.912   5.515   4.655
 1711SOL    HW1 6032   1.864   5.559   4.580
 1711SOL    HW2 6033   2.008   5.542   4.654
 1712SOL     OW 6034   6.768   2.197   5.093
 1712SOL    HW1 6035   6.782   2.296   5.105
 1712SOL    HW2 6036   6.857   2.152   5.088
 1713SOL     OW 6037   4.092   1.589   2.402
 1713SOL    HW1 6038   4.104   1.515   2.469
 1713SOL    HW2 6039   4.180   1.609   2.359
 1714SOL     OW 6040   4.121   1.691   5.844
 1714SOL    HW1 6041   4.032   1.665   5.882
 1714SOL    HW2 6042   4.153   1.775   5.887
 1715SOL     OW 6043   2.313   6.433   3.312
 1715SOL    HW1 6044   2.265   6.470   3.392
 1715SOL    HW2 6045   2.248   6.380   3.256
 1716SOL     OW 6046   3.877   0.119   4.039
 1716SOL    HW1 6047   3.778   0.124   4.024
 1716SOL    HW2 6048   3.919   0.206   4.013
 1717SOL     OW 6049   3.330   5.829   4.673
 1717SOL    HW1 6050   3.335   5.918   4.717
 1717SOL    HW2 6051   3.372   5.760   4.732
 1718SOL     OW 6052   2.686   1.233   2.325
 1718SOL    HW1 6053   2.613   1.239   2.392
 1718SOL    HW2 6054   2.679   1.309   2.260
 1719SOL     OW 6055   2.209   3.235   0.978
 1719SOL    HW1 6056   2.224   3.217   0.881
 1719SOL    HW2 6057   2.276   3.185   1.032
 1720SOL     OW 6058   0.022   3.023   6.198
 1720SOL    HW1 6059   6.995   2.977   6.273
 1720SOL    HW2 6060   0.094   2.962   6.164
 1721SOL     OW 6061   1.834   6.454   1.854
 1721SOL    HW1 6062   1.799   6.518   1.922
 1721SOL    HW2 6063   1.916   6.492   1.811
 1722SOL     OW 6064   4.132   1.508   3.943
 1722SOL    HW1 6065   4.127   1.410   3.924
 1722SOL    HW2 6066   4.052   1.553   3.905
 1723SOL     OW 6067   5.161   2.574   0.078
 1723SOL    HW1 6068   5.206   2.633   0.011
 1723SOL    HW2 6069   5.195   2.480   0.067
 1724SOL     OW 6070   0.053   2.870   2.080
 1724SOL    HW1 6071   6.997   2.882   2.019
 1724SOL    HW2 6072   0.126   2.822   2.031
 1725SOL     OW 6073   1.828   4.747   6.776
 1725SOL    HW1 6074   1.792   4.808   6.705
 1725SOL    HW2 6075   1.886   4.800   6.838
 1726SOL     OW 6076   5.252   3.861   4.486
 1726SOL    HW1 6077   5.201   3.920   4.548
 1726SOL    HW2 6078   5.247   3.766   4.519
 1727SOL     OW 6079   4.092   3.525   3.560
 1727SOL    HW1 6080   4.132   3.616   3.569
 1727SOL    HW2 6081   4.053   3.514   3.468
 1728SOL     OW 6082   5.866   4.878   6.005
 1728SOL    HW1 6083   5.876   4.906   6.101
 1728SOL    HW2 6084   5.782   4.917   5.968
 1729SOL     OW 6085   2.129   3.606   2.861
 1729SOL    HW1 6086   2.122   3.516   2.818
 1729SOL    HW2 6087   2.111   3.597   2.959
 1730SOL     OW 6088   2.348   0.026   4.688
 1730SOL    HW1 6089   2.330   6.964   4.636
 1730SOL    HW2 6090   2.398   0.091   4.630
 1731SOL     OW 6091   0.266   4.116   3.514
 1731SOL    HW1 6092   0.269   4.064   3.599
 1731SOL    HW2 6093   0.204   4.194   3.525
 1732SOL     OW 6094   2.189   4.513   6.585
 1732SOL    HW1 6095   2.196   4.548   6.492
 1732SOL    HW2 6096   2.251   4.435   6.596
 1733SOL     OW 6097   1.839   4.118   1.704
 1733SOL    HW1 6098   1.761   4.174   1.677
 1733SOL    HW2 6099   1.862   4.137   1.799
 1734SOL     OW 6100   5.418   3.047   1.730
 1734SOL    HW1 6101   5.497   3.081   1.681
 1734SOL    HW2 6102   5.435   3.051   1.829
 1735SOL     OW 6103   4.840   5.492   6.385
 1735SOL    HW1 6104   4.864   5.494   6.288
 1735SOL    HW2 6105   4.922   5.475   6.440
 1736SOL     OW 6106   3.960   3.815   0.762
 1736SOL    HW1 6107   4.036   3.859   0.714
 1736SOL    HW2 6108   3.970   3.830   0.860
 1737SOL     OW 6109   5.082   6.686   4.896
 1737SOL    HW1 6110   5.040   6.709   4.984
 1737SOL    HW2 6111   5.151   6.755   4.873
 1738SOL     OW 6112   2.314   2.648   4.174
 1738SOL    HW1 6113   2.220   2.629   4.200
 1738SOL    HW2 6114   2.323   2.744   4.147
 1739SOL     OW 6115   6.956   1.616   4.708
 1739SOL    HW1 6116   6.988   1.695   4.760
 1739SOL    HW2 6117   0.007   1.548   4.701
 1740SOL     OW 6118   0.147   1.847   5.263
 1740SOL    HW1 6119   0.181   1.852   5.169
 1740SOL    HW2 6120   0.123   1.939   5.295
 1741SOL     OW 6121   2.496   0.762   4.903
 1741SOL    HW1 6122   2.544   0.713   4.830
 1741SOL    HW2 6123   2.543   0.848   4.922
 1742SOL     OW 6124   5.456   0.703   5.546
 1742SOL    HW1 6125   5.378   0.765   5.548
 1742SOL    HW2 6126   5.540   0.755   5.558
 1743SOL     OW 6127   0.698   1.024   2.566
 1743SOL    HW1 6128   0.677   1.004   2.662
 1743SOL    HW2 6129   0.795   1.049   2.557
 1744SOL     OW 6130   5.609   3.551   3.297
 1744SOL    HW1 6131   5.549   3.473   3.277
 1744SOL    HW2 6132   5.677   3.525   3.365
 1745SOL     OW 6133   5.552   6.333   2.693
 1745SOL    HW1 6134   5.518   6.240   2.688
 1745SOL    HW2 6135   5.565   6.359   2.789
 1746SOL     OW 6136   1.597   4.478   4.341
 1746SOL    HW1 6137   1.605   4.578   4.338
 1746SOL    HW2 6138   1.507   4.452   4.306
 1747SOL     OW 6139   3.622   1.307   2.483
 1747SOL    HW1 6140   3.590   1.399   2.506
 1747SOL    HW2 6141   3.719   1.310   2.460
 1748SOL     OW 6142   6.853   2.045   4.290
 1748SOL    HW1 6143   6.911   1.966   4.311
 1748SOL    HW2 6144   6.877   2.121   4.351
 1749SOL     OW 6145   1.823   0.077   6.056
 1749SOL    HW1 6146   1.827   7.006   6.094
 1749SOL    HW2 6147   1.838   0.143   6.129
 1750SOL     OW 6148   5.752   0.342   4.169
 1750SOL    HW1 6149   5.734   0.337   4.071
 1750SOL    HW2 6150   5.791   0.431   4.192
 1751SOL     OW 6151   5.280   1.884   4.776
 1751SOL    HW1 6152   5.310   1.790   4.794
 1751SOL    HW2 6153   5.358   1.946   4.783
 1752SOL     OW 6154   5.716   0.508   1.418
 1752SOL    HW1 6155   5.725   0.607   1.403
 1752SOL    HW2 6156   5.754   0.459   1.340
 1753SOL     OW 6157   6.771   0.482   1.396
 1753SOL    HW1 6158   6.780   0.441   1.487
 1753SOL    HW2 6159   6.861   0.494   1.356
 1754SOL     OW 6160   2.034   5.342   6.460
 1754SOL    HW1 6161   2.083   5.280   6.522
 1754SOL    HW2 6162   2.038   5.306   6.367
 1755SOL     OW 6163   0.168   5.853   6.748
 1755SOL    HW1 6164   0.246   5.915   6.748
 1755SOL    HW2 6165   0.182   5.779   6.682
 1756SOL     OW 6166   4.083   5.601   6.496
 1756SOL    HW1 6167   4.140   5.522   6.474
 1756SOL    HW2 6168   4.132   5.662   6.557
 1757SOL     OW 6169   3.451   5.932   5.182
 1757SOL    HW1 6170   3.465   5.923   5.083
 1757SOL    HW2 6171   3.423   5.844   5.220
 1758SOL     OW 6172   1.567   1.316   4.559
 1758SOL    HW1 6173   1.480   1.365   4.548
 1758SOL    HW2 6174   1.550   1.217   4.559
 1759SOL     OW 6175   2.825   6.508   5.354
 1759SOL    HW1 6176   2.804   6.581   5.290
 1759SOL    HW2 6177   2.809   6.540   5.447
 1760SOL     OW 6178   6.203   0.947   4.003
 1760SOL    HW1 6179   6.188   0.866   3.948
 1760SOL    HW2 6180   6.294   0.942   4.045
 1761SOL     OW 6181   0.135   1.049   2.005
 1761SOL    HW1 6182   0.058   1.094   2.051
 1761SOL    HW2 6183   0.148   1.091   1.915
 1762SOL     OW 6184   0.262   1.709   4.513
 1762SOL    HW1 6185   0.177   1.702   4.462
 1762SOL    HW2 6186   0.325   1.638   4.482
 1763SOL     OW 6187   1.163   4.993   4.225
 1763SOL    HW1 6188   1.199   5.006   4.318
 1763SOL    HW2 6189   1.064   4.982   4.230
 1764SOL     OW 6190   1.231   3.394   2.043
 1764SOL    HW1 6191   1.211   3.300   2.015
 1764SOL    HW2 6192   1.326   3.399   2.073
 1765SOL     OW 6193   3.353   1.478   1.361
 1765SOL    HW1 6194   3.256   1.463   1.340
 1765SOL    HW2 6195   3.402   1.501   1.277
 1766SOL     OW 6196   5.666   4.500   3.928
 1766SOL    HW1 6197   5.736   4.473   3.861
 1766SOL    HW2 6198   5.614   4.420   3.956
 1767SOL     OW 6199   1.103   4.727   3.506
 1767SOL    HW1 6200   1.180   4.788   3.493
 1767SOL    HW2 6201   1.032   4.773   3.560
 1768SOL     OW 6202   3.664   1.156   6.965
 1768SOL    HW1 6203   3.689   1.059   6.956
 1768SOL    HW2 6204   3.607   1.183   6.887
 1769SOL     OW 6205   6.088   0.795   6.843
 1769SOL    HW1 6206   6.049   0.704   6.826
 1769SOL    HW2 6207   6.111   0.838   6.756
 1770SOL     OW 6208   0.622   4.664   5.067
 1770SOL    HW1 6209   0.600   4.665   5.164
 1770SOL    HW2 6210   0.708   4.714   5.052
 1771SOL     OW 6211   1.602   5.393   0.697
 1771SOL    HW1 6212   1.550   5.377   0.613
 1771SOL    HW2 6213   1.639   5.306   0.730
 1772SOL     OW 6214   3.476   5.701   3.962
 1772SOL    HW1 6215   3.428   5.728   3.879
 1772SOL    HW2 6216   3.525   5.615   3.947
 1773SOL     OW 6217   2.112   2.223   6.118
 1773SOL    HW1 6218   2.045   2.280   6.072
 1773SOL    HW2 6219   2.165   2.172   6.051
 1774SOL     OW 6220   5.497   6.414   1.743
 1774SOL    HW1 6221   5.561   6.423   1.666
 1774SOL    HW2 6222   5.533   6.347   1.809
 1775SOL     OW 6223   2.091   5.607   6.050
 1775SOL    HW1 6224   2.072   5.585   5.954
 1775SOL    HW2 6225   2.015   5.579   6.107
 1776SOL     OW 6226   4.960   0.654   6.158
 1776SOL    HW1 6227   4.926   0.565   6.188
 1776SOL    HW2 6228   4.967   0.716   6.236
 1777SOL     OW 6229   3.395   6.852   6.630
 1777SOL    HW1 6230   3.488   6.837   6.596
 1777SOL    HW2 6231   3.389   6.944   6.669
 1778SOL     OW 6232   4.780   1.973   4.392
 1778SOL    HW1 6233   4.685   1.954   4.413
 1778SOL    HW2 6234   4.802   1.942   4.299
 1779SOL     OW 6235   4.806   0.388   5.972
 1779SOL    HW1 6236   4.845   0.449   5.904
 1779SOL    HW2 6237   4.743   0.323   5.928
 1780SOL     OW 6238   1.865   3.814   5.489
 1780SOL    HW1 6239   1.919   3.732   5.470
 1780SOL    HW2 6240   1.857   3.869   5.406
 1781SOL     OW 6241   5.358   6.884   5.420
 1781SOL    HW1 6242   5.326   6.946   5.349
 1781SOL    HW2 6243   5.354   6.790   5.386
 1782SOL     OW 6244   2.639   1.324   2.921
 1782SOL    HW1 6245   2.708   1.396   2.921
 1782SOL    HW2 6246   2.682   1.238   2.893
 1783SOL     OW 6247   2.722   3.869   6.453
 1783SOL    HW1 6248   2.672   3.897   6.535
 1783SOL    HW2 6249   2.707   3.935   6.380
 1784SOL     OW 6250   2.221   1.438   1.439
 1784SOL    HW1 6251   2.150   1.371   1.418
 1784SOL    HW2 6252   2.264   1.415   1.526
 1785SOL     OW 6253   6.765   6.874   4.384
 1785SOL    HW1 6254   6.691   6.905   4.444
 1785SOL    HW2 6255   6.767   6.931   4.301
 1786SOL     OW 6256   2.153   5.429   0.301
 1786SOL    HW1 6257   2.118   5.517   0.269
 1786SOL    HW2 6258   2.251   5.423   0.284
 1787SOL     OW 6259   1.837   2.238   5.735
 1787SOL    HW1 6260   1.804   2.218   5.643
 1787SOL    HW2 6261   1.893   2.162   5.767
 1788SOL     OW 6262   4.556   4.267   6.631
 1788SOL    HW1 6263   4.623   4.226   6.693
 1788SOL    HW2 6264   4.505   4.195   6.584
 1789SOL     OW 6265   5.944   3.164   1.670
 1789SOL    HW1 6266   5.983   3.226   1.602
 1789SOL    HW2 6267   5.845   3.177   1.675
 1790SOL     OW 6268   2.785   1.381   4.275
 1790SOL    HW1 6269   2.701   1.407   4.227
 1790SOL    HW2 6270   2.762   1.338   4.362
 1791SOL     OW 6271   0.094   1.313   3.658
 1791SOL    HW1 6272   0.187   1.335   3.626
 1791SOL    HW2 6273   0.028   1.333   3.586
 1792SOL     OW 6274   0.235   1.980   4.422
 1792SOL    HW1 6275   0.243   2.073   4.457
 1792SOL    HW2 6276   0.296   1.968   4.344
 1793SOL     OW 6277   6.664   1.564   4.160
 1793SOL    HW1 6278   6.605   1.528   4.232
 1793SOL    HW2 6279   6.676   1.663   4.173
 1794SOL     OW 6280   5.656   6.869   5.363
 1794SOL    HW1 6281   5.676   6.775   5.391
 1794SOL    HW2 6282   5.586   6.907   5.422
 1795SOL     OW 6283   6.471   4.857   1.239
 1795SOL    HW1 6284   6.547   4.795   1.259
 1795SOL    HW2 6285   6.437   4.897   1.324
 1796SOL     OW 6286   2.103   1.496   5.849
 1796SOL    HW1 6287   2.153   1.510   5.935
 1796SOL    HW2 6288   2.005   1.488   5.868
 1797SOL     OW 6289   1.179   6.929   5.691
 1797SOL    HW1 6290   1.115   6.922   5.614
 1797SOL    HW2 6291   1.259   6.982   5.664
 1798SOL     OW 6292   3.336   2.907   4.891
 1798SOL    HW1 6293   3.279   2.850   4.950
 1798SOL    HW2 6294   3.328   3.003   4.919
 1799SOL     OW 6295   3.917   2.581   6.344
 1799SOL    HW1 6296   3.817   2.575   6.337
 1799SOL    HW2 6297   3.942   2.608   6.437
 1800SOL     OW 6298   4.971   4.820   3.684
 1800SOL    HW1 6299   4.916   4.903   3.686
 1800SOL    HW2 6300   5.049   4.833   3.623
 1801SOL     OW 6301   0.853   2.078   1.915
 1801SOL    HW1 6302   0.770   2.023   1.923
 1801SOL    HW2 6303   0.933   2.019   1.926
 1802SOL     OW 6304   6.443   5.904   3.205
 1802SOL    HW1 6305   6.482   5.904   3.297
 1802SOL    HW2 6306   6.452   5.995   3.165
 1803SOL     OW 6307   0.136   6.452   2.535
 1803SOL    HW1 6308   0.230   6.482   2.519
 1803SOL    HW2 6309   0.105   6.396   2.459
 1804SOL     OW 6310   3.888   3.379   5.099
 1804SOL    HW1 6311   3.872   3.428   5.013
 1804SOL    HW2 6312   3.985   3.382   5.122
 1805SOL     OW 6313   1.012   5.501   6.019
 1805SOL    HW1 6314   0.999   5.460   5.929
 1805SOL    HW2 6315   1.063   5.587   6.010
 1806SOL     OW 6316   0.263   2.466   1.798
 1806SOL    HW1 6317   0.226   2.396   1.858
 1806SOL    HW2 6318   0.340   2.429   1.747
 1807SOL     OW 6319   5.759   3.416   0.039
 1807SOL    HW1 6320   5.783   3.506   0.003
 1807SOL    HW2 6321   5.749   3.422   0.139
 1808SOL     OW 6322   5.909   3.755   4.379
 1808SOL    HW1 6323   5.963   3.787   4.456
 1808SOL    HW2 6324   5.873   3.664   4.398
 1809SOL     OW 6325   3.163   1.018   5.136
 1809SOL    HW1 6326   3.262   1.022   5.125
 1809SOL    HW2 6327   3.128   1.110   5.156
 1810SOL     OW 6328   0.445   0.888   5.329
 1810SOL    HW1 6329   0.387   0.959   5.370
 1810SOL    HW2 6330   0.448   0.809   5.390
 1811SOL     OW 6331   5.444   4.329   1.656
 1811SOL    HW1 6332   5.391   4.307   1.738
 1811SOL    HW2 6333   5.400   4.405   1.608
 1812SOL     OW 6334   4.365   6.693   6.697
 1812SOL    HW1 6335   4.376   6.788   6.726
 1812SOL    HW2 6336   4.361   6.689   6.597
 1813SOL     OW 6337   4.827   4.078   2.293
 1813SOL    HW1 6338   4.878   4.025   2.226
 1813SOL    HW2 6339   4.744   4.028   2.319
 1814SOL     OW 6340   6.196   6.791   0.773
 1814SOL    HW1 6341   6.129   6.864   0.761
 1814SOL    HW2 6342   6.284   6.821   0.736
 1815SOL     OW 6343   6.001   6.833   2.629
 1815SOL    HW1 6344   6.029   6.826   2.725
 1815SOL    HW2 6345   6.081   6.848   2.572
 1816SOL     OW 6346   3.642   5.416   6.202
 1816SOL    HW1 6347   3.737   5.423   6.171
 1816SOL    HW2 6348   3.595   5.346   6.149
 1817SOL     OW 6349   3.557   1.322   3.020
 1817SOL    HW1 6350   3.623   1.396   3.023
 1817SOL    HW2 6351   3.477   1.350   2.968
 1818SOL     OW 6352   1.914   6.522   0.478
 1818SOL    HW1 6353   1.974   6.452   0.440
 1818SOL    HW2 6354   1.821   6.509   0.443
 1819SOL     OW 6355   1.300   5.072   2.376
 1819SOL    HW1 6356   1.297   5.146   2.442
 1819SOL    HW2 6357   1.339   5.106   2.290
 1820SOL     OW 6358   3.748   0.417   2.714
 1820SOL    HW1 6359   3.832   0.364   2.724
 1820SOL    HW2 6360   3.744   0.456   2.622
 1821SOL     OW 6361   3.514   1.343   2.121
 1821SOL    HW1 6362   3.519   1.376   2.215
 1821SOL    HW2 6363   3.542   1.247   2.117
 1822SOL     OW 6364   1.389   3.461   1.595
 1822SOL    HW1 6365   1.404   3.559   1.608
 1822SOL    HW2 6366   1.462   3.423   1.539
 1823SOL     OW 6367   3.399   6.063   3.311
 1823SOL    HW1 6368   3.447   5.997   3.254
 1823SOL    HW2 6369   3.465   6.121   3.357
 1824SOL     OW 6370   3.916   3.877   0.233
 1824SOL    HW1 6371   3.825   3.911   0.253
 1824SOL    HW2 6372   3.945   3.910   0.143
 1825SOL     OW 6373   0.185   3.281   4.871
 1825SOL    HW1 6374   0.116   3.344   4.909
 1825SOL    HW2 6375   0.272   3.296   4.917
 1826SOL     OW 6376   3.734   1.479   0.547
 1826SOL    HW1 6377   3.672   1.523   0.482
 1826SOL    HW2 6378   3.712   1.381   0.553
 1827SOL     OW 6379   5.110   5.654   1.189
 1827SOL    HW1 6380   5.116   5.750   1.162
 1827SOL    HW2 6381   5.054   5.645   1.271
 1828SOL     OW 6382   1.737   3.561   6.548
 1828SOL    HW1 6383   1.646   3.568   6.507
 1828SOL    HW2 6384   1.741   3.619   6.630
 1829SOL     OW 6385   3.573   0.040   3.465
 1829SOL    HW1 6386   3.515   0.017   3.543
 1829SOL    HW2 6387   3.525   0.106   3.406
 1830SOL     OW 6388   5.696   6.934   5.020
 1830SOL    HW1 6389   5.758   6.856   5.012
 1830SOL    HW2 6390   5.747   7.014   5.052
 1831SOL     OW 6391   5.080   6.007   2.687
 1831SOL    HW1 6392   5.016   6.083   2.698
 1831SOL    HW2 6393   5.171   6.043   2.664
 1832SOL     OW 6394   2.975   3.318   0.080
 1832SOL    HW1 6395   3.028   3.236   0.099
 1832SOL    HW2 6396   3.036   3.391   0.050
 1833SOL     OW 6397   5.237   0.214   1.177
 1833SOL    HW1 6398   5.234   0.300   1.126
 1833SOL    HW2 6399   5.283   0.228   1.264
 1834SOL     OW 6400   2.462   2.683   1.293
 1834SOL    HW1 6401   2.433   2.694   1.198
 1834SOL    HW2 6402   2.556   2.714   1.303
 1835SOL     OW 6403   0.802   4.635   2.034
 1835SOL    HW1 6404   0.896   4.655   2.063
 1835SOL    HW2 6405   0.738   4.680   2.096
 1836SOL     OW 6406   5.920   2.641   2.095
 1836SOL    HW1 6407   5.832   2.600   2.118
 1836SOL    HW2 6408   5.987   2.569   2.078
 1837SOL     OW 6409   1.913   0.515   5.669
 1837SOL    HW1 6410   1.927   0.480   5.762
 1837SOL    HW2 6411   1.952   0.451   5.603
 1838SOL     OW 6412   6.442   0.594   6.669
 1838SOL    HW1 6413   6.383   0.665   6.629
 1838SOL    HW2 6414   6.500   0.635   6.740
 1839SOL     OW 6415   6.381   1.742   6.698
 1839SOL    HW1 6416   6.316   1.796   6.752
 1839SOL    HW2 6417   6.471   1.784   6.702
 1840SOL     OW 6418   4.070   0.745   2.608
 1840SOL    HW1 6419   4.117   0.833   2.603
 1840SOL    HW2 6420   3.982   0.757   2.654
 1841SOL     OW 6421   2.267   0.691   3.089
 1841SOL    HW1 6422   2.347   0.663   3.142
 1841SOL    HW2 6423   2.237   0.616   3.030
 1842SOL     OW 6424   1.194   5.173   0.539
 1842SOL    HW1 6425   1.185   5.139   0.445
 1842SOL    HW2 6426   1.284   5.215   0.550
 1843SOL     OW 6427   5.028   0.429   4.192
 1843SOL    HW1 6428   5.067   0.470   4.110
 1843SOL    HW2 6429   5.069   0.470   4.273
 1844SOL     OW 6430   4.774   1.644   5.362
 1844SOL    HW1 6431   4.820   1.563   5.326
 1844SOL    HW2 6432   4.678   1.643   5.335
 1845SOL     OW 6433   2.956   0.044   3.759
 1845SOL    HW1 6434   2.971   0.011   3.853
 1845SOL    HW2 6435   2.865   0.016   3.728
 1846SOL     OW 6436   5.403   1.467   3.285
 1846SOL    HW1 6437   5.365   1.424   3.367
 1846SOL    HW2 6438   5.455   1.400   3.232
 1847SOL     OW 6439   1.535   0.064   5.031
 1847SOL    HW1 6440   1.479   7.005   5.012
 1847SOL    HW2 6441   1.507   0.138   4.970
 1848SOL     OW 6442   1.685   6.535   3.886
 1848SOL    HW1 6443   1.769   6.539   3.940
 1848SOL    HW2 6444   1.648   6.443   3.888
 1849SOL     OW 6445   4.822   3.073   1.663
 1849SOL    HW1 6446   4.840   3.171   1.649
 1849SOL    HW2 6447   4.771   3.061   1.748
 1850SOL     OW 6448   5.435   1.501   2.130
 1850SOL    HW1 6449   5.346   1.527   2.169
 1850SOL    HW2 6450   5.450   1.552   2.046
 1851SOL     OW 6451   0.571   3.490   6.962
 1851SOL    HW1 6452   0.525   3.409   6.925
 1851SOL    HW2 6453   0.641   3.521   6.898
 1852SOL     OW 6454   0.193   4.989   1.346
 1852SOL    HW1 6455   0.163   5.040   1.265
 1852SOL    HW2 6456   0.230   4.901   1.318
 1853SOL     OW 6457   0.082   2.155   3.492
 1853SOL    HW1 6458   0.127   2.240   3.465
 1853SOL    HW2 6459   0.038   2.168   3.581
 1854SOL     OW 6460   1.358   5.257   3.150
 1854SOL    HW1 6461   1.412   5.337   3.121
 1854SOL    HW2 6462   1.279   5.247   3.090
 1855SOL     OW 6463   5.281   3.055   5.099
 1855SOL    HW1 6464   5.224   2.975   5.079
 1855SOL    HW2 6465   5.346   3.032   5.171
 1856SOL     OW 6466   3.958   3.591   6.683
 1856SOL    HW1 6467   3.874   3.560   6.727
 1856SOL    HW2 6468   3.987   3.524   6.614
 1857SOL     OW 6469   5.237   0.842   0.401
 1857SOL    HW1 6470   5.200   0.806   0.486
 1857SOL    HW2 6471   5.312   0.906   0.421
 1858SOL     OW 6472   5.367   2.933   3.245
 1858SOL    HW1 6473   5.323   2.849   3.211
 1858SOL    HW2 6474   5.299   3.007   3.248
 1859SOL     OW 6475   4.842   2.015   3.737
 1859SOL    HW1 6476   4.843   1.923   3.700
 1859SOL    HW2 6477   4.925   2.030   3.791
 1860SOL     OW 6478   1.083   2.049   5.236
 1860SOL    HW1 6479   1.048   2.048   5.143
 1860SOL    HW2 6480   1.069   1.959   5.278
 1861SOL     OW 6481   5.278   0.460   3.155
 1861SOL    HW1 6482   5.232   0.547   3.171
 1861SOL    HW2 6483   5.340   0.440   3.230
 1862SOL     OW 6484   1.281   7.019   0.095
 1862SOL    HW1 6485   1.319   6.930   0.123
 1862SOL    HW2 6486   1.295   0.063   0.168
 1863SOL     OW 6487   6.760   2.861   1.663
 1863SOL    HW1 6488   6.775   2.766   1.689
 1863SOL    HW2 6489   6.800   2.878   1.573
 1864SOL     OW 6490   3.321   5.816   4.159
 1864SOL    HW1 6491   3.322   5.762   4.243
 1864SOL    HW2 6492   3.384   5.776   4.092
 1865SOL     OW 6493   3.545   1.155   1.141
 1865SOL    HW1 6494   3.526   1.231   1.079
 1865SOL    HW2 6495   3.526   1.068   1.095
 1866SOL     OW 6496   6.398   4.646   3.872
 1866SOL    HW1 6497   6.459   4.711   3.827
 1866SOL    HW2 6498   6.414   4.648   3.971
 1867SOL     OW 6499   2.438   2.980   1.544
 1867SOL    HW1 6500   2.423   3.005   1.640
 1867SOL    HW2 6501   2.497   3.048   1.501
 1868SOL     OW 6502   4.761   3.457   5.594
 1868SOL    HW1 6503   4.760   3.526   5.666
 1868SOL    HW2 6504   4.851   3.412   5.592
 1869SOL     OW 6505   5.420   2.701   3.957
 1869SOL    HW1 6506   5.481   2.697   4.036
 1869SOL    HW2 6507   5.416   2.611   3.914
 1870SOL     OW 6508   0.436   3.307   4.553
 1870SOL    HW1 6509   0.478   3.270   4.636
 1870SOL    HW2 6510   0.459   3.249   4.475
 1871SOL     OW 6511   6.972   6.863   0.389
 1871SOL    HW1 6512   7.001   6.954   0.358
 1871SOL    HW2 6513   0.030   6.808   0.411
 1872SOL     OW 6514   3.371   2.412   0.436
 1872SOL    HW1 6515   3.391   2.335   0.497
 1872SOL    HW2 6516   3.277   2.443   0.452
 1873SOL     OW 6517   6.358   0.979   5.730
 1873SOL    HW1 6518   6.342   1.024   5.643
 1873SOL    HW2 6519   6.271   0.969   5.779
 1874SOL     OW 6520   1.043   1.195   6.940
 1874SOL    HW1 6521   1.038   1.269   7.007
 1874SOL    HW2 6522   0.959   1.141   6.942
 1875SOL     OW 6523   6.730   6.163   0.767
 1875SOL    HW1 6524   6.676   6.201   0.842
 1875SOL    HW2 6525   6.825   6.192   0.777
 1876SOL     OW 6526   5.120   7.011   6.153
 1876SOL    HW1 6527   5.122   0.058   6.081
 1876SOL    HW2 6528   5.146   0.031   6.240
 1877SOL     OW 6529   0.040   1.799   3.052
 1877SOL    HW1 6530   6.999   1.788   2.975
 1877SOL    HW2 6531   0.052   1.711   3.097
 1878SOL     OW 6532   6.922   4.006   3.570
 1878SOL    HW1 6533   6.847   3.945   3.593
 1878SOL    HW2 6534   6.980   3.962   3.501
 1879SOL     OW 6535   2.765   5.195   4.146
 1879SOL    HW1 6536   2.832   5.230   4.080
 1879SOL    HW2 6537   2.808   5.188   4.236
 1880SOL     OW 6538   0.885   2.373   3.189
 1880SOL    HW1 6539   0.795   2.418   3.192
 1880SOL    HW2 6540   0.873   2.276   3.170
 1881SOL     OW 6541   0.963   2.447   3.716
 1881SOL    HW1 6542   0.970   2.415   3.622
 1881SOL    HW2 6543   1.055   2.463   3.753
 1882SOL     OW 6544   1.136   5.968   6.467
 1882SOL    HW1 6545   1.167   6.022   6.545
 1882SOL    HW2 6546   1.198   5.891   6.453
 1883SOL     OW 6547   1.464   3.453   3.870
 1883SOL    HW1 6548   1.380   3.424   3.825
 1883SOL    HW2 6549   1.540   3.394   3.840
 1884SOL     OW 6550   5.007   1.083   1.821
 1884SOL    HW1 6551   5.102   1.084   1.855
 1884SOL    HW2 6552   5.008   1.086   1.721
 1885SOL     OW 6553   6.470   1.976   0.588
 1885SOL    HW1 6554   6.438   1.968   0.494
 1885SOL    HW2 6555   6.421   2.050   0.635
 1886SOL     OW 6556   2.098   2.237   6.708
 1886SOL    HW1 6557   2.176   2.287   6.747
 1886SOL    HW2 6558   2.131   2.180   6.633
 1887SOL     OW 6559   6.887   3.981   6.022
 1887SOL    HW1 6560   6.869   3.903   5.961
 1887SOL    HW2 6561   6.914   4.060   5.968
 1888SOL     OW 6562   2.183   1.560   6.119
 1888SOL    HW1 6563   2.162   1.658   6.114
 1888SOL    HW2 6564   2.270   1.548   6.167
 1889SOL     OW 6565   4.351   4.124   6.556
 1889SOL    HW1 6566   4.264   4.109   6.602
 1889SOL    HW2 6567   4.335   4.156   6.463
 1890SOL     OW 6568   1.819   5.438   6.109
 1890SOL    HW1 6569   1.904   5.417   6.157
 1890SOL    HW2 6570   1.779   5.353   6.073
 1891SOL     OW 6571   5.137   2.499   4.581
 1891SOL    HW1 6572   5.178   2.413   4.551
 1891SOL    HW2 6573   5.201   2.547   4.642
 1892SOL     OW 6574   3.617   6.135   1.384
 1892SOL    HW1 6575   3.703   6.185   1.381
 1892SOL    HW2 6576   3.600   6.091   1.296
 1893SOL     OW 6577   3.586   2.028   4.814
 1893SOL    HW1 6578   3.654   2.076   4.758
 1893SOL    HW2 6579   3.534   2.095   4.867
 1894SOL     OW 6580   4.159   3.414   1.587
 1894SOL    HW1 6581   4.111   3.361   1.657
 1894SOL    HW2 6582   4.106   3.495   1.564
 1895SOL     OW 6583   6.338   0.357   2.515
 1895SOL    HW1 6584   6.281   0.332   2.594
 1895SOL    HW2 6585   6.421   0.301   2.515
 1896SOL     OW 6586   6.746   1.021   3.110
 1896SOL    HW1 6587   6.761   0.965   3.028
 1896SOL    HW2 6588   6.793   1.109   3.099
 1897SOL     OW 6589   6.308   5.474   3.118
 1897SOL    HW1 6590   6.333   5.439   3.208
 1897SOL    HW2 6591   6.382   5.532   3.083
 1898SOL     OW 6592   3.848   6.297   1.416
 1898SOL    HW1 6593   3.864   6.393   1.391
 1898SOL    HW2 6594   3.861   6.287   1.515
 1899SOL     OW 6595   1.304   3.111   2.843
 1899SOL    HW1 6596   1.264   3.042   2.783
 1899SOL    HW2 6597   1.390   3.077   2.881
 1900SOL     OW 6598   1.161   0.064   6.064
 1900SOL    HW1 6599   1.219   0.102   5.992
 1900SOL    HW2 6600   1.123   6.999   6.032
 1901SOL     OW 6601   1.981   1.321   0.734
 1901SOL    HW1 6602   1.931   1.320   0.647
 1901SOL    HW2 6603   2.075   1.351   0.717
 1902SOL     OW 6604   1.755   2.596   5.148
 1902SOL    HW1 6605   1.773   2.692   5.166
 1902SOL    HW2 6606   1.761   2.578   5.050
 1903SOL     OW 6607   6.919   3.649   3.568
 1903SOL    HW1 6608   6.842   3.710   3.588
 1903SOL    HW2 6609   6.893   3.586   3.496
 1904SOL     OW 6610   7.011   0.199   4.222
 1904SOL    HW1 6611   6.924   0.214   4.175
 1904SOL    HW2 6612   0.059   0.174   4.156
 1905SOL     OW 6613   0.574   2.326   3.889
 1905SOL    HW1 6614   0.530   2.367   3.968
 1905SOL    HW2 6615   0.524   2.351   3.806
 1906SOL     OW 6616   2.660   0.245   5.477
 1906SOL    HW1 6617   2.746   0.208   5.514
 1906SOL    HW2 6618   2.657   0.227   5.378
 1907SOL     OW 6619   3.435   7.017   3.702
 1907SOL    HW1 6620   3.504   6.957   3.744
 1907SOL    HW2 6621   3.403   0.061   3.770
 1908SOL     OW 6622   4.339   1.000   4.999
 1908SOL    HW1 6623   4.349   0.913   5.045
 1908SOL    HW2 6624   4.426   1.024   4.954
 1909SOL     OW 6625   2.063   4.076   3.663
 1909SOL    HW1 6626   2.044   4.148   3.729
 1909SOL    HW2 6627   1.982   4.058   3.608
 1910SOL     OW 6628   5.559   2.629   6.350
 1910SOL    HW1 6629   5.564   2.720   6.390
 1910SOL    HW2 6630   5.470   2.617   6.305
 1911SOL     OW 6631   6.500   1.786   5.516
 1911SOL    HW1 6632   6.529   1.726   5.591
 1911SOL    HW2 6633   6.427   1.846   5.547
 1912SOL     OW 6634   3.667   6.655   2.549
 1912SOL    HW1 6635   3.644   6.607   2.465
 1912SOL    HW2 6636   3.763   6.639   2.572
 1913SOL     OW 6637   1.805   6.403   5.343
 1913SOL    HW1 6638   1.753   6.441   5.419
 1913SOL    HW2 6639   1.895   6.375   5.374
 1914SOL     OW 6640   2.722   2.574   6.854
 1914SOL    HW1 6641   2.650   2.581   6.786
 1914SOL    HW2 6642   2.790   2.645   6.838
 1915SOL     OW 6643   3.412   1.263   5.441
 1915SOL    HW1 6644   3.348   1.323   5.490
 1915SOL    HW2 6645   3.485   1.319   5.400
 1916SOL     OW 6646   3.638   5.507   0.908
 1916SOL    HW1 6647   3.583   5.424   0.919
 1916SOL    HW2 6648   3.580   5.580   0.870
 1917SOL     OW 6649   4.139   3.664   4.724
 1917SOL    HW1 6650   4.056   3.719   4.735
 1917SOL    HW2 6651   4.185   3.689   4.639
 1918SOL     OW 6652   6.599   6.247   6.293
 1918SOL    HW1 6653   6.509   6.213   6.320
 1918SOL    HW2 6654   6.603   6.346   6.306
 1919SOL     OW 6655   1.044   6.665   2.182
 1919SOL    HW1 6656   0.999   6.601   2.120
 1919SOL    HW2 6657   1.009   6.653   2.274
 1920SOL     OW 6658   0.443   4.844   3.103
 1920SOL    HW1 6659   0.395   4.804   3.025
 1920SOL    HW2 6660   0.380   4.854   3.180
 1921SOL     OW 6661   0.571   5.059   0.194
 1921SOL    HW1 6662   0.616   5.045   0.105
 1921SOL    HW2 6663   0.495   5.123   0.183
 1922SOL     OW 6664   3.657   3.633   1.298
 1922SOL    HW1 6665   3.653   3.536   1.276
 1922SOL    HW2 6666   3.564   3.671   1.300
 1923SOL     OW 6667   2.749   1.034   6.956
 1923SOL    HW1 6668   2.808   0.957   6.980
 1923SOL    HW2 6669   2.739   1.039   6.857
 1924SOL     OW 6670   5.571   5.578   2.690
 1924SOL    HW1 6671   5.640   5.578   2.763
 1924SOL    HW2 6672   5.615   5.557   2.603
 1925SOL     OW 6673   2.940   3.808   1.886
 1925SOL    HW1 6674   2.954   3.903   1.856
 1925SOL    HW2 6675   3.027   3.771   1.919
 1926SOL     OW 6676   1.252   6.984   3.844
 1926SOL    HW1 6677   1.348   6.964   3.863
 1926SOL    HW2 6678   1.242   7.010   3.747
 1927SOL     OW 6679   3.519   5.022   6.616
 1927SOL    HW1 6680   3.453   4.947   6.605
 1927SOL    HW2 6681   3.595   4.990   6.673
 1928SOL     OW 6682   6.382   3.621   6.245
 1928SOL    HW1 6683   6.290   3.582   6.251
 1928SOL    HW2 6684   6.449   3.547   6.239
 1929SOL     OW 6685   0.442   5.609   1.298
 1929SOL    HW1 6686   0.484   5.527   1.258
 1929SOL    HW2 6687   0.367   5.639   1.240
 1930SOL     OW 6688   5.052   4.551   6.801
 1930SOL    HW1 6689   5.121   4.616   6.834
 1930SOL    HW2 6690   4.966   4.599   6.784
 1931SOL     OW 6691   7.004   3.265   3.676
 1931SOL    HW1 6692   0.005   3.307   3.589
 1931SOL    HW2 6693   6.908   3.238   3.676
 1932SOL     OW 6694   4.805   3.946   2.837
 1932SOL    HW1 6695   4.781   4.036   2.802
 1932SOL    HW2 6696   4.814   3.882   2.760
 1933SOL     OW 6697   2.791   4.614   0.786
 1933SOL    HW1 6698   2.723   4.541   0.788
 1933SOL    HW2 6699   2.846   4.611   0.870
 1934SOL     OW 6700   0.445   0.425   5.623
 1934SOL    HW1 6701   0.386   0.432   5.704
 1934SOL    HW2 6702   0.394   0.455   5.543
 1935SOL     OW 6703   3.295   0.273   5.112
 1935SOL    HW1 6704   3.311   0.289   5.015
 1935SOL    HW2 6705   3.326   0.353   5.164
 1936SOL     OW 6706   5.827   4.256   4.158
 1936SOL    HW1 6707   5.870   4.308   4.232
 1936SOL    HW2 6708   5.880   4.268   4.074
 1937SOL     OW 6709   4.384   6.444   1.593
 1937SOL    HW1 6710   4.291   6.441   1.557
 1937SOL    HW2 6711   4.428   6.355   1.579
 1938SOL     OW 6712   4.278   1.468   3.167
 1938SOL    HW1 6713   4.350   1.526   3.207
 1938SOL    HW2 6714   4.261   1.391   3.228
 1939SOL     OW 6715   0.471   6.617   4.490
 1939SOL    HW1 6716   0.399   6.611   4.420
 1939SOL    HW2 6717   0.434   6.587   4.578
 1940SOL     OW 6718   4.900   5.113   5.688
 1940SOL    HW1 6719   4.833   5.187   5.687
 1940SOL    HW2 6720   4.880   5.049   5.614
 1941SOL     OW 6721   0.065   3.920   3.359
 1941SOL    HW1 6722   0.075   3.889   3.265
 1941SOL    HW2 6723   0.144   3.890   3.413
 1942SOL     OW 6724   6.602   0.561   3.180
 1942SOL    HW1 6725   6.598   0.525   3.274
 1942SOL    HW2 6726   6.594   0.660   3.182
 1943SOL     OW 6727   3.113   6.091   2.474
 1943SOL    HW1 6728   3.089   6.011   2.419
 1943SOL    HW2 6729   3.177   6.064   2.546
 1944SOL     OW 6730   4.743   2.556   6.204
 1944SOL    HW1 6731   4.749   2.562   6.303
 1944SOL    HW2 6732   4.647   2.549   6.177
 1945SOL     OW 6733   4.283   5.868   2.376
 1945SOL    HW1 6734   4.282   5.921   2.291
 1945SOL    HW2 6735   4.224   5.788   2.366
 1946SOL     OW 6736   0.039   0.717   0.392
 1946SOL    HW1 6737   6.990   0.664   0.346
 1946SOL    HW2 6738   0.025   0.814   0.374
 1947SOL     OW 6739   5.313   6.601   3.441
 1947SOL    HW1 6740   5.314   6.650   3.353
 1947SOL    HW2 6741   5.302   6.666   3.515
 1948SOL     OW 6742   6.197   5.798   3.333
 1948SOL    HW1 6743   6.286   5.817   3.291
 1948SOL    HW2 6744   6.206   5.724   3.400
 1949SOL     OW 6745   4.338   5.092   6.198
 1949SOL    HW1 6746   4.245   5.076   6.167
 1949SOL    HW2 6747   4.339   5.106   6.297
 1950SOL     OW 6748   3.646   3.951   1.143
 1950SOL    HW1 6749   3.616   3.936   1.237
 1950SOL    HW2 6750   3.647   3.863   1.094
 1951SOL     OW 6751   6.459   3.928   0.525
 1951SOL    HW1 6752   6.542   3.962   0.481
 1951SOL    HW2 6753   6.479   3.905   0.620
 1952SOL     OW 6754   3.558   2.334   6.754
 1952SOL    HW1 6755   3.484   2.311   6.690
 1952SOL    HW2 6756   3.576   2.432   6.751
 1953SOL     OW 6757   6.181   2.503   0.025
 1953SOL    HW1 6758   6.183   2.572   0.098
 1953SOL    HW2 6759   6.140   2.543   6.965
 1954SOL     OW 6760   5.718   1.117   4.057
 1954SOL    HW1 6761   5.677   1.124   4.149
 1954SOL    HW2 6762   5.810   1.080   4.065
 1955SOL     OW 6763   1.346   0.365   2.464
 1955SOL    HW1 6764   1.282   0.293   2.436
 1955SOL    HW2 6765   1.439   0.329   2.460
 1956SOL     OW 6766   6.253   0.302   2.277
 1956SOL    HW1 6767   6.269   0.334   2.370
 1956SOL    HW2 6768   6.326   0.334   2.217
 1957SOL     OW 6769   6.616   5.208   4.686
 1957SOL    HW1 6770   6.625   5.123   4.739
 1957SOL    HW2 6771   6.692   5.269   4.709
 1958SOL     OW 6772   5.787   2.685   3.907
 1958SOL    HW1 6773   5.729   2.605   3.923
 1958SOL    HW2 6774   5.741   2.748   3.845
 1959SOL     OW 6775   0.081   1.874   6.115
 1959SOL    HW1 6776   0.028   1.804   6.163
 1959SOL    HW2 6777   0.023   1.953   6.097
 1960SOL     OW 6778   6.569   4.684   0.384
 1960SOL    HW1 6779   6.647   4.710   0.441
 1960SOL    HW2 6780   6.486   4.686   0.439
 1961SOL     OW 6781   5.912   4.469   4.295
 1961SOL    HW1 6782   6.004   4.506   4.307
 1961SOL    HW2 6783   5.876   4.497   4.206
 1962SOL     OW 6784   3.122   6.381   2.929
 1962SOL    HW1 6785   3.134   6.320   3.008
 1962SOL    HW2 6786   3.082   6.467   2.960
 1963SOL     OW 6787   0.893   0.746   1.237
 1963SOL    HW1 6788   0.968   0.710   1.293
 1963SOL    HW2 6789   0.908   0.843   1.219
 1964SOL     OW 6790   4.229   2.718   1.201
 1964SOL    HW1 6791   4.134   2.688   1.192
 1964SOL    HW2 6792   4.233   2.798   1.261
 1965SOL     OW 6793   1.233   3.361   3.527
 1965SOL    HW1 6794   1.331   3.342   3.516
 1965SOL    HW2 6795   1.215   3.385   3.622
 1966SOL     OW 6796   7.015   5.631   5.062
 1966SOL    HW1 6797   6.987   5.596   5.151
 1966SOL    HW2 6798   6.934   5.641   5.003
 1967SOL     OW 6799   5.100   2.313   4.890
 1967SOL    HW1 6800   5.194   2.330   4.919
 1967SOL    HW2 6801   5.094   2.316   4.790
 1968SOL     OW 6802   2.910   5.801   0.959
 1968SOL    HW1 6803   2.940   5.873   1.022
 1968SOL    HW2 6804   2.834   5.751   0.999
 1969SOL     OW 6805   0.429   1.377   1.576
 1969SOL    HW1 6806   0.422   1.390   1.477
 1969SOL    HW2 6807   0.481   1.294   1.595
 1970SOL     OW 6808   2.360   0.112   6.583
 1970SOL    HW1 6809   2.373   0.211   6.594
 1970SOL    HW2 6810   2.323   0.094   6.492
 1971SOL     OW 6811   6.417   6.814   6.233
 1971SOL    HW1 6812   6.393   6.786   6.326
 1971SOL    HW2 6813   6.354   6.885   6.202
 1972SOL     OW 6814   6.330   2.636   2.894
 1972SOL    HW1 6815   6.336   2.657   2.796
 1972SOL    HW2 6816   6.270   2.557   2.907
 1973SOL     OW 6817   2.155   3.523   0.982
 1973SOL    HW1 6818   2.183   3.428   0.993
 1973SOL    HW2 6819   2.146   3.545   0.885
 1974SOL     OW 6820   6.224   6.125   3.659
 1974SOL    HW1 6821   6.174   6.101   3.576
 1974SOL    HW2 6822   6.162   6.120   3.738
 1975SOL     OW 6823   2.569   1.292   3.212
 1975SOL    HW1 6824   2.484   1.304   3.161
 1975SOL    HW2 6825   2.638   1.356   3.178
 1976SOL     OW 6826   0.744   5.555   6.869
 1976SOL    HW1 6827   0.751   5.634   6.807
 1976SOL    HW2 6828   0.813   5.487   6.843
 1977SOL     OW 6829   1.352   2.734   3.388
 1977SOL    HW1 6830   1.344   2.794   3.308
 1977SOL    HW2 6831   1.320   2.783   3.469
 1978SOL     OW 6832   0.914   1.014   3.805
 1978SOL    HW1 6833   0.891   1.094   3.751
 1978SOL    HW2 6834   0.909   0.932   3.747
 1979SOL     OW 6835   6.835   4.564   4.894
 1979SOL    HW1 6836   6.774   4.536   4.967
 1979SOL    HW2 6837   6.920   4.511   4.899
 1980SOL     OW 6838   2.672   0.601   6.392
 1980SOL    HW1 6839   2.747   0.641   6.340
 1980SOL    HW2 6840   2.626   0.532   6.337
 1981SOL     OW 6841   6.061   1.836   2.492
 1981SOL    HW1 6842   6.122   1.854   2.569
 1981SOL    HW2 6843   6.000   1.914   2.479
 1982SOL     OW 6844   0.424   4.187   5.443
 1982SOL    HW1 6845   0.353   4.133   5.487
 1982SOL    HW2 6846   0.415   4.283   5.470
 1983SOL     OW 6847   1.017   1.881   2.984
 1983SOL    HW1 6848   1.086   1.813   2.959
 1983SOL    HW2 6849   0.926   1.842   2.973
 1984SOL     OW 6850   5.760   1.532   4.373
 1984SOL    HW1 6851   5.845   1.491   4.404
 1984SOL    HW2 6852   5.742   1.503   4.279
 1985SOL     OW 6853   1.093   0.249   2.821
 1985SOL    HW1 6854   1.077   0.264   2.919
 1985SOL    HW2 6855   1.169   0.306   2.790
 1986SOL     OW 6856   1.549   0.457   0.406
 1986SOL    HW1 6857   1.614   0.463   0.331
 1986SOL    HW2 6858   1.592   0.489   0.490
 1987SOL     OW 6859   1.617   2.900   1.041
 1987SOL    HW1 6860   1.612   2.927   1.137
 1987SOL    HW2 6861   1.679   2.822   1.032
 1988SOL     OW 6862   5.078   4.661   1.087
 1988SOL    HW1 6863   5.070   4.711   1.001
 1988SOL    HW2 6864   5.161   4.607   1.087
 1989SOL     OW 6865   2.491   6.452   5.048
 1989SOL    HW1 6866   2.426   6.427   4.976
 1989SOL    HW2 6867   2.442   6.495   5.124
 1990SOL     OW 6868   3.120   6.604   0.905
 1990SOL    HW1 6869   3.064   6.597   0.987
 1990SOL    HW2 6870   3.112   6.697   0.868
 1991SOL     OW 6871   4.523   4.891   6.558
 1991SOL    HW1 6872   4.535   4.901   6.460
 1991SOL    HW2 6873   4.427   4.906   6.582
 1992SOL     OW 6874   0.903   6.760   6.884
 1992SOL    HW1 6875   0.917   6.661   6.882
 1992SOL    HW2 6876   0.956   6.803   6.810
 1993SOL     OW 6877   4.225   3.448   5.159
 1993SOL    HW1 6878   4.188   3.504   5.085
 1993SOL    HW2 6879   4.267   3.366   5.121
 1994SOL     OW 6880   1.042   1.946   0.591
 1994SOL    HW1 6881   1.040   2.045   0.585
 1994SOL    HW2 6882   1.115   1.911   0.531
 1995SOL     OW 6883   6.097   2.394   1.705
 1995SOL    HW1 6884   6.035   2.402   1.627
 1995SOL    HW2 6885   6.108   2.483   1.749
 1996SOL     OW 6886   2.844   3.685   1.002
 1996SOL    HW1 6887   2.851   3.590   1.032
 1996SOL    HW2 6888   2.903   3.743   1.060
 1997SOL     OW 6889   4.873   0.325   5.212
 1997SOL    HW1 6890   4.824   0.354   5.295
 1997SOL    HW2 6891   4.809   0.282   5.149
 1998SOL     OW 6892   3.198   3.452   6.541
 1998SOL    HW1 6893   3.185   3.509   6.622
 1998SOL    HW2 6894   3.271   3.491   6.484
 1999SOL     OW 6895   3.191   6.520   1.524
 1999SOL    HW1 6896   3.104   6.565   1.545
 1999SOL    HW2 6897   3.251   6.526   1.604
 2000SOL     OW 6898   3.955   2.137   5.326
 2000SOL    HW1 6899   3.998   2.202   5.388
 2000SOL    HW2 6900   3.991   2.150   5.233
 2001SOL     OW 6901   3.285   2.144   1.723
 2001SOL    HW1 6902   3.331   2.110   1.804
 2001SOL    HW2 6903   3.262   2.068   1.662
 2002SOL     OW 6904   1.328   5.406   5.933
 2002SOL    HW1 6905   1.374   5.463   5.865
 2002SOL    HW2 6906   1.238   5.444   5.953
 2003SOL     OW 6907   6.173   6.834   3.562
 2003SOL    HW1 6908   6.161   6.808   3.658
 2003SOL    HW2 6909   6.168   6.933   3.553
 2004SOL     OW 6910   5.409   1.344   5.096
 2004SOL    HW1 6911   5.342   1.397   5.148
 2004SOL    HW2 6912   5.367   1.312   5.011
 2005SOL     OW 6913   0.860   5.219   6.567
 2005SOL    HW1 6914   0.805   5.137   6.586
 2005SOL    HW2 6915   0.816   5.273   6.496
 2006SOL     OW 6916   5.457   4.681   4.445
 2006SOL    HW1 6917   5.408   4.642   4.523
 2006SOL    HW2 6918   5.498   4.607   4.391
 2007SOL     OW 6919   3.666   5.051   1.217
 2007SOL    HW1 6920   3.616   5.043   1.303
 2007SOL    HW2 6921   3.749   5.103   1.231
 2008SOL     OW 6922   0.977   6.241   3.131
 2008SOL    HW1 6923   0.899   6.180   3.140
 2008SOL    HW2 6924   0.991   6.291   3.217
 2009SOL     OW 6925   6.023   0.106   1.426
 2009SOL    HW1 6926   6.008   0.194   1.470
 2009SOL    HW2 6927   6.109   0.067   1.457
 2010SOL     OW 6928   1.265   1.422   1.655
 2010SOL    HW1 6929   1.231   1.444   1.747
 2010SOL    HW2 6930   1.290   1.507   1.608
 2011SOL     OW 6931   6.833   1.920   5.315
 2011SOL    HW1 6932   6.797   1.895   5.226
 2011SOL    HW2 6933   6.925   1.959   5.304
 2012SOL     OW 6934   0.951   3.035   1.624
 2012SOL    HW1 6935   0.937   2.996   1.715
 2012SOL    HW2 6936   1.036   2.998   1.585
 2013SOL     OW 6937   5.907   0.517   3.307
 2013SOL    HW1 6938   5.973   0.517   3.383
 2013SOL    HW2 6939   5.954   0.541   3.222
 2014SOL     OW 6940   1.886   5.356   2.906
 2014SOL    HW1 6941   1.794   5.350   2.869
 2014SOL    HW2 6942   1.938   5.426   2.857
 2015SOL     OW 6943   2.300   1.935   6.765
 2015SOL    HW1 6944   2.207   1.950   6.801
 2015SOL    HW2 6945   2.342   2.023   6.745
 2016SOL     OW 6946   1.404   4.987   4.907
 2016SOL    HW1 6947   1.432   4.943   4.992
 2016SOL    HW2 6948   1.482   5.033   4.865
 2017SOL     OW 6949   2.580   6.674   4.438
 2017SOL    HW1 6950   2.492   6.651   4.478
 2017SOL    HW2 6951   2.614   6.597   4.384
 2018SOL     OW 6952   5.969   0.019   6.081
 2018SOL    HW1 6953   5.943   0.108   6.045
 2018SOL    HW2 6954   6.017   6.989   6.011
 2019SOL     OW 6955   4.886   2.197   2.355
 2019SOL    HW1 6956   4.892   2.111   2.304
 2019SOL    HW2 6957   4.948   2.264   2.314
 2020SOL     OW 6958   1.123   5.454   5.453
 2020SOL    HW1 6959   1.216   5.483   5.479
 2020SOL    HW2 6960   1.097   5.498   5.368
 2021SOL     OW 6961   2.413   5.472   3.956
 2021SOL    HW1 6962   2.407   5.473   4.055
 2021SOL    HW2 6963   2.324   5.445   3.917
 2022SOL     OW 6964   1.725   3.241   2.763
 2022SOL    HW1 6965   1.657   3.295   2.714
 2022SOL    HW2 6966   1.731   3.150   2.724
 2023SOL     OW 6967   5.897   1.294   6.887
 2023SOL    HW1 6968   5.944   1.380   6.909
 2023SOL    HW2 6969   5.802   1.314   6.863
 2024SOL     OW 6970   0.062   0.369   2.705
 2024SOL    HW1 6971   7.002   0.320   2.735
 2024SOL    HW2 6972   0.066   0.368   2.606
 2025SOL     OW 6973   2.172   3.019   2.167
 2025SOL    HW1 6974   2.192   3.036   2.264
 2025SOL    HW2 6975   2.161   3.107   2.120
 2026SOL     OW 6976   1.183   2.547   6.084
 2026SOL    HW1 6977   1.159   2.496   6.001
 2026SOL    HW2 6978   1.261   2.608   6.065
 2027SOL     OW 6979   1.031   1.273   0.999
 2027SOL    HW1 6980   0.945   1.225   0.984
 2027SOL    HW2 6981   1.013   1.371   1.008
 2028SOL     OW 6982   3.164   1.196   6.010
 2028SOL    HW1 6983   3.250   1.247   6.023
 2028SOL    HW2 6984   3.163   1.155   5.919
 2029SOL     OW 6985   6.952   0.721   0.644
 2029SOL    HW1 6986   6.956   0.814   0.683
 2029SOL    HW2 6987   6.997   0.720   0.555
 2030SOL     OW 6988   2.721   0.876   3.689
 2030SOL    HW1 6989   2.811   0.848   3.723
 2030SOL    HW2 6990   2.717   0.863   3.590
 2031SOL     OW 6991   5.482   6.290   2.398
 2031SOL    HW1 6992   5.533   6.320   2.479
 2031SOL    HW2 6993   5.384   6.303   2.414
 2032SOL     OW 6994   3.745   6.943   2.303
 2032SOL    HW1 6995   3.759   7.008   2.228
 2032SOL    HW2 6996   3.785   6.855   2.279
 2033SOL     OW 6997   3.709   4.057   6.959
 2033SOL    HW1 6998   3.651   3.981   6.929
 2033SOL    HW2 6999   3.803   4.025   6.969
 2034SOL     OW 7000   3.274   0.088   4.557
 2034SOL    HW1 7001   3.209   0.153   4.597
 2034SOL    HW2 7002   3.319   0.037   4.631
 2035SOL     OW 7003   6.904   0.659   1.819
 2035SOL    HW1 7004   6.993   0.693   1.848
 2035SOL    HW2 7005   6.866   0.720   1.749
 2036SOL     OW 7006   0.786   5.639   3.169
 2036SOL    HW1 7007   0.878   5.607   3.190
 2036SOL    HW2 7008   0.767   5.624   3.071
 2037SOL     OW 7009   0.748   3.025   5.953
 2037SOL    HW1 7010   0.829   3.078   5.976
 2037SOL    HW2 7011   0.721   3.044   5.858
 2038SOL     OW 7012   1.400   2.139   6.498
 2038SOL    HW1 7013   1.351   2.053   6.486
 2038SOL    HW2 7014   1.402   2.189   6.411
 2039SOL     OW 7015   0.196   5.360   2.549
 2039SOL    HW1 7016   0.111   5.383   2.502
 2039SOL    HW2 7017   0.274   5.379   2.489
 2040SOL     OW 7018   3.589   3.727   5.162
 2040SOL    HW1 7019   3.662   3.723   5.094
 2040SOL    HW2 7020   3.539   3.640   5.162
 2041SOL     OW 7021   6.882   5.985   5.377
 2041SOL    HW1 7022   6.832   5.941   5.452
 2041SOL    HW2 7023   6.948   6.050   5.415
 2042SOL     OW 7024   5.506   5.142   6.919
 2042SOL    HW1 7025   5.583   5.137   6.983
 2042SOL    HW2 7026   5.531   5.095   6.834
 2043SOL     OW 7027   6.357   4.270   2.543
 2043SOL    HW1 7028   6.336   4.368   2.545
 2043SOL    HW2 7029   6.455   4.258   2.526
 2044SOL     OW 7030   4.920   0.061   2.089
 2044SOL    HW1 7031   4.960   0.016   2.010
 2044SOL    HW2 7032   4.950   0.157   2.091
 2045SOL     OW 7033   2.469   4.711   4.596
 2045SOL    HW1 7034   2.381   4.753   4.574
 2045SOL    HW2 7035   2.542   4.780   4.588
 2046SOL     OW 7036   0.173   1.120   4.611
 2046SOL    HW1 7037   0.224   1.117   4.697
 2046SOL    HW2 7038   0.224   1.174   4.544
 2047SOL     OW 7039   4.858   1.887   0.324
 2047SOL    HW1 7040   4.801   1.945   0.266
 2047SOL    HW2 7041   4.879   1.936   0.409
 2048SOL     OW 7042   2.313   5.944   0.663
 2048SOL    HW1 7043   2.324   5.901   0.753
 2048SOL    HW2 7044   2.259   5.883   0.604
 2049SOL     OW 7045   4.645   1.545   6.454
 2049SOL    HW1 7046   4.683   1.554   6.362
 2049SOL    HW2 7047   4.560   1.598   6.460
 2050SOL     OW 7048   0.471   2.886   2.645
 2050SOL    HW1 7049   0.525   2.968   2.626
 2050SOL    HW2 7050   0.482   2.860   2.741
 2051SOL     OW 7051   0.613   5.854   1.054
 2051SOL    HW1 7052   0.514   5.859   1.064
 2051SOL    HW2 7053   0.635   5.821   0.963
 2052SOL     OW 7054   0.168   4.232   0.639
 2052SOL    HW1 7055   0.231   4.188   0.576
 2052SOL    HW2 7056   0.211   4.240   0.729
 2053SOL     OW 7057   5.818   0.660   5.329
 2053SOL    HW1 7058   5.808   0.718   5.409
 2053SOL    HW2 7059   5.914   0.635   5.317
 2054SOL     OW 7060   4.042   2.764   1.740
 2054SOL    HW1 7061   4.116   2.726   1.684
 2054SOL    HW2 7062   3.968   2.697   1.747
 2055SOL     OW 7063   6.156   3.377   3.240
 2055SOL    HW1 7064   6.217   3.429   3.181
 2055SOL    HW2 7065   6.206   3.344   3.320
 2056SOL     OW 7066   2.509   0.390   2.982
 2056SOL    HW1 7067   2.603   0.360   2.996
 2056SOL    HW2 7068   2.495   0.478   3.026
 2057SOL     OW 7069   5.480   2.973   3.480
 2057SOL    HW1 7070   5.437   2.968   3.391
 2057SOL    HW2 7071   5.429   3.036   3.539
 2058SOL     OW 7072   1.297   1.795   3.216
 2058SOL    HW1 7073   1.281   1.795   3.118
 2058SOL    HW2 7074   1.387   1.757   3.236
 2059SOL     OW 7075   2.505   6.183   5.895
 2059SOL    HW1 7076   2.471   6.256   5.953
 2059SOL    HW2 7077   2.431   6.119   5.874
 2060SOL     OW 7078   5.767   4.509   0.291
 2060SOL    HW1 7079   5.734   4.428   0.339
 2060SOL    HW2 7080   5.855   4.489   0.248
 2061SOL     OW 7081   0.477   1.656   3.161
 2061SOL    HW1 7082   0.506   1.739   3.113
 2061SOL    HW2 7083   0.409   1.608   3.105
 2062SOL     OW 7084   5.921   0.009   3.912
 2062SOL    HW1 7085   5.916   6.954   3.975
 2062SOL    HW2 7086   5.898   0.093   3.961
 2063SOL     OW 7087   1.709   0.412   6.148
 2063SOL    HW1 7088   1.743   0.438   6.239
 2063SOL    HW2 7089   1.622   0.363   6.159
 2064SOL     OW 7090   0.980   2.365   6.109
 2064SOL    HW1 7091   0.945   2.396   6.021
 2064SOL    HW2 7092   1.078   2.350   6.102
 2065SOL     OW 7093   0.024   2.986   3.950
 2065SOL    HW1 7094   7.002   2.966   4.037
 2065SOL    HW2 7095   0.042   3.084   3.943
 2066SOL     OW 7096   0.314   5.485   3.548
 2066SOL    HW1 7097   0.349   5.423   3.478
 2066SOL    HW2 7098   0.365   5.472   3.633
 2067SOL     OW 7099   6.917   5.734   1.124
 2067SOL    HW1 7100   6.863   5.791   1.060
 2067SOL    HW2 7101   6.894   5.638   1.110
 2068SOL     OW 7102   1.494   1.958   5.763
 2068SOL    HW1 7103   1.545   2.044   5.755
 2068SOL    HW2 7104   1.436   1.946   5.682
 2069SOL     OW 7105   1.118   2.647   3.288
 2069SOL    HW1 7106   1.134   2.591   3.207
 2069SOL    HW2 7107   1.201   2.648   3.345
 2070SOL     OW 7108   1.177   0.743   2.682
 2070SOL    HW1 7109   1.176   0.783   2.591
 2070SOL    HW2 7110   1.229   0.657   2.681
 2071SOL     OW 7111   6.137   5.981   5.271
 2071SOL    HW1 7112   6.071   5.919   5.229
 2071SOL    HW2 7113   6.100   6.015   5.358
 2072SOL     OW 7114   4.187   6.881   2.173
 2072SOL    HW1 7115   4.162   6.977   2.165
 2072SOL    HW2 7116   4.107   6.827   2.199
 2073SOL     OW 7117   4.137   6.858   4.430
 2073SOL    HW1 7118   4.217   6.841   4.372
 2073SOL    HW2 7119   4.070   6.913   4.380
 2074SOL     OW 7120   1.575   3.234   0.090
 2074SOL    HW1 7121   1.500   3.289   0.052
 2074SOL    HW2 7122   1.538   3.150   0.130
 2075SOL     OW 7123   5.433   3.007   1.365
 2075SOL    HW1 7124   5.394   2.975   1.279
 2075SOL    HW2 7125   5.396   2.954   1.441
 2076SOL     OW 7126   5.662   6.791   6.110
 2076SOL    HW1 7127   5.619   6.784   6.200
 2076SOL    HW2 7128   5.750   6.744   6.112
 2077SOL     OW 7129   5.815   2.729   2.571
 2077SOL    HW1 7130   5.749   2.703   2.501
 2077SOL    HW2 7131   5.905   2.740   2.529
 2078SOL     OW 7132   1.678   5.685   6.395
 2078SOL    HW1 7133   1.760   5.661   6.446
 2078SOL    HW2 7134   1.691   5.664   6.298
 2079SOL     OW 7135   5.675   1.466   3.466
 2079SOL    HW1 7136   5.692   1.373   3.498
 2079SOL    HW2 7137   5.611   1.465   3.389
 2080SOL     OW 7138   1.728   0.692   4.625
 2080SOL    HW1 7139   1.802   0.640   4.667
 2080SOL    HW2 7140   1.715   0.778   4.675
 2081SOL     OW 7141   1.840   5.367   4.366
 2081SOL    HW1 7142   1.782   5.448   4.372
 2081SOL    HW2 7143   1.917   5.385   4.305
 2082SOL     OW 7144   0.126   7.003   2.995
 2082SOL    HW1 7145   0.147   6.969   3.087
 2082SOL    HW2 7146   0.134   6.928   2.929
 2083SOL     OW 7147   5.492   5.070   6.194
 2083SOL    HW1 7148   5.468   4.973   6.207
 2083SOL    HW2 7149   5.409   5.125   6.193
 2084SOL     OW 7150   0.808   3.612   4.061
 2084SOL    HW1 7151   0.742   3.681   4.091
 2084SOL    HW2 7152   0.764   3.547   3.999
 2085SOL     OW 7153   4.393   0.670   6.847
 2085SOL    HW1 7154   4.364   0.709   6.759
 2085SOL    HW2 7155   4.333   0.702   6.920
 2086SOL     OW 7156   4.478   6.791   5.822
 2086SOL    HW1 7157   4.547   6.830   5.884
 2086SOL    HW2 7158   4.524   6.749   5.744
 2087SOL     OW 7159   5.140   0.247   1.643
 2087SOL    HW1 7160   5.174   0.308   1.715
 2087SOL    HW2 7161   5.060   0.198   1.676
 2088SOL     OW 7162   2.883   6.334   0.678
 2088SOL    HW1 7163   2.848   6.408   0.620
 2088SOL    HW2 7164   2.808   6.275   0.706
 2089SOL     OW 7165   5.213   1.989   6.436
 2089SOL    HW1 7166   5.144   1.940   6.382
 2089SOL    HW2 7167   5.303   1.951   6.417
 2090SOL     OW 7168   3.502   3.042   5.609
 2090SOL    HW1 7169   3.477   3.111   5.678
 2090SOL    HW2 7170   3.529   2.957   5.655
 2091SOL     OW 7171   0.029   5.661   0.656
 2091SOL    HW1 7172   0.090   5.663   0.735
 2091SOL    HW2 7173   0.063   5.724   0.586
 2092SOL     OW 7174   5.223   4.391   6.662
 2092SOL    HW1 7175   5.274   4.437   6.590
 2092SOL    HW2 7176   5.163   4.456   6.707
 2093SOL     OW 7177   2.095   2.439   1.103
 2093SOL    HW1 7178   2.004   2.406   1.078
 2093SOL    HW2 7179   2.140   2.372   1.162
 2094SOL     OW 7180   5.623   1.484   1.214
 2094SOL    HW1 7181   5.584   1.527   1.295
 2094SOL    HW2 7182   5.722   1.480   1.222
 2095SOL     OW 7183   5.827   0.697   4.934
 2095SOL    HW1 7184   5.755   0.693   4.865
 2095SOL    HW2 7185   5.796   0.752   5.011
 2096SOL     OW 7186   5.097   3.943   3.459
 2096SOL    HW1 7187   5.036   3.879   3.413
 2096SOL    HW2 7188   5.192   3.922   3.435
 2097SOL     OW 7189   2.334   2.952   6.558
 2097SOL    HW1 7190   2.411   2.997   6.514
 2097SOL    HW2 7191   2.287   3.017   6.618
 2098SOL     OW 7192   4.427   5.875   3.042
 2098SOL    HW1 7193   4.430   5.902   2.945
 2098SOL    HW2 7194   4.380   5.787   3.051
 2099SOL     OW 7195   2.965   3.603   5.687
 2099SOL    HW1 7196   2.927   3.514   5.663
 2099SOL    HW2 7197   2.965   3.662   5.607
 2100SOL     OW 7198   4.651   3.177   5.811
 2100SOL    HW1 7199   4.575   3.175   5.746
 2100SOL    HW2 7200   4.646   3.259   5.867
 2101SOL     OW 7201   1.460   6.425   2.308
 2101SOL    HW1 7202   1.556   6.429   2.280
 2101SOL    HW2 7203   1.454   6.423   2.408
 2102SOL     OW 7204   6.157   5.073   1.740
 2102SOL    HW1 7205   6.187   5.163   1.772
 2102SOL    HW2 7206   6.236   5.022   1.707
 2103SOL     OW 7207   3.628   4.545   5.877
 2103SOL    HW1 7208   3.572   4.519   5.798
 2103SOL    HW2 7209   3.592   4.631   5.916
 2104SOL     OW 7210   1.329   3.204   0.834
 2104SOL    HW1 7211   1.232   3.227   0.842
 2104SOL    HW2 7212   1.352   3.137   0.904
 2105SOL     OW 7213   5.589   6.118   5.119
 2105SOL    HW1 7214   5.586   6.183   5.195
 2105SOL    HW2 7215   5.559   6.028   5.151
 2106SOL     OW 7216   4.832   4.197   1.399
 2106SOL    HW1 7217   4.779   4.116   1.372
 2106SOL    HW2 7218   4.864   4.186   1.493
 2107SOL     OW 7219   5.072   2.541   5.358
 2107SOL    HW1 7220   5.166   2.506   5.351
 2107SOL    HW2 7221   5.018   2.479   5.415
 2108SOL     OW 7222   6.624   6.274   5.130
 2108SOL    HW1 7223   6.545   6.234   5.177
 2108SOL    HW2 7224   6.702   6.213   5.138
 2109SOL     OW 7225   4.376   6.184   2.346
 2109SOL    HW1 7226   4.415   6.181   2.438
 2109SOL    HW2 7227   4.379   6.092   2.306
 2110SOL     OW 7228   2.787   1.477   6.682
 2110SOL    HW1 7229   2.875   1.505   6.721
 2110SOL    HW2 7230   2.730   1.440   6.755
 2111SOL     OW 7231   1.036   2.850   6.949
 2111SOL    HW1 7232   1.019   2.905   0.008
 2111SOL    HW2 7233   1.024   2.906   6.867
 2112SOL     OW 7234   5.028   3.026   6.853
 2112SOL    HW1 7235   4.950   2.963   6.850
 2112SOL    HW2 7236   5.064   3.040   6.761
 2113SOL     OW 7237   1.433   1.833   5.094
 2113SOL    HW1 7238   1.333   1.830   5.083
 2113SOL    HW2 7239   1.476   1.785   5.018
 2114SOL     OW 7240   1.298   2.872   0.039
 2114SOL    HW1 7241   1.224   2.886   6.996
 2114SOL    HW2 7242   1.366   2.811   7.022
 2115SOL     OW 7243   2.019   3.512   2.580
 2115SOL    HW1 7244   2.101   3.457   2.598
 2115SOL    HW2 7245   1.953   3.458   2.528
 2116SOL     OW 7246   6.619   4.928   3.050
 2116SOL    HW1 7247   6.617   4.960   2.956
 2116SOL    HW2 7248   6.605   5.005   3.112
 2117SOL     OW 7249   6.428   5.074   1.779
 2117SOL    HW1 7250   6.407   4.993   1.833
 2117SOL    HW2 7251   6.427   5.155   1.838
 2118SOL     OW 7252   5.910   3.815   1.769
 2118SOL    HW1 7253   5.922   3.879   1.693
 2118SOL    HW2 7254   5.872   3.863   1.848
 2119SOL     OW 7255   2.037   6.222   1.068
 2119SOL    HW1 7256   1.945   6.251   1.093
 2119SOL    HW2 7257   2.102   6.246   1.140
 2120SOL     OW 7258   0.076   5.196   3.703
 2120SOL    HW1 7259   0.146   5.227   3.768
 2120SOL    HW2 7260   0.038   5.109   3.733
 2121SOL     OW 7261   1.197   3.703   5.926
 2121SOL    HW1 7262   1.281   3.748   5.957
 2121SOL    HW2 7263   1.186   3.718   5.828
 2122SOL     OW 7264   5.563   4.284   6.178
 2122SOL    HW1 7265   5.578   4.261   6.082
 2122SOL    HW2 7266   5.549   4.200   6.231
 2123SOL     OW 7267   6.585   6.166   2.129
 2123SOL    HW1 7268   6.551   6.073   2.116
 2123SOL    HW2 7269   6.665   6.180   2.071
 2124SOL     OW 7270   2.594   1.766   1.648
 2124SOL    HW1 7271   2.660   1.833   1.681
 2124SOL    HW2 7272   2.515   1.763   1.709
 2125SOL     OW 7273   2.014   0.852   1.997
 2125SOL    HW1 7274   2.058   0.866   1.908
 2125SOL    HW2 7275   2.063   0.781   2.048
 2126SOL     OW 7276   3.523   1.250   6.266
 2126SOL    HW1 7277   3.570   1.163   6.282
 2126SOL    HW2 7278   3.470   1.275   6.347
 2127SOL     OW 7279   0.198   3.315   4.352
 2127SOL    HW1 7280   0.146   3.264   4.421
 2127SOL    HW2 7281   0.139   3.380   4.306
 2128SOL     OW 7282   6.946   2.817   3.565
 2128SOL    HW1 7283   7.015   2.889   3.565
 2128SOL    HW2 7284   6.880   2.834   3.639
 2129SOL     OW 7285   4.145   3.775   5.539
 2129SOL    HW1 7286   4.111   3.864   5.572
 2129SOL    HW2 7287   4.069   3.710   5.537
 2130SOL     OW 7288   3.435   0.876   1.617
 2130SOL    HW1 7289   3.336   0.889   1.617
 2130SOL    HW2 7290   3.476   0.936   1.548
 2131SOL     OW 7291   6.363   0.674   0.766
 2131SOL    HW1 7292   6.447   0.620   0.758
 2131SOL    HW2 7293   6.339   0.713   0.677
 2132SOL     OW 7294   3.254   1.398   1.634
 2132SOL    HW1 7295   3.282   1.330   1.702
 2132SOL    HW2 7296   3.333   1.425   1.580
 2133SOL     OW 7297   3.338   3.203   0.451
 2133SOL    HW1 7298   3.339   3.257   0.367
 2133SOL    HW2 7299   3.302   3.112   0.432
 2134SOL     OW 7300   0.056   2.206   6.660
 2134SOL    HW1 7301   0.029   2.189   6.755
 2134SOL    HW2 7302   7.010   2.265   6.617
 2135SOL     OW 7303   0.707   3.268   4.442
 2135SOL    HW1 7304   0.671   3.349   4.397
 2135SOL    HW2 7305   0.645   3.191   4.424
 2136SOL     OW 7306   1.484   3.654   2.812
 2136SOL    HW1 7307   1.547   3.649   2.735
 2136SOL    HW2 7308   1.527   3.613   2.893
 2137SOL     OW 7309   2.207   5.666   4.964
 2137SOL    HW1 7310   2.252   5.723   5.032
 2137SOL    HW2 7311   2.276   5.616   4.911
 2138SOL     OW 7312   6.535   6.882   3.120
 2138SOL    HW1 7313   6.594   6.816   3.074
 2138SOL    HW2 7314   6.585   6.925   3.195
 2139SOL     OW 7315   4.439   0.739   3.483
 2139SOL    HW1 7316   4.408   0.688   3.564
 2139SOL    HW2 7317   4.362   0.788   3.443
 2140SOL     OW 7318   3.472   6.614   4.002
 2140SOL    HW1 7319   3.544   6.684   4.004
 2140SOL    HW2 7320   3.502   6.534   4.053
 2141SOL     OW 7321   6.481   3.278   1.941
 2141SOL    HW1 7322   6.461   3.376   1.935
 2141SOL    HW2 7323   6.485   3.250   2.037
 2142SOL     OW 7324   1.611   1.292   3.059
 2142SOL    HW1 7325   1.519   1.321   3.032
 2142SOL    HW2 7326   1.604   1.223   3.131
 2143SOL     OW 7327   3.250   4.371   1.552
 2143SOL    HW1 7328   3.309   4.452   1.561
 2143SOL    HW2 7329   3.189   4.384   1.474
 2144SOL     OW 7330   0.861   5.485   4.056
 2144SOL    HW1 7331   0.850   5.542   4.138
 2144SOL    HW2 7332   0.956   5.487   4.026
 2145SOL     OW 7333   4.222   6.502   4.198
 2145SOL    HW1 7334   4.245   6.585   4.248
 2145SOL    HW2 7335   4.298   6.438   4.203
 2146SOL     OW 7336   2.162   3.660   1.438
 2146SOL    HW1 7337   2.252   3.666   1.482
 2146SOL    HW2 7338   2.173   3.664   1.339
 2147SOL     OW 7339   6.729   1.245   5.779
 2147SOL    HW1 7340   6.690   1.302   5.706
 2147SOL    HW2 7341   6.677   1.160   5.786
 2148SOL     OW 7342   6.126   3.076   5.702
 2148SOL    HW1 7343   6.067   3.016   5.647
 2148SOL    HW2 7344   6.209   3.098   5.650
 2149SOL     OW 7345   2.995   1.739   1.121
 2149SOL    HW1 7346   2.927   1.735   1.194
 2149SOL    HW2 7347   2.993   1.653   1.070
 2150SOL     OW 7348   2.280   2.631   2.346
 2150SOL    HW1 7349   2.293   2.588   2.435
 2150SOL    HW2 7350   2.252   2.562   2.279
 2151SOL     OW 7351   1.414   0.016   5.657
 2151SOL    HW1 7352   1.503   7.020   5.698
 2151SOL    HW2 7353   1.424   0.082   5.583
 2152SOL     OW 7354   3.138   5.486   1.973
 2152SOL    HW1 7355   3.199   5.527   2.040
 2152SOL    HW2 7356   3.045   5.483   2.010
 2153SOL     OW 7357   4.561   1.599   3.024
 2153SOL    HW1 7358   4.567   1.669   3.096
 2153SOL    HW2 7359   4.645   1.597   2.971
 2154SOL     OW 7360   5.385   1.589   4.851
 2154SOL    HW1 7361   5.332   1.506   4.869
 2154SOL    HW2 7362   5.447   1.572   4.774
 2155SOL     OW 7363   3.415   6.250   0.631
 2155SOL    HW1 7364   3.382   6.229   0.539
 2155SOL    HW2 7365   3.348   6.306   0.679
 2156SOL     OW 7366   1.111   2.188   4.890
 2156SOL    HW1 7367   1.109   2.089   4.905
 2156SOL    HW2 7368   1.123   2.235   4.978
 2157SOL     OW 7369   6.167   0.110   3.326
 2157SOL    HW1 7370   6.141   0.023   3.282
 2157SOL    HW2 7371   6.215   0.167   3.260
 2158SOL     OW 7372   3.672   5.832   0.780
 2158SOL    HW1 7373   3.705   5.878   0.697
 2158SOL    HW2 7374   3.744   5.833   0.849
 2159SOL     OW 7375   1.450   6.821   5.138
 2159SOL    HW1 7376   1.523   6.852   5.200
 2159SOL    HW2 7377   1.365   6.811   5.190
 2160SOL     OW 7378   4.506   3.979   6.948
 2160SOL    HW1 7379   4.587   3.928   6.919
 2160SOL    HW2 7380   4.489   4.055   6.885
 2161SOL     OW 7381   5.274   4.909   2.333
 2161SOL    HW1 7382   5.314   4.832   2.383
 2161SOL    HW2 7383   5.300   4.995   2.378
 2162SOL     OW 7384   3.302   0.217   2.214
 2162SOL    HW1 7385   3.221   0.260   2.174
 2162SOL    HW2 7386   3.275   0.159   2.291
 2163SOL     OW 7387   1.627   4.579   6.518
 2163SOL    HW1 7388   1.698   4.595   6.449
 2163SOL    HW2 7389   1.572   4.662   6.529
 2164SOL     OW 7390   1.625   2.489   6.188
 2164SOL    HW1 7391   1.606   2.416   6.253
 2164SOL    HW2 7392   1.722   2.515   6.195
 2165SOL     OW 7393   0.065   2.495   3.037
 2165SOL    HW1 7394   0.017   2.496   3.124
 2165SOL    HW2 7395   0.069   2.401   3.002
 2166SOL     OW 7396   1.357   2.714   5.094
 2166SOL    HW1 7397   1.369   2.701   4.995
 2166SOL    HW2 7398   1.443   2.695   5.141
 2167SOL     OW 7399   1.302   2.301   3.343
 2167SOL    HW1 7400   1.297   2.209   3.303
 2167SOL    HW2 7401   1.393   2.315   3.382
 2168SOL     OW 7402   0.866   2.215   3.858
 2168SOL    HW1 7403   0.766   2.206   3.853
 2168SOL    HW2 7404   0.895   2.296   3.808
 2169SOL     OW 7405   5.506   1.838   0.167
 2169SOL    HW1 7406   5.590   1.854   0.218
 2169SOL    HW2 7407   5.528   1.809   0.074
 2170SOL     OW 7408   6.741   3.961   4.919
 2170SOL    HW1 7409   6.684   3.985   4.840
 2170SOL    HW2 7410   6.812   4.030   4.931
 2171SOL     OW 7411   6.832   5.155   1.351
 2171SOL    HW1 7412   6.738   5.156   1.384
 2171SOL    HW2 7413   6.833   5.142   1.252
 2172SOL     OW 7414   1.710   2.180   6.443
 2172SOL    HW1 7415   1.760   2.212   6.523
 2172SOL    HW2 7416   1.611   2.186   6.461
 2173SOL     OW 7417   3.841   0.835   4.992
 2173SOL    HW1 7418   3.793   0.861   4.908
 2173SOL    HW2 7419   3.868   0.739   4.986
 2174SOL     OW 7420   6.111   5.944   4.707
 2174SOL    HW1 7421   6.040   5.901   4.761
 2174SOL    HW2 7422   6.168   6.002   4.765
 2175SOL     OW 7423   1.971   2.929   5.077
 2175SOL    HW1 7424   2.059   2.889   5.104
 2175SOL    HW2 7425   1.945   2.894   4.987
 2176SOL     OW 7426   6.027   1.709   0.488
 2176SOL    HW1 7427   6.012   1.716   0.389
 2176SOL    HW2 7428   6.105   1.650   0.506
 2177SOL     OW 7429   6.865   1.772   3.854
 2177SOL    HW1 7430   6.930   1.775   3.778
 2177SOL    HW2 7431   6.788   1.714   3.830
 2178SOL     OW 7432   2.111   2.001   1.739
 2178SOL    HW1 7433   2.208   2.014   1.724
 2178SOL    HW2 7434   2.084   1.909   1.709
 2179SOL     OW 7435   1.979   5.252   5.063
 2179SOL    HW1 7436   1.925   5.257   4.979
 2179SOL    HW2 7437   2.002   5.345   5.093
 2180SOL     OW 7438   1.969   1.991   2.279
 2180SOL    HW1 7439   2.011   1.976   2.189
 2180SOL    HW2 7440   2.030   1.958   2.351
 2181SOL     OW 7441   5.024   4.568   4.754
 2181SOL    HW1 7442   4.962   4.526   4.821
 2181SOL    HW2 7443   4.970   4.614   4.684
 2182SOL     OW 7444   1.884   4.094   3.992
 2182SOL    HW1 7445   1.935   4.027   4.045
 2182SOL    HW2 7446   1.816   4.139   4.050
 2183SOL     OW 7447   2.403   4.939   6.113
 2183SOL    HW1 7448   2.478   4.873   6.115
 2183SOL    HW2 7449   2.409   4.994   6.029
 2184SOL     OW 7450   3.758   1.017   6.105
 2184SOL    HW1 7451   3.715   1.070   6.031
 2184SOL    HW2 7452   3.855   1.004   6.085
 2185SOL     OW 7453   0.486   0.333   1.420
 2185SOL    HW1 7454   0.474   0.394   1.341
 2185SOL    HW2 7455   0.576   0.289   1.414
 2186SOL     OW 7456   6.986   5.946   1.293
 2186SOL    HW1 7457   6.966   5.949   1.391
 2186SOL    HW2 7458   6.944   5.864   1.253
 2187SOL     OW 7459   6.569   6.270   2.844
 2187SOL    HW1 7460   6.655   6.222   2.825
 2187SOL    HW2 7461   6.514   6.273   2.761
 2188SOL     OW 7462   6.892   5.716   4.182
 2188SOL    HW1 7463   6.987   5.699   4.206
 2188SOL    HW2 7464   6.861   5.648   4.116
 2189SOL     OW 7465   2.329   6.639   0.798
 2189SOL    HW1 7466   2.416   6.599   0.768
 2189SOL    HW2 7467   2.255   6.607   0.740
 2190SOL     OW 7468   0.444   3.324   2.000
 2190SOL    HW1 7469   0.447   3.230   2.035
 2190SOL    HW2 7470   0.506   3.332   1.922
 2191SOL     OW 7471   2.810   1.646   6.449
 2191SOL    HW1 7472   2.797   1.728   6.506
 2191SOL    HW2 7473   2.810   1.565   6.508
 2192SOL     OW 7474   4.843   0.872   2.418
 2192SOL    HW1 7475   4.930   0.890   2.462
 2192SOL    HW2 7476   4.836   0.774   2.397
 2193SOL     OW 7477   5.487   5.803   0.157
 2193SOL    HW1 7478   5.462   5.896   0.186
 2193SOL    HW2 7479   5.410   5.761   0.109
 2194SOL     OW 7480   2.322   4.649   5.593
 2194SOL    HW1 7481   2.298   4.669   5.499
 2194SOL    HW2 7482   2.285   4.560   5.619
 2195SOL     OW 7483   0.153   0.367   4.944
 2195SOL    HW1 7484   0.102   0.404   4.866
 2195SOL    HW2 7485   0.231   0.313   4.912
 2196SOL     OW 7486   3.895   0.092   4.644
 2196SOL    HW1 7487   3.904   0.179   4.595
 2196SOL    HW2 7488   3.921   0.105   4.740
 2197SOL     OW 7489   2.512   3.636   0.465
 2197SOL    HW1 7490   2.504   3.721   0.517
 2197SOL    HW2 7491   2.592   3.585   0.498
 2198SOL     OW 7492   5.383   0.384   0.315
 2198SOL    HW1 7493   5.370   0.355   0.410
 2198SOL    HW2 7494   5.480   0.392   0.296
 2199SOL     OW 7495   5.176   0.378   2.888
 2199SOL    HW1 7496   5.126   0.461   2.863
 2199SOL    HW2 7497   5.223   0.391   2.975
 2200SOL     OW 7498   2.698   2.087   4.588
 2200SOL    HW1 7499   2.730   2.181   4.587
 2200SOL    HW2 7500   2.695   2.051   4.494
 2201SOL     OW 7501   6.995   2.820   2.863
 2201SOL    HW1 7502   0.001   2.848   2.771
 2201SOL    HW2 7503   6.951   2.731   2.858
 2202SOL     OW 7504   2.967   5.493   2.325
 2202SOL    HW1 7505   2.936   5.536   2.240
 2202SOL    HW2 7506   2.950   5.395   2.320
 2203SOL     OW 7507   1.749   2.808   0.621
 2203SOL    HW1 7508   1.807   2.810   0.540
 2203SOL    HW2 7509   1.787   2.867   0.692
 2204SOL     OW 7510   4.460   1.797   1.173
 2204SOL    HW1 7511   4.524   1.769   1.245
 2204SOL    HW2 7512   4.366   1.786   1.207
 2205SOL     OW 7513   0.765   0.103   6.243
 2205SOL    HW1 7514   0.813   0.054   6.170
 2205SOL    HW2 7515   0.692   0.159   6.204
 2206SOL     OW 7516   3.599   5.038   6.358
 2206SOL    HW1 7517   3.543   5.070   6.435
 2206SOL    HW2 7518   3.629   4.944   6.376
 2207SOL     OW 7519   2.834   4.755   6.270
 2207SOL    HW1 7520   2.831   4.770   6.369
 2207SOL    HW2 7521   2.877   4.666   6.251
 2208SOL     OW 7522   1.672   5.683   2.975
 2208SOL    HW1 7523   1.595   5.746   2.966
 2208SOL    HW2 7524   1.751   5.733   3.010
 2209SOL     OW 7525   1.640   6.529   5.529
 2209SOL    HW1 7526   1.652   6.627   5.542
 2209SOL    HW2 7527   1.543   6.507   5.532
 2210SOL     OW 7528   6.978   5.007   4.459
 2210SOL    HW1 7529   6.971   4.966   4.550
 2210SOL    HW2 7530   0.048   5.044   4.446
 2211SOL     OW 7531   6.351   0.277   0.896
 2211SOL    HW1 7532   6.321   0.360   0.943
 2211SOL    HW2 7533   6.445   0.257   0.922
 2212SOL     OW 7534   2.476   5.776   6.874
 2212SOL    HW1 7535   2.457   5.799   6.969
 2212SOL    HW2 7536   2.463   5.858   6.817
 2213SOL     OW 7537   2.954   1.573   5.258
 2213SOL    HW1 7538   3.026   1.633   5.224
 2213SOL    HW2 7539   2.870   1.590   5.207
 2214SOL     OW 7540   3.862   3.516   5.356
 2214SOL    HW1 7541   3.852   3.568   5.271
 2214SOL    HW2 7542   3.786   3.453   5.366
 2215SOL     OW 7543   6.451   0.998   0.047
 2215SOL    HW1 7544   6.425   1.080   0.098
 2215SOL    HW2 7545   6.460   1.020   6.972
 2216SOL     OW 7546   1.913   1.006   6.176
 2216SOL    HW1 7547   1.981   1.022   6.104
 2216SOL    HW2 7548   1.905   1.088   6.232
 2217SOL     OW 7549   3.801   0.014   2.018
 2217SOL    HW1 7550   3.857   6.981   1.956
 2217SOL    HW2 7551   3.736   0.068   1.965
 2218SOL     OW 7552   6.785   5.491   6.785
 2218SOL    HW1 7553   6.843   5.552   6.839
 2218SOL    HW2 7554   6.698   5.536   6.767
 2219SOL     OW 7555   5.175   1.946   1.376
 2219SOL    HW1 7556   5.173   2.027   1.435
 2219SOL    HW2 7557   5.161   1.974   1.281
 2220SOL     OW 7558   1.833   0.020   4.933
 2220SOL    HW1 7559   1.884   0.091   4.981
 2220SOL    HW2 7560   1.743   0.009   4.976
 2221SOL     OW 7561   6.624   1.410   5.569
 2221SOL    HW1 7562   6.599   1.505   5.590
 2221SOL    HW2 7563   6.573   1.379   5.488
 2222SOL     OW 7564   5.044   0.806   0.171
 2222SOL    HW1 7565   5.100   0.780   0.249
 2222SOL    HW2 7566   4.950   0.773   0.186
 2223SOL     OW 7567   5.860   1.352   5.139
 2223SOL    HW1 7568   5.944   1.302   5.120
 2223SOL    HW2 7569   5.796   1.343   5.063
 2224SOL     OW 7570   0.370   3.459   0.825
 2224SOL    HW1 7571   0.393   3.445   0.921
 2224SOL    HW2 7572   0.388   3.554   0.800
 2225SOL     OW 7573   6.618   6.795   3.624
 2225SOL    HW1 7574   6.666   6.829   3.544
 2225SOL    HW2 7575   6.531   6.753   3.596
 2226SOL     OW 7576   3.125   5.107   0.986
 2226SOL    HW1 7577   3.216   5.072   0.961
 2226SOL    HW2 7578   3.116   5.107   1.086
 2227SOL     OW 7579   5.083   3.561   6.824
 2227SOL    HW1 7580   5.115   3.608   6.742
 2227SOL    HW2 7581   5.005   3.610   6.863
 2228SOL     OW 7582   3.689   4.769   1.357
 2228SOL    HW1 7583   3.745   4.689   1.336
 2228SOL    HW2 7584   3.604   4.765   1.305
 2229SOL     OW 7585   4.224   2.960   5.462
 2229SOL    HW1 7586   4.310   2.982   5.417
 2229SOL    HW2 7587   4.171   2.899   5.404
 2230SOL     OW 7588   5.318   6.593   0.099
 2230SOL    HW1 7589   5.345   6.503   0.065
 2230SOL    HW2 7590   5.374   6.617   0.178
 2231SOL     OW 7591   0.568   0.618   1.592
 2231SOL    HW1 7592   0.500   0.546   1.593
 2231SOL    HW2 7593   0.584   0.648   1.498
 2232SOL     OW 7594   0.947   2.909   5.138
 2232SOL    HW1 7595   1.044   2.929   5.123
 2232SOL    HW2 7596   0.904   2.889   5.050
 2233SOL     OW 7597   1.713   4.042   0.089
 2233SOL    HW1 7598   1.739   4.061   7.017
 2233SOL    HW2 7599   1.645   3.969   0.091
 2234SOL     OW 7600   4.264   1.985   1.597
 2234SOL    HW1 7601   4.182   2.012   1.647
 2234SOL    HW2 7602   4.325   1.935   1.658
 2235SOL     OW 7603   2.435   6.925   1.519
 2235SOL    HW1 7604   2.447   6.929   1.419
 2235SOL    HW2 7605   2.411   7.016   1.553
 2236SOL     OW 7606   1.618   4.186   6.453
 2236SOL    HW1 7607   1.601   4.258   6.521
 2236SOL    HW2 7608   1.546   4.116   6.460
 2237SOL     OW 7609   5.764   4.806   4.268
 2237SOL    HW1 7610   5.672   4.844   4.260
 2237SOL    HW2 7611   5.805   4.836   4.354
 2238SOL     OW 7612   4.644   4.428   1.802
 2238SOL    HW1 7613   4.579   4.494   1.764
 2238SOL    HW2 7614   4.597   4.345   1.829
 2239SOL     OW 7615   3.719   5.216   4.443
 2239SOL    HW1 7616   3.648   5.250   4.381
 2239SOL    HW2 7617   3.711   5.116   4.451
 2240SOL     OW 7618   4.260   5.951   3.512
 2240SOL    HW1 7619   4.266   6.033   3.569
 2240SOL    HW2 7620   4.243   5.978   3.417
 2241SOL     OW 7621   0.454   5.293   3.419
 2241SOL    HW1 7622   0.538   5.277   3.471
 2241SOL    HW2 7623   0.475   5.346   3.337
 2242SOL     OW 7624   5.563   3.056   2.669
 2242SOL    HW1 7625   5.593   3.071   2.763
 2242SOL    HW2 7626   5.467   3.082   2.660
 2243SOL     OW 7627   1.894   6.867   6.193
 2243SOL    HW1 7628   1.923   6.841   6.285
 2243SOL    HW2 7629   1.818   6.809   6.165
 2244SOL     OW 7630   1.467   6.509   1.780
 2244SOL    HW1 7631   1.559   6.526   1.815
 2244SOL    HW2 7632   1.473   6.459   1.694
 2245SOL     OW 7633   0.738   2.350   0.934
 2245SOL    HW1 7634   0.649   2.318   0.966
 2245SOL    HW2 7635   0.808   2.326   1.001
 2246SOL     OW 7636   0.961   1.414   4.566
 2246SOL    HW1 7637   0.881   1.377   4.613
 2246SOL    HW2 7638   0.959   1.514   4.570
 2247SOL     OW 7639   3.408   2.926   4.200
 2247SOL    HW1 7640   3.435   2.969   4.287
 2247SOL    HW2 7641   3.489   2.894   4.151
 2248SOL     OW 7642   5.652   3.627   5.379
 2248SOL    HW1 7643   5.628   3.645   5.283
 2248SOL    HW2 7644   5.751   3.631   5.390
 2249SOL     OW 7645   5.846   6.304   3.179
 2249SOL    HW1 7646   5.930   6.252   3.163
 2249SOL    HW2 7647   5.852   6.351   3.266
 2250SOL     OW 7648   3.865   4.060   6.417
 2250SOL    HW1 7649   3.871   3.971   6.461
 2250SOL    HW2 7650   3.769   4.080   6.395
 2251SOL     OW 7651   5.199   0.222   6.309
 2251SOL    HW1 7652   5.235   0.294   6.249
 2251SOL    HW2 7653   5.259   0.212   6.388
 2252SOL     OW 7654   4.833   2.790   2.063
 2252SOL    HW1 7655   4.790   2.717   2.010
 2252SOL    HW2 7656   4.805   2.879   2.026
 2253SOL     OW 7657   0.206   3.894   6.764
 2253SOL    HW1 7658   0.302   3.867   6.775
 2253SOL    HW2 7659   0.167   3.916   6.854
 2254SOL     OW 7660   3.749   2.524   5.351
 2254SOL    HW1 7661   3.715   2.556   5.440
 2254SOL    HW2 7662   3.770   2.427   5.356
 2255SOL     OW 7663   4.558   3.460   6.360
 2255SOL    HW1 7664   4.607   3.376   6.385
 2255SOL    HW2 7665   4.611   3.512   6.294
 2256SOL     OW 7666   5.253   6.051   2.396
 2256SOL    HW1 7667   5.228   6.147   2.412
 2256SOL    HW2 7668   5.288   6.012   2.481
 2257SOL     OW 7669   0.194   2.198   4.632
 2257SOL    HW1 7670   0.174   2.285   4.677
 2257SOL    HW2 7671   0.160   2.123   4.689
 2258SOL     OW 7672   1.143   5.609   4.938
 2258SOL    HW1 7673   1.063   5.664   4.960
 2258SOL    HW2 7674   1.129   5.515   4.972
 2259SOL     OW 7675   5.453   4.193   6.647
 2259SOL    HW1 7676   5.371   4.188   6.589
 2259SOL    HW2 7677   5.531   4.153   6.598
 2260SOL     OW 7678   6.444   4.341   1.768
 2260SOL    HW1 7679   6.372   4.297   1.715
 2260SOL    HW2 7680   6.512   4.273   1.794
 2261SOL     OW 7681   6.454   5.521   0.078
 2261SOL    HW1 7682   6.538   5.576   0.087
 2261SOL    HW2 7683   6.459   5.466   7.017
 2262SOL     OW 7684   6.502   0.953   2.975
 2262SOL    HW1 7685   6.437   0.879   2.959
 2262SOL    HW2 7686   6.569   0.925   3.043
 2263SOL     OW 7687   3.121   6.023   6.591
 2263SOL    HW1 7688   3.038   5.981   6.555
 2263SOL    HW2 7689   3.128   6.117   6.558
 2264SOL     OW 7690   2.444   4.429   0.481
 2264SOL    HW1 7691   2.444   4.338   0.439
 2264SOL    HW2 7692   2.389   4.427   0.565
 2265SOL     OW 7693   0.579   0.650   4.295
 2265SOL    HW1 7694   0.536   0.561   4.277
 2265SOL    HW2 7695   0.678   0.638   4.297
 2266SOL     OW 7696   5.274   1.676   0.166
 2266SOL    HW1 7697   5.342   1.747   0.186
 2266SOL    HW2 7698   5.185   1.719   0.152
 2267SOL     OW 7699   4.954   2.112   4.519
 2267SOL    HW1 7700   4.900   2.063   4.451
 2267SOL    HW2 7701   4.957   2.059   4.604
 2268SOL     OW 7702   6.158   3.584   0.236
 2268SOL    HW1 7703   6.095   3.592   0.159
 2268SOL    HW2 7704   6.252   3.580   0.202
 2269SOL     OW 7705   6.063   4.997   5.324
 2269SOL    HW1 7706   6.023   5.013   5.414
 2269SOL    HW2 7707   6.098   5.083   5.287
 2270SOL     OW 7708   3.090   2.408   6.297
 2270SOL    HW1 7709   3.133   2.328   6.256
 2270SOL    HW2 7710   3.036   2.379   6.376
 2271SOL     OW 7711   5.517   3.717   0.825
 2271SOL    HW1 7712   5.472   3.773   0.894
 2271SOL    HW2 7713   5.499   3.620   0.844
 2272SOL     OW 7714   5.884   3.044   6.651
 2272SOL    HW1 7715   5.862   3.140   6.635
 2272SOL    HW2 7716   5.915   3.002   6.566
 2273SOL     OW 7717   1.621   0.719   2.377
 2273SOL    HW1 7718   1.525   0.745   2.370
 2273SOL    HW2 7719   1.677   0.789   2.333
 2274SOL     OW 7720   6.886   2.371   6.558
 2274SOL    HW1 7721   6.930   2.461   6.553
 2274SOL    HW2 7722   6.820   2.370   6.633
 2275SOL     OW 7723   6.185   6.899   4.502
 2275SOL    HW1 7724   6.161   6.808   4.536
 2275SOL    HW2 7725   6.241   6.890   4.420
 2276SOL     OW 7726   2.248   5.609   0.794
 2276SOL    HW1 7727   2.213   5.664   0.870
 2276SOL    HW2 7728   2.348   5.614   0.793
 2277SOL     OW 7729   3.659   3.747   4.437
 2277SOL    HW1 7730   3.644   3.726   4.534
 2277SOL    HW2 7731   3.702   3.837   4.430
 2278SOL     OW 7732   6.372   4.719   4.416
 2278SOL    HW1 7733   6.405   4.629   4.444
 2278SOL    HW2 7734   6.419   4.790   4.469
 2279SOL     OW 7735   5.417   0.198   5.546
 2279SOL    HW1 7736   5.455   0.162   5.631
 2279SOL    HW2 7737   5.488   0.198   5.475
 2280SOL     OW 7738   6.417   6.649   4.534
 2280SOL    HW1 7739   6.499   6.673   4.586
 2280SOL    HW2 7740   6.428   6.558   4.493
 2281SOL     OW 7741   3.652   1.542   2.283
 2281SOL    HW1 7742   3.626   1.562   2.378
 2281SOL    HW2 7743   3.747   1.569   2.268
 2282SOL     OW 7744   5.195   0.926   4.317
 2282SOL    HW1 7745   5.282   0.917   4.269
 2282SOL    HW2 7746   5.210   0.931   4.415
 2283SOL     OW 7747   0.229   4.743   1.230
 2283SOL    HW1 7748   0.263   4.707   1.317
 2283SOL    HW2 7749   0.293   4.720   1.157
 2284SOL     OW 7750   0.806   2.658   6.500
 2284SOL    HW1 7751   0.872   2.730   6.519
 2284SOL    HW2 7752   0.853   2.577   6.466
 2285SOL     OW 7753   2.266   2.506   0.807
 2285SOL    HW1 7754   2.283   2.448   0.887
 2285SOL    HW2 7755   2.173   2.542   0.811
 2286SOL     OW 7756   0.042   7.004   4.007
 2286SOL    HW1 7757   0.090   7.002   4.095
 2286SOL    HW2 7758   0.092   0.040   3.943
 2287SOL     OW 7759   1.666   0.617   3.325
 2287SOL    HW1 7760   1.631   0.684   3.260
 2287SOL    HW2 7761   1.591   0.561   3.359
 2288SOL     OW 7762   6.312   4.985   4.812
 2288SOL    HW1 7763   6.235   4.935   4.851
 2288SOL    HW2 7764   6.283   5.031   4.728
 2289SOL     OW 7765   0.666   4.836   2.155
 2289SOL    HW1 7766   0.574   4.861   2.124
 2289SOL    HW2 7767   0.696   4.902   2.224
 2290SOL     OW 7768   0.928   4.314   1.064
 2290SOL    HW1 7769   0.969   4.270   0.984
 2290SOL    HW2 7770   0.977   4.286   1.146
 2291SOL     OW 7771   2.958   2.483   5.872
 2291SOL    HW1 7772   2.942   2.386   5.893
 2291SOL    HW2 7773   2.895   2.511   5.800
 2292SOL     OW 7774   6.518   2.314   5.187
 2292SOL    HW1 7775   6.559   2.288   5.100
 2292SOL    HW2 7776   6.499   2.231   5.240
 2293SOL     OW 7777   4.574   6.474   1.231
 2293SOL    HW1 7778   4.480   6.502   1.209
 2293SOL    HW2 7779   4.637   6.546   1.202
 2294SOL     OW 7780   2.994   0.981   6.419
 2294SOL    HW1 7781   3.060   0.978   6.344
 2294SOL    HW2 7782   2.996   1.071   6.461
 2295SOL     OW 7783   0.397   2.195   3.031
 2295SOL    HW1 7784   0.322   2.130   3.049
 2295SOL    HW2 7785   0.475   2.145   2.994
 2296SOL     OW 7786   4.152   5.472   1.055
 2296SOL    HW1 7787   4.194   5.556   1.021
 2296SOL    HW2 7788   4.071   5.450   1.000
 2297SOL     OW 7789   4.225   4.674   5.766
 2297SOL    HW1 7790   4.152   4.685   5.699
 2297SOL    HW2 7791   4.307   4.722   5.734
 2298SOL     OW 7792   3.977   2.971   1.919
 2298SOL    HW1 7793   4.037   2.898   1.887
 2298SOL    HW2 7794   3.909   2.992   1.849
 2299SOL     OW 7795   4.135   5.525   5.440
 2299SOL    HW1 7796   4.042   5.492   5.450
 2299SOL    HW2 7797   4.160   5.527   5.343
 2300SOL     OW 7798   2.365   5.782   1.791
 2300SOL    HW1 7799   2.450   5.835   1.794
 2300SOL    HW2 7800   2.342   5.752   1.884
 2301SOL     OW 7801   3.341   2.885   2.960
 2301SOL    HW1 7802   3.298   2.896   2.870
 2301SOL    HW2 7803   3.281   2.926   3.029
 2302SOL     OW 7804   4.311   0.326   0.982
 2302SOL    HW1 7805   4.321   0.364   1.074
 2302SOL    HW2 7806   4.401   0.304   0.945
 2303SOL     OW 7807   2.749   3.114   6.266
 2303SOL    HW1 7808   2.832   3.136   6.215
 2303SOL    HW2 7809   2.677   3.180   6.243
 2304SOL     OW 7810   4.366   6.643   3.589
 2304SOL    HW1 7811   4.385   6.635   3.686
 2304SOL    HW2 7812   4.448   6.620   3.537
 2305SOL     OW 7813   2.378   6.447   2.498
 2305SOL    HW1 7814   2.291   6.489   2.522
 2305SOL    HW2 7815   2.435   6.438   2.581
 2306SOL     OW 7816   2.957   4.764   2.237
 2306SOL    HW1 7817   3.050   4.780   2.204
 2306SOL    HW2 7818   2.911   4.700   2.175
 2307SOL     OW 7819   6.653   4.030   2.762
 2307SOL    HW1 7820   6.592   4.072   2.830
 2307SOL    HW2 7821   6.746   4.064   2.775
 2308SOL     OW 7822   0.869   5.315   1.432
 2308SOL    HW1 7823   0.898   5.361   1.348
 2308SOL    HW2 7824   0.818   5.379   1.490
 2309SOL     OW 7825   1.818   0.964   6.727
 2309SOL    HW1 7826   1.850   0.901   6.656
 2309SOL    HW2 7827   1.888   1.034   6.742
 2310SOL     OW 7828   4.981   6.250   0.833
 2310SOL    HW1 7829   5.077   6.269   0.855
 2310SOL    HW2 7830   4.952   6.309   0.758
 2311SOL     OW 7831   1.817   6.318   1.585
 2311SOL    HW1 7832   1.916   6.330   1.571
 2311SOL    HW2 7833   1.794   6.338   1.680
 2312SOL     OW 7834   3.893   6.411   3.476
 2312SOL    HW1 7835   3.976   6.465   3.460
 2312SOL    HW2 7836   3.884   6.392   3.573
 2313SOL     OW 7837   5.755   6.019   1.420
 2313SOL    HW1 7838   5.843   6.064   1.403
 2313SOL    HW2 7839   5.699   6.023   1.337
 2314SOL     OW 7840   5.620   0.123   4.636
 2314SOL    HW1 7841   5.580   0.068   4.708
 2314SOL    HW2 7842   5.717   0.138   4.655
 2315SOL     OW 7843   4.866   3.017   5.747
 2315SOL    HW1 7844   4.780   3.058   5.776
 2315SOL    HW2 7845   4.861   2.992   5.650
 2316SOL     OW 7846   3.714   0.842   4.259
 2316SOL    HW1 7847   3.688   0.749   4.288
 2316SOL    HW2 7848   3.643   0.878   4.198
 2317SOL     OW 7849   0.363   6.014   3.704
 2317SOL    HW1 7850   0.275   6.023   3.752
 2317SOL    HW2 7851   0.352   6.044   3.609
 2318SOL     OW 7852   2.210   2.876   4.904
 2318SOL    HW1 7853   2.240   2.915   4.816
 2318SOL    HW2 7854   2.243   2.934   4.978
 2319SOL     OW 7855   2.029   4.896   3.995
 2319SOL    HW1 7856   2.063   4.896   3.901
 2319SOL    HW2 7857   1.935   4.860   3.997
 2320SOL     OW 7858   0.906   2.809   4.871
 2320SOL    HW1 7859   0.812   2.777   4.861
 2320SOL    HW2 7860   0.942   2.834   4.781
 2321SOL     OW 7861   2.483   6.515   6.783
 2321SOL    HW1 7862   2.414   6.521   6.855
 2321SOL    HW2 7863   2.468   6.589   6.716
 2322SOL     OW 7864   2.300   1.849   4.039
 2322SOL    HW1 7865   2.303   1.949   4.033
 2322SOL    HW2 7866   2.336   1.810   3.954
 2323SOL     OW 7867   3.014   5.011   1.941
 2323SOL    HW1 7868   3.032   5.049   2.032
 2323SOL    HW2 7869   3.098   4.975   1.902
 2324SOL     OW 7870   6.577   6.951   0.992
 2324SOL    HW1 7871   6.639   6.979   1.066
 2324SOL    HW2 7872   6.531   6.866   1.017
 2325SOL     OW 7873   0.858   4.768   1.477
 2325SOL    HW1 7874   0.865   4.867   1.491
 2325SOL    HW2 7875   0.782   4.748   1.416
 2326SOL     OW 7876   3.701   5.397   6.553
 2326SOL    HW1 7877   3.636   5.473   6.561
 2326SOL    HW2 7878   3.745   5.400   6.463
 2327SOL     OW 7879   6.621   1.976   3.698
 2327SOL    HW1 7880   6.645   1.951   3.604
 2327SOL    HW2 7881   6.667   1.914   3.761
 2328SOL     OW 7882   2.871   1.885   2.719
 2328SOL    HW1 7883   2.821   1.964   2.684
 2328SOL    HW2 7884   2.865   1.810   2.653
 2329SOL     OW 7885   1.890   3.931   5.247
 2329SOL    HW1 7886   1.972   3.886   5.213
 2329SOL    HW2 7887   1.879   4.019   5.201
 2330SOL     OW 7888   0.878   3.942   1.255
 2330SOL    HW1 7889   0.815   3.865   1.257
 2330SOL    HW2 7890   0.836   4.021   1.300
 2331SOL     OW 7891   4.818   5.392   0.496
 2331SOL    HW1 7892   4.812   5.439   0.584
 2331SOL    HW2 7893   4.775   5.302   0.503
 2332SOL     OW 7894   4.660   1.947   5.121
 2332SOL    HW1 7895   4.737   1.934   5.184
 2332SOL    HW2 7896   4.686   2.012   5.050
 2333SOL     OW 7897   0.852   5.091   3.032
 2333SOL    HW1 7898   0.757   5.061   3.017
 2333SOL    HW2 7899   0.894   5.035   3.104
 2334SOL     OW 7900   2.383   0.623   0.077
 2334SOL    HW1 7901   2.445   0.623   7.021
 2334SOL    HW2 7902   2.391   0.710   0.126
 2335SOL     OW 7903   6.228   0.607   2.706
 2335SOL    HW1 7904   6.236   0.517   2.663
 2335SOL    HW2 7905   6.134   0.620   2.738
 2336SOL     OW 7906   4.370   2.275   4.941
 2336SOL    HW1 7907   4.351   2.179   4.920
 2336SOL    HW2 7908   4.289   2.317   4.981
 2337SOL     OW 7909   4.912   1.249   2.534
 2337SOL    HW1 7910   4.892   1.347   2.537
 2337SOL    HW2 7911   5.003   1.233   2.575
 2338SOL     OW 7912   1.612   2.159   5.349
 2338SOL    HW1 7913   1.562   2.229   5.298
 2338SOL    HW2 7914   1.552   2.082   5.368
 2339SOL     OW 7915   4.055   3.897   5.083
 2339SOL    HW1 7916   4.151   3.906   5.109
 2339SOL    HW2 7917   3.997   3.935   5.155
 2340SOL     OW 7918   5.696   4.936   0.316
 2340SOL    HW1 7919   5.784   4.926   0.270
 2340SOL    HW2 7920   5.706   4.916   0.414
 2341SOL     OW 7921   4.760   4.844   1.714
 2341SOL    HW1 7922   4.738   4.896   1.631
 2341SOL    HW2 7923   4.677   4.829   1.767
 2342SOL     OW 7924   0.300   0.022   5.009
 2342SOL    HW1 7925   0.391   0.014   4.968
 2342SOL    HW2 7926   0.304   0.085   5.087
 2343SOL     OW 7927   2.599   6.001   2.694
 2343SOL    HW1 7928   2.682   6.052   2.671
 2343SOL    HW2 7929   2.600   5.912   2.649
 2344SOL     OW 7930   1.666   0.178   1.015
 2344SOL    HW1 7931   1.746   0.158   1.071
 2344SOL    HW2 7932   1.661   0.112   0.940
 2345SOL     OW 7933   3.484   5.403   5.106
 2345SOL    HW1 7934   3.413   5.335   5.089
 2345SOL    HW2 7935   3.562   5.386   5.046
 2346SOL     OW 7936   4.905   2.609   4.666
 2346SOL    HW1 7937   4.994   2.568   4.645
 2346SOL    HW2 7938   4.883   2.679   4.598
 2347SOL     OW 7939   2.565   3.230   1.687
 2347SOL    HW1 7940   2.485   3.171   1.696
 2347SOL    HW2 7941   2.551   3.314   1.738
 2348SOL     OW 7942   3.654   6.310   3.387
 2348SOL    HW1 7943   3.749   6.335   3.402
 2348SOL    HW2 7944   3.610   6.379   3.330
 2349SOL     OW 7945   0.629   4.405   5.975
 2349SOL    HW1 7946   0.606   4.498   6.006
 2349SOL    HW2 7947   0.721   4.405   5.936
 2350SOL     OW 7948   4.551   6.764   6.289
 2350SOL    HW1 7949   4.555   6.807   6.199
 2350SOL    HW2 7950   4.578   6.830   6.359
 2351SOL     OW 7951   3.579   4.994   2.817
 2351SOL    HW1 7952   3.603   5.046   2.898
 2351SOL    HW2 7953   3.485   4.961   2.824
 2352SOL     OW 7954   0.801   4.599   2.407
 2352SOL    HW1 7955   0.701   4.602   2.416
 2352SOL    HW2 7956   0.826   4.530   2.339
 2353SOL     OW 7957   3.203   4.470   5.349
 2353SOL    HW1 7958   3.120   4.413   5.351
 2353SOL    HW2 7959   3.183   4.556   5.303
 2354SOL     OW 7960   2.343   1.733   5.928
 2354SOL    HW1 7961   2.295   1.662   5.980
 2354SOL    HW2 7962   2.368   1.698   5.838
 2355SOL     OW 7963   1.691   5.846   0.145
 2355SOL    HW1 7964   1.650   5.814   0.060
 2355SOL    HW2 7965   1.745   5.928   0.127
 2356SOL     OW 7966   1.852   3.854   0.521
 2356SOL    HW1 7967   1.819   3.876   0.429
 2356SOL    HW2 7968   1.834   3.931   0.583
 2357SOL     OW 7969   4.762   5.773   4.238
 2357SOL    HW1 7970   4.684   5.710   4.245
 2357SOL    HW2 7971   4.728   5.865   4.223
 2358SOL     OW 7972   3.216   5.504   5.240
 2358SOL    HW1 7973   3.291   5.501   5.175
 2358SOL    HW2 7974   3.223   5.427   5.303
 2359SOL     OW 7975   0.186   0.922   6.157
 2359SOL    HW1 7976   0.134   0.867   6.223
 2359SOL    HW2 7977   0.248   0.862   6.106
 2360SOL     OW 7978   5.391   6.052   6.459
 2360SOL    HW1 7979   5.294   6.034   6.439
 2360SOL    HW2 7980   5.400   6.141   6.504
 2361SOL     OW 7981   2.378   1.133   5.332
 2361SOL    HW1 7982   2.409   1.126   5.238
 2361SOL    HW2 7983   2.407   1.221   5.370
 2362SOL     OW 7984   2.801   0.803   5.527
 2362SOL    HW1 7985   2.860   0.841   5.457
 2362SOL    HW2 7986   2.717   0.857   5.532
 2363SOL     OW 7987   4.302   2.567   5.457
 2363SOL    HW1 7988   4.228   2.626   5.489
 2363SOL    HW2 7989   4.386   2.621   5.448
 2364SOL     OW 7990   1.028   2.127   2.700
 2364SOL    HW1 7991   1.073   2.038   2.703
 2364SOL    HW2 7992   1.058   2.183   2.777
 2365SOL     OW 7993   6.003   2.318   6.658
 2365SOL    HW1 7994   5.927   2.375   6.688
 2365SOL    HW2 7995   6.029   2.342   6.564
 2366SOL     OW 7996   1.613   4.376   6.005
 2366SOL    HW1 7997   1.657   4.456   6.046
 2366SOL    HW2 7998   1.673   4.337   5.935
 2367SOL     OW 7999   3.593   3.631   0.169
 2367SOL    HW1 8000   3.668   3.604   0.229
 2367SOL    HW2 8001   3.527   3.685   0.221
 2368SOL     OW 8002   4.884   0.001   2.984
 2368SOL    HW1 8003   4.932   0.071   3.035
 2368SOL    HW2 8004   4.803   6.993   3.035
 2369SOL     OW 8005   1.623   2.828   5.262
 2369SOL    HW1 8006   1.549   2.837   5.328
 2369SOL    HW2 8007   1.711   2.836   5.308
 2370SOL     OW 8008   4.813   4.367   6.586
 2370SOL    HW1 8009   4.716   4.351   6.603
 2370SOL    HW2 8010   4.824   4.444   6.524
 2371SOL     OW 8011   7.007   6.107   1.585
 2371SOL    HW1 8012   0.001   6.153   1.497
 2371SOL    HW2 8013   0.027   6.159   1.659
 2372SOL     OW 8014   6.994   2.025   1.056
 2372SOL    HW1 8015   6.972   2.085   1.133
 2372SOL    HW2 8016   6.960   2.067   0.971
 2373SOL     OW 8017   0.432   0.001   6.916
 2373SOL    HW1 8018   0.521   6.980   6.929
 2373SOL    HW2 8019   0.437   0.097   6.943
 2374SOL     OW 8020   6.141   0.692   4.272
 2374SOL    HW1 8021   6.193   0.752   4.333
 2374SOL    HW2 8022   6.203   0.648   4.207
 2375SOL     OW 8023   1.912   6.857   3.610
 2375SOL    HW1 8024   1.870   6.883   3.523
 2375SOL    HW2 8025   2.004   6.821   3.593
 2376SOL     OW 8026   5.891   2.365   4.308
 2376SOL    HW1 8027   5.982   2.336   4.281
 2376SOL    HW2 8028   5.839   2.286   4.341
 2377SOL     OW 8029   3.430   4.163   3.155
 2377SOL    HW1 8030   3.372   4.098   3.105
 2377SOL    HW2 8031   3.377   4.207   3.227
 2378SOL     OW 8032   4.792   2.407   0.130
 2378SOL    HW1 8033   4.796   2.372   0.037
 2378SOL    HW2 8034   4.700   2.394   0.167
 2379SOL     OW 8035   5.978   1.970   6.255
 2379SOL    HW1 8036   5.924   2.034   6.310
 2379SOL    HW2 8037   6.028   1.908   6.316
 2380SOL     OW 8038   0.061   7.006   5.795
 2380SOL    HW1 8039   0.029   6.917   5.764
 2380SOL    HW2 8040   0.035   7.019   5.890
 2381SOL     OW 8041   2.085   3.992   4.168
 2381SOL    HW1 8042   2.016   4.011   4.237
 2381SOL    HW2 8043   2.166   4.048   4.185
 2382SOL     OW 8044   2.566   5.179   3.588
 2382SOL    HW1 8045   2.471   5.211   3.592
 2382SOL    HW2 8046   2.577   5.117   3.510
 2383SOL     OW 8047   5.565   6.573   0.331
 2383SOL    HW1 8048   5.605   6.581   0.240
 2383SOL    HW2 8049   5.562   6.477   0.358
 2384SOL     OW 8050   6.704   6.338   2.336
 2384SOL    HW1 8051   6.678   6.281   2.258
 2384SOL    HW2 8052   6.631   6.404   2.354
 2385SOL     OW 8053   6.472   6.668   1.097
 2385SOL    HW1 8054   6.514   6.582   1.126
 2385SOL    HW2 8055   6.405   6.697   1.166
 2386SOL     OW 8056   5.384   5.297   4.594
 2386SOL    HW1 8057   5.407   5.246   4.511
 2386SOL    HW2 8058   5.328   5.376   4.569
 2387SOL     OW 8059   0.904   1.951   3.775
 2387SOL    HW1 8060   0.899   2.045   3.807
 2387SOL    HW2 8061   0.814   1.920   3.744
 2388SOL     OW 8062   1.361   2.018   3.581
 2388SOL    HW1 8063   1.432   2.089   3.585
 2388SOL    HW2 8064   1.274   2.059   3.554
 2389SOL     OW 8065   5.274   3.321   3.397
 2389SOL    HW1 8066   5.247   3.410   3.433
 2389SOL    HW2 8067   5.312   3.265   3.471
 2390SOL     OW 8068   3.603   3.833   3.727
 2390SOL    HW1 8069   3.535   3.769   3.692
 2390SOL    HW2 8070   3.564   3.925   3.729
 2391SOL     OW 8071   4.571   4.816   5.656
 2391SOL    HW1 8072   4.508   4.780   5.587
 2391SOL    HW2 8073   4.661   4.831   5.615
 2392SOL     OW 8074   3.996   0.118   4.929
 2392SOL    HW1 8075   4.051   0.195   4.962
 2392SOL    HW2 8076   3.927   0.095   4.997
 2393SOL     OW 8077   4.363   5.147   6.465
 2393SOL    HW1 8078   4.331   5.067   6.516
 2393SOL    HW2 8079   4.452   5.175   6.502
 2394SOL     OW 8080   2.047   3.254   4.268
 2394SOL    HW1 8081   2.074   3.251   4.365
 2394SOL    HW2 8082   1.978   3.325   4.255
 2395SOL     OW 8083   6.157   2.602   0.341
 2395SOL    HW1 8084   6.218   2.528   0.315
 2395SOL    HW2 8085   6.115   2.582   0.429
 2396SOL     OW 8086   3.914   5.211   1.226
 2396SOL    HW1 8087   3.896   5.242   1.320
 2396SOL    HW2 8088   4.007   5.175   1.220
 2397SOL     OW 8089   0.348   4.313   6.908
 2397SOL    HW1 8090   0.389   4.277   6.992
 2397SOL    HW2 8091   0.249   4.312   6.916
 2398SOL     OW 8092   2.964   3.961   6.562
 2398SOL    HW1 8093   2.933   4.055   6.575
 2398SOL    HW2 8094   2.891   3.906   6.522
 2399SOL     OW 8095   5.165   1.224   2.645
 2399SOL    HW1 8096   5.224   1.158   2.692
 2399SOL    HW2 8097   5.205   1.315   2.651
 2400SOL     OW 8098   3.741   5.449   0.419
 2400SOL    HW1 8099   3.778   5.497   0.498
 2400SOL    HW2 8100   3.781   5.357   0.415
 2401SOL     OW 8101   4.346   6.679   6.420
 2401SOL    HW1 8102   4.345   6.579   6.410
 2401SOL    HW2 8103   4.431   6.715   6.379
 2402SOL     OW 8104   0.820   1.118   4.462
 2402SOL    HW1 8105   0.850   1.183   4.531
 2402SOL    HW2 8106   0.727   1.141   4.433
 2403SOL     OW 8107   2.558   2.707   0.273
 2403SOL    HW1 8108   2.553   2.676   0.368
 2403SOL    HW2 8109   2.465   2.718   0.237
 2404SOL     OW 8110   5.751   0.773   1.435
 2404SOL    HW1 8111   5.652   0.783   1.444
 2404SOL    HW2 8112   5.794   0.778   1.525
 2405SOL     OW 8113   3.555   3.424   3.369
 2405SOL    HW1 8114   3.602   3.347   3.325
 2405SOL    HW2 8115   3.460   3.400   3.385
 2406SOL     OW 8116   2.501   0.565   3.212
 2406SOL    HW1 8117   2.492   0.474   3.252
 2406SOL    HW2 8118   2.544   0.626   3.279
 2407SOL     OW 8119   5.571   2.795   2.916
 2407SOL    HW1 8120   5.605   2.809   3.009
 2407SOL    HW2 8121   5.644   2.811   2.850
 2408SOL     OW 8122   3.864   5.109   4.110
 2408SOL    HW1 8123   3.768   5.094   4.133
 2408SOL    HW2 8124   3.872   5.181   4.041
 2409SOL     OW 8125   1.757   2.645   1.064
 2409SOL    HW1 8126   1.687   2.622   1.131
 2409SOL    HW2 8127   1.842   2.670   1.110
 2410SOL     OW 8128   4.767   2.314   6.546
 2410SOL    HW1 8129   4.731   2.404   6.523
 2410SOL    HW2 8130   4.866   2.312   6.532
 2411SOL     OW 8131   4.522   5.519   5.794
 2411SOL    HW1 8132   4.523   5.602   5.738
 2411SOL    HW2 8133   4.537   5.544   5.890
 2412SOL     OW 8134   3.813   4.729   0.448
 2412SOL    HW1 8135   3.864   4.815   0.460
 2412SOL    HW2 8136   3.861   4.671   0.382
 2413SOL     OW 8137   6.538   1.963   0.299
 2413SOL    HW1 8138   6.480   1.912   0.236
 2413SOL    HW2 8139   6.603   1.900   0.342
 2414SOL     OW 8140   4.906   3.967   1.991
 2414SOL    HW1 8141   4.841   4.035   1.958
 2414SOL    HW2 8142   4.998   3.992   1.962
 2415SOL     OW 8143   0.774   6.363   1.607
 2415SOL    HW1 8144   0.859   6.387   1.655
 2415SOL    HW2 8145   0.752   6.434   1.540
 2416SOL     OW 8146   3.394   2.106   5.066
 2416SOL    HW1 8147   3.356   2.115   5.158
 2416SOL    HW2 8148   3.329   2.143   4.999
 2417SOL     OW 8149   4.353   3.048   6.204
 2417SOL    HW1 8150   4.277   2.993   6.238
 2417SOL    HW2 8151   4.437   2.994   6.205
 2418SOL     OW 8152   3.098   3.916   3.872
 2418SOL    HW1 8153   3.052   3.963   3.796
 2418SOL    HW2 8154   3.197   3.921   3.860
 2419SOL     OW 8155   0.839   6.499   3.614
 2419SOL    HW1 8156   0.894   6.494   3.697
 2419SOL    HW2 8157   0.757   6.443   3.624
 2420SOL     OW 8158   3.874   1.640   1.230
 2420SOL    HW1 8159   3.908   1.658   1.322
 2420SOL    HW2 8160   3.852   1.543   1.220
 2421SOL     OW 8161   2.693   1.112   5.252
 2421SOL    HW1 8162   2.786   1.150   5.252
 2421SOL    HW2 8163   2.644   1.143   5.171
 2422SOL     OW 8164   6.214   0.431   1.774
 2422SOL    HW1 8165   6.307   0.395   1.784
 2422SOL    HW2 8166   6.184   0.470   1.860
 2423SOL     OW 8167   1.288   6.140   3.857
 2423SOL    HW1 8168   1.338   6.172   3.777
 2423SOL    HW2 8169   1.190   6.159   3.846
 2424SOL     OW 8170   6.001   6.390   6.072
 2424SOL    HW1 8171   6.085   6.395   6.018
 2424SOL    HW2 8172   5.942   6.318   6.035
 2425SOL     OW 8173   6.397   0.234   4.445
 2425SOL    HW1 8174   6.320   0.254   4.385
 2425SOL    HW2 8175   6.436   0.145   4.421
 2426SOL     OW 8176   0.855   5.357   4.439
 2426SOL    HW1 8177   0.842   5.264   4.473
 2426SOL    HW2 8178   0.843   5.358   4.340
 2427SOL     OW 8179   5.582   5.420   6.553
 2427SOL    HW1 8180   5.568   5.451   6.647
 2427SOL    HW2 8181   5.666   5.462   6.516
 2428SOL     OW 8182   6.955   6.996   3.430
 2428SOL    HW1 8183   0.024   7.000   3.389
 2428SOL    HW2 8184   6.939   0.055   3.485
 2429SOL     OW 8185   6.441   5.879   4.842
 2429SOL    HW1 8186   6.497   5.863   4.761
 2429SOL    HW2 8187   6.387   5.797   4.863
 2430SOL     OW 8188   6.489   1.483   0.999
 2430SOL    HW1 8189   6.578   1.470   1.043
 2430SOL    HW2 8190   6.443   1.563   1.040
 2431SOL     OW 8191   3.563   0.373   2.001
 2431SOL    HW1 8192   3.620   0.335   2.073
 2431SOL    HW2 8193   3.474   0.328   2.002
 2432SOL     OW 8194   3.629   6.953   2.946
 2432SOL    HW1 8195   3.702   6.885   2.941
 2432SOL    HW2 8196   3.544   6.908   2.974
 2433SOL     OW 8197   3.415   6.752   0.844
 2433SOL    HW1 8198   3.324   6.715   0.860
 2433SOL    HW2 8199   3.422   6.842   0.887
 2434SOL     OW 8200   4.781   1.181   3.719
 2434SOL    HW1 8201   4.798   1.136   3.631
 2434SOL    HW2 8202   4.706   1.246   3.708
 2435SOL     OW 8203   4.719   5.325   6.056
 2435SOL    HW1 8204   4.670   5.409   6.081
 2435SOL    HW2 8205   4.760   5.336   5.965
 2436SOL     OW 8206   2.184   6.306   1.297
 2436SOL    HW1 8207   2.163   6.404   1.298
 2436SOL    HW2 8208   2.245   6.284   1.373
 2437SOL     OW 8209   3.876   6.205   0.948
 2437SOL    HW1 8210   3.903   6.188   0.854
 2437SOL    HW2 8211   3.936   6.274   0.988
 2438SOL     OW 8212   3.663   1.618   5.623
 2438SOL    HW1 8213   3.661   1.546   5.553
 2438SOL    HW2 8214   3.608   1.696   5.593
 2439SOL     OW 8215   0.973   4.272   6.735
 2439SOL    HW1 8216   0.948   4.283   6.832
 2439SOL    HW2 8217   0.891   4.273   6.679
 2440SOL     OW 8218   4.895   6.392   4.935
 2440SOL    HW1 8219   4.799   6.374   4.913
 2440SOL    HW2 8220   4.949   6.395   4.851
 2441SOL     OW 8221   6.897   0.524   6.696
 2441SOL    HW1 8222   6.945   0.437   6.705
 2441SOL    HW2 8223   6.891   0.568   6.785
 2442SOL     OW 8224   6.315   5.837   4.082
 2442SOL    HW1 8225   6.374   5.782   4.141
 2442SOL    HW2 8226   6.227   5.791   4.071
 2443SOL     OW 8227   3.486   6.681   5.518
 2443SOL    HW1 8228   3.585   6.687   5.517
 2443SOL    HW2 8229   3.458   6.585   5.529
 2444SOL     OW 8230   3.632   4.855   5.965
 2444SOL    HW1 8231   3.668   4.947   5.978
 2444SOL    HW2 8232   3.563   4.857   5.892
 2445SOL     OW 8233   0.438   0.352   1.708
 2445SOL    HW1 8234   0.446   0.320   1.614
 2445SOL    HW2 8235   0.481   0.287   1.770
 2446SOL     OW 8236   6.963   3.644   3.859
 2446SOL    HW1 8237   6.941   3.630   3.763
 2446SOL    HW2 8238   6.979   3.556   3.904
 2447SOL     OW 8239   3.041   1.246   0.564
 2447SOL    HW1 8240   2.996   1.328   0.528
 2447SOL    HW2 8241   3.105   1.211   0.495
 2448SOL     OW 8242   0.838   0.408   5.446
 2448SOL    HW1 8243   0.868   0.454   5.530
 2448SOL    HW2 8244   0.777   0.333   5.469
 2449SOL     OW 8245   0.041   4.627   1.626
 2449SOL    HW1 8246   0.020   4.703   1.565
 2449SOL    HW2 8247   0.096   4.660   1.703
 2450SOL     OW 8248   2.951   4.916   4.565
 2450SOL    HW1 8249   3.030   4.899   4.623
 2450SOL    HW2 8250   2.870   4.875   4.606
 2451SOL     OW 8251   0.698   0.065   3.565
 2451SOL    HW1 8252   0.598   0.067   3.556
 2451SOL    HW2 8253   0.726   0.132   3.634
 2452SOL     OW 8254   2.066   2.369   2.999
 2452SOL    HW1 8255   2.039   2.416   2.914
 2452SOL    HW2 8256   2.161   2.393   3.020
 2453SOL     OW 8257   6.528   3.640   1.315
 2453SOL    HW1 8258   6.520   3.604   1.408
 2453SOL    HW2 8259   6.624   3.633   1.285
 2454SOL     OW 8260   3.542   1.387   0.383
 2454SOL    HW1 8261   3.578   1.475   0.353
 2454SOL    HW2 8262   3.573   1.315   0.321
 2455SOL     OW 8263   5.737   6.679   0.713
 2455SOL    HW1 8264   5.644   6.678   0.677
 2455SOL    HW2 8265   5.743   6.744   0.789
 2456SOL     OW 8266   5.858   0.200   0.446
 2456SOL    HW1 8267   5.933   0.135   0.431
 2456SOL    HW2 8268   5.860   0.270   0.376
 2457SOL     OW 8269   6.719   6.433   0.407
 2457SOL    HW1 8270   6.657   6.455   0.482
 2457SOL    HW2 8271   6.795   6.378   0.441
 2458SOL     OW 8272   2.708   5.516   4.060
 2458SOL    HW1 8273   2.687   5.459   3.980
 2458SOL    HW2 8274   2.707   5.612   4.033
 2459SOL     OW 8275   2.479   6.497   0.300
 2459SOL    HW1 8276   2.560   6.452   0.263
 2459SOL    HW2 8277   2.484   6.595   0.280
 2460SOL     OW 8278   2.319   0.427   1.082
 2460SOL    HW1 8279   2.305   0.442   0.984
 2460SOL    HW2 8280   2.244   0.471   1.132
 2461SOL     OW 8281   4.373   0.335   2.702
 2461SOL    HW1 8282   4.294   0.394   2.688
 2461SOL    HW2 8283   4.450   0.391   2.734
 2462SOL     OW 8284   2.422   5.501   0.227
 2462SOL    HW1 8285   2.512   5.476   0.194
 2462SOL    HW2 8286   2.368   5.541   0.153
 2463SOL     OW 8287   6.201   2.453   4.047
 2463SOL    HW1 8288   6.218   2.494   3.957
 2463SOL    HW2 8289   6.102   2.442   4.060
 2464SOL     OW 8290   1.571   4.342   1.720
 2464SOL    HW1 8291   1.496   4.277   1.707
 2464SOL    HW2 8292   1.544   4.432   1.685
 2465SOL     OW 8293   6.665   6.013   1.308
 2465SOL    HW1 8294   6.722   6.055   1.238
 2465SOL    HW2 8295   6.599   6.080   1.342
 2466SOL     OW 8296   3.390   1.209   1.791
 2466SOL    HW1 8297   3.467   1.146   1.783
 2466SOL    HW2 8298   3.320   1.169   1.851
 2467SOL     OW 8299   5.593   1.887   5.538
 2467SOL    HW1 8300   5.621   1.791   5.534
 2467SOL    HW2 8301   5.518   1.897   5.603
 2468SOL     OW 8302   5.786   6.524   2.302
 2468SOL    HW1 8303   5.710   6.533   2.238
 2468SOL    HW2 8304   5.761   6.459   2.374
 2469SOL     OW 8305   3.885   4.817   5.295
 2469SOL    HW1 8306   3.900   4.723   5.326
 2469SOL    HW2 8307   3.789   4.840   5.304
 2470SOL     OW 8308   3.098   4.347   6.054
 2470SOL    HW1 8309   3.116   4.316   5.961
 2470SOL    HW2 8310   3.170   4.411   6.082
 2471SOL     OW 8311   2.057   5.938   1.661
 2471SOL    HW1 8312   1.975   5.965   1.611
 2471SOL    HW2 8313   2.059   5.839   1.672
 2472SOL     OW 8314   4.804   1.535   4.218
 2472SOL    HW1 8315   4.851   1.541   4.305
 2472SOL    HW2 8316   4.738   1.460   4.220
 2473SOL     OW 8317   1.906   4.236   5.566
 2473SOL    HW1 8318   1.854   4.321   5.554
 2473SOL    HW2 8319   1.843   4.160   5.581
 2474SOL     OW 8320   0.365   5.666   0.406
 2474SOL    HW1 8321   0.349   5.651   0.309
 2474SOL    HW2 8322   0.391   5.580   0.450
 2475SOL     OW 8323   4.238   1.305   0.380
 2475SOL    HW1 8324   4.257   1.392   0.427
 2475SOL    HW2 8325   4.292   1.232   0.422
 2476SOL     OW 8326   0.634   2.736   3.866
 2476SOL    HW1 8327   0.684   2.655   3.898
 2476SOL    HW2 8328   0.655   2.752   3.769
 2477SOL     OW 8329   6.584   0.255   2.587
 2477SOL    HW1 8330   6.603   0.160   2.610
 2477SOL    HW2 8331   6.600   0.313   2.667
 2478SOL     OW 8332   5.524   7.015   2.505
 2478SOL    HW1 8333   5.464   6.947   2.464
 2478SOL    HW2 8334   5.578   0.037   2.434
 2479SOL     OW 8335   0.934   3.407   1.393
 2479SOL    HW1 8336   0.970   3.500   1.389
 2479SOL    HW2 8337   0.858   3.398   1.328
 2480SOL     OW 8338   5.865   4.101   0.884
 2480SOL    HW1 8339   5.861   4.023   0.946
 2480SOL    HW2 8340   5.822   4.078   0.797
 2481SOL     OW 8341   2.773   6.575   0.294
 2481SOL    HW1 8342   2.751   6.669   0.265
 2481SOL    HW2 8343   2.853   6.543   0.244
 2482SOL     OW 8344   5.268   2.823   5.574
 2482SOL    HW1 8345   5.201   2.852   5.506
 2482SOL    HW2 8346   5.253   2.871   5.660
 2483SOL     OW 8347   2.419   1.029   6.876
 2483SOL    HW1 8348   2.425   1.051   6.973
 2483SOL    HW2 8349   2.510   1.038   6.834
 2484SOL     OW 8350   2.242   0.531   0.564
 2484SOL    HW1 8351   2.287   0.611   0.604
 2484SOL    HW2 8352   2.278   0.515   0.472
 2485SOL     OW 8353   4.317   4.604   2.125
 2485SOL    HW1 8354   4.357   4.513   2.114
 2485SOL    HW2 8355   4.245   4.617   2.056
 2486SOL     OW 8356   3.509   5.731   2.931
 2486SOL    HW1 8357   3.437   5.782   2.977
 2486SOL    HW2 8358   3.561   5.678   2.999
 2487SOL     OW 8359   3.962   5.312   0.219
 2487SOL    HW1 8360   3.984   5.332   0.124
 2487SOL    HW2 8361   3.891   5.241   0.222
 2488SOL     OW 8362   2.290   4.093   1.508
 2488SOL    HW1 8363   2.194   4.065   1.508
 2488SOL    HW2 8364   2.341   4.036   1.443
 2489SOL     OW 8365   2.502   5.218   4.030
 2489SOL    HW1 8366   2.599   5.225   4.052
 2489SOL    HW2 8367   2.470   5.304   3.991
 2490SOL     OW 8368   6.724   5.347   0.616
 2490SOL    HW1 8369   6.702   5.322   0.522
 2490SOL    HW2 8370   6.646   5.328   0.675
 2491SOL     OW 8371   2.189   5.934   2.652
 2491SOL    HW1 8372   2.247   6.006   2.689
 2491SOL    HW2 8373   2.097   5.940   2.693
 2492SOL     OW 8374   3.683   2.754   6.765
 2492SOL    HW1 8375   3.637   2.703   6.838
 2492SOL    HW2 8376   3.621   2.823   6.728
 2493SOL     OW 8377   6.072   0.582   3.006
 2493SOL    HW1 8378   6.047   0.510   2.941
 2493SOL    HW2 8379   6.168   0.573   3.031
 2494SOL     OW 8380   5.848   3.512   2.520
 2494SOL    HW1 8381   5.757   3.552   2.522
 2494SOL    HW2 8382   5.882   3.510   2.426
 2495SOL     OW 8383   4.991   0.608   4.845
 2495SOL    HW1 8384   4.968   0.622   4.941
 2495SOL    HW2 8385   5.034   0.691   4.808
 2496SOL     OW 8386   1.062   5.157   6.798
 2496SOL    HW1 8387   1.004   5.218   6.744
 2496SOL    HW2 8388   1.104   5.089   6.738
 2497SOL     OW 8389   0.097   1.422   0.550
 2497SOL    HW1 8390   0.017   1.448   0.496
 2497SOL    HW2 8391   0.066   1.379   0.635
 2498SOL     OW 8392   3.288   1.975   3.363
 2498SOL    HW1 8393   3.281   1.940   3.456
 2498SOL    HW2 8394   3.331   1.905   3.305
 2499SOL     OW 8395   5.504   1.453   4.261
 2499SOL    HW1 8396   5.523   1.504   4.344
 2499SOL    HW2 8397   5.407   1.457   4.240
 2500SOL     OW 8398   4.469   3.433   5.925
 2500SOL    HW1 8399   4.474   3.522   5.969
 2500SOL    HW2 8400   4.484   3.443   5.827
 2501SOL     OW 8401   6.925   5.632   6.949
 2501SOL    HW1 8402   7.004   5.693   6.963
 2501SOL    HW2 8403   6.937   5.550   7.005
 2502SOL     OW 8404   2.783   6.150   3.752
 2502SOL    HW1 8405   2.733   6.064   3.743
 2502SOL    HW2 8406   2.881   6.134   3.742
 2503SOL     OW 8407   3.750   5.811   5.557
 2503SOL    HW1 8408   3.726   5.871   5.633
 2503SOL    HW2 8409   3.668   5.787   5.505
 2504SOL     OW 8410   2.653   5.769   5.024
 2504SOL    HW1 8411   2.632   5.803   5.116
 2504SOL    HW2 8412   2.652   5.669   5.025
 2505SOL     OW 8413   2.256   6.409   4.255
 2505SOL    HW1 8414   2.320   6.333   4.255
 2505SOL    HW2 8415   2.165   6.376   4.228
 2506SOL     OW 8416   0.047   3.212   6.015
 2506SOL    HW1 8417   0.104   3.176   5.941
 2506SOL    HW2 8418   0.040   3.143   6.088
 2507SOL     OW 8419   6.387   4.439   6.915
 2507SOL    HW1 8420   6.329   4.491   6.851
 2507SOL    HW2 8421   6.476   4.483   6.923
 2508SOL     OW 8422   2.424   1.883   2.247
 2508SOL    HW1 8423   2.337   1.843   2.219
 2508SOL    HW2 8424   2.491   1.872   2.174
 2509SOL     OW 8425   6.003   3.019   2.629
 2509SOL    HW1 8426   6.013   2.994   2.726
 2509SOL    HW2 8427   6.050   3.105   2.613
 2510SOL     OW 8428   2.871   4.478   0.562
 2510SOL    HW1 8429   2.845   4.541   0.636
 2510SOL    HW2 8430   2.894   4.389   0.602
 2511SOL     OW 8431   1.554   1.694   4.876
 2511SOL    HW1 8432   1.569   1.607   4.830
 2511SOL    HW2 8433   1.531   1.765   4.809
 2512SOL     OW 8434   5.500   4.689   5.077
 2512SOL    HW1 8435   5.552   4.775   5.077
 2512SOL    HW2 8436   5.563   4.612   5.065
 2513SOL     OW 8437   1.453   2.706   6.235
 2513SOL    HW1 8438   1.510   2.788   6.234
 2513SOL    HW2 8439   1.511   2.626   6.246
 2514SOL     OW 8440   0.366   3.069   3.830
 2514SOL    HW1 8441   0.449   3.054   3.883
 2514SOL    HW2 8442   0.294   3.103   3.890
 2515SOL     OW 8443   1.105   6.461   1.011
 2515SOL    HW1 8444   1.135   6.557   1.017
 2515SOL    HW2 8445   1.135   6.411   1.092
 2516SOL     OW 8446   6.437   5.669   2.406
 2516SOL    HW1 8447   6.372   5.697   2.476
 2516SOL    HW2 8448   6.513   5.734   2.403
 2517SOL     OW 8449   2.090   5.142   5.923
 2517SOL    HW1 8450   2.101   5.230   5.877
 2517SOL    HW2 8451   2.081   5.070   5.855
 2518SOL     OW 8452   1.856   3.512   0.281
 2518SOL    HW1 8453   1.927   3.582   0.292
 2518SOL    HW2 8454   1.773   3.542   0.328
 2519SOL     OW 8455   4.834   5.016   4.312
 2519SOL    HW1 8456   4.743   5.056   4.321
 2519SOL    HW2 8457   4.896   5.057   4.378
 2520SOL     OW 8458   1.010   2.939   1.124
 2520SOL    HW1 8459   1.108   2.942   1.143
 2520SOL    HW2 8460   0.974   3.032   1.118
 2521SOL     OW 8461   1.324   6.697   5.748
 2521SOL    HW1 8462   1.357   6.657   5.663
 2521SOL    HW2 8463   1.267   6.777   5.727
 2522SOL     OW 8464   0.897   3.040   5.467
 2522SOL    HW1 8465   0.969   3.077   5.407
 2522SOL    HW2 8466   0.808   3.070   5.433
 2523SOL     OW 8467   7.008   2.793   1.151
 2523SOL    HW1 8468   0.011   2.776   1.056
 2523SOL    HW2 8469   6.936   2.863   1.154
 2524SOL     OW 8470   0.705   6.013   4.401
 2524SOL    HW1 8471   0.720   6.006   4.302
 2524SOL    HW2 8472   0.793   6.025   4.447
 2525SOL     OW 8473   1.791   2.565   4.197
 2525SOL    HW1 8474   1.755   2.658   4.198
 2525SOL    HW2 8475   1.812   2.536   4.291
 2526SOL     OW 8476   0.497   3.728   5.896
 2526SOL    HW1 8477   0.509   3.631   5.920
 2526SOL    HW2 8478   0.519   3.784   5.976
 2527SOL     OW 8479   5.243   0.361   5.274
 2527SOL    HW1 8480   5.301   0.442   5.271
 2527SOL    HW2 8481   5.156   0.384   5.317
 2528SOL     OW 8482   6.137   4.721   1.558
 2528SOL    HW1 8483   6.141   4.799   1.495
 2528SOL    HW2 8484   6.096   4.643   1.511
 2529SOL     OW 8485   5.791   4.949   6.252
 2529SOL    HW1 8486   5.692   4.934   6.246
 2529SOL    HW2 8487   5.826   4.905   6.335
 2530SOL     OW 8488   1.354   6.370   5.079
 2530SOL    HW1 8489   1.413   6.407   5.151
 2530SOL    HW2 8490   1.258   6.393   5.100
 2531SOL     OW 8491   5.593   5.860   4.871
 2531SOL    HW1 8492   5.639   5.786   4.823
 2531SOL    HW2 8493   5.625   5.864   4.966
 2532SOL     OW 8494   0.726   5.900   0.533
 2532SOL    HW1 8495   0.628   5.899   0.552
 2532SOL    HW2 8496   0.776   5.867   0.612
 2533SOL     OW 8497   5.302   6.316   4.774
 2533SOL    HW1 8498   5.387   6.309   4.721
 2533SOL    HW2 8499   5.324   6.315   4.871
 2534SOL     OW 8500   2.610   0.738   2.983
 2534SOL    HW1 8501   2.586   0.694   3.070
 2534SOL    HW2 8502   2.533   0.794   2.952
 2535SOL     OW 8503   2.107   2.344   6.363
 2535SOL    HW1 8504   2.091   2.302   6.273
 2535SOL    HW2 8505   2.051   2.427   6.371
 2536SOL     OW 8506   0.741   2.004   3.405
 2536SOL    HW1 8507   0.782   2.090   3.373
 2536SOL    HW2 8508   0.691   2.021   3.489
 2537SOL     OW 8509   4.885   6.387   0.542
 2537SOL    HW1 8510   4.908   6.297   0.507
 2537SOL    HW2 8511   4.786   6.403   0.531
 2538SOL     OW 8512   2.046   4.239   5.311
 2538SOL    HW1 8513   1.974   4.201   5.253
 2538SOL    HW2 8514   2.017   4.239   5.406
 2539SOL     OW 8515   4.245   6.934   5.261
 2539SOL    HW1 8516   4.290   6.845   5.275
 2539SOL    HW2 8517   4.289   6.982   5.185
 2540SOL     OW 8518   4.927   0.747   1.687
 2540SOL    HW1 8519   4.900   0.794   1.772
 2540SOL    HW2 8520   4.970   0.813   1.625
 2541SOL     OW 8521   1.309   0.662   5.876
 2541SOL    HW1 8522   1.269   0.706   5.956
 2541SOL    HW2 8523   1.385   0.716   5.842
 2542SOL     OW 8524   3.865   2.076   4.675
 2542SOL    HW1 8525   3.887   2.020   4.595
 2542SOL    HW2 8526   3.924   2.157   4.675
 2543SOL     OW 8527   2.103   0.145   2.792
 2543SOL    HW1 8528   2.201   0.130   2.806
 2543SOL    HW2 8529   2.088   0.204   2.712
 2544SOL     OW 8530   0.430   5.284   2.337
 2544SOL    HW1 8531   0.389   5.301   2.247
 2544SOL    HW2 8532   0.499   5.354   2.355
 2545SOL     OW 8533   1.624   1.100   1.608
 2545SOL    HW1 8534   1.556   1.059   1.547
 2545SOL    HW2 8535   1.577   1.147   1.683
 2546SOL     OW 8536   6.515   3.017   1.165
 2546SOL    HW1 8537   6.609   2.984   1.157
 2546SOL    HW2 8538   6.465   2.996   1.081
 2547SOL     OW 8539   5.421   6.063   0.264
 2547SOL    HW1 8540   5.337   6.052   0.210
 2547SOL    HW2 8541   5.402   6.042   0.359
 2548SOL     OW 8542   2.338   0.491   4.771
 2548SOL    HW1 8543   2.409   0.552   4.737
 2548SOL    HW2 8544   2.293   0.445   4.694
 2549SOL     OW 8545   2.272   2.220   2.004
 2549SOL    HW1 8546   2.293   2.223   1.906
 2549SOL    HW2 8547   2.338   2.162   2.051
 2550SOL     OW 8548   5.668   0.606   6.634
 2550SOL    HW1 8549   5.664   0.629   6.731
 2550SOL    HW2 8550   5.617   0.522   6.618
 2551SOL     OW 8551   3.524   5.368   0.285
 2551SOL    HW1 8552   3.508   5.287   0.341
 2551SOL    HW2 8553   3.612   5.410   0.311
 2552SOL     OW 8554   1.865   5.086   6.733
 2552SOL    HW1 8555   1.942   5.036   6.771
 2552SOL    HW2 8556   1.821   5.032   6.661
 2553SOL     OW 8557   3.321   3.206   5.867
 2553SOL    HW1 8558   3.248   3.210   5.798
 2553SOL    HW2 8559   3.285   3.166   5.951
 2554SOL     OW 8560   2.002   6.046   6.719
 2554SOL    HW1 8561   2.049   6.132   6.737
 2554SOL    HW2 8562   2.047   5.972   6.770
 2555SOL     OW 8563   6.243   6.433   6.801
 2555SOL    HW1 8564   6.201   6.373   6.869
 2555SOL    HW2 8565   6.194   6.520   6.798
 2556SOL     OW 8566   4.206   6.145   0.828
 2556SOL    HW1 8567   4.179   6.180   0.917
 2556SOL    HW2 8568   4.236   6.221   0.769
 2557SOL     OW 8569   2.769   0.816   6.542
 2557SOL    HW1 8570   2.724   0.741   6.493
 2557SOL    HW2 8571   2.861   0.828   6.506
 2558SOL     OW 8572   4.238   3.991   5.292
 2558SOL    HW1 8573   4.323   4.024   5.332
 2558SOL    HW2 8574   4.186   3.941   5.361
 2559SOL     OW 8575   6.160   3.140   3.679
 2559SOL    HW1 8576   6.226   3.066   3.692
 2559SOL    HW2 8577   6.068   3.108   3.700
 2560SOL     OW 8578   5.067   3.517   3.755
 2560SOL    HW1 8579   5.089   3.438   3.698
 2560SOL    HW2 8580   5.001   3.490   3.826
 2561SOL     OW 8581   3.829   1.347   3.640
 2561SOL    HW1 8582   3.745   1.373   3.592
 2561SOL    HW2 8583   3.809   1.323   3.734
 2562SOL     OW 8584   2.873   5.393   3.752
 2562SOL    HW1 8585   2.774   5.405   3.765
 2562SOL    HW2 8586   2.902   5.307   3.794
 2563SOL     OW 8587   3.618   1.442   5.877
 2563SOL    HW1 8588   3.521   1.452   5.857
 2563SOL    HW2 8589   3.670   1.512   5.827
 2564SOL     OW 8590   1.886   6.493   7.018
 2564SOL    HW1 8591   1.837   6.551   0.061
 2564SOL    HW2 8592   1.922   6.549   6.943
 2565SOL     OW 8593   0.278   0.338   0.400
 2565SOL    HW1 8594   0.271   0.435   0.424
 2565SOL    HW2 8595   0.275   0.283   0.484
 2566SOL     OW 8596   1.910   6.578   1.098
 2566SOL    HW1 8597   1.942   6.646   1.032
 2566SOL    HW2 8598   1.854   6.510   1.052
 2567SOL     OW 8599   1.693   1.400   1.871
 2567SOL    HW1 8600   1.728   1.367   1.783
 2567SOL    HW2 8601   1.759   1.463   1.912
 2568SOL     OW 8602   3.222   0.048   0.861
 2568SOL    HW1 8603   3.290   0.057   0.933
 2568SOL    HW2 8604   3.138   0.095   0.888
 2569SOL     OW 8605   2.110   1.611   2.467
 2569SOL    HW1 8606   2.203   1.587   2.439
 2569SOL    HW2 8607   2.053   1.626   2.386
 2570SOL     OW 8608   4.542   6.155   6.579
 2570SOL    HW1 8609   4.546   6.128   6.483
 2570SOL    HW2 8610   4.589   6.242   6.592
 2571SOL     OW 8611   3.636   3.219   4.924
 2571SOL    HW1 8612   3.647   3.183   5.017
 2571SOL    HW2 8613   3.615   3.143   4.862
 2572SOL     OW 8614   2.116   6.568   0.638
 2572SOL    HW1 8615   2.050   6.545   0.566
 2572SOL    HW2 8616   2.119   6.494   0.705
 2573SOL     OW 8617   6.391   1.007   2.586
 2573SOL    HW1 8618   6.450   1.004   2.506
 2573SOL    HW2 8619   6.445   0.988   2.668
 2574SOL     OW 8620   5.809   3.652   0.423
 2574SOL    HW1 8621   5.717   3.689   0.433
 2574SOL    HW2 8622   5.874   3.728   0.416
 2575SOL     OW 8623   5.157   3.415   1.629
 2575SOL    HW1 8624   5.228   3.430   1.698
 2575SOL    HW2 8625   5.107   3.331   1.652
 2576SOL     OW 8626   3.692   6.911   3.770
 2576SOL    HW1 8627   3.695   6.812   3.773
 2576SOL    HW2 8628   3.748   6.945   3.694
 2577SOL     OW 8629   5.104   0.331   3.473
 2577SOL    HW1 8630   5.179   0.370   3.526
 2577SOL    HW2 8631   5.065   0.401   3.414
 2578SOL     OW 8632   4.564   2.692   5.471
 2578SOL    HW1 8633   4.600   2.603   5.444
 2578SOL    HW2 8634   4.583   2.759   5.399
 2579SOL     OW 8635   1.048   1.225   5.197
 2579SOL    HW1 8636   1.069   1.295   5.265
 2579SOL    HW2 8637   1.105   1.238   5.116
 2580SOL     OW 8638   1.585   2.931   6.254
 2580SOL    HW1 8639   1.685   2.939   6.257
 2580SOL    HW2 8640   1.548   2.993   6.186
 2581SOL     OW 8641   6.021   4.811   1.830
 2581SOL    HW1 8642   6.047   4.806   1.734
 2581SOL    HW2 8643   6.065   4.737   1.881
 2582SOL     OW 8644   2.176   4.623   2.832
 2582SOL    HW1 8645   2.197   4.653   2.925
 2582SOL    HW2 8646   2.164   4.524   2.830
 2583SOL     OW 8647   1.529   1.246   1.087
 2583SOL    HW1 8648   1.522   1.149   1.113
 2583SOL    HW2 8649   1.606   1.257   1.023
 2584SOL     OW 8650   4.151   5.600   0.118
 2584SOL    HW1 8651   4.174   5.597   0.020
 2584SOL    HW2 8652   4.069   5.546   0.134
 2585SOL     OW 8653   3.633   0.080   0.596
 2585SOL    HW1 8654   3.648   0.153   0.661
 2585SOL    HW2 8655   3.558   0.022   0.628
 2586SOL     OW 8656   4.990   1.571   4.797
 2586SOL    HW1 8657   4.908   1.625   4.779
 2586SOL    HW2 8658   5.042   1.614   4.871
 2587SOL     OW 8659   6.979   1.226   4.471
 2587SOL    HW1 8660   0.019   1.171   4.527
 2587SOL    HW2 8661   6.885   1.210   4.501
 2588SOL     OW 8662   4.629   0.143   0.322
 2588SOL    HW1 8663   4.580   0.223   0.289
 2588SOL    HW2 8664   4.564   0.070   0.343
 2589SOL     OW 8665   0.790   6.619   5.889
 2589SOL    HW1 8666   0.801   6.606   5.790
 2589SOL    HW2 8667   0.721   6.555   5.923
 2590SOL     OW 8668   3.937   6.561   2.692
 2590SOL    HW1 8669   4.018   6.574   2.750
 2590SOL    HW2 8670   3.914   6.464   2.688
 2591SOL     OW 8671   5.605   6.067   2.691
 2591SOL    HW1 8672   5.620   6.066   2.790
 2591SOL    HW2 8673   5.646   5.985   2.651
 2592SOL     OW 8674   2.382   6.416   1.550
 2592SOL    HW1 8675   2.392   6.317   1.544
 2592SOL    HW2 8676   2.455   6.461   1.499
 2593SOL     OW 8677   3.395   6.336   2.468
 2593SOL    HW1 8678   3.335   6.359   2.544
 2593SOL    HW2 8679   3.367   6.248   2.430
 2594SOL     OW 8680   6.853   6.334   5.747
 2594SOL    HW1 8681   6.843   6.431   5.765
 2594SOL    HW2 8682   6.947   6.305   5.764
 2595SOL     OW 8683   6.759   1.713   6.162
 2595SOL    HW1 8684   6.774   1.702   6.063
 2595SOL    HW2 8685   6.792   1.631   6.209
 2596SOL     OW 8686   3.945   2.121   1.971
 2596SOL    HW1 8687   3.981   2.141   2.062
 2596SOL    HW2 8688   3.870   2.184   1.951
 2597SOL     OW 8689   1.620   3.825   0.852
 2597SOL    HW1 8690   1.589   3.832   0.757
 2597SOL    HW2 8691   1.632   3.729   0.877
 2598SOL     OW 8692   6.109   1.702   4.603
 2598SOL    HW1 8693   6.044   1.740   4.537
 2598SOL    HW2 8694   6.167   1.636   4.556
 2599SOL     OW 8695   3.599   5.732   0.343
 2599SOL    HW1 8696   3.659   5.813   0.346
 2599SOL    HW2 8697   3.650   5.653   0.377
 2600SOL     OW 8698   4.901   3.604   4.758
 2600SOL    HW1 8699   4.869   3.595   4.852
 2600SOL    HW2 8700   4.922   3.700   4.738
 2601SOL     OW 8701   3.598   1.762   6.628
 2601SOL    HW1 8702   3.607   1.857   6.658
 2601SOL    HW2 8703   3.689   1.719   6.627
 2602SOL     OW 8704   6.963   4.786   4.117
 2602SOL    HW1 8705   6.875   4.740   4.108
 2602SOL    HW2 8706   6.994   4.781   4.212
 2603SOL     OW 8707   2.314   2.407   1.705
 2603SOL    HW1 8708   2.302   2.495   1.750
 2603SOL    HW2 8709   2.327   2.422   1.607
 2604SOL     OW 8710   5.153   1.542   2.628
 2604SOL    HW1 8711   5.095   1.531   2.547
 2604SOL    HW2 8712   5.151   1.637   2.658
 2605SOL     OW 8713   3.656   5.190   3.680
 2605SOL    HW1 8714   3.638   5.227   3.589
 2605SOL    HW2 8715   3.739   5.232   3.717
 2606SOL     OW 8716   6.369   4.450   0.382
 2606SOL    HW1 8717   6.374   4.475   0.286
 2606SOL    HW2 8718   6.397   4.528   0.439
 2607SOL     OW 8719   0.428   1.924   6.263
 2607SOL    HW1 8720   0.421   2.023   6.270
 2607SOL    HW2 8721   0.490   1.890   6.334
 2608SOL     OW 8722   3.934   6.056   2.592
 2608SOL    HW1 8723   3.969   6.022   2.679
 2608SOL    HW2 8724   3.891   5.982   2.542
 2609SOL     OW 8725   0.313   2.520   1.280
 2609SOL    HW1 8726   0.366   2.604   1.284
 2609SOL    HW2 8727   0.255   2.513   1.361
 2610SOL     OW 8728   6.575   5.446   4.242
 2610SOL    HW1 8729   6.664   5.471   4.202
 2610SOL    HW2 8730   6.518   5.528   4.249
 2611SOL     OW 8731   5.633   6.580   1.063
 2611SOL    HW1 8732   5.610   6.674   1.037
 2611SOL    HW2 8733   5.715   6.551   1.013
 2612SOL     OW 8734   0.002   6.749   5.730
 2612SOL    HW1 8735   6.931   6.716   5.723
 2612SOL    HW2 8736   0.057   6.711   5.655
 2613SOL     OW 8737   2.794   6.330   1.390
 2613SOL    HW1 8738   2.770   6.348   1.294
 2613SOL    HW2 8739   2.892   6.315   1.398
 2614SOL     OW 8740   6.623   6.503   6.294
 2614SOL    HW1 8741   6.669   6.580   6.337
 2614SOL    HW2 8742   6.656   6.491   6.200
 2615SOL     OW 8743   5.728   4.552   2.846
 2615SOL    HW1 8744   5.752   4.493   2.923
 2615SOL    HW2 8745   5.786   4.634   2.847
 2616SOL     OW 8746   3.799   3.479   4.065
 2616SOL    HW1 8747   3.728   3.549   4.072
 2616SOL    HW2 8748   3.756   3.389   4.060
 2617SOL     OW 8749   3.256   6.592   1.253
 2617SOL    HW1 8750   3.232   6.518   1.190
 2617SOL    HW2 8751   3.247   6.559   1.347
 2618SOL     OW 8752   0.606   6.728   3.808
 2618SOL    HW1 8753   0.597   6.710   3.710
 2618SOL    HW2 8754   0.553   6.662   3.860
 2619SOL     OW 8755   2.871   1.373   3.442
 2619SOL    HW1 8756   2.962   1.414   3.432
 2619SOL    HW2 8757   2.878   1.292   3.501
 2620SOL     OW 8758   0.653   5.846   3.259
 2620SOL    HW1 8759   0.645   5.842   3.359
 2620SOL    HW2 8760   0.693   5.761   3.225
 2621SOL     OW 8761   2.080   6.349   3.190
 2621SOL    HW1 8762   2.082   6.390   3.099
 2621SOL    HW2 8763   2.035   6.411   3.254
 2622SOL     OW 8764   2.416   2.001   6.328
 2622SOL    HW1 8765   2.501   1.951   6.344
 2622SOL    HW2 8766   2.345   1.937   6.298
 2623SOL     OW 8767   3.448   1.818   5.085
 2623SOL    HW1 8768   3.398   1.904   5.082
 2623SOL    HW2 8769   3.504   1.808   5.003
 2624SOL     OW 8770   6.911   3.246   4.292
 2624SOL    HW1 8771   6.930   3.152   4.319
 2624SOL    HW2 8772   6.920   3.256   4.193
 2625SOL     OW 8773   2.296   2.930   5.584
 2625SOL    HW1 8774   2.294   3.013   5.528
 2625SOL    HW2 8775   2.264   2.951   5.676
 2626SOL     OW 8776   0.633   0.112   4.523
 2626SOL    HW1 8777   0.636   0.145   4.429
 2626SOL    HW2 8778   0.552   0.148   4.569
 2627SOL     OW 8779   0.388   0.654   4.898
 2627SOL    HW1 8780   0.428   0.742   4.873
 2627SOL    HW2 8781   0.458   0.583   4.891
 2628SOL     OW 8782   3.305   5.703   6.603
 2628SOL    HW1 8783   3.244   5.701   6.524
 2628SOL    HW2 8784   3.272   5.640   6.673
 2629SOL     OW 8785   3.320   4.133   2.183
 2629SOL    HW1 8786   3.417   4.115   2.199
 2629SOL    HW2 8787   3.298   4.225   2.214
 2630SOL     OW 8788   3.054   1.581   3.319
 2630SOL    HW1 8789   3.053   1.622   3.228
 2630SOL    HW2 8790   3.147   1.584   3.356
 2631SOL     OW 8791   4.797   0.487   4.367
 2631SOL    HW1 8792   4.835   0.435   4.444
 2631SOL    HW2 8793   4.863   0.492   4.293
 2632SOL     OW 8794   2.670   1.928   6.222
 2632SOL    HW1 8795   2.674   1.828   6.223
 2632SOL    HW2 8796   2.596   1.957   6.161
 2633SOL     OW 8797   6.403   2.208   6.029
 2633SOL    HW1 8798   6.323   2.151   6.012
 2633SOL    HW2 8799   6.373   2.299   6.057
 2634SOL     OW 8800   2.062   4.173   2.714
 2634SOL    HW1 8801   2.002   4.237   2.667
 2634SOL    HW2 8802   2.025   4.153   2.805
 2635SOL     OW 8803   5.936   6.169   4.586
 2635SOL    HW1 8804   5.979   6.109   4.654
 2635SOL    HW2 8805   5.924   6.118   4.501
 2636SOL     OW 8806   4.595   0.568   5.990
 2636SOL    HW1 8807   4.673   0.514   6.020
 2636SOL    HW2 8808   4.511   0.527   6.025
 2637SOL     OW 8809   6.399   1.337   4.142
 2637SOL    HW1 8810   6.324   1.402   4.130
 2637SOL    HW2 8811   6.476   1.364   4.083
 2638SOL     OW 8812   0.212   6.833   2.817
 2638SOL    HW1 8813   0.227   6.855   2.720
 2638SOL    HW2 8814   0.300   6.824   2.863
 2639SOL     OW 8815   0.392   0.421   2.053
 2639SOL    HW1 8816   0.415   0.414   2.150
 2639SOL    HW2 8817   0.376   0.517   2.029
 2640SOL     OW 8818   6.799   6.042   5.136
 2640SOL    HW1 8819   6.719   5.991   5.104
 2640SOL    HW2 8820   6.811   6.025   5.234
 2641SOL     OW 8821   5.281   3.022   2.381
 2641SOL    HW1 8822   5.348   2.961   2.422
 2641SOL    HW2 8823   5.242   2.979   2.299
 2642SOL     OW 8824   5.309   6.710   4.541
 2642SOL    HW1 8825   5.316   6.762   4.456
 2642SOL    HW2 8826   5.310   6.612   4.519
 2643SOL     OW 8827   1.541   4.797   3.127
 2643SOL    HW1 8828   1.553   4.887   3.085
 2643SOL    HW2 8829   1.472   4.746   3.076
 2644SOL     OW 8830   6.478   4.529   5.554
 2644SOL    HW1 8831   6.511   4.562   5.642
 2644SOL    HW2 8832   6.408   4.459   5.569
 2645SOL     OW 8833   4.392   6.283   4.282
 2645SOL    HW1 8834   4.490   6.301   4.282
 2645SOL    HW2 8835   4.369   6.223   4.205
 2646SOL     OW 8836   6.092   6.670   6.378
 2646SOL    HW1 8837   6.144   6.690   6.461
 2646SOL    HW2 8838   6.104   6.574   6.353
 2647SOL     OW 8839   5.824   0.356   1.200
 2647SOL    HW1 8840   5.886   0.379   1.125
 2647SOL    HW2 8841   5.806   0.257   1.199
 2648SOL     OW 8842   0.347   0.588   3.823
 2648SOL    HW1 8843   0.327   0.567   3.919
 2648SOL    HW2 8844   0.268   0.633   3.782
 2649SOL     OW 8845   4.690   2.741   5.839
 2649SOL    HW1 8846   4.732   2.694   5.761
 2649SOL    HW2 8847   4.608   2.789   5.808
 2650SOL     OW 8848   0.684   3.417   3.903
 2650SOL    HW1 8849   0.711   3.322   3.889
 2650SOL    HW2 8850   0.714   3.472   3.825
 2651SOL     OW 8851   0.309   1.957   0.140
 2651SOL    HW1 8852   0.387   1.920   0.191
 2651SOL    HW2 8853   0.238   1.886   0.132
 2652SOL     OW 8854   2.947   3.414   3.957
 2652SOL    HW1 8855   2.967   3.500   4.004
 2652SOL    HW2 8856   2.884   3.359   4.012
 2653SOL     OW 8857   5.021   6.794   5.241
 2653SOL    HW1 8858   4.965   6.722   5.200
 2653SOL    HW2 8859   4.961   6.856   5.293
 2654SOL     OW 8860   4.268   3.791   0.980
 2654SOL    HW1 8861   4.333   3.845   1.033
 2654SOL    HW2 8862   4.175   3.808   1.014
 2655SOL     OW 8863   5.536   4.869   4.609
 2655SOL    HW1 8864   5.451   4.864   4.661
 2655SOL    HW2 8865   5.532   4.805   4.532
 2656SOL     OW 8866   4.199   5.073   4.624
 2656SOL    HW1 8867   4.178   4.978   4.649
 2656SOL    HW2 8868   4.115   5.127   4.626
 2657SOL     OW 8869   2.419   4.562   6.267
 2657SOL    HW1 8870   2.409   4.485   6.204
 2657SOL    HW2 8871   2.332   4.611   6.274
 2658SOL     OW 8872   4.798   3.917   0.547
 2658SOL    HW1 8873   4.875   3.948   0.492
 2658SOL    HW2 8874   4.763   3.992   0.603
 2659SOL     OW 8875   6.507   2.547   4.466
 2659SOL    HW1 8876   6.439   2.510   4.403
 2659SOL    HW2 8877   6.465   2.615   4.525
 2660SOL     OW 8878   0.522   1.113   1.564
 2660SOL    HW1 8879   0.477   1.035   1.607
 2660SOL    HW2 8880   0.595   1.081   1.504
 2661SOL     OW 8881   2.303   6.524   1.786
 2661SOL    HW1 8882   2.380   6.536   1.849
 2661SOL    HW2 8883   2.338   6.496   1.696
 2662SOL     OW 8884   4.499   0.522   5.655
 2662SOL    HW1 8885   4.449   0.481   5.731
 2662SOL    HW2 8886   4.543   0.607   5.686
 2663SOL     OW 8887   2.788   3.824   1.422
 2663SOL    HW1 8888   2.785   3.732   1.460
 2663SOL    HW2 8889   2.797   3.890   1.497
 2664SOL     OW 8890   4.054   3.909   4.563
 2664SOL    HW1 8891   4.004   3.898   4.649
 2664SOL    HW2 8892   4.144   3.950   4.582
 2665SOL     OW 8893   2.739   2.046   5.178
 2665SOL    HW1 8894   2.758   1.964   5.232
 2665SOL    HW2 8895   2.665   2.098   5.222
 2666SOL     OW 8896   4.545   3.798   1.676
 2666SOL    HW1 8897   4.557   3.897   1.671
 2666SOL    HW2 8898   4.448   3.775   1.665
 2667SOL     OW 8899   1.722   6.067   4.582
 2667SOL    HW1 8900   1.668   6.048   4.500
 2667SOL    HW2 8901   1.662   6.069   4.662
 2668SOL     OW 8902   6.772   3.269   2.991
 2668SOL    HW1 8903   6.733   3.317   2.913
 2668SOL    HW2 8904   6.804   3.178   2.963
 2669SOL     OW 8905   3.101   4.724   5.239
 2669SOL    HW1 8906   3.050   4.797   5.284
 2669SOL    HW2 8907   3.037   4.662   5.194
 2670SOL     OW 8908   5.395   1.628   6.437
 2670SOL    HW1 8909   5.426   1.723   6.427
 2670SOL    HW2 8910   5.296   1.625   6.430
 2671SOL     OW 8911   3.268   5.070   6.900
 2671SOL    HW1 8912   3.251   5.160   6.859
 2671SOL    HW2 8913   3.198   5.051   6.968
 2672SOL     OW 8914   0.113   5.355   6.855
 2672SOL    HW1 8915   0.058   5.272   6.853
 2672SOL    HW2 8916   0.139   5.377   6.949
 2673SOL     OW 8917   6.032   1.715   3.455
 2673SOL    HW1 8918   6.083   1.631   3.472
 2673SOL    HW2 8919   6.069   1.760   3.374
 2674SOL     OW 8920   2.123   3.721   4.433
 2674SOL    HW1 8921   2.054   3.654   4.405
 2674SOL    HW2 8922   2.213   3.691   4.401
 2675SOL     OW 8923   7.020   5.303   4.507
 2675SOL    HW1 8924   0.031   5.345   4.591
 2675SOL    HW2 8925   6.984   5.212   4.527
 2676SOL     OW 8926   4.356   1.282   1.904
 2676SOL    HW1 8927   4.449   1.245   1.897
 2676SOL    HW2 8928   4.323   1.273   1.998
 2677SOL     OW 8929   3.211   4.481   0.272
 2677SOL    HW1 8930   3.234   4.438   0.185
 2677SOL    HW2 8931   3.289   4.536   0.303
 2678SOL     OW 8932   0.178   4.459   1.145
 2678SOL    HW1 8933   0.128   4.493   1.066
 2678SOL    HW2 8934   0.117   4.458   1.225
 2679SOL     OW 8935   3.619   5.061   0.961
 2679SOL    HW1 8936   3.699   5.021   0.915
 2679SOL    HW2 8937   3.624   5.042   1.059
 2680SOL     OW 8938   1.185   1.547   1.309
 2680SOL    HW1 8939   1.223   1.630   1.351
 2680SOL    HW2 8940   1.235   1.527   1.225
 2681SOL     OW 8941   1.566   2.405   4.505
 2681SOL    HW1 8942   1.547   2.449   4.593
 2681SOL    HW2 8943   1.660   2.425   4.478
 2682SOL     OW 8944   5.237   3.822   2.596
 2682SOL    HW1 8945   5.174   3.894   2.626
 2682SOL    HW2 8946   5.196   3.772   2.519
 2683SOL     OW 8947   1.164   4.035   0.393
 2683SOL    HW1 8948   1.109   3.972   0.448
 2683SOL    HW2 8949   1.141   4.129   0.418
 2684SOL     OW 8950   4.387   5.398   2.320
 2684SOL    HW1 8951   4.332   5.424   2.400
 2684SOL    HW2 8952   4.359   5.452   2.241
 2685SOL     OW 8953   6.564   5.956   6.264
 2685SOL    HW1 8954   6.537   5.947   6.168
 2685SOL    HW2 8955   6.663   5.968   6.270
 2686SOL     OW 8956   1.659   1.760   5.848
 2686SOL    HW1 8957   1.603   1.840   5.825
 2686SOL    HW2 8958   1.661   1.697   5.771
 2687SOL     OW 8959   4.573   4.489   3.028
 2687SOL    HW1 8960   4.507   4.445   2.966
 2687SOL    HW2 8961   4.645   4.424   3.052
 2688SOL     OW 8962   4.768   5.431   6.801
 2688SOL    HW1 8963   4.748   5.336   6.822
 2688SOL    HW2 8964   4.719   5.458   6.718
 2689SOL     OW 8965   2.518   2.000   3.317
 2689SOL    HW1 8966   2.488   1.907   3.296
 2689SOL    HW2 8967   2.572   1.999   3.402
 2690SOL     OW 8968   3.014   3.671   4.046
 2690SOL    HW1 8969   2.989   3.687   4.142
 2690SOL    HW2 8970   2.995   3.754   3.993
 2691SOL     OW 8971   0.966   5.864   2.235
 2691SOL    HW1 8972   1.001   5.823   2.319
 2691SOL    HW2 8973   0.983   5.803   2.158
 2692SOL     OW 8974   4.249   5.068   3.836
 2692SOL    HW1 8975   4.278   5.048   3.929
 2692SOL    HW2 8976   4.185   4.997   3.805
 2693SOL     OW 8977   2.021   4.107   2.977
 2693SOL    HW1 8978   1.964   4.165   3.035
 2693SOL    HW2 8979   1.987   4.013   2.978
 2694SOL     OW 8980   3.598   0.216   2.569
 2694SOL    HW1 8981   3.541   0.271   2.507
 2694SOL    HW2 8982   3.648   0.277   2.631
 2695SOL     OW 8983   5.609   0.864   2.744
 2695SOL    HW1 8984   5.599   0.765   2.729
 2695SOL    HW2 8985   5.609   0.911   2.656
 2696SOL     OW 8986   3.816   3.741   5.034
 2696SOL    HW1 8987   3.848   3.666   4.975
 2696SOL    HW2 8988   3.886   3.761   5.102
 2697SOL     OW 8989   4.243   1.314   3.406
 2697SOL    HW1 8990   4.265   1.224   3.444
 2697SOL    HW2 8991   4.144   1.328   3.410
 2698SOL     OW 8992   2.198   5.731   0.522
 2698SOL    HW1 8993   2.117   5.673   0.526
 2698SOL    HW2 8994   2.280   5.675   0.529
 2699SOL     OW 8995   3.358   5.820   0.250
 2699SOL    HW1 8996   3.446   5.784   0.284
 2699SOL    HW2 8997   3.357   5.919   0.261
 2700SOL     OW 8998   2.081   4.063   1.248
 2700SOL    HW1 8999   2.175   4.037   1.272
 2700SOL    HW2 9000   2.040   3.992   1.192
 2701SOL     OW 9001   2.843   0.359   6.425
 2701SOL    HW1 9002   2.835   0.306   6.510
 2701SOL    HW2 9003   2.752   0.375   6.388
 2702SOL     OW 9004   0.282   2.648   2.750
 2702SOL    HW1 9005   0.341   2.567   2.746
 2702SOL    HW2 9006   0.274   2.679   2.845
 2703SOL     OW 9007   2.216   0.728   2.208
 2703SOL    HW1 9008   2.284   0.683   2.265
 2703SOL    HW2 9009   2.231   0.702   2.112
 2704SOL     OW 9010   0.364   5.678   0.964
 2704SOL    HW1 9011   0.348   5.777   0.955
 2704SOL    HW2 9012   0.438   5.651   0.903
 2705SOL     OW 9013   1.529   5.645   4.743
 2705SOL    HW1 9014   1.507   5.548   4.751
 2705SOL    HW2 9015   1.604   5.667   4.806
 2706SOL     OW 9016   0.518   0.751   0.959
 2706SOL    HW1 9017   0.603   0.703   0.935
 2706SOL    HW2 9018   0.479   0.792   0.876
 2707SOL     OW 9019   1.910   0.676   5.035
 2707SOL    HW1 9020   1.869   0.767   5.024
 2707SOL    HW2 9021   1.940   0.665   5.130
 2708SOL     OW 9022   1.495   1.826   1.210
 2708SOL    HW1 9023   1.466   1.861   1.120
 2708SOL    HW2 9024   1.498   1.902   1.275
 2709SOL     OW 9025   5.498   6.659   0.584
 2709SOL    HW1 9026   5.422   6.723   0.597
 2709SOL    HW2 9027   5.504   6.635   0.487
 2710SOL     OW 9028   0.568   3.135   2.628
 2710SOL    HW1 9029   0.614   3.199   2.689
 2710SOL    HW2 9030   0.470   3.154   2.628
 2711SOL     OW 9031   2.822   1.099   3.208
 2711SOL    HW1 9032   2.901   1.150   3.242
 2711SOL    HW2 9033   2.739   1.139   3.246
 2712SOL     OW 9034   3.266   5.296   1.211
 2712SOL    HW1 9035   3.178   5.313   1.255
 2712SOL    HW2 9036   3.318   5.228   1.264
 2713SOL     OW 9037   1.766   2.494   4.877
 2713SOL    HW1 9038   1.855   2.520   4.840
 2713SOL    HW2 9039   1.776   2.412   4.933
 2714SOL     OW 9040   4.691   2.088   6.671
 2714SOL    HW1 9041   4.708   2.182   6.642
 2714SOL    HW2 9042   4.726   2.076   6.764
 2715SOL     OW 9043   5.644   0.746   0.318
 2715SOL    HW1 9044   5.662   0.655   0.280
 2715SOL    HW2 9045   5.624   0.737   0.416
 2716SOL     OW 9046   5.319   5.029   2.732
 2716SOL    HW1 9047   5.262   4.951   2.755
 2716SOL    HW2 9048   5.413   5.013   2.764
 2717SOL     OW 9049   1.602   5.227   2.086
 2717SOL    HW1 9050   1.630   5.143   2.040
 2717SOL    HW2 9051   1.502   5.226   2.100
 2718SOL     OW 9052   1.978   3.752   4.926
 2718SOL    HW1 9053   2.001   3.836   4.877
 2718SOL    HW2 9054   2.049   3.732   4.993
 2719SOL     OW 9055   5.836   5.505   1.598
 2719SOL    HW1 9056   5.899   5.435   1.631
 2719SOL    HW2 9057   5.887   5.574   1.546
 2720SOL     OW 9058   1.868   5.824   3.091
 2720SOL    HW1 9059   1.957   5.820   3.135
 2720SOL    HW2 9060   1.838   5.920   3.083
 2721SOL     OW 9061   3.460   0.438   4.210
 2721SOL    HW1 9062   3.381   0.486   4.172
 2721SOL    HW2 9063   3.524   0.417   4.136
 2722SOL     OW 9064   6.109   5.602   2.236
 2722SOL    HW1 9065   6.197   5.626   2.277
 2722SOL    HW2 9066   6.069   5.682   2.193
 2723SOL     OW 9067   1.241   6.649   6.032
 2723SOL    HW1 9068   1.314   6.693   5.980
 2723SOL    HW2 9069   1.280   6.609   6.115
 2724SOL     OW 9070   2.732   6.750   6.349
 2724SOL    HW1 9071   2.708   6.653   6.352
 2724SOL    HW2 9072   2.820   6.765   6.394
 2725SOL     OW 9073   6.249   4.931   3.856
 2725SOL    HW1 9074   6.191   4.991   3.802
 2725SOL    HW2 9075   6.311   4.881   3.795
 2726SOL     OW 9076   6.912   4.043   0.961
 2726SOL    HW1 9077   6.846   4.117   0.949
 2726SOL    HW2 9078   6.927   4.025   1.058
 2727SOL     OW 9079   0.688   4.776   3.146
 2727SOL    HW1 9080   0.682   4.687   3.192
 2727SOL    HW2 9081   0.598   4.802   3.111
 2728SOL     OW 9082   3.620   0.005   5.563
 2728SOL    HW1 9083   3.707   6.982   5.547
 2728SOL    HW2 9084   3.621   0.095   5.519
 2729SOL     OW 9085   6.110   6.011   1.170
 2729SOL    HW1 9086   6.053   5.943   1.215
 2729SOL    HW2 9087   6.132   5.980   1.078
 2730SOL     OW 9088   1.189   5.448   1.647
 2730SOL    HW1 9089   1.160   5.359   1.611
 2730SOL    HW2 9090   1.199   5.441   1.746
 2731SOL     OW 9091   3.944   3.288   1.722
 2731SOL    HW1 9092   3.886   3.207   1.715
 2731SOL    HW2 9093   3.958   3.312   1.818
 2732SOL     OW 9094   5.318   3.494   1.828
 2732SOL    HW1 9095   5.263   3.473   1.909
 2732SOL    HW2 9096   5.377   3.573   1.848
 2733SOL     OW 9097   0.002   0.230   5.132
 2733SOL    HW1 9098   6.928   0.259   5.138
 2733SOL    HW2 9099   0.047   0.280   5.057
 2734SOL     OW 9100   2.370   5.710   2.063
 2734SOL    HW1 9101   2.319   5.627   2.084
 2734SOL    HW2 9102   2.339   5.784   2.123
 2735SOL     OW 9103   0.737   3.804   2.815
 2735SOL    HW1 9104   0.712   3.760   2.901
 2735SOL    HW2 9105   0.702   3.897   2.813
 2736SOL     OW 9106   4.897   0.321   4.581
 2736SOL    HW1 9107   4.946   0.336   4.667
 2736SOL    HW2 9108   4.869   0.225   4.576
 2737SOL     OW 9109   3.276   3.394   5.515
 2737SOL    HW1 9110   3.271   3.373   5.417
 2737SOL    HW2 9111   3.371   3.411   5.541
 2738SOL     OW 9112   5.432   4.954   4.114
 2738SOL    HW1 9113   5.335   4.960   4.087
 2738SOL    HW2 9114   5.471   4.869   4.079
 2739SOL     OW 9115   6.488   5.298   6.948
 2739SOL    HW1 9116   6.479   5.300   6.849
 2739SOL    HW2 9117   6.471   5.206   6.982
 2740SOL     OW 9118   6.497   3.918   2.542
 2740SOL    HW1 9119   6.526   3.868   2.461
 2740SOL    HW2 9120   6.577   3.942   2.597
 2741SOL     OW 9121   6.790   0.805   5.788
 2741SOL    HW1 9122   6.784   0.709   5.817
 2741SOL    HW2 9123   6.858   0.852   5.844
 2742SOL     OW 9124   1.789   4.580   7.009
 2742SOL    HW1 9125   1.780   4.649   6.937
 2742SOL    HW2 9126   1.822   4.623   0.071
 2743SOL     OW 9127   6.464   5.230   2.002
 2743SOL    HW1 9128   6.447   5.325   2.028
 2743SOL    HW2 9129   6.386   5.174   2.029
 2744SOL     OW 9130   4.471   1.847   6.827
 2744SOL    HW1 9131   4.376   1.819   6.832
 2744SOL    HW2 9132   4.525   1.794   6.892
 2745SOL     OW 9133   1.247   6.598   6.877
 2745SOL    HW1 9134   1.340   6.627   6.855
 2745SOL    HW2 9135   1.248   6.540   6.959
 2746SOL     OW 9136   2.593   1.579   4.191
 2746SOL    HW1 9137   2.609   1.650   4.260
 2746SOL    HW2 9138   2.595   1.620   4.100
 2747SOL     OW 9139   5.315   3.221   5.408
 2747SOL    HW1 9140   5.318   3.255   5.502
 2747SOL    HW2 9141   5.349   3.292   5.346
 2748SOL     OW 9142   4.160   1.739   1.247
 2748SOL    HW1 9143   4.173   1.834   1.275
 2748SOL    HW2 9144   4.063   1.723   1.228
 2749SOL     OW 9145   5.832   4.748   4.004
 2749SOL    HW1 9146   5.796   4.760   4.097
 2749SOL    HW2 9147   5.788   4.669   3.962
 2750SOL     OW 9148   0.634   5.238   1.642
 2750SOL    HW1 9149   0.637   5.176   1.720
 2750SOL    HW2 9150   0.547   5.287   1.641
 2751SOL     OW 9151   1.183   6.462   0.523
 2751SOL    HW1 9152   1.094   6.417   0.524
 2751SOL    HW2 9153   1.171   6.558   0.497
 2752SOL     OW 9154   5.020   5.067   5.288
 2752SOL    HW1 9155   4.992   5.161   5.269
 2752SOL    HW2 9156   5.082   5.035   5.217
 2753SOL     OW 9157   1.483   0.330   6.382
 2753SOL    HW1 9158   1.468   0.429   6.381
 2753SOL    HW2 9159   1.407   0.284   6.335
 2754SOL     OW 9160   6.531   0.845   4.163
 2754SOL    HW1 9161   6.479   0.859   4.247
 2754SOL    HW2 9162   6.530   0.930   4.109
 2755SOL     OW 9163   3.268   6.941   3.181
 2755SOL    HW1 9164   3.212   6.881   3.239
 2755SOL    HW2 9165   3.323   6.885   3.119
 2756SOL     OW 9166   6.377   3.963   5.060
 2756SOL    HW1 9167   6.437   3.934   4.985
 2756SOL    HW2 9168   6.392   3.905   5.139
 2757SOL     OW 9169   2.365   1.191   6.499
 2757SOL    HW1 9170   2.315   1.207   6.584
 2757SOL    HW2 9171   2.386   1.094   6.490
 2758SOL     OW 9172   5.227   6.119   3.614
 2758SOL    HW1 9173   5.211   6.121   3.713
 2758SOL    HW2 9174   5.144   6.088   3.568
 2759SOL     OW 9175   4.448   5.706   5.608
 2759SOL    HW1 9176   4.356   5.715   5.646
 2759SOL    HW2 9177   4.457   5.766   5.528
 2760SOL     OW 9178   6.872   5.152   2.977
 2760SOL    HW1 9179   6.812   5.214   3.028
 2760SOL    HW2 9180   6.963   5.194   2.968
 2761SOL     OW 9181   1.688   4.281   4.141
 2761SOL    HW1 9182   1.683   4.342   4.063
 2761SOL    HW2 9183   1.691   4.335   4.225
 2762SOL     OW 9184   1.631   1.795   6.599
 2762SOL    HW1 9185   1.547   1.773   6.550
 2762SOL    HW2 9186   1.610   1.811   6.696
 2763SOL     OW 9187   4.924   2.170   5.323
 2763SOL    HW1 9188   4.927   2.238   5.250
 2763SOL    HW2 9189   4.903   2.080   5.283
 2764SOL     OW 9190   0.536   6.029   2.311
 2764SOL    HW1 9191   0.458   5.994   2.363
 2764SOL    HW2 9192   0.592   5.953   2.279
 2765SOL     OW 9193   6.975   0.297   0.581
 2765SOL    HW1 9194   6.967   0.301   0.481
 2765SOL    HW2 9195   6.900   0.243   0.619
 2766SOL     OW 9196   3.991   1.771   6.747
 2766SOL    HW1 9197   3.926   1.722   6.689
 2766SOL    HW2 9198   3.991   1.730   6.839
 2767SOL     OW 9199   6.149   5.328   6.302
 2767SOL    HW1 9200   6.159   5.294   6.209
 2767SOL    HW2 9201   6.060   5.300   6.338
 2768SOL     OW 9202   4.870   1.231   0.190
 2768SOL    HW1 9203   4.921   1.209   0.274
 2768SOL    HW2 9204   4.875   1.329   0.173
 2769SOL     OW 9205   2.341   4.896   6.536
 2769SOL    HW1 9206   2.324   4.970   6.471
 2769SOL    HW2 9207   2.431   4.856   6.517
 2770SOL     OW 9208   4.161   5.655   5.690
 2770SOL    HW1 9209   4.067   5.667   5.722
 2770SOL    HW2 9210   4.161   5.614   5.599
 2771SOL     OW 9211   5.920   0.983   4.873
 2771SOL    HW1 9212   5.879   1.019   4.957
 2771SOL    HW2 9213   6.017   0.965   4.889
 2772SOL     OW 9214   2.950   1.548   1.432
 2772SOL    HW1 9215   2.866   1.593   1.401
 2772SOL    HW2 9216   2.990   1.601   1.507
 2773SOL     OW 9217   6.966   2.664   4.156
 2773SOL    HW1 9218   6.884   2.637   4.106
 2773SOL    HW2 9219   0.021   2.609   4.124
 2774SOL     OW 9220   5.294   3.089   2.700
 2774SOL    HW1 9221   5.259   3.009   2.651
 2774SOL    HW2 9222   5.228   3.164   2.693
 2775SOL     OW 9223   6.287   2.991   4.032
 2775SOL    HW1 9224   6.207   2.950   4.076
 2775SOL    HW2 9225   6.268   3.086   4.010
 2776SOL     OW 9226   5.359   4.244   5.731
 2776SOL    HW1 9227   5.270   4.201   5.745
 2776SOL    HW2 9228   5.361   4.287   5.641
 2777SOL     OW 9229   2.372   1.367   0.138
 2777SOL    HW1 9230   2.300   1.411   0.085
 2777SOL    HW2 9231   2.456   1.421   0.132
 2778SOL     OW 9232   1.326   5.945   6.198
 2778SOL    HW1 9233   1.352   5.887   6.275
 2778SOL    HW2 9234   1.265   6.018   6.229
 2779SOL     OW 9235   5.400   6.841   1.697
 2779SOL    HW1 9236   5.481   6.866   1.750
 2779SOL    HW2 9237   5.427   6.816   1.604
 2780SOL     OW 9238   6.567   6.810   5.858
 2780SOL    HW1 9239   6.545   6.772   5.768
 2780SOL    HW2 9240   6.651   6.864   5.852
 2781SOL     OW 9241   5.701   0.331   3.361
 2781SOL    HW1 9242   5.713   0.260   3.292
 2781SOL    HW2 9243   5.784   0.387   3.365
 2782SOL     OW 9244   4.488   1.358   5.177
 2782SOL    HW1 9245   4.553   1.349   5.101
 2782SOL    HW2 9246   4.395   1.357   5.140
 2783SOL     OW 9247   6.834   3.774   1.468
 2783SOL    HW1 9248   6.829   3.783   1.369
 2783SOL    HW2 9249   6.784   3.849   1.511
 2784SOL     OW 9250   3.326   1.552   2.018
 2784SOL    HW1 9251   3.396   1.620   2.041
 2784SOL    HW2 9252   3.368   1.462   2.011
 2785SOL     OW 9253   5.379   2.154   0.650
 2785SOL    HW1 9254   5.324   2.072   0.668
 2785SOL    HW2 9255   5.398   2.161   0.552
 2786SOL     OW 9256   6.716   6.753   1.408
 2786SOL    HW1 9257   6.653   6.773   1.483
 2786SOL    HW2 9258   6.792   6.819   1.409
 2787SOL     OW 9259   6.082   6.020   5.542
 2787SOL    HW1 9260   6.036   5.970   5.615
 2787SOL    HW2 9261   6.031   6.104   5.521
 2788SOL     OW 9262   2.856   6.292   6.324
 2788SOL    HW1 9263   2.780   6.330   6.377
 2788SOL    HW2 9264   2.841   6.310   6.226
 2789SOL     OW 9265   1.836   1.762   3.659
 2789SOL    HW1 9266   1.889   1.776   3.576
 2789SOL    HW2 9267   1.756   1.705   3.638
 2790SOL     OW 9268   3.056   5.461   0.946
 2790SOL    HW1 9269   3.067   5.408   1.030
 2790SOL    HW2 9270   3.042   5.557   0.969
 2791SOL     OW 9271   0.749   4.071   2.341
 2791SOL    HW1 9272   0.834   4.023   2.318
 2791SOL    HW2 9273   0.717   4.042   2.431
 2792SOL     OW 9274   3.015   0.980   4.615
 2792SOL    HW1 9275   2.950   0.986   4.539
 2792SOL    HW2 9276   3.031   1.072   4.651
 2793SOL     OW 9277   5.167   3.645   2.097
 2793SOL    HW1 9278   5.068   3.655   2.099
 2793SOL    HW2 9279   5.202   3.682   2.011
 2794SOL     OW 9280   6.613   2.151   6.210
 2794SOL    HW1 9281   6.609   2.053   6.229
 2794SOL    HW2 9282   6.543   2.175   6.142
 2795SOL     OW 9283   0.226   4.202   1.309
 2795SOL    HW1 9284   0.166   4.131   1.346
 2795SOL    HW2 9285   0.176   4.255   1.241
 2796SOL     OW 9286   0.714   5.449   3.814
 2796SOL    HW1 9287   0.777   5.407   3.748
 2796SOL    HW2 9288   0.764   5.473   3.897
 2797SOL     OW 9289   5.607   5.112   5.162
 2797SOL    HW1 9290   5.655   5.144   5.243
 2797SOL    HW2 9291   5.541   5.181   5.133
 2798SOL     OW 9292   5.918   5.929   2.670
 2798SOL    HW1 9293   5.912   5.953   2.767
 2798SOL    HW2 9294   5.839   5.872   2.645
 2799SOL     OW 9295   5.307   6.201   5.686
 2799SOL    HW1 9296   5.229   6.220   5.747
 2799SOL    HW2 9297   5.371   6.141   5.733
 2800SOL     OW 9298   5.616   0.402   5.873
 2800SOL    HW1 9299   5.546   0.420   5.803
 2800SOL    HW2 9300   5.678   0.481   5.879
 2801SOL     OW 9301   1.246   5.388   6.280
 2801SOL    HW1 9302   1.339   5.364   6.251
 2801SOL    HW2 9303   1.216   5.470   6.230
 2802SOL     OW 9304   6.717   6.367   5.489
 2802SOL    HW1 9305   6.781   6.377   5.565
 2802SOL    HW2 9306   6.649   6.297   5.512
 2803SOL     OW 9307   3.319   4.587   5.819
 2803SOL    HW1 9308   3.299   4.683   5.799
 2803SOL    HW2 9309   3.376   4.549   5.746
 2804SOL     OW 9310   0.325   4.297   4.502
 2804SOL    HW1 9311   0.298   4.341   4.416
 2804SOL    HW2 9312   0.424   4.307   4.515
 2805SOL     OW 9313   6.096   3.912   2.786
 2805SOL    HW1 9314   6.032   3.975   2.741
 2805SOL    HW2 9315   6.164   3.880   2.719
 2806SOL     OW 9316   1.731   4.546   6.164
 2806SOL    HW1 9317   1.781   4.466   6.198
 2806SOL    HW2 9318   1.647   4.558   6.216
 2807SOL     OW 9319   4.080   0.191   3.048
 2807SOL    HW1 9320   4.169   0.149   3.065
 2807SOL    HW2 9321   4.014   0.160   3.116
 2808SOL     OW 9322   6.577   6.003   0.621
 2808SOL    HW1 9323   6.577   6.019   0.522
 2808SOL    HW2 9324   6.619   6.082   0.667
 2809SOL     OW 9325   5.398   2.512   1.286
 2809SOL    HW1 9326   5.492   2.514   1.321
 2809SOL    HW2 9327   5.398   2.476   1.193
 2810SOL     OW 9328   2.427   5.327   2.896
 2810SOL    HW1 9329   2.362   5.304   2.823
 2810SOL    HW2 9330   2.385   5.310   2.985
 2811SOL     OW 9331   1.015   1.244   2.728
 2811SOL    HW1 9332   0.993   1.216   2.822
 2811SOL    HW2 9333   0.946   1.310   2.697
 2812SOL     OW 9334   6.159   3.525   0.648
 2812SOL    HW1 9335   6.217   3.445   0.638
 2812SOL    HW2 9336   6.064   3.497   0.663
 2813SOL     OW 9337   0.867   1.694   0.361
 2813SOL    HW1 9338   0.827   1.703   0.452
 2813SOL    HW2 9339   0.810   1.742   0.294
 2814SOL     OW 9340   2.955   4.328   5.612
 2814SOL    HW1 9341   2.977   4.344   5.516
 2814SOL    HW2 9342   2.861   4.358   5.630
 2815SOL     OW 9343   0.067   5.432   6.051
 2815SOL    HW1 9344   0.069   5.347   6.103
 2815SOL    HW2 9345   0.010   5.499   6.099
 2816SOL     OW 9346   6.450   5.689   4.256
 2816SOL    HW1 9347   6.540   5.713   4.293
 2816SOL    HW2 9348   6.384   5.681   4.330
 2817SOL     OW 9349   3.766   1.265   2.749
 2817SOL    HW1 9350   3.690   1.282   2.687
 2817SOL    HW2 9351   3.839   1.332   2.734
 2818SOL     OW 9352   6.681   1.359   2.358
 2818SOL    HW1 9353   6.667   1.269   2.318
 2818SOL    HW2 9354   6.773   1.391   2.336
 2819SOL     OW 9355   1.436   0.582   1.634
 2819SOL    HW1 9356   1.500   0.594   1.710
 2819SOL    HW2 9357   1.344   0.608   1.664
 2820SOL     OW 9358   0.997   2.000   2.406
 2820SOL    HW1 9359   1.074   2.057   2.378
 2820SOL    HW2 9360   1.013   1.966   2.499
 2821SOL     OW 9361   2.731   5.201   6.167
 2821SOL    HW1 9362   2.661   5.255   6.212
 2821SOL    HW2 9363   2.798   5.261   6.124
 2822SOL     OW 9364   4.498   2.127   6.888
 2822SOL    HW1 9365   4.428   2.090   6.948
 2822SOL    HW2 9366   4.570   2.059   6.874
 2823SOL     OW 9367   6.254   0.783   0.058
 2823SOL    HW1 9368   6.190   0.798   7.006
 2823SOL    HW2 9369   6.315   0.862   0.067
 2824SOL     OW 9370   1.628   3.118   5.655
 2824SOL    HW1 9371   1.577   3.032   5.648
 2824SOL    HW2 9372   1.624   3.167   5.568
 2825SOL     OW 9373   5.233   0.696   6.105
 2825SOL    HW1 9374   5.262   0.718   6.198
 2825SOL    HW2 9375   5.133   0.691   6.101
 2826SOL     OW 9376   2.871   3.171   6.490
 2826SOL    HW1 9377   2.824   3.137   6.409
 2826SOL    HW2 9378   2.929   3.098   6.528
 2827SOL     OW 9379   0.633   0.879   6.617
 2827SOL    HW1 9380   0.546   0.846   6.578
 2827SOL    HW2 9381   0.703   0.810   6.602
 2828SOL     OW 9382   1.965   3.468   1.419
 2828SOL    HW1 9383   2.034   3.533   1.451
 2828SOL    HW2 9384   1.964   3.467   1.319
 2829SOL     OW 9385   3.012   3.197   3.393
 2829SOL    HW1 9386   2.964   3.277   3.358
 2829SOL    HW2 9387   2.987   3.182   3.489
 2830SOL     OW 9388   3.445   4.345   5.247
 2830SOL    HW1 9389   3.438   4.289   5.164
 2830SOL    HW2 9390   3.353   4.373   5.275
 2831SOL     OW 9391   0.721   2.662   2.703
 2831SOL    HW1 9392   0.647   2.650   2.636
 2831SOL    HW2 9393   0.701   2.608   2.784
 2832SOL     OW 9394   0.749   3.357   1.676
 2832SOL    HW1 9395   0.810   3.359   1.597
 2832SOL    HW2 9396   0.654   3.356   1.644
 2833SOL     OW 9397   2.555   1.346   1.841
 2833SOL    HW1 9398   2.586   1.274   1.903
 2833SOL    HW2 9399   2.629   1.413   1.829
 2834SOL     OW 9400   4.591   6.470   4.532
 2834SOL    HW1 9401   4.681   6.453   4.571
 2834SOL    HW2 9402   4.580   6.568   4.515
 2835SOL     OW 9403   0.907   6.469   0.388
 2835SOL    HW1 9404   0.909   6.438   0.293
 2835SOL    HW2 9405   0.878   6.565   0.391
 2836SOL     OW 9406   1.835   6.176   1.980
 2836SOL    HW1 9407   1.800   6.196   2.072
 2836SOL    HW2 9408   1.844   6.261   1.928
 2837SOL     OW 9409   5.674   4.384   2.628
 2837SOL    HW1 9410   5.627   4.298   2.647
 2837SOL    HW2 9411   5.701   4.427   2.715
 2838SOL     OW 9412   4.906   3.671   0.522
 2838SOL    HW1 9413   4.992   3.670   0.574
 2838SOL    HW2 9414   4.859   3.758   0.538
 2839SOL     OW 9415   0.515   3.094   2.129
 2839SOL    HW1 9416   0.571   3.109   2.210
 2839SOL    HW2 9417   0.421   3.076   2.156
 2840SOL     OW 9418   1.351   5.860   2.751
 2840SOL    HW1 9419   1.393   5.948   2.730
 2840SOL    HW2 9420   1.396   5.820   2.832
 2841SOL     OW 9421   6.334   2.399   0.303
 2841SOL    HW1 9422   6.423   2.383   0.260
 2841SOL    HW2 9423   6.285   2.312   0.311
 2842SOL     OW 9424   1.106   6.102   4.839
 2842SOL    HW1 9425   1.175   6.083   4.910
 2842SOL    HW2 9426   1.068   6.015   4.807
 2843SOL     OW 9427   2.419   1.388   2.705
 2843SOL    HW1 9428   2.362   1.464   2.735
 2843SOL    HW2 9429   2.485   1.366   2.777
 2844SOL     OW 9430   5.673   5.118   1.412
 2844SOL    HW1 9431   5.584   5.087   1.446
 2844SOL    HW2 9432   5.691   5.075   1.323
 2845SOL     OW 9433   5.357   3.469   2.495
 2845SOL    HW1 9434   5.320   3.561   2.490
 2845SOL    HW2 9435   5.313   3.411   2.426
 2846SOL     OW 9436   3.296   0.832   0.666
 2846SOL    HW1 9437   3.219   0.883   0.706
 2846SOL    HW2 9438   3.337   0.774   0.736
 2847SOL     OW 9439   4.874   3.724   2.120
 2847SOL    HW1 9440   4.878   3.805   2.062
 2847SOL    HW2 9441   4.829   3.650   2.070
 2848SOL     OW 9442   2.452   2.377   5.448
 2848SOL    HW1 9443   2.409   2.306   5.504
 2848SOL    HW2 9444   2.382   2.440   5.415
 2849SOL     OW 9445   3.578   1.340   1.448
 2849SOL    HW1 9446   3.487   1.375   1.427
 2849SOL    HW2 9447   3.603   1.368   1.541
 2850SOL     OW 9448   2.609   6.894   3.416
 2850SOL    HW1 9449   2.592   6.931   3.325
 2850SOL    HW2 9450   2.561   6.807   3.427
 2851SOL     OW 9451   3.907   3.252   6.913
 2851SOL    HW1 9452   3.998   3.236   6.875
 2851SOL    HW2 9453   3.837   3.221   6.849
 2852SOL     OW 9454   5.943   4.492   6.886
 2852SOL    HW1 9455   5.861   4.543   6.911
 2852SOL    HW2 9456   5.918   4.398   6.860
 2853SOL     OW 9457   0.936   3.606   0.400
 2853SOL    HW1 9458   0.865   3.542   0.371
 2853SOL    HW2 9459   1.018   3.592   0.344
 2854SOL     OW 9460   3.224   0.780   6.026
 2854SOL    HW1 9461   3.242   0.683   6.041
 2854SOL    HW2 9462   3.311   0.828   6.014
 2855SOL     OW 9463   1.003   2.970   4.661
 2855SOL    HW1 9464   1.100   2.992   4.650
 2855SOL    HW2 9465   0.970   2.921   4.581
 2856SOL     OW 9466   1.475   2.950   4.086
 2856SOL    HW1 9467   1.508   2.995   4.004
 2856SOL    HW2 9468   1.423   3.016   4.141
 2857SOL     OW 9469   0.389   3.042   0.988
 2857SOL    HW1 9470   0.338   3.003   1.065
 2857SOL    HW2 9471   0.467   3.095   1.024
 2858SOL     OW 9472   5.308   6.649   2.373
 2858SOL    HW1 9473   5.344   6.592   2.299
 2858SOL    HW2 9474   5.224   6.608   2.408
 2859SOL     OW 9475   5.793   6.226   0.402
 2859SOL    HW1 9476   5.838   6.174   0.329
 2859SOL    HW2 9477   5.702   6.253   0.373
 2860SOL     OW 9478   1.595   6.827   2.333
 2860SOL    HW1 9479   1.579   6.924   2.315
 2860SOL    HW2 9480   1.558   6.772   2.258
 2861SOL     OW 9481   3.348   6.233   5.251
 2861SOL    HW1 9482   3.431   6.177   5.239
 2861SOL    HW2 9483   3.294   6.196   5.326
 2862SOL     OW 9484   4.518   2.443   1.861
 2862SOL    HW1 9485   4.530   2.352   1.823
 2862SOL    HW2 9486   4.598   2.499   1.838
 2863SOL     OW 9487   5.139   1.182   6.673
 2863SOL    HW1 9488   5.141   1.161   6.770
 2863SOL    HW2 9489   5.054   1.147   6.633
 2864SOL     OW 9490   4.476   2.782   1.085
 2864SOL    HW1 9491   4.549   2.797   1.152
 2864SOL    HW2 9492   4.387   2.797   1.129
 2865SOL     OW 9493   4.075   6.991   4.179
 2865SOL    HW1 9494   4.008   0.035   4.144
 2865SOL    HW2 9495   4.126   6.952   4.103
 2866SOL     OW 9496   5.733   4.235   0.407
 2866SOL    HW1 9497   5.712   4.209   0.313
 2866SOL    HW2 9498   5.832   4.230   0.421
 2867SOL     OW 9499   5.994   6.317   2.819
 2867SOL    HW1 9500   5.940   6.397   2.794
 2867SOL    HW2 9501   6.022   6.268   2.737
 2868SOL     OW 9502   1.117   1.724   5.516
 2868SOL    HW1 9503   1.021   1.743   5.498
 2868SOL    HW2 9504   1.125   1.657   5.589
 2869SOL     OW 9505   6.234   0.512   4.001
 2869SOL    HW1 9506   6.174   0.582   3.962
 2869SOL    HW2 9507   6.330   0.536   3.983
 2870SOL     OW 9508   0.577   1.856   6.505
 2870SOL    HW1 9509   0.581   1.774   6.562
 2870SOL    HW2 9510   0.653   1.855   6.440
 2871SOL     OW 9511   6.257   0.522   0.012
 2871SOL    HW1 9512   6.164   0.487   0.022
 2871SOL    HW2 9513   6.260   0.618   0.038
 2872SOL     OW 9514   2.638   1.460   0.810
 2872SOL    HW1 9515   2.714   1.395   0.819
 2872SOL    HW2 9516   2.637   1.498   0.718
 2873SOL     OW 9517   6.875   6.549   2.366
 2873SOL    HW1 9518   6.972   6.550   2.345
 2873SOL    HW2 9519   6.839   6.456   2.354
 2874SOL     OW 9520   4.522   6.885   2.876
 2874SOL    HW1 9521   4.471   6.966   2.847
 2874SOL    HW2 9522   4.580   6.908   2.954
 2875SOL     OW 9523   4.089   0.018   2.775
 2875SOL    HW1 9524   4.048   0.108   2.757
 2875SOL    HW2 9525   4.042   6.997   2.851
 2876SOL     OW 9526   1.180   6.347   2.260
 2876SOL    HW1 9527   1.249   6.294   2.310
 2876SOL    HW2 9528   1.226   6.406   2.194
 2877SOL     OW 9529   2.112   0.659   6.722
 2877SOL    HW1 9530   2.066   0.636   6.636
 2877SOL    HW2 9531   2.174   0.736   6.708
 2878SOL     OW 9532   3.082   3.589   4.860
 2878SOL    HW1 9533   3.156   3.531   4.826
 2878SOL    HW2 9534   3.019   3.535   4.915
 2879SOL     OW 9535   4.645   5.272   5.632
 2879SOL    HW1 9536   4.549   5.264   5.604
 2879SOL    HW2 9537   4.650   5.309   5.725
 2880SOL     OW 9538   0.076   1.853   3.682
 2880SOL    HW1 9539   0.072   1.936   3.627
 2880SOL    HW2 9540   0.162   1.806   3.664
 2881SOL     OW 9541   3.668   6.126   6.732
 2881SOL    HW1 9542   3.607   6.048   6.715
 2881SOL    HW2 9543   3.707   6.118   6.824
 2882SOL     OW 9544   6.323   6.023   1.354
 2882SOL    HW1 9545   6.258   5.984   1.289
 2882SOL    HW2 9546   6.343   5.956   1.426
 2883SOL     OW 9547   6.050   6.641   3.369
 2883SOL    HW1 9548   6.136   6.606   3.407
 2883SOL    HW2 9549   5.994   6.565   3.337
 2884SOL     OW 9550   7.012   5.986   2.272
 2884SOL    HW1 9551   0.056   5.914   2.251
 2884SOL    HW2 9552   0.020   6.072   2.232
 2885SOL     OW 9553   1.031   2.559   4.538
 2885SOL    HW1 9554   1.045   2.512   4.625
 2885SOL    HW2 9555   0.974   2.503   4.478
 2886SOL     OW 9556   1.933   4.261   6.598
 2886SOL    HW1 9557   1.853   4.205   6.618
 2886SOL    HW2 9558   1.911   4.358   6.615
 2887SOL     OW 9559   0.228   5.801   4.455
 2887SOL    HW1 9560   0.205   5.891   4.417
 2887SOL    HW2 9561   0.233   5.735   4.381
 2888SOL     OW 9562   0.219   5.105   0.138
 2888SOL    HW1 9563   0.151   5.165   0.181
 2888SOL    HW2 9564   0.206   5.011   0.170
 2889SOL     OW 9565   3.339   6.478   2.815
 2889SOL    HW1 9566   3.313   6.551   2.751
 2889SOL    HW2 9567   3.256   6.432   2.847
 2890SOL     OW 9568   1.808   5.515   1.035
 2890SOL    HW1 9569   1.860   5.454   0.975
 2890SOL    HW2 9570   1.871   5.569   1.091
 2891SOL     OW 9571   1.438   3.110   3.343
 2891SOL    HW1 9572   1.416   3.180   3.274
 2891SOL    HW2 9573   1.353   3.078   3.385
 2892SOL     OW 9574   5.853   3.105   1.269
 2892SOL    HW1 9575   5.842   3.005   1.276
 2892SOL    HW2 9576   5.775   3.150   1.312
 2893SOL     OW 9577   1.357   5.284   4.647
 2893SOL    HW1 9578   1.370   5.276   4.548
 2893SOL    HW2 9579   1.433   5.239   4.694
 2894SOL     OW 9580   1.665   3.894   1.641
 2894SOL    HW1 9581   1.730   3.928   1.572
 2894SOL    HW2 9582   1.668   3.955   1.721
 2895SOL     OW 9583   3.978   0.405   6.435
 2895SOL    HW1 9584   3.883   0.431   6.450
 2895SOL    HW2 9585   4.037   0.460   6.494
 2896SOL     OW 9586   4.248   0.275   5.352
 2896SOL    HW1 9587   4.230   0.369   5.381
 2896SOL    HW2 9588   4.303   0.229   5.423
 2897SOL     OW 9589   4.097   5.232   2.922
 2897SOL    HW1 9590   4.183   5.225   2.871
 2897SOL    HW2 9591   4.052   5.318   2.899
 2898SOL     OW 9592   5.110   4.116   4.361
 2898SOL    HW1 9593   5.083   4.024   4.390
 2898SOL    HW2 9594   5.056   4.184   4.410
 2899SOL     OW 9595   6.498   1.839   0.830
 2899SOL    HW1 9596   6.539   1.768   0.773
 2899SOL    HW2 9597   6.461   1.911   0.771
 2900SOL     OW 9598   4.252   4.919   6.556
 2900SOL    HW1 9599   4.249   4.822   6.580
 2900SOL    HW2 9600   4.186   4.937   6.483
 2901SOL     OW 9601   2.390   4.633   3.541
 2901SOL    HW1 9602   2.457   4.607   3.610
 2901SOL    HW2 9603   2.303   4.586   3.560
 2902SOL     OW 9604   6.630   5.044   3.594
 2902SOL    HW1 9605   6.724   5.057   3.562
 2902SOL    HW2 9606   6.570   5.108   3.547
 2903SOL     OW 9607   4.257   6.335   0.651
 2903SOL    HW1 9608   4.275   6.302   0.558
 2903SOL    HW2 9609   4.342   6.371   0.691
 2904SOL     OW 9610   3.283   5.220   5.081
 2904SOL    HW1 9611   3.260   5.184   5.171
 2904SOL    HW2 9612   3.200   5.223   5.024
 2905SOL     OW 9613   1.720   3.997   4.195
 2905SOL    HW1 9614   1.663   4.076   4.173
 2905SOL    HW2 9615   1.662   3.916   4.209
 2906SOL     OW 9616   5.665   5.813   2.609
 2906SOL    HW1 9617   5.615   5.744   2.662
 2906SOL    HW2 9618   5.662   5.790   2.512
 2907SOL     OW 9619   1.039   1.824   4.153
 2907SOL    HW1 9620   1.127   1.864   4.126
 2907SOL    HW2 9621   0.964   1.882   4.120
 2908SOL     OW 9622   5.130   6.413   3.493
 2908SOL    HW1 9623   5.182   6.490   3.457
 2908SOL    HW2 9624   5.185   6.364   3.561
 2909SOL     OW 9625   1.941   6.575   3.288
 2909SOL    HW1 9626   1.852   6.530   3.290
 2909SOL    HW2 9627   1.961   6.604   3.194
 2910SOL     OW 9628   6.621   0.659   3.778
 2910SOL    HW1 9629   6.559   0.724   3.733
 2910SOL    HW2 9630   6.589   0.641   3.871
 2911SOL     OW 9631   1.960   5.206   3.694
 2911SOL    HW1 9632   2.014   5.209   3.609
 2911SOL    HW2 9633   1.893   5.280   3.694
 2912SOL     OW 9634   6.563   5.899   6.737
 2912SOL    HW1 9635   6.544   5.803   6.715
 2912SOL    HW2 9636   6.501   5.929   6.809
 2913SOL     OW 9637   3.244   4.849   2.142
 2913SOL    HW1 9638   3.340   4.868   2.162
 2913SOL    HW2 9639   3.232   4.837   2.044
 2914SOL     OW 9640   5.834   5.763   0.922
 2914SOL    HW1 9641   5.796   5.789   0.833
 2914SOL    HW2 9642   5.866   5.668   0.918
 2915SOL     OW 9643   3.318   1.688   3.773
 2915SOL    HW1 9644   3.248   1.752   3.743
 2915SOL    HW2 9645   3.406   1.713   3.732
 2916SOL     OW 9646   1.485   5.281   0.490
 2916SOL    HW1 9647   1.539   5.198   0.482
 2916SOL    HW2 9648   1.522   5.352   0.430
 2917SOL     OW 9649   3.340   0.757   4.316
 2917SOL    HW1 9650   3.321   0.842   4.367
 2917SOL    HW2 9651   3.407   0.702   4.367
 2918SOL     OW 9652   5.903   3.668   6.230
 2918SOL    HW1 9653   5.935   3.751   6.183
 2918SOL    HW2 9654   5.982   3.617   6.264
 2919SOL     OW 9655   6.052   0.454   3.569
 2919SOL    HW1 9656   6.113   0.479   3.644
 2919SOL    HW2 9657   6.052   0.354   3.558
 2920SOL     OW 9658   3.392   0.489   1.529
 2920SOL    HW1 9659   3.482   0.475   1.570
 2920SOL    HW2 9660   3.328   0.519   1.599
 2921SOL     OW 9661   0.323   0.052   5.830
 2921SOL    HW1 9662   0.227   0.035   5.810
 2921SOL    HW2 9663   0.336   0.057   5.929
 2922SOL     OW 9664   3.896   6.093   1.838
 2922SOL    HW1 9665   3.956   6.169   1.865
 2922SOL    HW2 9666   3.836   6.122   1.763
 2923SOL     OW 9667   6.804   5.511   4.521
 2923SOL    HW1 9668   6.764   5.463   4.599
 2923SOL    HW2 9669   6.872   5.452   4.478
 2924SOL     OW 9670   0.584   2.027   4.260
 2924SOL    HW1 9671   0.650   2.002   4.190
 2924SOL    HW2 9672   0.504   1.967   4.254
 2925SOL     OW 9673   6.004   1.717   0.219
 2925SOL    HW1 9674   6.045   1.699   0.130
 2925SOL    HW2 9675   5.906   1.697   0.216
 2926SOL     OW 9676   6.304   1.909   6.174
 2926SOL    HW1 9677   6.247   1.984   6.140
 2926SOL    HW2 9678   6.286   1.893   6.271
 2927SOL     OW 9679   1.292   3.437   0.668
 2927SOL    HW1 9680   1.279   3.387   0.582
 2927SOL    HW2 9681   1.275   3.375   0.745
 2928SOL     OW 9682   6.302   1.251   6.976
 2928SOL    HW1 9683   6.318   1.304   6.893
 2928SOL    HW2 9684   6.219   1.284   7.022
 2929SOL     OW 9685   1.909   2.856   5.386
 2929SOL    HW1 9686   1.897   2.907   5.471
 2929SOL    HW2 9687   1.945   2.917   5.315
 2930SOL     OW 9688   5.363   6.312   5.039
 2930SOL    HW1 9689   5.408   6.399   5.060
 2930SOL    HW2 9690   5.415   6.237   5.079
 2931SOL     OW 9691   4.728   4.745   0.011
 2931SOL    HW1 9692   4.805   4.793   6.993
 2931SOL    HW2 9693   4.755   4.706   0.099
 2932SOL     OW 9694   7.022   5.844   1.675
 2932SOL    HW1 9695   0.035   5.792   1.598
 2932SOL    HW2 9696   6.988   5.932   1.643
 2933SOL     OW 9697   0.673   6.465   1.877
 2933SOL    HW1 9698   0.707   6.483   1.784
 2933SOL    HW2 9699   0.575   6.447   1.873
 2934SOL     OW 9700   5.094   2.741   0.832
 2934SOL    HW1 9701   5.015   2.798   0.856
 2934SOL    HW2 9702   5.065   2.646   0.824
 2935SOL     OW 9703   0.260   2.402   6.509
 2935SOL    HW1 9704   0.248   2.327   6.445
 2935SOL    HW2 9705   0.173   2.450   6.523
 2936SOL     OW 9706   3.868   6.310   0.521
 2936SOL    HW1 9707   3.860   6.242   0.594
 2936SOL    HW2 9708   3.781   6.358   0.510
 2937SOL     OW 9709   4.925   5.514   1.012
 2937SOL    HW1 9710   4.968   5.425   1.005
 2937SOL    HW2 9711   4.986   5.577   1.060
 2938SOL     OW 9712   6.970   5.445   0.131
 2938SOL    HW1 9713   6.895   5.380   0.125
 2938SOL    HW2 9714   0.000   5.429   0.215
 2939SOL     OW 9715   1.755   0.740   1.559
 2939SOL    HW1 9716   1.688   0.764   1.489
 2939SOL    HW2 9717   1.710   0.687   1.631
 2940SOL     OW 9718   6.293   5.231   5.341
 2940SOL    HW1 9719   6.281   5.318   5.389
 2940SOL    HW2 9720   6.387   5.199   5.352
 2941SOL     OW 9721   2.471   1.777   2.964
 2941SOL    HW1 9722   2.445   1.742   3.054
 2941SOL    HW2 9723   2.570   1.784   2.957
 2942SOL     OW 9724   3.811   2.639   0.848
 2942SOL    HW1 9725   3.901   2.675   0.822
 2942SOL    HW2 9726   3.749   2.715   0.866
 2943SOL     OW 9727   5.507   4.691   3.743
 2943SOL    HW1 9728   5.485   4.666   3.649
 2943SOL    HW2 9729   5.562   4.620   3.785
 2944SOL     OW 9730   2.618   6.368   3.935
 2944SOL    HW1 9731   2.704   6.385   3.887
 2944SOL    HW2 9732   2.616   6.273   3.966
 2945SOL     OW 9733   4.826   2.686   1.574
 2945SOL    HW1 9734   4.827   2.730   1.484
 2945SOL    HW2 9735   4.767   2.737   1.636
 2946SOL     OW 9736   2.235   4.336   5.713
 2946SOL    HW1 9737   2.218   4.347   5.616
 2946SOL    HW2 9738   2.258   4.240   5.732
 2947SOL     OW 9739   0.079   5.391   0.601
 2947SOL    HW1 9740   0.047   5.462   0.664
 2947SOL    HW2 9741   0.048   5.301   0.633
 2948SOL     OW 9742   6.763   4.216   3.776
 2948SOL    HW1 9743   6.830   4.208   3.703
 2948SOL    HW2 9744   6.758   4.311   3.807
 2949SOL     OW 9745   0.494   5.437   6.968
 2949SOL    HW1 9746   0.481   5.485   0.033
 2949SOL    HW2 9747   0.565   5.484   6.914
 2950SOL     OW 9748   6.107   5.997   3.885
 2950SOL    HW1 9749   6.178   6.007   3.955
 2950SOL    HW2 9750   6.067   5.905   3.892
 2951SOL     OW 9751   5.531   1.630   1.915
 2951SOL    HW1 9752   5.623   1.599   1.939
 2951SOL    HW2 9753   5.530   1.730   1.909
 2952SOL     OW 9754   0.180   6.860   5.171
 2952SOL    HW1 9755   0.237   6.917   5.112
 2952SOL    HW2 9756   0.105   6.915   5.209
 2953SOL     OW 9757   6.995   4.305   3.233
 2953SOL    HW1 9758   7.021   4.272   3.324
 2953SOL    HW2 9759   6.913   4.256   3.203
 2954SOL     OW 9760   0.055   4.493   0.083
 2954SOL    HW1 9761   0.060   4.495   0.183
 2954SOL    HW2 9762   0.144   4.517   0.045
 2955SOL     OW 9763   0.616   4.520   1.317
 2955SOL    HW1 9764   0.626   4.532   1.218
 2955SOL    HW2 9765   0.704   4.499   1.358
 2956SOL     OW 9766   6.564   5.582   3.385
 2956SOL    HW1 9767   6.547   5.484   3.392
 2956SOL    HW2 9768   6.649   5.598   3.334
 2957SOL     OW 9769   4.820   4.460   1.557
 2957SOL    HW1 9770   4.800   4.413   1.643
 2957SOL    HW2 9771   4.738   4.463   1.500
 2958SOL     OW 9772   2.229   4.805   3.389
 2958SOL    HW1 9773   2.309   4.788   3.447
 2958SOL    HW2 9774   2.151   4.830   3.447
 2959SOL     OW 9775   5.487   2.891   2.473
 2959SOL    HW1 9776   5.551   2.831   2.426
 2959SOL    HW2 9777   5.537   2.945   2.542
 2960SOL     OW 9778   3.658   6.769   6.598
 2960SOL    HW1 9779   3.664   6.695   6.665
 2960SOL    HW2 9780   3.714   6.747   6.519
 2961SOL     OW 9781   6.128   4.848   3.085
 2961SOL    HW1 9782   6.144   4.940   3.120
 2961SOL    HW2 9783   6.208   4.791   3.104
 2962SOL     OW 9784   4.717   6.259   3.439
 2962SOL    HW1 9785   4.633   6.232   3.486
 2962SOL    HW2 9786   4.744   6.187   3.375
 2963SOL     OW 9787   0.825   1.166   6.735
 2963SOL    HW1 9788   0.890   1.223   6.685
 2963SOL    HW2 9789   0.771   1.222   6.797
 2964SOL     OW 9790   0.570   1.912   5.912
 2964SOL    HW1 9791   0.596   1.872   5.824
 2964SOL    HW2 9792   0.470   1.908   5.922
 2965SOL     OW 9793   0.486   0.871   4.409
 2965SOL    HW1 9794   0.402   0.851   4.459
 2965SOL    HW2 9795   0.519   0.787   4.366
 2966SOL     OW 9796   4.724   5.516   3.780
 2966SOL    HW1 9797   4.799   5.504   3.844
 2966SOL    HW2 9798   4.731   5.606   3.736
 2967SOL     OW 9799   6.563   0.819   5.196
 2967SOL    HW1 9800   6.543   0.724   5.218
 2967SOL    HW2 9801   6.582   0.870   5.280
 2968SOL     OW 9802   1.041   2.675   0.811
 2968SOL    HW1 9803   0.983   2.598   0.787
 2968SOL    HW2 9804   1.136   2.645   0.815
 2969SOL     OW 9805   4.724   2.673   4.302
 2969SOL    HW1 9806   4.794   2.712   4.362
 2969SOL    HW2 9807   4.636   2.670   4.350
 2970SOL     OW 9808   2.680   3.096   5.395
 2970SOL    HW1 9809   2.682   3.051   5.484
 2970SOL    HW2 9810   2.608   3.055   5.338
 2971SOL     OW 9811   5.138   4.145   0.633
 2971SOL    HW1 9812   5.083   4.116   0.556
 2971SOL    HW2 9813   5.099   4.228   0.673
 2972SOL     OW 9814   5.726   5.194   6.153
 2972SOL    HW1 9815   5.786   5.128   6.197
 2972SOL    HW2 9816   5.632   5.160   6.156
 2973SOL     OW 9817   4.648   6.502   2.257
 2973SOL    HW1 9818   4.723   6.435   2.253
 2973SOL    HW2 9819   4.584   6.476   2.330
 2974SOL     OW 9820   6.421   4.320   3.353
 2974SOL    HW1 9821   6.357   4.279   3.289
 2974SOL    HW2 9822   6.499   4.357   3.303
 2975SOL     OW 9823   5.577   4.494   4.302
 2975SOL    HW1 9824   5.654   4.452   4.349
 2975SOL    HW2 9825   5.575   4.463   4.207
 2976SOL     OW 9826   5.137   1.820   2.770
 2976SOL    HW1 9827   5.219   1.781   2.811
 2976SOL    HW2 9828   5.111   1.902   2.821
 2977SOL     OW 9829   0.313   0.973   2.404
 2977SOL    HW1 9830   0.403   0.986   2.362
 2977SOL    HW2 9831   0.283   1.059   2.445
 2978SOL     OW 9832   3.874   4.480   0.222
 2978SOL    HW1 9833   3.896   4.391   0.182
 2978SOL    HW2 9834   3.947   4.545   0.200
 2979SOL     OW 9835   3.449   1.772   4.164
 2979SOL    HW1 9836   3.506   1.848   4.132
 2979SOL    HW2 9837   3.502   1.714   4.225
 2980SOL     OW 9838   2.440   5.528   6.099
 2980SOL    HW1 9839   2.352   5.515   6.052
 2980SOL    HW2 9840   2.459   5.449   6.157
 2981SOL     OW 9841   2.332   0.856   0.217
 2981SOL    HW1 9842   2.245   0.864   0.267
 2981SOL    HW2 9843   2.366   0.948   0.195
 2982SOL     OW 9844   2.343   6.149   1.474
 2982SOL    HW1 9845   2.333   6.125   1.571
 2982SOL    HW2 9846   2.421   6.099   1.436
 2983SOL     OW 9847   6.495   2.153   1.404
 2983SOL    HW1 9848   6.412   2.194   1.442
 2983SOL    HW2 9849   6.566   2.149   1.474
 2984SOL     OW 9850   5.425   5.891   6.219
 2984SOL    HW1 9851   5.515   5.847   6.209
 2984SOL    HW2 9852   5.414   5.922   6.313
 2985SOL     OW 9853   1.493   1.948   4.743
 2985SOL    HW1 9854   1.466   2.012   4.671
 2985SOL    HW2 9855   1.522   1.999   4.824
 2986SOL     OW 9856   3.649   3.918   2.571
 2986SOL    HW1 9857   3.611   3.827   2.551
 2986SOL    HW2 9858   3.686   3.918   2.664
 2987SOL     OW 9859   1.790   1.356   4.412
 2987SOL    HW1 9860   1.708   1.341   4.466
 2987SOL    HW2 9861   1.765   1.387   4.320
 2988SOL     OW 9862   1.394   0.015   2.004
 2988SOL    HW1 9863   1.323   6.995   2.060
 2988SOL    HW2 9864   1.376   7.018   1.907
 2989SOL     OW 9865   5.374   3.986   5.613
 2989SOL    HW1 9866   5.387   4.027   5.703
 2989SOL    HW2 9867   5.350   4.057   5.547
 2990SOL     OW 9868   4.881   2.495   4.173
 2990SOL    HW1 9869   4.808   2.544   4.221
 2990SOL    HW2 9870   4.841   2.440   4.100
 2991SOL     OW 9871   5.979   3.139   6.220
 2991SOL    HW1 9872   5.935   3.227   6.202
 2991SOL    HW2 9873   6.009   3.099   6.134
 2992SOL     OW 9874   1.967   4.855   4.617
 2992SOL    HW1 9875   1.871   4.854   4.648
 2992SOL    HW2 9876   2.023   4.803   4.681
 2993SOL     OW 9877   0.303   4.940   0.669
 2993SOL    HW1 9878   0.318   4.930   0.767
 2993SOL    HW2 9879   0.230   5.006   0.652
 2994SOL     OW 9880   3.732   5.991   0.500
 2994SOL    HW1 9881   3.713   6.037   0.413
 2994SOL    HW2 9882   3.824   5.952   0.497
 2995SOL     OW 9883   3.949   0.881   0.135
 2995SOL    HW1 9884   3.896   0.940   0.196
 2995SOL    HW2 9885   3.973   0.931   0.052
 2996SOL     OW 9886   0.860   2.052   4.818
 2996SOL    HW1 9887   0.807   2.133   4.845
 2996SOL    HW2 9888   0.944   2.081   4.773
 2997SOL     OW 9889   5.313   0.160   3.282
 2997SOL    HW1 9890   5.365   0.231   3.328
 2997SOL    HW2 9891   5.232   0.137   3.337
 2998SOL     OW 9892   4.471   6.383   3.348
 2998SOL    HW1 9893   4.563   6.376   3.385
 2998SOL    HW2 9894   4.464   6.467   3.294
 2999SOL     OW 9895   2.620   5.318   5.792
 2999SOL    HW1 9896   2.546   5.251   5.793
 2999SOL    HW2 9897   2.708   5.271   5.797
 3000SOL     OW 9898   2.505   3.994   6.697
 3000SOL    HW1 9899   2.456   4.041   6.624
 3000SOL    HW2 9900   2.446   3.925   6.738
 3001SOL     OW 9901   6.294   1.845   0.163
 3001SOL    HW1 9902   6.218   1.909   0.173
 3001SOL    HW2 9903   6.278   1.764   0.219
 3002SOL     OW 9904   3.275   2.096   0.312
 3002SOL    HW1 9905   3.208   2.109   0.239
 3002SOL    HW2 9906   3.362   2.137   0.285
 3003SOL     OW 9907   0.849   6.478   1.128
 3003SOL    HW1 9908   0.890   6.407   1.185
 3003SOL    HW2 9909   0.911   6.500   1.053
 3004SOL     OW 9910   1.342   5.040   2.644
 3004SOL    HW1 9911   1.333   4.947   2.681
 3004SOL    HW2 9912   1.319   5.039   2.547
 3005SOL     OW 9913   1.443   3.128   6.881
 3005SOL    HW1 9914   1.369   3.079   6.928
 3005SOL    HW2 9915   1.437   3.112   6.783
 3006SOL     OW 9916   5.464   1.675   5.105
 3006SOL    HW1 9917   5.558   1.648   5.126
 3006SOL    HW2 9918   5.448   1.665   5.007
 3007SOL     OW 9919   4.731   4.770   0.641
 3007SOL    HW1 9920   4.676   4.839   0.595
 3007SOL    HW2 9921   4.702   4.679   0.613
 3008SOL     OW 9922   3.303   2.252   6.221
 3008SOL    HW1 9923   3.308   2.286   6.127
 3008SOL    HW2 9924   3.372   2.182   6.235
 3009SOL     OW 9925   6.873   3.277   2.435
 3009SOL    HW1 9926   6.884   3.309   2.341
 3009SOL    HW2 9927   6.928   3.194   2.448
 3010SOL     OW 9928   3.069   5.737   4.366
 3010SOL    HW1 9929   2.975   5.743   4.330
 3010SOL    HW2 9930   3.132   5.717   4.291
 3011SOL     OW 9931   5.839   0.566   1.733
 3011SOL    HW1 9932   5.863   0.663   1.729
 3011SOL    HW2 9933   5.739   0.556   1.734
 3012SOL     OW 9934   2.179   3.230   0.387
 3012SOL    HW1 9935   2.216   3.323   0.392
 3012SOL    HW2 9936   2.084   3.235   0.355
 3013SOL     OW 9937   6.158   4.959   3.530
 3013SOL    HW1 9938   6.192   4.872   3.495
 3013SOL    HW2 9939   6.069   4.979   3.489
 3014SOL     OW 9940   4.753   2.114   6.250
 3014SOL    HW1 9941   4.842   2.149   6.280
 3014SOL    HW2 9942   4.729   2.032   6.302
 3015SOL     OW 9943   2.044   1.981   0.284
 3015SOL    HW1 9944   1.991   2.054   0.326
 3015SOL    HW2 9945   2.140   2.010   0.276
 3016SOL     OW 9946   3.365   0.006   4.290
 3016SOL    HW1 9947   3.322   0.028   4.378
 3016SOL    HW2 9948   3.437   6.961   4.304
 3017SOL     OW 9949   5.402   5.545   2.449
 3017SOL    HW1 9950   5.332   5.602   2.406
 3017SOL    HW2 9951   5.359   5.461   2.484
 3018SOL     OW 9952   3.364   0.076   6.721
 3018SOL    HW1 9953   3.287   0.040   6.774
 3018SOL    HW2 9954   3.418   0.137   6.779
 3019SOL     OW 9955   1.118   0.403   6.598
 3019SOL    HW1 9956   1.061   0.456   6.660
 3019SOL    HW2 9957   1.070   0.319   6.572
 3020SOL     OW 9958   4.148   3.209   0.944
 3020SOL    HW1 9959   4.182   3.195   0.851
 3020SOL    HW2 9960   4.092   3.131   0.971
 3021SOL     OW 9961   2.292   7.007   4.272
 3021SOL    HW1 9962   2.224   6.963   4.213
 3021SOL    HW2 9963   2.285   0.084   4.264
 3022SOL     OW 9964   4.477   5.368   5.029
 3022SOL    HW1 9965   4.502   5.271   5.033
 3022SOL    HW2 9966   4.509   5.414   5.111
 3023SOL     OW 9967   4.246   6.747   3.238
 3023SOL    HW1 9968   4.253   6.656   3.280
 3023SOL    HW2 9969   4.286   6.744   3.147
 3024SOL     OW 9970   5.682   6.614   5.474
 3024SOL    HW1 9971   5.616   6.540   5.476
 3024SOL    HW2 9972   5.752   6.599   5.544
 3025SOL     OW 9973   3.795   5.840   1.804
 3025SOL    HW1 9974   3.868   5.903   1.830
 3025SOL    HW2 9975   3.719   5.849   1.868
 3026SOL     OW 9976   0.476   1.091   6.078
 3026SOL    HW1 9977   0.537   1.157   6.033
 3026SOL    HW2 9978   0.381   1.123   6.070
 3027SOL     OW 9979   3.863   1.603   1.936
 3027SOL    HW1 9980   3.909   1.622   2.023
 3027SOL    HW2 9981   3.821   1.512   1.940
 3028SOL     OW 9982   1.318   4.409   6.016
 3028SOL    HW1 9983   1.308   4.377   6.110
 3028SOL    HW2 9984   1.405   4.377   5.979
 3029SOL     OW 9985   1.121   2.852   3.963
 3029SOL    HW1 9986   1.132   2.767   4.015
 3029SOL    HW2 9987   1.177   2.924   4.005
 3030SOL     OW 9988   1.329   4.069   1.162
 3030SOL    HW1 9989   1.344   4.007   1.085
 3030SOL    HW2 9990   1.320   4.017   1.246
 3031SOL     OW 9991   0.432   4.548   1.100
 3031SOL    HW1 9992   0.494   4.473   1.077
 3031SOL    HW2 9993   0.343   4.511   1.125
 3032SOL     OW 9994   2.042   6.584   1.328
 3032SOL    HW1 9995   1.974   6.547   1.264
 3032SOL    HW2 9996   2.116   6.628   1.276
 3033SOL     OW 9997   6.307   1.274   2.429
 3033SOL    HW1 9998   6.340   1.366   2.450
 3033SOL    HW2 9999   6.321   1.215   2.508
 3034SOL     OW10000   0.242   6.088   3.450
 3034SOL    HW110001   0.282   6.103   3.359
 3034SOL    HW210002   0.148   6.056   3.439
 3035SOL     OW10003   0.785   3.438   5.930
 3035SOL    HW110004   0.695   3.428   5.972
 3035SOL    HW210005   0.826   3.524   5.961
 3036SOL     OW10006   1.464   2.312   5.167
 3036SOL    HW110007   1.379   2.299   5.218
 3036SOL    HW210008   1.444   2.321   5.069
 3037SOL     OW10009   6.565   4.856   5.327
 3037SOL    HW110010   6.507   4.818   5.255
 3037SOL    HW210011   6.520   4.843   5.416
 3038SOL     OW10012   4.799   4.148   5.789
 3038SOL    HW110013   4.777   4.237   5.751
 3038SOL    HW210014   4.740   4.078   5.747
 3039SOL     OW10015   0.184   3.223   0.458
 3039SOL    HW110016   0.085   3.211   0.471
 3039SOL    HW210017   0.230   3.136   0.475
 3040SOL     OW10018   3.476   4.855   5.753
 3040SOL    HW110019   3.377   4.846   5.755
 3040SOL    HW210020   3.507   4.860   5.658
 3041SOL     OW10021   1.131   4.925   6.092
 3041SOL    HW110022   1.205   4.954   6.031
 3041SOL    HW210023   1.170   4.886   6.175
 3042SOL     OW10024   5.756   6.320   2.513
 3042SOL    HW110025   5.698   6.328   2.594
 3042SOL    HW210026   5.847   6.289   2.541
 3043SOL     OW10027   3.195   3.849   1.567
 3043SOL    HW110028   3.116   3.899   1.601
 3043SOL    HW210029   3.175   3.751   1.567
 3044SOL     OW10030   3.231   5.358   5.504
 3044SOL    HW110031   3.233   5.286   5.573
 3044SOL    HW210032   3.152   5.418   5.520
 3045SOL     OW10033   4.899   6.553   3.041
 3045SOL    HW110034   4.933   6.619   2.974
 3045SOL    HW210035   4.965   6.542   3.114
 3046SOL     OW10036   3.170   0.000   6.886
 3046SOL    HW110037   3.163   0.061   6.965
 3046SOL    HW210038   3.090   6.964   6.881
 3047SOL     OW10039   5.967   6.992   0.835
 3047SOL    HW110040   6.015   0.031   0.897
 3047SOL    HW210041   5.926   0.023   0.760
 3048SOL     OW10042   4.958   1.933   0.740
 3048SOL    HW110043   4.900   1.853   0.727
 3048SOL    HW210044   4.925   1.986   0.817
 3049SOL     OW10045   1.700   0.580   3.639
 3049SOL    HW110046   1.687   0.483   3.623
 3049SOL    HW210047   1.634   0.633   3.586
 3050SOL     OW10048   2.734   2.125   1.199
 3050SOL    HW110049   2.789   2.102   1.279
 3050SOL    HW210050   2.688   2.213   1.214
 3051SOL     OW10051   2.246   6.545   6.430
 3051SOL    HW110052   2.287   6.532   6.340
 3051SOL    HW210053   2.182   6.470   6.448
 3052SOL     OW10054   5.216   5.362   2.212
 3052SOL    HW110055   5.228   5.450   2.167
 3052SOL    HW210056   5.305   5.322   2.231
 3053SOL     OW10057   0.053   3.355   1.640
 3053SOL    HW110058   7.007   3.408   1.589
 3053SOL    HW210059   0.132   3.412   1.658
 3054SOL     OW10060   5.742   0.925   1.882
 3054SOL    HW110061   5.676   0.883   1.820
 3054SOL    HW210062   5.732   1.024   1.879
 3055SOL     OW10063   4.937   0.586   5.125
 3055SOL    HW110064   4.855   0.639   5.146
 3055SOL    HW210065   4.927   0.493   5.161
 3056SOL     OW10066   6.802   0.946   5.561
 3056SOL    HW110067   6.739   0.927   5.485
 3056SOL    HW210068   6.788   0.878   5.633
 3057SOL     OW10069   5.108   6.314   4.069
 3057SOL    HW110070   5.130   6.326   4.166
 3057SOL    HW210071   5.145   6.390   4.016
 3058SOL     OW10072   6.243   4.364   0.850
 3058SOL    HW110073   6.191   4.315   0.780
 3058SOL    HW210074   6.238   4.314   0.937
 3059SOL     OW10075   2.686   1.700   3.944
 3059SOL    HW110076   2.712   1.756   3.866
 3059SOL    HW210077   2.760   1.636   3.966
 3060SOL     OW10078   1.926   5.099   0.234
 3060SOL    HW110079   1.996   5.031   0.209
 3060SOL    HW210080   1.947   5.136   0.324
 3061SOL     OW10081   6.098   5.807   5.771
 3061SOL    HW110082   6.014   5.769   5.808
 3061SOL    HW210083   6.136   5.744   5.703
 3062SOL     OW10084   2.122   6.359   0.791
 3062SOL    HW110085   2.189   6.293   0.756
 3062SOL    HW210086   2.042   6.310   0.824
 3063SOL     OW10087   1.178   4.824   1.415
 3063SOL    HW110088   1.221   4.830   1.505
 3063SOL    HW210089   1.116   4.902   1.403
 3064SOL     OW10090   4.358   3.424   0.682
 3064SOL    HW110091   4.277   3.407   0.626
 3064SOL    HW210092   4.431   3.461   0.625
 3065SOL     OW10093   1.066   2.204   6.485
 3065SOL    HW110094   1.124   2.179   6.563
 3065SOL    HW210095   1.108   2.171   6.401
 3066SOL     OW10096   5.261   5.419   6.702
 3066SOL    HW110097   5.196   5.471   6.756
 3066SOL    HW210098   5.354   5.440   6.733
 3067SOL     OW10099   2.915   0.838   0.054
 3067SOL    HW110100   2.945   0.813   0.146
 3067SOL    HW210101   2.904   0.756   7.020
 3068SOL     OW10102   6.915   0.210   1.589
 3068SOL    HW110103   6.955   0.231   1.500
 3068SOL    HW210104   6.976   0.242   1.661
 3069SOL     OW10105   6.233   6.326   3.201
 3069SOL    HW110106   6.170   6.249   3.210
 3069SOL    HW210107   6.205   6.383   3.124
 3070SOL     OW10108   2.067   0.665   0.159
 3070SOL    HW110109   2.161   0.633   0.170
 3070SOL    HW210110   2.060   0.759   0.192
 3071SOL     OW10111   6.311   5.660   3.770
 3071SOL    HW110112   6.364   5.744   3.751
 3071SOL    HW210113   6.349   5.614   3.850
 3072SOL     OW10114   2.137   5.874   6.324
 3072SOL    HW110115   2.206   5.803   6.307
 3072SOL    HW210116   2.067   5.839   6.385
 3073SOL     OW10117   0.317   4.506   2.276
 3073SOL    HW110118   0.250   4.489   2.348
 3073SOL    HW210119   0.404   4.532   2.317
 3074SOL     OW10120   0.340   4.206   0.903
 3074SOL    HW110121   0.411   4.218   0.972
 3074SOL    HW210122   0.355   4.118   0.855
 3075SOL     OW10123   2.957   5.281   3.489
 3075SOL    HW110124   2.922   5.342   3.560
 3075SOL    HW210125   3.057   5.282   3.491
 3076SOL     OW10126   0.041   1.621   4.220
 3076SOL    HW110127   0.138   1.611   4.242
 3076SOL    HW210128   0.023   1.579   4.130
 3077SOL     OW10129   5.788   3.937   1.976
 3077SOL    HW110130   5.698   3.935   1.934
 3077SOL    HW210131   5.832   4.026   1.960
 3078SOL     OW10132   6.568   3.556   2.448
 3078SOL    HW110133   6.489   3.517   2.494
 3078SOL    HW210134   6.651   3.540   2.502
 3079SOL     OW10135   3.412   1.832   3.179
 3079SOL    HW110136   3.381   1.756   3.122
 3079SOL    HW210137   3.399   1.918   3.129
 3080SOL     OW10138   5.193   3.962   1.910
 3080SOL    HW110139   5.223   4.026   1.981
 3080SOL    HW210140   5.243   3.981   1.825
 3081SOL     OW10141   0.109   4.545   5.768
 3081SOL    HW110142   0.208   4.537   5.778
 3081SOL    HW210143   0.072   4.460   5.730
 3082SOL     OW10144   2.032   5.597   4.188
 3082SOL    HW110145   2.127   5.571   4.174
 3082SOL    HW210146   2.025   5.696   4.198
 3083SOL     OW10147   3.784   5.954   2.975
 3083SOL    HW110148   3.706   5.957   3.038
 3083SOL    HW210149   3.772   5.878   2.911
 3084SOL     OW10150   6.486   4.671   3.008
 3084SOL    HW110151   6.557   4.732   3.042
 3084SOL    HW210152   6.522   4.578   2.999
 3085SOL     OW10153   5.856   4.441   0.622
 3085SOL    HW110154   5.921   4.377   0.582
 3085SOL    HW210155   5.859   4.527   0.571
 3086SOL     OW10156   4.909   1.057   6.618
 3086SOL    HW110157   4.852   1.139   6.612
 3086SOL    HW210158   4.853   0.981   6.652
 3087SOL     OW10159   3.148   6.200   3.201
 3087SOL    HW110160   3.100   6.227   3.284
 3087SOL    HW210161   3.235   6.156   3.226
 3088SOL     OW10162   1.779   3.529   5.565
 3088SOL    HW110163   1.826   3.506   5.479
 3088SOL    HW210164   1.796   3.625   5.587
 3089SOL     OW10165   4.145   2.300   4.741
 3089SOL    HW110166   4.219   2.234   4.736
 3089SOL    HW210167   4.142   2.341   4.832
 3090SOL     OW10168   2.557   0.794   2.255
 3090SOL    HW110169   2.490   0.862   2.225
 3090SOL    HW210170   2.518   0.741   2.330
 3091SOL     OW10171   1.296   1.164   0.409
 3091SOL    HW110172   1.280   1.212   0.496
 3091SOL    HW210173   1.363   1.091   0.423
 3092SOL     OW10174   5.407   6.806   1.066
 3092SOL    HW110175   5.321   6.846   1.098
 3092SOL    HW210176   5.483   6.860   1.101
 3093SOL     OW10177   5.589   6.133   6.264
 3093SOL    HW110178   5.506   6.117   6.318
 3093SOL    HW210179   5.634   6.215   6.298
 3094SOL     OW10180   2.543   0.132   4.177
 3094SOL    HW110181   2.500   0.218   4.203
 3094SOL    HW210182   2.476   0.058   4.187
 3095SOL     OW10183   2.391   4.107   5.783
 3095SOL    HW110184   2.408   4.024   5.837
 3095SOL    HW210185   2.477   4.139   5.743
 3096SOL     OW10186   1.175   4.923   5.446
 3096SOL    HW110187   1.211   5.014   5.425
 3096SOL    HW210188   1.176   4.910   5.545
 3097SOL     OW10189   5.165   3.308   6.836
 3097SOL    HW110190   5.096   3.249   6.877
 3097SOL    HW210191   5.137   3.403   6.844
 3098SOL     OW10192   1.743   3.634   1.808
 3098SOL    HW110193   1.803   3.571   1.759
 3098SOL    HW210194   1.719   3.710   1.749
 3099SOL     OW10195   0.952   6.494   3.878
 3099SOL    HW110196   0.923   6.420   3.940
 3099SOL    HW210197   1.009   6.558   3.928
 3100SOL     OW10198   6.636   6.197   3.399
 3100SOL    HW110199   6.616   6.155   3.311
 3100SOL    HW210200   6.685   6.283   3.385
 3101SOL     OW10201   4.988   5.510   6.102
 3101SOL    HW110202   5.046   5.590   6.095
 3101SOL    HW210203   4.917   5.513   6.031
 3102SOL     OW10204   6.262   0.056   1.520
 3102SOL    HW110205   6.243   0.030   1.614
 3102SOL    HW210206   6.342   0.006   1.487
 3103SOL     OW10207   4.599   1.086   1.092
 3103SOL    HW110208   4.607   0.992   1.126
 3103SOL    HW210209   4.513   1.097   1.043
 3104SOL     OW10210   3.323   0.495   5.978
 3104SOL    HW110211   3.317   0.467   5.883
 3104SOL    HW210212   3.402   0.450   6.021
 3105SOL     OW10213   4.667   3.728   1.432
 3105SOL    HW110214   4.698   3.633   1.429
 3105SOL    HW210215   4.633   3.750   1.523
 3106SOL     OW10216   5.505   6.506   5.139
 3106SOL    HW110217   5.603   6.498   5.155
 3106SOL    HW210218   5.483   6.598   5.107
 3107SOL     OW10219   3.925   1.131   4.468
 3107SOL    HW110220   3.865   1.102   4.393
 3107SOL    HW210221   3.951   1.226   4.454
 3108SOL     OW10222   1.814   5.345   4.872
 3108SOL    HW110223   1.755   5.396   4.934
 3108SOL    HW210224   1.843   5.405   4.797
 3109SOL     OW10225   6.450   7.009   4.317
 3109SOL    HW110226   6.385   0.001   4.243
 3109SOL    HW210227   6.485   6.916   4.314
 3110SOL     OW10228   2.111   4.482   3.307
 3110SOL    HW110229   2.106   4.499   3.405
 3110SOL    HW210230   2.173   4.549   3.265
 3111SOL     OW10231   0.226   4.748   3.601
 3111SOL    HW110232   0.127   4.760   3.597
 3111SOL    HW210233   0.248   4.669   3.658
 3112SOL     OW10234   2.614   3.290   0.528
 3112SOL    HW110235   2.579   3.271   0.436
 3112SOL    HW210236   2.598   3.211   0.587
 3113SOL     OW10237   3.165   5.912   2.729
 3113SOL    HW110238   3.248   5.931   2.675
 3113SOL    HW210239   3.116   5.997   2.746
 3114SOL     OW10240   4.068   1.606   0.388
 3114SOL    HW110241   4.013   1.621   0.470
 3114SOL    HW210242   4.017   1.549   0.324
 3115SOL     OW10243   3.879   4.488   5.729
 3115SOL    HW110244   3.797   4.504   5.783
 3115SOL    HW210245   3.861   4.417   5.660
 3116SOL     OW10246   6.940   1.656   0.082
 3116SOL    HW110247   6.866   1.605   0.037
 3116SOL    HW210248   6.902   1.737   0.126
 3117SOL     OW10249   4.331   3.295   5.460
 3117SOL    HW110250   4.256   3.258   5.514
 3117SOL    HW210251   4.297   3.366   5.400
 3118SOL     OW10252   0.668   5.815   1.852
 3118SOL    HW110253   0.684   5.887   1.919
 3118SOL    HW210254   0.702   5.845   1.762
 3119SOL     OW10255   2.439   2.374   6.093
 3119SOL    HW110256   2.534   2.357   6.120
 3119SOL    HW210257   2.388   2.288   6.096
 3120SOL     OW10258   2.550   0.522   5.883
 3120SOL    HW110259   2.512   0.586   5.950
 3120SOL    HW210260   2.639   0.489   5.914
 3121SOL     OW10261   5.956   1.916   4.750
 3121SOL    HW110262   5.989   1.907   4.844
 3121SOL    HW210263   6.026   1.883   4.687
 3122SOL     OW10264   4.745   5.004   4.900
 3122SOL    HW110265   4.753   5.092   4.947
 3122SOL    HW210266   4.649   4.986   4.879
 3123SOL     OW10267   1.772   1.532   2.911
 3123SOL    HW110268   1.847   1.557   2.971
 3123SOL    HW210269   1.791   1.444   2.868
 3124SOL     OW10270   4.562   0.215   4.074
 3124SOL    HW110271   4.654   0.222   4.112
 3124SOL    HW210272   4.556   0.271   3.991
 3125SOL     OW10273   1.507   3.191   5.416
 3125SOL    HW110274   1.586   3.224   5.364
 3125SOL    HW210275   1.462   3.118   5.364
 3126SOL     OW10276   5.292   4.667   5.530
 3126SOL    HW110277   5.388   4.681   5.504
 3126SOL    HW210278   5.242   4.628   5.453
 3127SOL     OW10279   1.986   2.034   5.807
 3127SOL    HW110280   2.069   2.065   5.853
 3127SOL    HW210281   1.994   1.937   5.784
 3128SOL     OW10282   3.457   0.617   0.287
 3128SOL    HW110283   3.440   0.611   0.385
 3128SOL    HW210284   3.470   0.525   0.249
 3129SOL     OW10285   5.272   3.560   1.060
 3129SOL    HW110286   5.204   3.510   1.007
 3129SOL    HW210287   5.330   3.495   1.109
 3130SOL     OW10288   1.998   4.751   1.494
 3130SOL    HW110289   2.088   4.796   1.499
 3130SOL    HW210290   1.957   4.769   1.405
 3131SOL     OW10291   0.638   3.669   2.305
 3131SOL    HW110292   0.584   3.589   2.278
 3131SOL    HW210293   0.593   3.752   2.271
 3132SOL     OW10294   4.998   5.072   6.847
 3132SOL    HW110295   4.964   5.155   6.892
 3132SOL    HW210296   5.065   5.098   6.776
 3133SOL     OW10297   3.934   1.149   3.113
 3133SOL    HW110298   3.962   1.233   3.066
 3133SOL    HW210299   3.851   1.166   3.165
 3134SOL     OW10300   4.477   4.975   0.861
 3134SOL    HW110301   4.525   5.052   0.904
 3134SOL    HW210302   4.431   4.922   0.932
 3135SOL     OW10303   5.136   0.248   5.749
 3135SOL    HW110304   5.216   0.189   5.756
 3135SOL    HW210305   5.097   0.263   5.840
 3136SOL     OW10306   5.684   0.200   2.388
 3136SOL    HW110307   5.778   0.223   2.361
 3136SOL    HW210308   5.621   0.232   2.318
 3137SOL     OW10309   6.908   6.746   3.334
 3137SOL    HW110310   6.971   6.735   3.257
 3137SOL    HW210311   6.924   6.834   3.378
 3138SOL     OW10312   5.695   5.597   3.135
 3138SOL    HW110313   5.603   5.566   3.112
 3138SOL    HW210314   5.706   5.599   3.235
 3139SOL     OW10315   3.610   4.999   1.478
 3139SOL    HW110316   3.635   4.909   1.442
 3139SOL    HW210317   3.620   4.998   1.578
 3140SOL     OW10318   6.294   5.769   5.196
 3140SOL    HW110319   6.245   5.856   5.197
 3140SOL    HW210320   6.262   5.714   5.118
 3141SOL     OW10321   0.704   6.789   6.617
 3141SOL    HW110322   0.777   6.746   6.670
 3141SOL    HW210323   0.743   6.840   6.541
 3142SOL     OW10324   2.883   0.309   2.683
 3142SOL    HW110325   2.934   0.389   2.712
 3142SOL    HW210326   2.795   0.337   2.644
 3143SOL     OW10327   5.878   0.974   6.926
 3143SOL    HW110328   5.866   0.887   6.973
 3143SOL    HW210329   5.926   1.039   6.985
 3144SOL     OW10330   4.724   3.497   0.862
 3144SOL    HW110331   4.630   3.531   0.861
 3144SOL    HW210332   4.753   3.476   0.768
 3145SOL     OW10333   1.717   6.453   2.518
 3145SOL    HW110334   1.625   6.458   2.555
 3145SOL    HW210335   1.726   6.369   2.463
 3146SOL     OW10336   1.190   1.053   4.796
 3146SOL    HW110337   1.187   0.960   4.758
 3146SOL    HW210338   1.223   1.116   4.726
 3147SOL     OW10339   2.774   4.753   6.909
 3147SOL    HW110340   2.789   4.809   6.828
 3147SOL    HW210341   2.803   4.659   6.890
 3148SOL     OW10342   6.763   6.943   4.068
 3148SOL    HW110343   6.829   6.869   4.077
 3148SOL    HW210344   6.692   6.916   4.002
 3149SOL     OW10345   2.981   1.225   6.552
 3149SOL    HW110346   3.006   1.248   6.646
 3149SOL    HW210347   2.881   1.226   6.543
 3150SOL     OW10348   0.199   5.937   5.096
 3150SOL    HW110349   0.198   5.847   5.141
 3150SOL    HW210350   0.139   5.935   5.016
 3151SOL     OW10351   0.359   1.326   5.671
 3151SOL    HW110352   0.380   1.317   5.769
 3151SOL    HW210353   0.259   1.330   5.659
 3152SOL     OW10354   0.605   3.894   0.481
 3152SOL    HW110355   0.523   3.842   0.454
 3152SOL    HW210356   0.619   3.884   0.579
 3153SOL     OW10357   6.484   5.685   0.479
 3153SOL    HW110358   6.574   5.717   0.449
 3153SOL    HW210359   6.478   5.693   0.578
 3154SOL     OW10360   6.879   1.148   0.579
 3154SOL    HW110361   6.787   1.110   0.569
 3154SOL    HW210362   6.877   1.247   0.564
 3155SOL     OW10363   6.278   5.172   0.227
 3155SOL    HW110364   6.252   5.140   0.318
 3155SOL    HW210365   6.334   5.255   0.235
 3156SOL     OW10366   3.182   3.701   1.998
 3156SOL    HW110367   3.152   3.618   2.045
 3156SOL    HW210368   3.274   3.688   1.961
 3157SOL     OW10369   1.980   1.628   5.538
 3157SOL    HW110370   1.951   1.588   5.451
 3157SOL    HW210371   2.061   1.684   5.523
 3158SOL     OW10372   2.239   0.823   4.115
 3158SOL    HW110373   2.286   0.832   4.203
 3158SOL    HW210374   2.154   0.771   4.129
 3159SOL     OW10375   6.026   6.932   6.372
 3159SOL    HW110376   6.063   6.839   6.376
 3159SOL    HW210377   6.046   6.972   6.282
 3160SOL     OW10378   1.700   5.813   5.835
 3160SOL    HW110379   1.661   5.875   5.766
 3160SOL    HW210380   1.794   5.791   5.810
 3161SOL     OW10381   2.303   2.160   2.570
 3161SOL    HW110382   2.319   2.142   2.667
 3161SOL    HW210383   2.387   2.196   2.529
 3162SOL     OW10384   0.923   5.763   1.421
 3162SOL    HW110385   1.010   5.759   1.471
 3162SOL    HW210386   0.941   5.758   1.323
 3163SOL     OW10387   3.880   3.873   6.656
 3163SOL    HW110388   3.966   3.921   6.672
 3163SOL    HW210389   3.893   3.775   6.670
 3164SOL     OW10390   3.589   5.698   1.677
 3164SOL    HW110391   3.688   5.711   1.687
 3164SOL    HW210392   3.548   5.681   1.767
 3165SOL     OW10393   1.670   5.339   1.847
 3165SOL    HW110394   1.588   5.297   1.888
 3165SOL    HW210395   1.750   5.285   1.871
 3166SOL     OW10396   4.477   1.946   3.724
 3166SOL    HW110397   4.528   2.000   3.791
 3166SOL    HW210398   4.532   1.935   3.641
 3167SOL     OW10399   5.480   4.211   0.912
 3167SOL    HW110400   5.510   4.131   0.965
 3167SOL    HW210401   5.527   4.212   0.824
 3168SOL     OW10402   5.396   3.133   6.916
 3168SOL    HW110403   5.342   3.081   6.982
 3168SOL    HW210404   5.340   3.207   6.879
 3169SOL     OW10405   2.295   4.235   3.608
 3169SOL    HW110406   2.313   4.267   3.515
 3169SOL    HW210407   2.229   4.160   3.606
 3170SOL     OW10408   3.845   5.697   2.120
 3170SOL    HW110409   3.750   5.714   2.092
 3170SOL    HW210410   3.905   5.706   2.040
 3171SOL     OW10411   6.642   1.993   2.269
 3171SOL    HW110412   6.703   2.008   2.347
 3171SOL    HW210413   6.607   2.081   2.237
 3172SOL     OW10414   0.014   5.426   6.616
 3172SOL    HW110415   6.960   5.490   6.628
 3172SOL    HW210416   0.073   5.430   6.696
 3173SOL     OW10417   3.290   2.058   6.881
 3173SOL    HW110418   3.227   1.990   6.920
 3173SOL    HW210419   3.382   2.040   6.914
 3174SOL     OW10420   2.940   2.724   6.523
 3174SOL    HW110421   3.012   2.711   6.455
 3174SOL    HW210422   2.858   2.673   6.496
 3175SOL     OW10423   5.510   1.795   1.647
 3175SOL    HW110424   5.538   1.843   1.730
 3175SOL    HW210425   5.415   1.763   1.657
 3176SOL     OW10426   0.689   4.237   5.154
 3176SOL    HW110427   0.780   4.277   5.146
 3176SOL    HW210428   0.668   4.184   5.072
 3177SOL     OW10429   5.568   4.285   4.065
 3177SOL    HW110430   5.653   4.250   4.104
 3177SOL    HW210431   5.493   4.273   4.130
 3178SOL     OW10432   6.449   2.407   0.549
 3178SOL    HW110433   6.410   2.347   0.620
 3178SOL    HW210434   6.394   2.400   0.466
 3179SOL     OW10435   1.143   2.180   2.042
 3179SOL    HW110436   1.228   2.128   2.032
 3179SOL    HW210437   1.124   2.229   1.957
 3180SOL     OW10438   5.862   6.892   0.571
 3180SOL    HW110439   5.867   6.903   0.472
 3180SOL    HW210440   5.808   6.811   0.593
 3181SOL     OW10441   6.267   2.083   3.562
 3181SOL    HW110442   6.273   2.154   3.492
 3181SOL    HW210443   6.212   2.007   3.528
 3182SOL     OW10444   2.500   0.286   6.868
 3182SOL    HW110445   2.465   0.378   6.849
 3182SOL    HW210446   2.589   0.293   6.914
 3183SOL     OW10447   4.631   4.371   2.252
 3183SOL    HW110448   4.591   4.314   2.180
 3183SOL    HW210449   4.595   4.464   2.244
 3184SOL     OW10450   0.280   2.660   3.044
 3184SOL    HW110451   0.192   2.617   3.026
 3184SOL    HW210452   0.347   2.591   3.070
 3185SOL     OW10453   4.370   6.054   6.196
 3185SOL    HW110454   4.302   5.995   6.241
 3185SOL    HW210455   4.328   6.142   6.176
 3186SOL     OW10456   2.946   2.241   0.372
 3186SOL    HW110457   2.980   2.183   0.298
 3186SOL    HW210458   3.019   2.300   0.405
 3187SOL     OW10459   4.388   5.324   1.048
 3187SOL    HW110460   4.448   5.398   1.018
 3187SOL    HW210461   4.294   5.359   1.055
 3188SOL     OW10462   1.400   6.455   3.939
 3188SOL    HW110463   1.432   6.510   3.861
 3188SOL    HW210464   1.361   6.515   4.008
 3189SOL     OW10465   1.341   2.189   1.449
 3189SOL    HW110466   1.431   2.232   1.444
 3189SOL    HW210467   1.328   2.149   1.540
 3190SOL     OW10468   6.877   5.510   0.442
 3190SOL    HW110469   6.800   5.538   0.499
 3190SOL    HW210470   6.946   5.467   0.500
 3191SOL     OW10471   5.011   5.189   1.709
 3191SOL    HW110472   4.936   5.182   1.776
 3191SOL    HW210473   4.972   5.203   1.618
 3192SOL     OW10474   0.563   3.953   1.497
 3192SOL    HW110475   0.580   4.046   1.466
 3192SOL    HW210476   0.504   3.954   1.578
 3193SOL     OW10477   3.974   1.512   5.595
 3193SOL    HW110478   3.900   1.580   5.590
 3193SOL    HW210479   3.964   1.458   5.678
 3194SOL     OW10480   1.564   2.240   5.864
 3194SOL    HW110481   1.558   2.334   5.896
 3194SOL    HW210482   1.658   2.220   5.836
 3195SOL     OW10483   1.614   1.166   2.445
 3195SOL    HW110484   1.682   1.129   2.383
 3195SOL    HW210485   1.533   1.195   2.394
 3196SOL     OW10486   6.945   0.871   6.753
 3196SOL    HW110487   6.914   0.779   6.777
 3196SOL    HW210488   7.003   0.907   6.826
 3197SOL     OW10489   2.943   6.425   4.630
 3197SOL    HW110490   2.875   6.463   4.694
 3197SOL    HW210491   2.918   6.449   4.536
 3198SOL     OW10492   6.611   3.349   3.182
 3198SOL    HW110493   6.690   3.328   3.125
 3198SOL    HW210494   6.528   3.343   3.126
 3199SOL     OW10495   5.036   4.022   2.637
 3199SOL    HW110496   4.944   4.033   2.675
 3199SOL    HW210497   5.095   4.095   2.671
 3200SOL     OW10498   6.102   3.284   2.690
 3200SOL    HW110499   6.021   3.341   2.710
 3200SOL    HW210500   6.171   3.299   2.761
 3201SOL     OW10501   6.531   4.781   3.422
 3201SOL    HW110502   6.484   4.768   3.335
 3201SOL    HW210503   6.552   4.692   3.462
 3202SOL     OW10504   1.089   4.799   1.054
 3202SOL    HW110505   1.179   4.836   1.029
 3202SOL    HW210506   1.101   4.728   1.123
 3203SOL     OW10507   5.847   1.473   0.861
 3203SOL    HW110508   5.770   1.469   0.797
 3203SOL    HW210509   5.901   1.556   0.843
 3204SOL     OW10510   3.994   0.043   3.433
 3204SOL    HW110511   3.990   6.969   3.404
 3204SOL    HW210512   3.932   0.097   3.376
 3205SOL     OW10513   5.108   3.161   6.046
 3205SOL    HW110514   5.163   3.082   6.022
 3205SOL    HW210515   5.011   3.135   6.049
 3206SOL     OW10516   1.667   4.433   1.110
 3206SOL    HW110517   1.741   4.441   1.177
 3206SOL    HW210518   1.598   4.370   1.145
 3207SOL     OW10519   1.517   0.771   6.703
 3207SOL    HW110520   1.548   0.844   6.763
 3207SOL    HW210521   1.440   0.724   6.746
 3208SOL     OW10522   4.994   6.309   6.230
 3208SOL    HW110523   4.980   6.214   6.200
 3208SOL    HW210524   5.022   6.365   6.152
 3209SOL     OW10525   3.458   5.273   3.928
 3209SOL    HW110526   3.400   5.276   3.847
 3209SOL    HW210527   3.408   5.310   4.006
 3210SOL     OW10528   1.202   4.629   1.225
 3210SOL    HW110529   1.187   4.686   1.305
 3210SOL    HW210530   1.292   4.586   1.231
 3211SOL     OW10531   1.345   3.857   0.992
 3211SOL    HW110532   1.258   3.848   0.945
 3211SOL    HW210533   1.410   3.790   0.955
 3212SOL     OW10534   2.983   6.536   2.048
 3212SOL    HW110535   2.909   6.531   2.114
 3212SOL    HW210536   3.005   6.632   2.030
 3213SOL     OW10537   1.606   6.976   0.290
 3213SOL    HW110538   1.593   0.048   0.261
 3213SOL    HW210539   1.633   6.920   0.212
 3214SOL     OW10540   4.568   5.586   1.554
 3214SOL    HW110541   4.626   5.665   1.534
 3214SOL    HW210542   4.512   5.565   1.474
 3215SOL     OW10543   0.362   3.975   0.738
 3215SOL    HW110544   0.289   3.908   0.730
 3215SOL    HW210545   0.449   3.929   0.759
 3216SOL     OW10546   5.921   5.584   0.614
 3216SOL    HW110547   6.019   5.598   0.633
 3216SOL    HW210548   5.877   5.672   0.600
 3217SOL     OW10549   0.203   5.703   2.569
 3217SOL    HW110550   0.278   5.637   2.578
 3217SOL    HW210551   0.179   5.738   2.660
 3218SOL     OW10552   5.411   2.586   2.919
 3218SOL    HW110553   5.471   2.666   2.905
 3218SOL    HW210554   5.336   2.612   2.981
 3219SOL     OW10555   0.817   1.518   3.643
 3219SOL    HW110556   0.740   1.570   3.680
 3219SOL    HW210557   0.903   1.561   3.671
 3220SOL     OW10558   6.711   5.434   5.739
 3220SOL    HW110559   6.658   5.349   5.734
 3220SOL    HW210560   6.780   5.427   5.810
 3221SOL     OW10561   3.643   0.157   1.842
 3221SOL    HW110562   3.587   0.238   1.863
 3221SOL    HW210563   3.599   0.103   1.771
 3222SOL     OW10564   2.783   1.635   2.537
 3222SOL    HW110565   2.764   1.540   2.558
 3222SOL    HW210566   2.697   1.682   2.513
 3223SOL     OW10567   2.663   6.472   6.483
 3223SOL    HW110568   2.666   6.407   6.559
 3223SOL    HW210569   2.570   6.479   6.448
 3224SOL     OW10570   4.701   2.583   4.866
 3224SOL    HW110571   4.645   2.506   4.836
 3224SOL    HW210572   4.791   2.578   4.822
 3225SOL     OW10573   4.958   2.465   5.848
 3225SOL    HW110574   4.989   2.504   5.935
 3225SOL    HW210575   4.887   2.396   5.865
 3226SOL     OW10576   2.107   1.045   2.190
 3226SOL    HW110577   2.097   0.971   2.124
 3226SOL    HW210578   2.138   1.128   2.144
 3227SOL     OW10579   3.455   3.301   6.819
 3227SOL    HW110580   3.453   3.389   6.867
 3227SOL    HW210581   3.361   3.268   6.807
 3228SOL     OW10582   6.718   3.827   0.995
 3228SOL    HW110583   6.718   3.757   0.924
 3228SOL    HW210584   6.777   3.903   0.968
 3229SOL     OW10585   3.614   0.520   5.822
 3229SOL    HW110586   3.604   0.590   5.892
 3229SOL    HW210587   3.696   0.539   5.767
 3230SOL     OW10588   2.037   4.948   5.732
 3230SOL    HW110589   1.956   4.955   5.674
 3230SOL    HW210590   2.119   4.960   5.677
 3231SOL     OW10591   2.591   0.248   1.625
 3231SOL    HW110592   2.492   0.252   1.611
 3231SOL    HW210593   2.631   0.337   1.601
 3232SOL     OW10594   4.639   6.758   4.482
 3232SOL    HW110595   4.575   6.833   4.497
 3232SOL    HW210596   4.680   6.766   4.392
 3233SOL     OW10597   6.351   2.185   0.715
 3233SOL    HW110598   6.343   2.194   0.814
 3233SOL    HW210599   6.278   2.236   0.671
 3234SOL     OW10600   0.811   2.717   0.069
 3234SOL    HW110601   0.828   2.744   6.996
 3234SOL    HW210602   0.729   2.661   0.074
 3235SOL     OW10603   0.148   0.156   1.394
 3235SOL    HW110604   0.181   0.251   1.401
 3235SOL    HW210605   0.198   0.109   1.322
 3236SOL     OW10606   0.421   3.740   0.377
 3236SOL    HW110607   0.442   3.693   0.291
 3236SOL    HW210608   0.337   3.793   0.366
 3237SOL     OW10609   6.179   1.601   2.398
 3237SOL    HW110610   6.136   1.683   2.436
 3237SOL    HW210611   6.279   1.613   2.398
 3238SOL     OW10612   6.690   5.662   0.094
 3238SOL    HW110613   6.773   5.676   0.040
 3238SOL    HW210614   6.705   5.694   0.188
 3239SOL     OW10615   0.131   1.450   2.519
 3239SOL    HW110616   0.218   1.471   2.474
 3239SOL    HW210617   0.059   1.508   2.481
 3240SOL     OW10618   6.817   6.265   6.462
 3240SOL    HW110619   6.888   6.233   6.399
 3240SOL    HW210620   6.728   6.261   6.417
 3241SOL     OW10621   4.394   0.919   5.695
 3241SOL    HW110622   4.457   0.980   5.648
 3241SOL    HW210623   4.444   0.866   5.763
 3242SOL     OW10624   4.698   4.701   6.663
 3242SOL    HW110625   4.643   4.631   6.709
 3242SOL    HW210626   4.640   4.777   6.636
 3243SOL     OW10627   4.218   4.724   0.492
 3243SOL    HW110628   4.275   4.705   0.412
 3243SOL    HW210629   4.273   4.719   0.575
 3244SOL     OW10630   5.212   5.973   0.124
 3244SOL    HW110631   5.134   5.913   0.142
 3244SOL    HW210632   5.181   6.055   0.077
 3245SOL     OW10633   5.444   2.981   3.868
 3245SOL    HW110634   5.436   2.887   3.903
 3245SOL    HW210635   5.483   3.039   3.940
 3246SOL     OW10636   6.733   0.028   3.269
 3246SOL    HW110637   6.715   0.127   3.270
 3246SOL    HW210638   6.793   0.004   3.345
 3247SOL     OW10639   5.980   4.289   2.301
 3247SOL    HW110640   6.032   4.226   2.359
 3247SOL    HW210641   5.890   4.250   2.282
 3248SOL     OW10642   5.262   3.093   2.031
 3248SOL    HW110643   5.238   3.189   2.020
 3248SOL    HW210644   5.180   3.036   2.022
 3249SOL     OW10645   3.786   4.083   3.621
 3249SOL    HW110646   3.777   4.081   3.721
 3249SOL    HW210647   3.864   4.027   3.593
 3250SOL     OW10648   6.123   0.326   2.686
 3250SOL    HW110649   6.065   0.407   2.699
 3250SOL    HW210650   6.066   0.245   2.678
 3251SOL     OW10651   3.431   1.091   3.351
 3251SOL    HW110652   3.345   1.113   3.304
 3251SOL    HW210653   3.508   1.122   3.295
 3252SOL     OW10654   2.993   0.971   2.574
 3252SOL    HW110655   2.945   1.000   2.491
 3252SOL    HW210656   2.966   0.878   2.597
 3253SOL     OW10657   4.766   3.557   1.120
 3253SOL    HW110658   4.681   3.595   1.158
 3253SOL    HW210659   4.750   3.530   1.025
 3254SOL     OW10660   4.461   5.659   6.543
 3254SOL    HW110661   4.490   5.712   6.463
 3254SOL    HW210662   4.514   5.574   6.547
 3255SOL     OW10663   4.270   6.674   0.640
 3255SOL    HW110664   4.344   6.629   0.690
 3255SOL    HW210665   4.188   6.677   0.697
 3256SOL     OW10666   3.896   1.373   1.262
 3256SOL    HW110667   3.852   1.283   1.268
 3256SOL    HW210668   3.918   1.404   1.355
 3257SOL     OW10669   1.339   1.947   2.230
 3257SOL    HW110670   1.285   2.021   2.271
 3257SOL    HW210671   1.374   1.977   2.141
 3258SOL     OW10672   4.822   5.996   2.312
 3258SOL    HW110673   4.886   5.948   2.253
 3258SOL    HW210674   4.774   5.929   2.370
 3259SOL     OW10675   4.826   4.970   5.463
 3259SOL    HW110676   4.900   5.003   5.405
 3259SOL    HW210677   4.745   4.952   5.408
 3260SOL     OW10678   1.573   2.151   1.012
 3260SOL    HW110679   1.584   2.200   0.925
 3260SOL    HW210680   1.554   2.055   0.994
 3261SOL     OW10681   5.457   0.834   1.407
 3261SOL    HW110682   5.400   0.829   1.325
 3261SOL    HW210683   5.399   0.851   1.487
 3262SOL     OW10684   3.319   1.826   2.225
 3262SOL    HW110685   3.239   1.772   2.200
 3262SOL    HW210686   3.401   1.782   2.188
 3263SOL     OW10687   3.059   1.008   2.841
 3263SOL    HW110688   2.975   0.970   2.881
 3263SOL    HW210689   3.056   0.997   2.742
 3264SOL     OW10690   1.756   5.898   0.776
 3264SOL    HW110691   1.690   5.908   0.851
 3264SOL    HW210692   1.774   5.801   0.760
 3265SOL     OW10693   4.471   0.270   6.578
 3265SOL    HW110694   4.561   0.226   6.587
 3265SOL    HW210695   4.400   0.206   6.608
 3266SOL     OW10696   2.192   4.326   0.355
 3266SOL    HW110697   2.282   4.293   0.329
 3266SOL    HW210698   2.149   4.373   0.278
 3267SOL     OW10699   3.085   6.259   1.401
 3267SOL    HW110700   3.127   6.345   1.431
 3267SOL    HW210701   3.148   6.184   1.421
 3268SOL     OW10702   2.356   3.875   1.798
 3268SOL    HW110703   2.277   3.866   1.859
 3268SOL    HW210704   2.340   3.950   1.734
 3269SOL     OW10705   5.123   5.738   2.611
 3269SOL    HW110706   5.132   5.740   2.512
 3269SOL    HW210707   5.104   5.830   2.645
 3270SOL     OW10708   1.322   4.519   6.445
 3270SOL    HW110709   1.276   4.592   6.496
 3270SOL    HW210710   1.420   4.538   6.440
 3271SOL     OW10711   5.636   3.631   1.854
 3271SOL    HW110712   5.647   3.577   1.770
 3271SOL    HW210713   5.722   3.675   1.876
 3272SOL     OW10714   2.879   4.469   6.194
 3272SOL    HW110715   2.965   4.439   6.154
 3272SOL    HW210716   2.803   4.441   6.136
 3273SOL     OW10717   6.427   5.441   0.348
 3273SOL    HW110718   6.423   5.460   0.250
 3273SOL    HW210719   6.451   5.525   0.397
 3274SOL     OW10720   5.227   0.801   0.716
 3274SOL    HW110721   5.242   0.853   0.799
 3274SOL    HW210722   5.296   0.729   0.708
 3275SOL     OW10723   5.289   0.607   0.167
 3275SOL    HW110724   5.310   0.514   0.197
 3275SOL    HW210725   5.307   0.671   0.242
 3276SOL     OW10726   3.897   6.007   6.636
 3276SOL    HW110727   3.845   6.067   6.697
 3276SOL    HW210728   3.937   6.061   6.562
 3277SOL     OW10729   3.692   0.306   0.793
 3277SOL    HW110730   3.603   0.335   0.829
 3277SOL    HW210731   3.765   0.340   0.852
 3278SOL     OW10732   1.058   0.955   5.833
 3278SOL    HW110733   1.001   0.919   5.758
 3278SOL    HW210734   1.072   0.883   5.901
 3279SOL     OW10735   4.899   0.035   0.352
 3279SOL    HW110736   4.801   0.054   0.347
 3279SOL    HW210737   4.915   6.961   0.332
 3280SOL     OW10738   5.050   4.234   4.690
 3280SOL    HW110739   5.050   4.283   4.603
 3280SOL    HW210740   5.116   4.276   4.752
 3281SOL     OW10741   1.019   4.543   1.572
 3281SOL    HW110742   1.118   4.547   1.585
 3281SOL    HW210743   0.988   4.630   1.532
 3282SOL     OW10744   0.290   4.928   4.728
 3282SOL    HW110745   0.250   5.007   4.775
 3282SOL    HW210746   0.365   4.891   4.783
 3283SOL     OW10747   3.634   0.807   0.805
 3283SOL    HW110748   3.713   0.753   0.778
 3283SOL    HW210749   3.555   0.781   0.750
 3284SOL     OW10750   0.992   5.651   6.417
 3284SOL    HW110751   1.000   5.582   6.488
 3284SOL    HW210752   1.083   5.672   6.380
 3285SOL     OW10753   4.084   2.188   4.196
 3285SOL    HW110754   4.108   2.155   4.288
 3285SOL    HW210755   4.168   2.214   4.147
 3286SOL     OW10756   3.661   3.149   2.604
 3286SOL    HW110757   3.761   3.143   2.603
 3286SOL    HW210758   3.623   3.065   2.643
 3287SOL     OW10759   1.074   0.247   0.104
 3287SOL    HW110760   1.111   0.340   0.102
 3287SOL    HW210761   1.118   0.193   0.032
 3288SOL     OW10762   2.078   6.084   0.196
 3288SOL    HW110763   2.134   6.098   0.114
 3288SOL    HW210764   1.981   6.094   0.172
 3289SOL     OW10765   2.961   0.650   5.694
 3289SOL    HW110766   2.886   0.690   5.641
 3289SOL    HW210767   2.944   0.552   5.707
 3290SOL     OW10768   0.021   5.355   1.336
 3290SOL    HW110769   7.022   5.419   1.264
 3290SOL    HW210770   6.978   5.279   1.335
 3291SOL     OW10771   1.814   0.472   6.389
 3291SOL    HW110772   1.911   0.481   6.409
 3291SOL    HW210773   1.761   0.475   6.474
 3292SOL     OW10774   0.247   1.107   0.587
 3292SOL    HW110775   0.155   1.092   0.624
 3292SOL    HW210776   0.275   1.028   0.533
 3293SOL     OW10777   6.490   4.586   1.855
 3293SOL    HW110778   6.456   4.493   1.841
 3293SOL    HW210779   6.583   4.583   1.890
 3294SOL     OW10780   6.017   2.942   6.414
 3294SOL    HW110781   5.997   2.999   6.334
 3294SOL    HW210782   6.106   2.969   6.452
 3295SOL     OW10783   1.274   2.596   2.128
 3295SOL    HW110784   1.291   2.546   2.214
 3295SOL    HW210785   1.199   2.661   2.142
 3296SOL     OW10786   1.313   0.468   2.727
 3296SOL    HW110787   1.301   0.442   2.631
 3296SOL    HW210788   1.409   0.489   2.744
 3297SOL     OW10789   2.866   1.514   5.530
 3297SOL    HW110790   2.906   1.456   5.601
 3297SOL    HW210791   2.937   1.542   5.465
 3298SOL     OW10792   6.111   2.064   5.680
 3298SOL    HW110793   6.080   1.970   5.661
 3298SOL    HW210794   6.200   2.061   5.725
 3299SOL     OW10795   4.031   5.935   2.806
 3299SOL    HW110796   3.974   5.945   2.887
 3299SOL    HW210797   4.024   5.841   2.771
 3300SOL     OW10798   0.335   0.425   5.864
 3300SOL    HW110799   0.423   0.395   5.900
 3300SOL    HW210800   0.261   0.393   5.924
 3301SOL     OW10801   2.159   2.941   3.481
 3301SOL    HW110802   2.145   3.016   3.545
 3301SOL    HW210803   2.090   2.870   3.496
 3302SOL     OW10804   0.544   5.125   5.277
 3302SOL    HW110805   0.458   5.075   5.289
 3302SOL    HW210806   0.620   5.060   5.278
 3303SOL     OW10807   3.214   3.580   0.700
 3303SOL    HW110808   3.204   3.486   0.668
 3303SOL    HW210809   3.280   3.628   0.641
 3304SOL     OW10810   1.720   5.773   4.921
 3304SOL    HW110811   1.817   5.794   4.907
 3304SOL    HW210812   1.680   5.840   4.982
 3305SOL     OW10813   2.305   1.533   2.108
 3305SOL    HW110814   2.259   1.620   2.091
 3305SOL    HW210815   2.333   1.528   2.204
 3306SOL     OW10816   2.425   5.646   4.669
 3306SOL    HW110817   2.438   5.565   4.727
 3306SOL    HW210818   2.429   5.728   4.726
 3307SOL     OW10819   0.552   5.756   6.449
 3307SOL    HW110820   0.618   5.773   6.375
 3307SOL    HW210821   0.521   5.661   6.444
 3308SOL     OW10822   2.548   5.972   1.381
 3308SOL    HW110823   2.637   5.928   1.391
 3308SOL    HW210824   2.480   5.921   1.434
 3309SOL     OW10825   6.053   5.379   3.788
 3309SOL    HW110826   6.011   5.289   3.789
 3309SOL    HW210827   5.983   5.449   3.801
 3310SOL     OW10828   7.018   4.320   5.616
 3310SOL    HW110829   6.999   4.229   5.581
 3310SOL    HW210830   6.968   4.388   5.563
 3311SOL     OW10831   3.898   4.158   0.656
 3311SOL    HW110832   3.831   4.092   0.689
 3311SOL    HW210833   3.887   4.245   0.705
 3312SOL     OW10834   3.960   4.316   5.520
 3312SOL    HW110835   3.983   4.300   5.424
 3312SOL    HW210836   4.011   4.253   5.578
 3313SOL     OW10837   0.899   6.551   3.358
 3313SOL    HW110838   0.815   6.551   3.305
 3313SOL    HW210839   0.878   6.542   3.456
 3314SOL     OW10840   2.174   1.209   2.412
 3314SOL    HW110841   2.133   1.136   2.357
 3314SOL    HW210842   2.104   1.251   2.470
 3315SOL     OW10843   0.048   4.438   4.920
 3315SOL    HW110844   0.114   4.418   4.847
 3315SOL    HW210845   0.093   4.427   5.009
 3316SOL     OW10846   5.268   1.129   5.500
 3316SOL    HW110847   5.199   1.196   5.525
 3316SOL    HW210848   5.307   1.089   5.583
 3317SOL     OW10849   5.015   2.991   1.904
 3317SOL    HW110850   4.930   3.028   1.940
 3317SOL    HW210851   5.048   3.049   1.829
 3318SOL     OW10852   1.936   1.668   1.386
 3318SOL    HW110853   1.940   1.631   1.293
 3318SOL    HW210854   2.026   1.703   1.412
 3319SOL     OW10855   6.060   1.694   3.792
 3319SOL    HW110856   6.013   1.621   3.743
 3319SOL    HW210857   6.120   1.654   3.861
 3320SOL     OW10858   6.554   1.015   5.408
 3320SOL    HW110859   6.473   1.029   5.465
 3320SOL    HW210860   6.586   1.103   5.373
 3321SOL     OW10861   5.152   1.611   0.675
 3321SOL    HW110862   5.077   1.605   0.741
 3321SOL    HW210863   5.126   1.676   0.603
 3322SOL     OW10864   6.539   2.473   0.884
 3322SOL    HW110865   6.638   2.471   0.873
 3322SOL    HW210866   6.517   2.501   0.978
 3323SOL     OW10867   3.235   2.974   0.338
 3323SOL    HW110868   3.326   2.936   0.323
 3323SOL    HW210869   3.184   2.914   0.400
 3324SOL     OW10870   3.752   4.962   6.749
 3324SOL    HW110871   3.798   4.989   6.664
 3324SOL    HW210872   3.791   4.876   6.781
 3325SOL     OW10873   0.367   3.560   6.449
 3325SOL    HW110874   0.300   3.627   6.480
 3325SOL    HW210875   0.448   3.608   6.415
 3326SOL     OW10876   4.883   1.963   2.192
 3326SOL    HW110877   4.814   1.891   2.192
 3326SOL    HW210878   4.974   1.922   2.197
 3327SOL     OW10879   2.997   5.379   1.622
 3327SOL    HW110880   3.054   5.311   1.575
 3327SOL    HW210881   2.975   5.347   1.714
 3328SOL     OW10882   4.727   2.277   0.524
 3328SOL    HW110883   4.679   2.230   0.450
 3328SOL    HW210884   4.815   2.233   0.539
 3329SOL     OW10885   5.788   0.842   4.669
 3329SOL    HW110886   5.816   0.897   4.747
 3329SOL    HW210887   5.709   0.885   4.624
 3330SOL     OW10888   6.390   4.072   1.581
 3330SOL    HW110889   6.336   4.153   1.558
 3330SOL    HW210890   6.457   4.055   1.510
 3331SOL     OW10891   2.392   2.657   1.874
 3331SOL    HW110892   2.483   2.652   1.833
 3331SOL    HW210893   2.399   2.695   1.967
 3332SOL     OW10894   5.773   5.625   6.960
 3332SOL    HW110895   5.723   5.642   0.023
 3332SOL    HW210896   5.739   5.685   6.888
 3333SOL     OW10897   4.498   4.961   6.975
 3333SOL    HW110898   4.570   4.892   6.972
 3333SOL    HW210899   4.423   4.934   6.914
 3334SOL     OW10900   2.828   4.002   1.617
 3334SOL    HW110901   2.756   3.965   1.676
 3334SOL    HW210902   2.884   4.067   1.668
 3335SOL     OW10903   4.731   5.808   6.138
 3335SOL    HW110904   4.820   5.799   6.093
 3335SOL    HW210905   4.658   5.785   6.074
 3336SOL     OW10906   2.585   5.889   5.259
 3336SOL    HW110907   2.678   5.917   5.282
 3336SOL    HW210908   2.524   5.968   5.261
 3337SOL     OW10909   2.930   3.777   2.452
 3337SOL    HW110910   2.969   3.696   2.410
 3337SOL    HW210911   2.899   3.840   2.381
 3338SOL     OW10912   5.564   2.720   1.603
 3338SOL    HW110913   5.621   2.775   1.664
 3338SOL    HW210914   5.472   2.759   1.600
 3339SOL     OW10915   6.530   7.003   6.638
 3339SOL    HW110916   6.533   6.911   6.598
 3339SOL    HW210917   6.582   0.043   6.580
 3340SOL     OW10918   3.815   0.770   2.417
 3340SOL    HW110919   3.756   0.799   2.342
 3340SOL    HW210920   3.837   0.849   2.475
 3341SOL     OW10921   0.799   6.077   3.259
 3341SOL    HW110922   0.762   6.135   3.332
 3341SOL    HW210923   0.738   5.999   3.244
 3342SOL     OW10924   2.669   6.497   4.239
 3342SOL    HW110925   2.591   6.534   4.188
 3342SOL    HW210926   2.705   6.417   4.191
 3343SOL     OW10927   4.475   2.959   0.672
 3343SOL    HW110928   4.566   2.972   0.631
 3343SOL    HW210929   4.476   2.878   0.730
 3344SOL     OW10930   5.804   3.498   4.320
 3344SOL    HW110931   5.831   3.473   4.227
 3344SOL    HW210932   5.716   3.546   4.318
 3345SOL     OW10933   1.404   3.675   6.203
 3345SOL    HW110934   1.314   3.632   6.195
 3345SOL    HW210935   1.475   3.607   6.184
 3346SOL     OW10936   1.717   0.996   0.932
 3346SOL    HW110937   1.739   0.935   1.007
 3346SOL    HW210938   1.641   0.958   0.878
 3347SOL     OW10939   0.648   3.995   3.894
 3347SOL    HW110940   0.646   4.065   3.965
 3347SOL    HW210941   0.555   3.973   3.866
 3348SOL     OW10942   3.016   3.141   3.679
 3348SOL    HW110943   2.950   3.111   3.748
 3348SOL    HW210944   3.088   3.072   3.669
 3349SOL     OW10945   0.972   5.725   3.503
 3349SOL    HW110946   0.875   5.748   3.499
 3349SOL    HW210947   0.986   5.647   3.564
 3350SOL     OW10948   1.888   2.526   5.711
 3350SOL    HW110949   1.883   2.426   5.710
 3350SOL    HW210950   1.873   2.561   5.619
 3351SOL     OW10951   5.331   0.881   2.524
 3351SOL    HW110952   5.354   0.784   2.525
 3351SOL    HW210953   5.415   0.934   2.508
 3352SOL     OW10954   0.224   2.666   0.445
 3352SOL    HW110955   0.210   2.592   0.379
 3352SOL    HW210956   0.310   2.712   0.426
 3353SOL     OW10957   1.537   5.577   1.902
 3353SOL    HW110958   1.540   5.652   1.836
 3353SOL    HW210959   1.594   5.502   1.869
 3354SOL     OW10960   5.061   2.589   5.010
 3354SOL    HW110961   5.059   2.512   4.946
 3354SOL    HW210962   5.155   2.620   5.023
 3355SOL     OW10963   2.143   1.606   0.485
 3355SOL    HW110964   2.069   1.673   0.474
 3355SOL    HW210965   2.190   1.622   0.572
 3356SOL     OW10966   2.389   3.705   6.386
 3356SOL    HW110967   2.407   3.784   6.326
 3356SOL    HW210968   2.296   3.711   6.421
 3357SOL     OW10969   2.568   4.631   1.846
 3357SOL    HW110970   2.657   4.587   1.854
 3357SOL    HW210971   2.496   4.561   1.854
 3358SOL     OW10972   5.167   0.534   0.803
 3358SOL    HW110973   5.151   0.630   0.783
 3358SOL    HW210974   5.248   0.525   0.862
 3359SOL     OW10975   0.003   0.501   3.633
 3359SOL    HW110976   0.086   0.483   3.581
 3359SOL    HW210977   6.993   0.594   3.616
 3360SOL     OW10978   0.449   1.404   6.597
 3360SOL    HW110979   0.411   1.344   6.668
 3360SOL    HW210980   0.530   1.361   6.557
 3361SOL     OW10981   0.404   4.146   3.007
 3361SOL    HW110982   0.409   4.118   3.103
 3361SOL    HW210983   0.328   4.209   2.995
 3362SOL     OW10984   3.780   1.275   3.891
 3362SOL    HW110985   3.731   1.328   3.960
 3362SOL    HW210986   3.861   1.234   3.932
 3363SOL     OW10987   0.306   0.058   0.347
 3363SOL    HW110988   0.215   0.024   0.323
 3363SOL    HW210989   0.304   0.158   0.352
 3364SOL     OW10990   1.565   4.488   3.954
 3364SOL    HW110991   1.492   4.420   3.966
 3364SOL    HW210992   1.615   4.469   3.870
 3365SOL     OW10993   0.798   2.457   5.381
 3365SOL    HW110994   0.885   2.506   5.375
 3365SOL    HW210995   0.794   2.389   5.308
 3366SOL     OW10996   5.715   0.621   6.175
 3366SOL    HW110997   5.666   0.545   6.219
 3366SOL    HW210998   5.676   0.708   6.207
 3367SOL     OW10999   3.200   2.973   1.532
 3367SOL    HW111000   3.285   2.923   1.518
 3367SOL    HW211001   3.125   2.907   1.540
 3368SOL     OW11002   0.833   5.292   6.109
 3368SOL    HW111003   0.885   5.376   6.091
 3368SOL    HW211004   0.763   5.280   6.039
 3369SOL     OW11005   3.960   2.536   5.610
 3369SOL    HW111006   3.866   2.513   5.635
 3369SOL    HW211007   3.976   2.634   5.624
 3370SOL     OW11008   6.634   6.166   5.885
 3370SOL    HW111009   6.701   6.229   5.846
 3370SOL    HW211010   6.544   6.185   5.846
 3371SOL     OW11011   1.515   3.396   2.127
 3371SOL    HW111012   1.596   3.438   2.086
 3371SOL    HW211013   1.543   3.325   2.192
 3372SOL     OW11014   0.937   1.034   1.206
 3372SOL    HW111015   1.017   1.026   1.147
 3372SOL    HW211016   0.956   1.101   1.278
 3373SOL     OW11017   7.010   2.383   2.663
 3373SOL    HW111018   6.997   2.360   2.566
 3373SOL    HW211019   0.083   2.365   2.688
 3374SOL     OW11020   1.880   6.271   4.333
 3374SOL    HW111021   1.839   6.184   4.306
 3374SOL    HW211022   1.815   6.345   4.318
 3375SOL     OW11023   5.645   5.459   6.087
 3375SOL    HW111024   5.547   5.462   6.102
 3375SOL    HW211025   5.683   5.374   6.126
 3376SOL     OW11026   3.800   2.946   3.788
 3376SOL    HW111027   3.770   2.983   3.700
 3376SOL    HW211028   3.837   3.021   3.844
 3377SOL     OW11029   0.292   6.543   4.665
 3377SOL    HW111030   0.319   6.591   4.749
 3377SOL    HW211031   0.215   6.483   4.685
 3378SOL     OW11032   6.987   0.978   0.353
 3378SOL    HW111033   6.940   1.042   0.414
 3378SOL    HW211034   0.064   0.990   0.363
 3379SOL     OW11035   0.032   5.765   6.323
 3379SOL    HW111036   0.039   5.832   6.398
 3379SOL    HW211037   0.068   5.677   6.354
 3380SOL     OW11038   5.411   6.858   5.980
 3380SOL    HW111039   5.445   6.830   5.890
 3380SOL    HW211040   5.480   6.838   6.050
 3381SOL     OW11041   1.185   2.902   1.540
 3381SOL    HW111042   1.225   2.982   1.585
 3381SOL    HW211043   1.249   2.825   1.546
 3382SOL     OW11044   0.958   1.173   0.672
 3382SOL    HW111045   0.911   1.109   0.612
 3382SOL    HW211046   0.930   1.158   0.767
 3383SOL     OW11047   4.327   5.799   1.897
 3383SOL    HW111048   4.342   5.723   1.834
 3383SOL    HW211049   4.415   5.839   1.923
 3384SOL     OW11050   2.492   3.703   5.620
 3384SOL    HW111051   2.539   3.762   5.685
 3384SOL    HW211052   2.555   3.679   5.546
 3385SOL     OW11053   0.194   2.772   3.881
 3385SOL    HW111054   0.127   2.846   3.867
 3385SOL    HW211055   0.251   2.793   3.960
 3386SOL     OW11056   6.435   3.271   6.793
 3386SOL    HW111057   6.430   3.297   6.696
 3386SOL    HW211058   6.517   3.310   6.834
 3387SOL     OW11059   3.327   1.287   4.036
 3387SOL    HW111060   3.308   1.236   4.119
 3387SOL    HW211061   3.317   1.385   4.053
 3388SOL     OW11062   5.180   3.365   2.030
 3388SOL    HW111063   5.084   3.340   2.025
 3388SOL    HW211064   5.196   3.424   2.109
 3389SOL     OW11065   5.384   4.990   5.384
 3389SOL    HW111066   5.399   5.074   5.436
 3389SOL    HW211067   5.337   4.923   5.441
 3390SOL     OW11068   4.859   4.776   5.809
 3390SOL    HW111069   4.885   4.872   5.808
 3390SOL    HW211070   4.759   4.768   5.809
 3391SOL     OW11071   5.354   2.679   5.057
 3391SOL    HW111072   5.401   2.590   5.059
 3391SOL    HW211073   5.415   2.749   5.093
 3392SOL     OW11074   2.788   6.740   3.780
 3392SOL    HW111075   2.765   6.832   3.812
 3392SOL    HW211076   2.721   6.674   3.816
 3393SOL     OW11077   0.524   6.213   0.162
 3393SOL    HW111078   0.610   6.232   0.114
 3393SOL    HW211079   0.453   6.274   0.129
 3394SOL     OW11080   6.079   3.095   1.157
 3394SOL    HW111081   6.144   3.058   1.223
 3394SOL    HW211082   5.986   3.087   1.193
 3395SOL     OW11083   5.643   3.216   3.414
 3395SOL    HW111084   5.663   3.200   3.317
 3395SOL    HW211085   5.582   3.144   3.447
 3396SOL     OW11086   5.392   2.094   3.752
 3396SOL    HW111087   5.414   2.190   3.768
 3396SOL    HW211088   5.438   2.062   3.669
 3397SOL     OW11089   2.745   1.008   5.902
 3397SOL    HW111090   2.828   0.952   5.903
 3397SOL    HW211091   2.698   0.998   5.989
 3398SOL     OW11092   1.234   6.904   4.256
 3398SOL    HW111093   1.170   6.872   4.326
 3398SOL    HW211094   1.321   6.858   4.266
 3399SOL     OW11095   5.830   4.422   4.549
 3399SOL    HW111096   5.873   4.451   4.464
 3399SOL    HW211097   5.792   4.330   4.538
 3400SOL     OW11098   4.755   2.258   5.855
 3400SOL    HW111099   4.826   2.204   5.901
 3400SOL    HW211100   4.749   2.230   5.759
 3401SOL     OW11101   7.006   3.293   0.970
 3401SOL    HW111102   6.982   3.244   1.053
 3401SOL    HW211103   0.069   3.256   0.933
 3402SOL     OW11104   3.989   6.426   6.456
 3402SOL    HW111105   4.054   6.450   6.528
 3402SOL    HW211106   3.906   6.388   6.497
 3403SOL     OW11107   4.256   6.687   4.853
 3403SOL    HW111108   4.165   6.726   4.837
 3403SOL    HW211109   4.292   6.650   4.767
 3404SOL     OW11110   5.438   1.292   0.182
 3404SOL    HW111111   5.431   1.197   0.152
 3404SOL    HW211112   5.378   1.349   0.126
 3405SOL     OW11113   6.801   4.016   4.581
 3405SOL    HW111114   6.769   4.111   4.583
 3405SOL    HW211115   6.900   4.015   4.597
 3406SOL     OW11116   0.720   3.812   2.548
 3406SOL    HW111117   0.659   3.744   2.507
 3406SOL    HW211118   0.761   3.774   2.631
 3407SOL     OW11119   1.612   5.415   0.268
 3407SOL    HW111120   1.690   5.477   0.277
 3407SOL    HW211121   1.554   5.446   0.193
 3408SOL     OW11122   5.089   3.772   5.390
 3408SOL    HW111123   4.994   3.792   5.369
 3408SOL    HW211124   5.108   3.676   5.369
 3409SOL     OW11125   3.498   5.925   6.428
 3409SOL    HW111126   3.426   5.856   6.423
 3409SOL    HW211127   3.462   6.012   6.394
 3410SOL     OW11128   0.133   6.128   0.329
 3410SOL    HW111129   0.088   6.091   0.248
 3410SOL    HW211130   0.224   6.161   0.304
 3411SOL     OW11131   0.141   2.630   1.553
 3411SOL    HW111132   0.169   2.725   1.560
 3411SOL    HW211133   0.165   2.581   1.636
 3412SOL     OW11134   3.967   2.733   6.849
 3412SOL    HW111135   3.967   2.697   6.756
 3412SOL    HW211136   3.884   2.787   6.864
 3413SOL     OW11137   5.825   1.145   1.463
 3413SOL    HW111138   5.841   1.235   1.503
 3413SOL    HW211139   5.788   1.084   1.533
 3414SOL     OW11140   1.924   0.845   5.831
 3414SOL    HW111141   1.854   0.897   5.781
 3414SOL    HW211142   1.881   0.795   5.906
 3415SOL     OW11143   1.572   3.893   4.566
 3415SOL    HW111144   1.669   3.868   4.558
 3415SOL    HW211145   1.564   3.991   4.584
 3416SOL     OW11146   0.113   5.654   0.922
 3416SOL    HW111147   0.210   5.674   0.936
 3416SOL    HW211148   0.062   5.681   1.004
 3417SOL     OW11149   0.326   6.129   3.164
 3417SOL    HW111150   0.247   6.180   3.131
 3417SOL    HW211151   0.410   6.175   3.135
 3418SOL     OW11152   3.334   0.663   4.695
 3418SOL    HW111153   3.300   0.699   4.783
 3418SOL    HW211154   3.420   0.708   4.672
 3419SOL     OW11155   4.456   5.971   4.912
 3419SOL    HW111156   4.534   5.909   4.914
 3419SOL    HW211157   4.396   5.947   4.836
 3420SOL     OW11158   5.669   2.871   3.759
 3420SOL    HW111159   5.570   2.889   3.762
 3420SOL    HW211160   5.701   2.872   3.665
 3421SOL     OW11161   5.592   0.852   6.268
 3421SOL    HW111162   5.517   0.831   6.331
 3421SOL    HW211163   5.565   0.927   6.208
 3422SOL     OW11164   1.848   0.079   1.185
 3422SOL    HW111165   1.912   0.155   1.194
 3422SOL    HW211166   1.814   0.054   1.276
 3423SOL     OW11167   2.299   5.918   0.335
 3423SOL    HW111168   2.231   5.977   0.292
 3423SOL    HW211169   2.254   5.847   0.389
 3424SOL     OW11170   2.954   6.954   2.316
 3424SOL    HW111171   3.045   6.920   2.293
 3424SOL    HW211172   2.960   0.028   2.343
 3425SOL     OW11173   5.183   4.504   2.353
 3425SOL    HW111174   5.258   4.546   2.404
 3425SOL    HW211175   5.172   4.409   2.383
 3426SOL     OW11176   3.818   2.969   0.669
 3426SOL    HW111177   3.750   2.956   0.597
 3426SOL    HW211178   3.773   2.975   0.758
 3427SOL     OW11179   6.747   0.040   0.349
 3427SOL    HW111180   6.798   6.978   0.366
 3427SOL    HW211181   6.666   0.042   0.408
 3428SOL     OW11182   2.999   4.771   1.095
 3428SOL    HW111183   2.935   4.847   1.083
 3428SOL    HW211184   3.089   4.797   1.061
 3429SOL     OW11185   0.577   2.334   0.146
 3429SOL    HW111186   0.520   2.261   0.109
 3429SOL    HW211187   0.575   2.412   0.084
 3430SOL     OW11188   0.293   6.150   5.228
 3430SOL    HW111189   0.252   6.087   5.162
 3430SOL    HW211190   0.315   6.237   5.182
 3431SOL     OW11191   1.364   6.918   1.031
 3431SOL    HW111192   1.448   6.914   1.086
 3431SOL    HW211193   1.293   6.965   1.083
 3432SOL     OW11194   1.838   2.753   6.999
 3432SOL    HW111195   1.760   2.730   6.940
 3432SOL    HW211196   1.806   2.771   0.069
 3433SOL     OW11197   1.179   0.118   6.509
 3433SOL    HW111198   1.079   0.117   6.516
 3433SOL    HW211199   1.210   0.032   6.469
 3434SOL     OW11200   4.551   1.964   0.582
 3434SOL    HW111201   4.532   1.865   0.583
 3434SOL    HW211202   4.581   1.991   0.491
 3435SOL     OW11203   1.318   1.463   1.084
 3435SOL    HW111204   1.396   1.403   1.071
 3435SOL    HW211205   1.277   1.485   0.995
 3436SOL     OW11206   3.400   6.081   6.053
 3436SOL    HW111207   3.400   5.988   6.016
 3436SOL    HW211208   3.493   6.118   6.051
 3437SOL     OW11209   2.490   1.215   6.003
 3437SOL    HW111210   2.428   1.234   6.079
 3437SOL    HW211211   2.438   1.205   5.919
 3438SOL     OW11212   1.190   2.791   0.434
 3438SOL    HW111213   1.166   2.694   0.437
 3438SOL    HW211214   1.210   2.823   0.527
 3439SOL     OW11215   2.136   6.371   5.216
 3439SOL    HW111216   2.230   6.338   5.204
 3439SOL    HW211217   2.119   6.445   5.150
 3440SOL     OW11218   3.762   3.086   1.701
 3440SOL    HW111219   3.689   3.137   1.656
 3440SOL    HW211220   3.722   3.011   1.754
 3441SOL     OW11221   5.322   6.881   4.300
 3441SOL    HW111222   5.417   6.897   4.328
 3441SOL    HW211223   5.316   6.882   4.200
 3442SOL     OW11224   3.509   5.365   2.206
 3442SOL    HW111225   3.571   5.332   2.277
 3442SOL    HW211226   3.513   5.464   2.201
 3443SOL     OW11227   5.021   6.667   1.781
 3443SOL    HW111228   5.104   6.627   1.740
 3443SOL    HW211229   4.943   6.608   1.760
 3444SOL     OW11230   5.354   5.742   0.433
 3444SOL    HW111231   5.440   5.760   0.384
 3444SOL    HW211232   5.313   5.829   0.459
 3445SOL     OW11233   6.233   5.652   4.436
 3445SOL    HW111234   6.161   5.715   4.407
 3445SOL    HW211235   6.254   5.668   4.533
 3446SOL     OW11236   5.957   0.260   2.379
 3446SOL    HW111237   6.033   0.257   2.314
 3446SOL    HW211238   5.932   0.356   2.396
 3447SOL     OW11239   5.227   5.456   1.075
 3447SOL    HW111240   5.160   5.520   1.114
 3447SOL    HW211241   5.180   5.393   1.013
 3448SOL     OW11242   3.069   0.204   1.088
 3448SOL    HW111243   2.991   0.211   1.026
 3448SOL    HW211244   3.062   0.118   1.140
 3449SOL     OW11245   6.569   6.855   3.892
 3449SOL    HW111246   6.597   6.829   3.799
 3449SOL    HW211247   6.491   6.800   3.919
 3450SOL     OW11248   6.992   1.895   6.637
 3450SOL    HW111249   6.983   1.911   6.539
 3450SOL    HW211250   0.045   1.951   6.673
 3451SOL     OW11251   1.728   6.313   2.233
 3451SOL    HW111252   1.785   6.390   2.205
 3451SOL    HW211253   1.781   6.252   2.293
 3452SOL     OW11254   5.814   1.533   6.120
 3452SOL    HW111255   5.851   1.474   6.192
 3452SOL    HW211256   5.889   1.583   6.076
 3453SOL     OW11257   6.836   5.871   5.925
 3453SOL    HW111258   6.884   5.792   5.885
 3453SOL    HW211259   6.748   5.841   5.961
 3454SOL     OW11260   1.019   1.957   6.854
 3454SOL    HW111261   0.944   1.892   6.855
 3454SOL    HW211262   0.984   2.049   6.833
 3455SOL     OW11263   2.503   2.573   4.500
 3455SOL    HW111264   2.436   2.514   4.454
 3455SOL    HW211265   2.515   2.542   4.594
 3456SOL     OW11266   5.912   5.644   2.535
 3456SOL    HW111267   5.930   5.681   2.444
 3456SOL    HW211268   5.824   5.597   2.536
 3457SOL     OW11269   3.082   5.689   3.620
 3457SOL    HW111270   3.046   5.623   3.554
 3457SOL    HW211271   3.084   5.780   3.579
 3458SOL     OW11272   4.802   0.353   0.938
 3458SOL    HW111273   4.704   0.336   0.948
 3458SOL    HW211274   4.835   0.314   0.852
 3459SOL     OW11275   5.562   4.137   2.745
 3459SOL    HW111276   5.612   4.055   2.715
 3459SOL    HW211277   5.465   4.115   2.757
 3460SOL     OW11278   2.563   3.234   0.256
 3460SOL    HW111279   2.561   3.334   0.244
 3460SOL    HW211280   2.609   3.193   0.178
 3461SOL     OW11281   4.666   6.817   4.743
 3461SOL    HW111282   4.752   6.860   4.769
 3461SOL    HW211283   4.671   6.783   4.650
 3462SOL     OW11284   0.191   3.417   2.012
 3462SOL    HW111285   0.189   3.481   2.089
 3462SOL    HW211286   0.285   3.386   1.997
 3463SOL     OW11287   1.192   3.418   3.786
 3463SOL    HW111288   1.171   3.332   3.833
 3463SOL    HW211289   1.160   3.494   3.842
 3464SOL     OW11290   6.995   3.114   6.810
 3464SOL    HW111291   6.929   3.144   6.880
 3464SOL    HW211292   0.066   3.127   6.844
 3465SOL     OW11293   1.626   2.199   2.159
 3465SOL    HW111294   1.699   2.248   2.112
 3465SOL    HW211295   1.639   2.207   2.258
 3466SOL     OW11296   6.629   5.056   6.812
 3466SOL    HW111297   6.678   5.065   6.900
 3466SOL    HW211298   6.674   5.113   6.744
 3467SOL     OW11299   2.163   2.710   1.054
 3467SOL    HW111300   2.135   2.615   1.040
 3467SOL    HW211301   2.119   2.768   0.985
 3468SOL     OW11302   5.947   0.498   2.728
 3468SOL    HW111303   5.875   0.443   2.770
 3468SOL    HW211304   5.928   0.595   2.743
 3469SOL     OW11305   4.646   6.795   3.680
 3469SOL    HW111306   4.596   6.769   3.762
 3469SOL    HW211307   4.691   6.883   3.695
 3470SOL     OW11308   6.881   2.328   1.870
 3470SOL    HW111309   6.789   2.363   1.853
 3470SOL    HW211310   6.938   2.401   1.909
 3471SOL     OW11311   5.001   4.655   4.472
 3471SOL    HW111312   4.919   4.677   4.419
 3471SOL    HW211313   5.082   4.670   4.416
 3472SOL     OW11314   3.108   1.269   3.222
 3472SOL    HW111315   3.098   1.367   3.240
 3472SOL    HW211316   3.116   1.254   3.123
 3473SOL     OW11317   6.856   2.593   1.273
 3473SOL    HW111318   6.909   2.662   1.223
 3473SOL    HW211319   6.915   2.548   1.340
 3474SOL     OW11320   0.981   4.536   2.870
 3474SOL    HW111321   0.907   4.508   2.809
 3474SOL    HW211322   1.028   4.456   2.906
 3475SOL     OW11323   1.389   4.157   4.183
 3475SOL    HW111324   1.317   4.092   4.205
 3475SOL    HW211325   1.431   4.133   4.096
 3476SOL     OW11326   2.317   1.628   2.784
 3476SOL    HW111327   2.384   1.674   2.843
 3476SOL    HW211328   2.234   1.684   2.778
 3477SOL     OW11329   1.598   5.125   0.812
 3477SOL    HW111330   1.661   5.162   0.881
 3477SOL    HW211331   1.587   5.027   0.826
 3478SOL     OW11332   2.613   5.365   5.343
 3478SOL    HW111333   2.582   5.272   5.364
 3478SOL    HW211334   2.705   5.362   5.305
 3479SOL     OW11335   1.349   0.980   3.142
 3479SOL    HW111336   1.264   0.958   3.190
 3479SOL    HW211337   1.332   1.049   3.072
 3480SOL     OW11338   0.144   6.103   4.712
 3480SOL    HW111339   0.226   6.049   4.728
 3480SOL    HW211340   0.085   6.100   4.793
 3481SOL     OW11341   4.829   0.644   0.237
 3481SOL    HW111342   4.748   0.632   0.294
 3481SOL    HW211343   4.900   0.579   0.265
 3482SOL     OW11344   6.192   1.353   1.897
 3482SOL    HW111345   6.218   1.435   1.846
 3482SOL    HW211346   6.176   1.377   1.993
 3483SOL     OW11347   4.806   2.563   1.894
 3483SOL    HW111348   4.834   2.632   1.827
 3483SOL    HW211349   4.852   2.476   1.873
 3484SOL     OW11350   0.998   3.165   0.297
 3484SOL    HW111351   0.945   3.161   0.212
 3484SOL    HW211352   1.057   3.085   0.303
 3485SOL     OW11353   1.875   2.065   4.369
 3485SOL    HW111354   1.804   2.033   4.432
 3485SOL    HW211355   1.953   2.002   4.373
 3486SOL     OW11356   2.761   0.033   4.037
 3486SOL    HW111357   2.817   0.111   4.010
 3486SOL    HW211358   2.678   0.066   4.083
 3487SOL     OW11359   6.143   2.282   6.233
 3487SOL    HW111360   6.166   2.357   6.171
 3487SOL    HW211361   6.134   2.317   6.326
 3488SOL     OW11362   6.614   0.373   4.563
 3488SOL    HW111363   6.694   0.333   4.517
 3488SOL    HW211364   6.534   0.364   4.504
 3489SOL     OW11365   4.191   0.321   1.561
 3489SOL    HW111366   4.222   0.415   1.551
 3489SOL    HW211367   4.195   0.274   1.473
 3490SOL     OW11368   4.077   4.093   0.858
 3490SOL    HW111369   4.037   4.128   0.773
 3490SOL    HW211370   4.138   4.017   0.837
 3491SOL     OW11371   4.200   2.801   5.891
 3491SOL    HW111372   4.153   2.743   5.956
 3491SOL    HW211373   4.259   2.865   5.940
 3492SOL     OW11374   6.621   4.277   1.230
 3492SOL    HW111375   6.543   4.216   1.244
 3492SOL    HW211376   6.685   4.267   1.306
 3493SOL     OW11377   5.136   4.017   5.303
 3493SOL    HW111378   5.140   3.924   5.340
 3493SOL    HW211379   5.098   4.014   5.211
 3494SOL     OW11380   3.304   0.503   1.955
 3494SOL    HW111381   3.275   0.552   2.037
 3494SOL    HW211382   3.374   0.556   1.907
 3495SOL     OW11383   5.805   5.037   1.636
 3495SOL    HW111384   5.767   5.074   1.551
 3495SOL    HW211385   5.867   4.961   1.614
 3496SOL     OW11386   6.200   4.692   0.793
 3496SOL    HW111387   6.201   4.755   0.870
 3496SOL    HW211388   6.207   4.598   0.826
 3497SOL     OW11389   2.446   1.132   4.251
 3497SOL    HW111390   2.364   1.157   4.199
 3497SOL    HW211391   2.439   1.037   4.282
 3498SOL     OW11392   2.990   2.212   0.845
 3498SOL    HW111393   3.089   2.196   0.841
 3498SOL    HW211394   2.946   2.137   0.895
 3499SOL     OW11395   5.331   3.717   3.981
 3499SOL    HW111396   5.314   3.628   4.023
 3499SOL    HW211397   5.424   3.747   4.003
 3500SOL     OW11398   1.824   3.546   4.836
 3500SOL    HW111399   1.846   3.625   4.894
 3500SOL    HW211400   1.888   3.472   4.857
 3501SOL     OW11401   1.285   6.103   5.046
 3501SOL    HW111402   1.360   6.076   5.105
 3501SOL    HW211403   1.269   6.201   5.055
 3502SOL     OW11404   6.757   2.874   2.045
 3502SOL    HW111405   6.659   2.852   2.041
 3502SOL    HW211406   6.769   2.972   2.061
 3503SOL     OW11407   6.342   6.358   4.809
 3503SOL    HW111408   6.438   6.348   4.835
 3503SOL    HW211409   6.300   6.431   4.862
 3504SOL     OW11410   2.616   1.406   1.457
 3504SOL    HW111411   2.590   1.327   1.401
 3504SOL    HW211412   2.704   1.389   1.500
 3505SOL     OW11413   5.558   3.976   5.009
 3505SOL    HW111414   5.510   3.953   4.924
 3505SOL    HW211415   5.491   3.996   5.080
 3506SOL     OW11416   5.131   5.495   5.618
 3506SOL    HW111417   5.114   5.534   5.528
 3506SOL    HW211418   5.116   5.396   5.615
 3507SOL     OW11419   2.034   0.784   0.889
 3507SOL    HW111420   1.939   0.811   0.902
 3507SOL    HW211421   2.065   0.813   0.798
 3508SOL     OW11422   2.169   2.050   5.530
 3508SOL    HW111423   2.095   2.045   5.597
 3508SOL    HW211424   2.238   2.114   5.561
 3509SOL     OW11425   5.268   0.407   6.142
 3509SOL    HW111426   5.313   0.364   6.064
 3509SOL    HW211427   5.275   0.507   6.133
 3510SOL     OW11428   1.399   1.839   2.505
 3510SOL    HW111429   1.381   1.921   2.560
 3510SOL    HW211430   1.393   1.862   2.408
 3511SOL     OW11431   2.594   5.063   0.947
 3511SOL    HW111432   2.547   4.986   0.903
 3511SOL    HW211433   2.617   5.132   0.878
 3512SOL     OW11434   6.702   4.246   0.980
 3512SOL    HW111435   6.751   4.332   0.965
 3512SOL    HW211436   6.678   4.238   1.077
 3513SOL     OW11437   5.291   2.722   6.891
 3513SOL    HW111438   5.290   2.805   6.947
 3513SOL    HW211439   5.368   2.725   6.827
 3514SOL     OW11440   0.200   1.618   1.841
 3514SOL    HW111441   0.218   1.608   1.743
 3514SOL    HW211442   0.176   1.528   1.879
 3515SOL     OW11443   4.991   6.114   3.461
 3515SOL    HW111444   4.981   6.124   3.362
 3515SOL    HW211445   4.924   6.173   3.507
 3516SOL     OW11446   4.734   6.946   0.608
 3516SOL    HW111447   4.785   6.862   0.590
 3516SOL    HW211448   4.636   6.927   0.601
 3517SOL     OW11449   1.595   2.615   0.840
 3517SOL    HW111450   1.642   2.674   0.775
 3517SOL    HW211451   1.647   2.614   0.926
 3518SOL     OW11452   5.906   2.298   3.984
 3518SOL    HW111453   5.945   2.248   4.062
 3518SOL    HW211454   5.872   2.232   3.917
 3519SOL     OW11455   1.653   0.513   6.622
 3519SOL    HW111456   1.581   0.445   6.635
 3519SOL    HW211457   1.613   0.605   6.624
 3520SOL     OW11458   3.039   5.014   6.559
 3520SOL    HW111459   2.994   5.090   6.607
 3520SOL    HW211460   2.978   4.981   6.486
 3521SOL     OW11461   5.072   2.569   6.759
 3521SOL    HW111462   5.146   2.595   6.821
 3521SOL    HW211463   5.006   2.644   6.752
 3522SOL     OW11464   0.172   4.661   1.864
 3522SOL    HW111465   0.263   4.702   1.870
 3522SOL    HW211466   0.172   4.574   1.913
 3523SOL     OW11467   1.717   5.183   6.066
 3523SOL    HW111468   1.630   5.142   6.093
 3523SOL    HW211469   1.719   5.195   5.966
 3524SOL     OW11470   4.481   1.677   1.955
 3524SOL    HW111471   4.500   1.741   2.029
 3524SOL    HW211472   4.553   1.607   1.953
 3525SOL     OW11473   1.361   4.377   3.161
 3525SOL    HW111474   1.352   4.278   3.167
 3525SOL    HW211475   1.416   4.411   3.237
 3526SOL     OW11476   2.276   6.717   3.997
 3526SOL    HW111477   2.230   6.763   4.073
 3526SOL    HW211478   2.338   6.648   4.034
 3527SOL     OW11479   5.836   3.389   6.276
 3527SOL    HW111480   5.821   3.482   6.242
 3527SOL    HW211481   5.846   3.391   6.376
 3528SOL     OW11482   0.704   5.943   5.184
 3528SOL    HW111483   0.732   5.918   5.091
 3528SOL    HW211484   0.784   5.969   5.238
 3529SOL     OW11485   3.739   0.273   6.739
 3529SOL    HW111486   3.751   0.200   6.673
 3529SOL    HW211487   3.732   0.361   6.692
 3530SOL     OW11488   0.379   5.042   2.453
 3530SOL    HW111489   0.428   5.014   2.536
 3530SOL    HW211490   0.397   5.138   2.434
 3531SOL     OW11491   5.081   2.708   0.274
 3531SOL    HW111492   4.982   2.696   0.279
 3531SOL    HW211493   5.120   2.642   0.210
 3532SOL     OW11494   2.981   0.799   1.303
 3532SOL    HW111495   3.041   0.802   1.223
 3532SOL    HW211496   3.036   0.812   1.386
 3533SOL     OW11497   1.756   2.035   2.910
 3533SOL    HW111498   1.809   2.017   2.993
 3533SOL    HW211499   1.777   1.966   2.841
 3534SOL     OW11500   6.107   1.119   6.633
 3534SOL    HW111501   6.011   1.101   6.614
 3534SOL    HW211502   6.118   1.145   6.729
 3535SOL     OW11503   1.813   6.157   0.732
 3535SOL    HW111504   1.880   6.157   0.658
 3535SOL    HW211505   1.788   6.063   0.755
 3536SOL     OW11506   3.063   2.178   3.100
 3536SOL    HW111507   3.054   2.185   3.199
 3536SOL    HW211508   3.134   2.110   3.078
 3537SOL     OW11509   3.008   5.682   1.734
 3537SOL    HW111510   3.033   5.597   1.782
 3537SOL    HW211511   3.065   5.691   1.653
 3538SOL     OW11512   1.470   0.596   6.390
 3538SOL    HW111513   1.375   0.597   6.358
 3538SOL    HW211514   1.527   0.644   6.324
 3539SOL     OW11515   5.341   3.060   5.732
 3539SOL    HW111516   5.344   3.159   5.719
 3539SOL    HW211517   5.427   3.019   5.699
 3540SOL     OW11518   2.409   2.161   5.606
 3540SOL    HW111519   2.466   2.209   5.673
 3540SOL    HW211520   2.467   2.102   5.550
 3541SOL     OW11521   1.896   2.416   6.610
 3541SOL    HW111522   1.941   2.486   6.555
 3541SOL    HW211523   1.964   2.365   6.663
 3542SOL     OW11524   1.533   5.296   2.857
 3542SOL    HW111525   1.461   5.334   2.799
 3542SOL    HW211526   1.535   5.347   2.944
 3543SOL     OW11527   0.480   2.161   4.656
 3543SOL    HW111528   0.534   2.232   4.702
 3543SOL    HW211529   0.389   2.197   4.635
 3544SOL     OW11530   2.733   4.148   6.312
 3544SOL    HW111531   2.803   4.110   6.251
 3544SOL    HW211532   2.764   4.237   6.347
 3545SOL     OW11533   4.111   4.983   0.682
 3545SOL    HW111534   4.176   4.912   0.657
 3545SOL    HW211535   4.145   5.033   0.762
 3546SOL     OW11536   0.896   3.932   3.861
 3546SOL    HW111537   0.797   3.946   3.862
 3546SOL    HW211538   0.934   3.961   3.949
 3547SOL     OW11539   6.554   4.899   4.573
 3547SOL    HW111540   6.617   4.928   4.501
 3547SOL    HW211541   6.499   4.977   4.603
 3548SOL     OW11542   6.123   0.923   5.895
 3548SOL    HW111543   6.060   0.994   5.926
 3548SOL    HW211544   6.174   0.887   5.974
 3549SOL     OW11545   6.779   4.758   5.692
 3549SOL    HW111546   6.784   4.832   5.625
 3549SOL    HW211547   6.831   4.784   5.773
 3550SOL     OW11548   5.952   3.549   3.307
 3550SOL    HW111549   5.930   3.548   3.405
 3550SOL    HW211550   6.020   3.479   3.287
 3551SOL     OW11551   3.915   1.328   2.486
 3551SOL    HW111552   3.962   1.389   2.549
 3551SOL    HW211553   3.963   1.326   2.398
 3552SOL     OW11554   6.038   6.742   2.010
 3552SOL    HW111555   6.052   6.745   1.911
 3552SOL    HW211556   5.940   6.743   2.030
 3553SOL     OW11557   4.499   5.092   1.131
 3553SOL    HW111558   4.454   5.177   1.104
 3553SOL    HW211559   4.596   5.109   1.147
 3554SOL     OW11560   4.549   2.256   1.649
 3554SOL    HW111561   4.536   2.164   1.687
 3554SOL    HW211562   4.474   2.277   1.586
 3555SOL     OW11563   0.802   4.374   3.521
 3555SOL    HW111564   0.894   4.335   3.531
 3555SOL    HW211565   0.746   4.346   3.599
 3556SOL     OW11566   4.153   1.634   4.434
 3556SOL    HW111567   4.119   1.643   4.340
 3556SOL    HW211568   4.208   1.551   4.442
 3557SOL     OW11569   1.159   1.713   4.781
 3557SOL    HW111570   1.081   1.716   4.718
 3557SOL    HW211571   1.243   1.703   4.728
 3558SOL     OW11572   1.130   6.580   2.507
 3558SOL    HW111573   1.146   6.504   2.444
 3558SOL    HW211574   1.035   6.610   2.500
 3559SOL     OW11575   0.623   6.157   5.750
 3559SOL    HW111576   0.607   6.224   5.678
 3559SOL    HW211577   0.677   6.198   5.824
 3560SOL     OW11578   0.993   5.680   2.069
 3560SOL    HW111579   1.083   5.680   2.024
 3560SOL    HW211580   0.930   5.623   2.017
 3561SOL     OW11581   4.365   4.658   4.753
 3561SOL    HW111582   4.459   4.625   4.748
 3561SOL    HW211583   4.326   4.636   4.842
 3562SOL     OW11584   4.563   0.967   3.622
 3562SOL    HW111585   4.613   1.038   3.571
 3562SOL    HW211586   4.545   0.889   3.562
 3563SOL     OW11587   5.973   1.094   0.181
 3563SOL    HW111588   5.939   1.182   0.212
 3563SOL    HW211589   5.927   1.021   0.231
 3564SOL     OW11590   2.153   4.491   3.592
 3564SOL    HW111591   2.203   4.411   3.625
 3564SOL    HW211592   2.063   4.495   3.635
 3565SOL     OW11593   2.364   5.720   5.189
 3565SOL    HW111594   2.423   5.652   5.146
 3565SOL    HW211595   2.420   5.793   5.228
 3566SOL     OW11596   6.466   3.667   5.973
 3566SOL    HW111597   6.542   3.607   5.949
 3566SOL    HW211598   6.443   3.656   6.069
 3567SOL     OW11599   0.173   3.039   0.188
 3567SOL    HW111600   0.077   3.014   0.176
 3567SOL    HW211601   0.180   3.136   0.210
 3568SOL     OW11602   4.524   5.251   4.251
 3568SOL    HW111603   4.532   5.193   4.332
 3568SOL    HW211604   4.444   5.310   4.261
 3569SOL     OW11605   1.945   1.763   5.770
 3569SOL    HW111606   1.853   1.755   5.809
 3569SOL    HW211607   1.953   1.699   5.693
 3570SOL     OW11608   5.436   1.124   4.829
 3570SOL    HW111609   5.437   1.028   4.854
 3570SOL    HW211610   5.530   1.159   4.825
 3571SOL     OW11611   0.945   5.514   5.244
 3571SOL    HW111612   0.857   5.517   5.292
 3571SOL    HW211613   0.947   5.583   5.173
 3572SOL     OW11614   6.025   3.158   3.051
 3572SOL    HW111615   6.082   3.097   2.995
 3572SOL    HW211616   6.081   3.201   3.121
 3573SOL     OW11617   6.866   5.078   3.426
 3573SOL    HW111618   6.951   5.089   3.374
 3573SOL    HW211619   6.800   5.028   3.371
 3574SOL     OW11620   0.308   2.874   0.769
 3574SOL    HW111621   0.368   2.798   0.745
 3574SOL    HW211622   0.359   2.942   0.822
 3575SOL     OW11623   5.714   5.471   2.461
 3575SOL    HW111624   5.623   5.468   2.420
 3575SOL    HW211625   5.774   5.405   2.414
 3576SOL     OW11626   0.540   2.450   6.503
 3576SOL    HW111627   0.536   2.549   6.513
 3576SOL    HW211628   0.453   2.410   6.531
 3577SOL     OW11629   1.254   2.367   7.000
 3577SOL    HW111630   1.352   2.366   7.019
 3577SOL    HW211631   1.224   2.461   6.981
 3578SOL     OW11632   3.865   1.495   0.248
 3578SOL    HW111633   3.790   1.523   0.307
 3578SOL    HW211634   3.840   1.413   0.198
 3579SOL     OW11635   6.727   2.429   3.104
 3579SOL    HW111636   6.738   2.525   3.130
 3579SOL    HW211637   6.754   2.371   3.181
 3580SOL     OW11638   6.495   3.283   1.149
 3580SOL    HW111639   6.397   3.305   1.140
 3580SOL    HW211640   6.507   3.184   1.146
 3581SOL     OW11641   1.358   4.852   3.455
 3581SOL    HW111642   1.305   4.920   3.404
 3581SOL    HW211643   1.455   4.874   3.449
 3582SOL     OW11644   1.347   3.394   6.734
 3582SOL    HW111645   1.274   3.354   6.679
 3582SOL    HW211646   1.360   3.490   6.707
 3583SOL     OW11647   1.183   4.935   6.947
 3583SOL    HW111648   1.109   5.000   6.934
 3583SOL    HW211649   1.147   4.849   6.985
 3584SOL     OW11650   5.930   4.458   6.189
 3584SOL    HW111651   5.862   4.476   6.118
 3584SOL    HW211652   5.884   4.436   6.275
 3585SOL     OW11653   2.992   1.805   4.419
 3585SOL    HW111654   2.998   1.869   4.495
 3585SOL    HW211655   3.055   1.833   4.346
 3586SOL     OW11656   6.325   1.604   4.444
 3586SOL    HW111657   6.423   1.605   4.465
 3586SOL    HW211658   6.312   1.577   4.348
 3587SOL     OW11659   2.115   4.743   5.913
 3587SOL    HW111660   2.209   4.744   5.881
 3587SOL    HW211661   2.067   4.824   5.879
 3588SOL     OW11662   1.109   3.320   5.001
 3588SOL    HW111663   1.117   3.318   5.100
 3588SOL    HW211664   1.089   3.227   4.968
 3589SOL     OW11665   5.356   1.078   5.213
 3589SOL    HW111666   5.331   1.089   5.309
 3589SOL    HW211667   5.389   1.165   5.177
 3590SOL     OW11668   0.656   3.605   0.554
 3590SOL    HW111669   0.582   3.664   0.521
 3590SOL    HW211670   0.679   3.538   0.484
 3591SOL     OW11671   5.350   4.313   6.988
 3591SOL    HW111672   5.380   4.219   6.972
 3591SOL    HW211673   5.293   4.343   6.912
 3592SOL     OW11674   0.460   5.651   1.838
 3592SOL    HW111675   0.537   5.714   1.839
 3592SOL    HW211676   0.453   5.608   1.748
 3593SOL     OW11677   1.016   5.256   5.267
 3593SOL    HW111678   1.061   5.271   5.355
 3593SOL    HW211679   1.001   5.344   5.222
 3594SOL     OW11680   4.849   6.736   3.235
 3594SOL    HW111681   4.927   6.733   3.297
 3594SOL    HW211682   4.853   6.657   3.174
 3595SOL     OW11683   4.629   6.145   6.100
 3595SOL    HW111684   4.551   6.091   6.131
 3595SOL    HW211685   4.714   6.093   6.115
 3596SOL     OW11686   6.060   3.243   2.423
 3596SOL    HW111687   6.100   3.267   2.512
 3596SOL    HW211688   5.961   3.247   2.430
 3597SOL     OW11689   1.827   2.128   5.487
 3597SOL    HW111690   1.746   2.142   5.429
 3597SOL    HW211691   1.885   2.057   5.446
 3598SOL     OW11692   0.917   6.339   6.295
 3598SOL    HW111693   0.860   6.372   6.369
 3598SOL    HW211694   0.939   6.414   6.232
 3599SOL     OW11695   5.230   2.081   6.688
 3599SOL    HW111696   5.204   2.175   6.668
 3599SOL    HW211697   5.228   2.027   6.604
 3600SOL     OW11698   0.713   3.036   1.922
 3600SOL    HW111699   0.782   3.097   1.884
 3600SOL    HW211700   0.638   3.090   1.960
 3601SOL     OW11701   4.738   3.312   6.116
 3601SOL    HW111702   4.791   3.305   6.031
 3601SOL    HW211703   4.709   3.407   6.128
 3602SOL     OW11704   0.654   3.905   0.759
 3602SOL    HW111705   0.700   3.993   0.772
 3602SOL    HW211706   0.627   3.869   0.848
 3603SOL     OW11707   3.667   1.262   4.278
 3603SOL    HW111708   3.743   1.321   4.248
 3603SOL    HW211709   3.631   1.212   4.199
 3604SOL     OW11710   6.799   6.413   3.245
 3604SOL    HW111711   6.857   6.332   3.237
 3604SOL    HW211712   6.828   6.467   3.324
 3605SOL     OW11713   0.288   4.034   3.797
 3605SOL    HW111714   0.357   3.965   3.817
 3605SOL    HW211715   0.203   4.012   3.845
 3606SOL     OW11716   0.625   0.206   4.242
 3606SOL    HW111717   0.555   0.277   4.239
 3606SOL    HW211718   0.709   0.240   4.201
 3607SOL     OW11719   5.282   5.384   1.817
 3607SOL    HW111720   5.356   5.324   1.849
 3607SOL    HW211721   5.316   5.477   1.810
 3608SOL     OW11722   4.546   2.191   4.491
 3608SOL    HW111723   4.533   2.114   4.428
 3608SOL    HW211724   4.631   2.238   4.468
 3609SOL     OW11725   1.412   0.303   4.039
 3609SOL    HW111726   1.434   0.284   3.943
 3609SOL    HW211727   1.347   0.234   4.072
 3610SOL     OW11728   1.559   0.150   6.101
 3610SOL    HW111729   1.642   0.127   6.051
 3610SOL    HW211730   1.566   0.117   6.195
 3611SOL     OW11731   4.709   4.607   4.551
 3611SOL    HW111732   4.751   4.626   4.640
 3611SOL    HW211733   4.758   4.657   4.480
 3612SOL     OW11734   0.376   0.238   7.018
 3612SOL    HW111735   0.407   0.268   0.085
 3612SOL    HW211736   0.276   0.243   7.014
 3613SOL     OW11737   4.887   4.562   2.371
 3613SOL    HW111738   4.984   4.538   2.374
 3613SOL    HW211739   4.832   4.481   2.391
 3614SOL     OW11740   3.480   3.652   0.507
 3614SOL    HW111741   3.485   3.713   0.586
 3614SOL    HW211742   3.445   3.703   0.428
 3615SOL     OW11743   5.074   3.669   6.142
 3615SOL    HW111744   5.139   3.692   6.069
 3615SOL    HW211745   5.112   3.598   6.200
 3616SOL     OW11746   0.355   1.071   6.578
 3616SOL    HW111747   0.380   1.130   6.501
 3616SOL    HW211748   0.349   1.125   6.662
 3617SOL     OW11749   4.717   0.861   6.717
 3617SOL    HW111750   4.635   0.919   6.721
 3617SOL    HW211751   4.706   0.786   6.783
 3618SOL     OW11752   2.376   3.166   5.384
 3618SOL    HW111753   2.409   3.113   5.305
 3618SOL    HW211754   2.441   3.238   5.406
 3619SOL     OW11755   5.956   2.563   5.083
 3619SOL    HW111756   5.899   2.515   5.150
 3619SOL    HW211757   6.036   2.507   5.062
 3620SOL     OW11758   6.290   5.494   5.486
 3620SOL    HW111759   6.216   5.561   5.491
 3620SOL    HW211760   6.309   5.458   5.578
 3621SOL     OW11761   3.327   2.569   5.283
 3621SOL    HW111762   3.384   2.488   5.298
 3621SOL    HW211763   3.233   2.548   5.308
 3622SOL     OW11764   0.931   1.503   6.827
 3622SOL    HW111765   0.922   1.453   6.913
 3622SOL    HW211766   0.964   1.441   6.755
 3623SOL     OW11767   6.840   6.235   4.368
 3623SOL    HW111768   6.833   6.192   4.278
 3623SOL    HW211769   6.937   6.241   4.394
 3624SOL     OW11770   1.505   0.077   2.331
 3624SOL    HW111771   1.587   0.134   2.338
 3624SOL    HW211772   1.434   0.127   2.283
 3625SOL     OW11773   0.317   3.171   6.605
 3625SOL    HW111774   0.334   3.087   6.553
 3625SOL    HW211775   0.282   3.241   6.543
 3626SOL     OW11776   0.808   2.791   5.542
 3626SOL    HW111777   0.855   2.728   5.480
 3626SOL    HW211778   0.853   2.880   5.540
 3627SOL     OW11779   3.982   3.425   1.071
 3627SOL    HW111780   3.997   3.369   1.153
 3627SOL    HW211781   4.022   3.379   0.992
 3628SOL     OW11782   1.019   1.604   2.391
 3628SOL    HW111783   1.103   1.583   2.441
 3628SOL    HW211784   0.963   1.521   2.383
 3629SOL     OW11785   0.711   1.267   5.514
 3629SOL    HW111786   0.742   1.298   5.424
 3629SOL    HW211787   0.624   1.311   5.536
 3630SOL     OW11788   5.150   2.306   4.099
 3630SOL    HW111789   5.076   2.254   4.055
 3630SOL    HW211790   5.128   2.319   4.196
 3631SOL     OW11791   2.387   0.880   2.918
 3631SOL    HW111792   2.357   0.974   2.899
 3631SOL    HW211793   2.316   0.831   2.968
 3632SOL     OW11794   5.264   5.130   1.243
 3632SOL    HW111795   5.304   5.220   1.259
 3632SOL    HW211796   5.259   5.111   1.145
 3633SOL     OW11797   4.057   2.269   6.025
 3633SOL    HW111798   4.130   2.287   5.958
 3633SOL    HW211799   4.011   2.354   6.048
 3634SOL     OW11800   1.697   5.255   5.808
 3634SOL    HW111801   1.698   5.353   5.828
 3634SOL    HW211802   1.646   5.238   5.724
 3635SOL     OW11803   3.445   0.090   1.261
 3635SOL    HW111804   3.401   0.061   1.347
 3635SOL    HW211805   3.429   0.187   1.247
 3636SOL     OW11806   6.430   5.801   0.721
 3636SOL    HW111807   6.480   5.882   0.687
 3636SOL    HW211808   6.461   5.779   0.813
 3637SOL     OW11809   0.269   2.273   2.044
 3637SOL    HW111810   0.308   2.321   2.123
 3637SOL    HW211811   0.175   2.249   2.063
 3638SOL     OW11812   0.138   3.854   3.054
 3638SOL    HW111813   0.214   3.880   2.994
 3638SOL    HW211814   0.062   3.917   3.042
 3639SOL     OW11815   4.134   5.364   0.646
 3639SOL    HW111816   4.056   5.310   0.677
 3639SOL    HW211817   4.111   5.411   0.561
 3640SOL     OW11818   4.785   1.099   6.988
 3640SOL    HW111819   4.829   1.123   0.052
 3640SOL    HW211820   4.767   1.001   6.986
 3641SOL     OW11821   6.028   3.645   2.033
 3641SOL    HW111822   5.977   3.677   1.953
 3641SOL    HW211823   5.967   3.641   2.112
 3642SOL     OW11824   5.307   2.331   0.149
 3642SOL    HW111825   5.342   2.238   0.149
 3642SOL    HW211826   5.230   2.338   0.211
 3643SOL     OW11827   2.816   5.868   4.743
 3643SOL    HW111828   2.786   5.963   4.753
 3643SOL    HW211829   2.806   5.820   4.830
 3644SOL     OW11830   1.995   1.381   2.085
 3644SOL    HW111831   2.076   1.338   2.126
 3644SOL    HW211832   2.011   1.396   1.987
 3645SOL     OW11833   1.958   2.353   3.895
 3645SOL    HW111834   1.881   2.394   3.846
 3645SOL    HW211835   1.924   2.280   3.955
 3646SOL     OW11836   1.283   4.053   5.726
 3646SOL    HW111837   1.191   4.029   5.757
 3646SOL    HW211838   1.351   3.999   5.775
 3647SOL     OW11839   2.477   6.008   6.750
 3647SOL    HW111840   2.473   6.079   6.679
 3647SOL    HW211841   2.494   6.052   6.839
 3648SOL     OW11842   4.394   6.276   3.108
 3648SOL    HW111843   4.431   6.310   3.195
 3648SOL    HW211844   4.470   6.257   3.045
 3649SOL     OW11845   5.994   3.106   0.892
 3649SOL    HW111846   6.028   3.092   0.985
 3649SOL    HW211847   5.915   3.046   0.876
 3650SOL     OW11848   6.240   5.334   1.744
 3650SOL    HW111849   6.255   5.352   1.646
 3650SOL    HW211850   6.300   5.392   1.798
 3651SOL     OW11851   0.912   0.727   4.030
 3651SOL    HW111852   0.986   0.764   3.974
 3651SOL    HW211853   0.951   0.677   4.108
 3652SOL     OW11854   6.381   6.680   3.568
 3652SOL    HW111855   6.390   6.628   3.483
 3652SOL    HW211856   6.315   6.754   3.556
 3653SOL     OW11857   1.354   1.421   3.002
 3653SOL    HW111858   1.310   1.431   3.091
 3653SOL    HW211859   1.392   1.509   2.974
 3654SOL     OW11860   3.650   4.728   0.687
 3654SOL    HW111861   3.555   4.716   0.659
 3654SOL    HW211862   3.708   4.733   0.606
 3655SOL     OW11863   3.353   0.541   3.845
 3655SOL    HW111864   3.428   0.546   3.780
 3655SOL    HW211865   3.323   0.634   3.868
 3656SOL     OW11866   0.476   5.178   1.353
 3656SOL    HW111867   0.495   5.145   1.446
 3656SOL    HW211868   0.497   5.106   1.287
 3657SOL     OW11869   5.085   5.327   4.828
 3657SOL    HW111870   5.165   5.270   4.811
 3657SOL    HW211871   5.024   5.324   4.749
 3658SOL     OW11872   2.778   4.753   6.561
 3658SOL    HW111873   2.713   4.683   6.533
 3658SOL    HW211874   2.728   4.831   6.599
 3659SOL     OW11875   1.515   2.493   5.954
 3659SOL    HW111876   1.457   2.574   5.947
 3659SOL    HW211877   1.561   2.492   6.043
 3660SOL     OW11878   6.091   6.447   4.388
 3660SOL    HW111879   6.128   6.502   4.462
 3660SOL    HW211880   6.145   6.364   4.377
 3661SOL     OW11881   6.993   0.589   5.087
 3661SOL    HW111882   6.974   0.492   5.073
 3661SOL    HW211883   0.070   0.604   5.087
 3662SOL     OW11884   4.272   0.689   4.431
 3662SOL    HW111885   4.345   0.675   4.498
 3662SOL    HW211886   4.225   0.775   4.449
 3663SOL     OW11887   1.816   3.018   0.398
 3663SOL    HW111888   1.834   3.094   0.335
 3663SOL    HW211889   1.795   2.936   0.345
 3664SOL     OW11890   4.416   2.325   2.118
 3664SOL    HW111891   4.477   2.310   2.196
 3664SOL    HW211892   4.464   2.379   2.048
 3665SOL     OW11893   1.096   6.454   5.112
 3665SOL    HW111894   1.093   6.554   5.112
 3665SOL    HW211895   1.019   6.418   5.059
 3666SOL     OW11896   0.930   3.922   3.210
 3666SOL    HW111897   0.957   3.982   3.285
 3666SOL    HW211898   0.849   3.959   3.165
 3667SOL     OW11899   0.286   1.622   3.631
 3667SOL    HW111900   0.329   1.537   3.600
 3667SOL    HW211901   0.336   1.700   3.594
 3668SOL     OW11902   1.218   0.967   1.198
 3668SOL    HW111903   1.181   1.002   1.284
 3668SOL    HW211904   1.318   0.963   1.204
 3669SOL     OW11905   5.754   1.991   3.521
 3669SOL    HW111906   5.759   1.894   3.498
 3669SOL    HW211907   5.834   2.038   3.483
 3670SOL     OW11908   2.530   5.249   7.018
 3670SOL    HW111909   2.575   5.181   0.055
 3670SOL    HW211910   2.599   5.306   6.975
 3671SOL     OW11911   0.147   2.036   4.076
 3671SOL    HW111912   0.070   2.099   4.070
 3671SOL    HW211913   0.140   1.968   4.003
 3672SOL     OW11914   4.687   1.879   2.531
 3672SOL    HW111915   4.593   1.860   2.557
 3672SOL    HW211916   4.690   1.961   2.474
 3673SOL     OW11917   3.656   5.798   0.008
 3673SOL    HW111918   3.676   5.753   0.095
 3673SOL    HW211919   3.601   5.737   6.974
 3674SOL     OW11920   1.860   5.852   5.620
 3674SOL    HW111921   1.844   5.925   5.554
 3674SOL    HW211922   1.931   5.790   5.586
 3675SOL     OW11923   1.610   2.482   4.007
 3675SOL    HW111924   1.688   2.497   4.068
 3675SOL    HW211925   1.641   2.441   3.921
 3676SOL     OW11926   5.939   3.801   2.425
 3676SOL    HW111927   6.023   3.798   2.372
 3676SOL    HW211928   5.955   3.761   2.516
 3677SOL     OW11929   2.973   6.933   4.427
 3677SOL    HW111930   3.022   7.018   4.446
 3677SOL    HW211931   3.029   6.873   4.371
 3678SOL     OW11932   1.305   1.369   4.720
 3678SOL    HW111933   1.346   1.459   4.709
 3678SOL    HW211934   1.256   1.343   4.636
 3679SOL     OW11935   0.039   0.269   3.371
 3679SOL    HW111936   7.002   0.266   3.452
 3679SOL    HW211937   0.085   0.358   3.367
 3680SOL     OW11938   5.096   2.754   4.000
 3680SOL    HW111939   5.090   2.701   4.085
 3680SOL    HW211940   5.121   2.848   4.022
 3681SOL     OW11941   1.088   1.117   6.404
 3681SOL    HW111942   1.012   1.053   6.398
 3681SOL    HW211943   1.169   1.070   6.439
 3682SOL     OW11944   5.536   2.351   6.940
 3682SOL    HW111945   5.564   2.266   6.986
 3682SOL    HW211946   5.528   2.424   7.008
 3683SOL     OW11947   0.324   1.264   4.428
 3683SOL    HW111948   0.342   1.358   4.457
 3683SOL    HW211949   0.409   1.221   4.397
 3684SOL     OW11950   0.916   5.441   0.383
 3684SOL    HW111951   0.935   5.402   0.473
 3684SOL    HW211952   0.867   5.374   0.328
 3685SOL     OW11953   2.090   5.681   5.529
 3685SOL    HW111954   2.170   5.650   5.579
 3685SOL    HW211955   2.034   5.602   5.503
 3686SOL     OW11956   6.178   4.868   4.544
 3686SOL    HW111957   6.234   4.829   4.470
 3686SOL    HW211958   6.162   4.798   4.614
 3687SOL     OW11959   4.627   6.398   4.237
 3687SOL    HW111960   4.716   6.374   4.196
 3687SOL    HW211961   4.640   6.468   4.307
 3688SOL     OW11962   6.770   3.144   0.030
 3688SOL    HW111963   6.795   3.080   0.103
 3688SOL    HW211964   6.690   3.110   7.004
 3689SOL     OW11965   2.192   0.703   5.788
 3689SOL    HW111966   2.257   0.729   5.717
 3689SOL    HW211967   2.099   0.726   5.760
 3690SOL     OW11968   3.899   5.487   0.913
 3690SOL    HW111969   3.912   5.423   0.837
 3690SOL    HW211970   3.803   5.512   0.919
 3691SOL     OW11971   2.654   1.800   6.991
 3691SOL    HW111972   2.624   1.832   0.059
 3691SOL    HW211973   2.754   1.800   6.988
 3692SOL     OW11974   6.301   4.893   5.475
 3692SOL    HW111975   6.255   4.935   5.397
 3692SOL    HW211976   6.340   4.965   5.533
 3693SOL     OW11977   2.275   2.146   3.338
 3693SOL    HW111978   2.209   2.094   3.393
 3693SOL    HW211979   2.344   2.084   3.301
 3694SOL     OW11980   1.825   6.688   2.360
 3694SOL    HW111981   1.737   6.731   2.339
 3694SOL    HW211982   1.814   6.628   2.439
 3695SOL     OW11983   5.159   2.437   1.392
 3695SOL    HW111984   5.135   2.386   1.310
 3695SOL    HW211985   5.258   2.449   1.397
 3696SOL     OW11986   4.574   0.291   4.469
 3696SOL    HW111987   4.601   0.346   4.391
 3696SOL    HW211988   4.552   0.198   4.439
 3697SOL     OW11989   0.140   5.785   2.832
 3697SOL    HW111990   0.072   5.857   2.847
 3697SOL    HW211991   0.229   5.827   2.815
 3698SOL     OW11992   2.505   0.993   3.469
 3698SOL    HW111993   2.464   1.037   3.389
 3698SOL    HW211994   2.542   1.064   3.530
 3699SOL     OW11995   2.187   1.180   3.715
 3699SOL    HW111996   2.198   1.231   3.630
 3699SOL    HW211997   2.276   1.165   3.757
 3700SOL     OW11998   1.702   4.497   4.874
 3700SOL    HW111999   1.604   4.485   4.889
 3700SOL    HW212000   1.727   4.458   4.785
 3701SOL     OW12001   1.609   0.318   3.528
 3701SOL    HW112002   1.707   0.304   3.512
 3701SOL    HW212003   1.560   0.314   3.442
 3702SOL     OW12004   5.434   6.548   3.032
 3702SOL    HW112005   5.371   6.621   3.007
 3702SOL    HW212006   5.476   6.569   3.121
 3703SOL     OW12007   0.275   0.479   6.693
 3703SOL    HW112008   0.357   0.478   6.751
 3703SOL    HW212009   0.198   0.516   6.746
 3704SOL     OW12010   4.064   2.261   1.537
 3704SOL    HW112011   3.982   2.253   1.594
 3704SOL    HW212012   4.145   2.265   1.595
 3705SOL     OW12013   5.776   4.158   4.456
 3705SOL    HW112014   5.697   4.116   4.501
 3705SOL    HW212015   5.805   4.101   4.379
 3706SOL     OW12016   0.198   4.062   6.410
 3706SOL    HW112017   0.244   3.974   6.395
 3706SOL    HW212018   0.224   4.098   6.499
 3707SOL     OW12019   4.730   5.773   4.896
 3707SOL    HW112020   4.800   5.703   4.884
 3707SOL    HW212021   4.640   5.733   4.882
 3708SOL     OW12022   4.923   6.584   1.383
 3708SOL    HW112023   4.939   6.661   1.445
 3708SOL    HW212024   4.840   6.536   1.410
 3709SOL     OW12025   3.088   0.274   1.360
 3709SOL    HW112026   3.111   0.192   1.411
 3709SOL    HW212027   3.172   0.321   1.332
 3710SOL     OW12028   6.888   5.500   5.266
 3710SOL    HW112029   6.927   5.414   5.298
 3710SOL    HW212030   6.809   5.482   5.207
 3711SOL     OW12031   1.529   5.707   5.376
 3711SOL    HW112032   1.571   5.792   5.409
 3711SOL    HW212033   1.439   5.728   5.337
 3712SOL     OW12034   1.407   5.590   6.824
 3712SOL    HW112035   1.322   5.637   6.801
 3712SOL    HW212036   1.450   5.555   6.741
 3713SOL     OW12037   0.321   0.214   5.200
 3713SOL    HW112038   0.236   0.265   5.213
 3713SOL    HW212039   0.399   0.277   5.208
 3714SOL     OW12040   5.662   5.768   6.766
 3714SOL    HW112041   5.678   5.816   6.679
 3714SOL    HW212042   5.587   5.812   6.815
 3715SOL     OW12043   1.181   4.490   2.269
 3715SOL    HW112044   1.131   4.484   2.183
 3715SOL    HW212045   1.188   4.399   2.310
 3716SOL     OW12046   6.267   6.095   4.883
 3716SOL    HW112047   6.332   6.019   4.882
 3716SOL    HW212048   6.308   6.175   4.839
 3717SOL     OW12049   5.670   0.325   6.852
 3717SOL    HW112050   5.619   0.267   6.916
 3717SOL    HW212051   5.764   0.290   6.844
 3718SOL     OW12052   0.148   0.450   0.155
 3718SOL    HW112053   0.110   0.369   0.111
 3718SOL    HW212054   0.206   0.423   0.231
 3719SOL     OW12055   4.510   2.672   0.416
 3719SOL    HW112056   4.494   2.761   0.460
 3719SOL    HW212057   4.535   2.605   0.486
 3720SOL     OW12058   5.377   3.275   0.622
 3720SOL    HW112059   5.386   3.209   0.548
 3720SOL    HW212060   5.323   3.235   0.696
 3721SOL     OW12061   0.105   4.584   0.931
 3721SOL    HW112062   0.115   4.683   0.941
 3721SOL    HW212063   0.174   4.549   0.868
 3722SOL     OW12064   5.471   6.073   1.246
 3722SOL    HW112065   5.479   6.160   1.197
 3722SOL    HW212066   5.541   6.010   1.214
 3723SOL     OW12067   4.537   5.008   0.603
 3723SOL    HW112068   4.480   5.076   0.557
 3723SOL    HW212069   4.510   5.002   0.699
 3724SOL     OW12070   1.846   4.319   5.842
 3724SOL    HW112071   1.923   4.371   5.880
 3724SOL    HW212072   1.878   4.268   5.761
 3725SOL     OW12073   0.690   5.787   6.699
 3725SOL    HW112074   0.675   5.823   6.606
 3725SOL    HW212075   0.604   5.753   6.736
 3726SOL     OW12076   5.469   3.430   5.956
 3726SOL    HW112077   5.441   3.370   6.031
 3726SOL    HW212078   5.401   3.502   5.944
 3727SOL     OW12079   6.832   2.824   5.334
 3727SOL    HW112080   6.919   2.774   5.336
 3727SOL    HW212081   6.764   2.773   5.387
 3728SOL     OW12082   0.958   3.450   6.942
 3728SOL    HW112083   1.041   3.495   6.978
 3728SOL    HW212084   0.908   3.514   6.884
 3729SOL     OW12085   1.864   1.800   4.063
 3729SOL    HW112086   1.851   1.841   3.972
 3729SOL    HW212087   1.793   1.835   4.125
 3730SOL     OW12088   3.935   6.094   5.467
 3730SOL    HW112089   3.855   6.058   5.419
 3730SOL    HW212090   3.924   6.078   5.565
 3731SOL     OW12091   0.407   1.540   0.496
 3731SOL    HW112092   0.446   1.602   0.565
 3731SOL    HW212093   0.346   1.475   0.540
 3732SOL     OW12094   2.607   1.881   0.232
 3732SOL    HW112095   2.636   1.967   0.273
 3732SOL    HW212096   2.522   1.851   0.274
 3733SOL     OW12097   2.286   2.690   3.348
 3733SOL    HW112098   2.276   2.606   3.403
 3733SOL    HW212099   2.247   2.767   3.398
 3734SOL     OW12100   4.652   0.094   1.180
 3734SOL    HW112101   4.747   0.113   1.159
 3734SOL    HW212102   4.639   0.092   1.279
 3735SOL     OW12103   2.924   0.710   2.620
 3735SOL    HW112104   2.900   0.668   2.533
 3735SOL    HW212105   2.864   0.676   2.692
 3736SOL     OW12106   0.240   1.270   1.082
 3736SOL    HW112107   0.328   1.235   1.115
 3736SOL    HW212108   0.256   1.354   1.030
 3737SOL     OW12109   5.650   1.274   3.833
 3737SOL    HW112110   5.704   1.358   3.830
 3737SOL    HW212111   5.669   1.225   3.918
 3738SOL     OW12112   6.251   0.908   1.464
 3738SOL    HW112113   6.282   1.003   1.470
 3738SOL    HW212114   6.321   0.848   1.501
 3739SOL     OW12115   2.263   4.525   1.414
 3739SOL    HW112116   2.355   4.497   1.439
 3739SOL    HW212117   2.228   4.588   1.484
 3740SOL     OW12118   6.509   6.604   0.569
 3740SOL    HW112119   6.416   6.595   0.532
 3740SOL    HW212120   6.507   6.586   0.667
 3741SOL     OW12121   5.215   2.687   6.454
 3741SOL    HW112122   5.128   2.736   6.449
 3741SOL    HW212123   5.209   2.614   6.522
 3742SOL     OW12124   3.912   0.641   0.278
 3742SOL    HW112125   3.916   0.735   0.244
 3742SOL    HW212126   4.006   0.608   0.293
 3743SOL     OW12127   5.464   3.143   1.060
 3743SOL    HW112128   5.450   3.177   0.968
 3743SOL    HW212129   5.466   3.219   1.125
 3744SOL     OW12130   1.076   6.082   1.641
 3744SOL    HW112131   1.171   6.103   1.618
 3744SOL    HW212132   1.052   6.127   1.727
 3745SOL     OW12133   5.114   3.951   3.120
 3745SOL    HW112134   5.170   3.868   3.128
 3745SOL    HW212135   5.022   3.925   3.091
 3746SOL     OW12136   6.667   0.222   3.809
 3746SOL    HW112137   6.588   0.171   3.841
 3746SOL    HW212138   6.641   0.279   3.731
 3747SOL     OW12139   4.468   5.801   5.121
 3747SOL    HW112140   4.430   5.723   5.070
 3747SOL    HW212141   4.473   5.881   5.061
 3748SOL     OW12142   5.238   1.259   1.704
 3748SOL    HW112143   5.269   1.349   1.735
 3748SOL    HW212144   5.304   1.222   1.638
 3749SOL     OW12145   2.726   4.720   2.897
 3749SOL    HW112146   2.666   4.641   2.906
 3749SOL    HW212147   2.672   4.801   2.876
 3750SOL     OW12148   6.477   4.511   0.817
 3750SOL    HW112149   6.494   4.530   0.913
 3750SOL    HW212150   6.404   4.443   0.809
 3751SOL     OW12151   6.632   3.330   0.784
 3751SOL    HW112152   6.726   3.340   0.750
 3751SOL    HW212153   6.621   3.385   0.867
 3752SOL     OW12154   0.266   6.773   0.021
 3752SOL    HW112155   0.293   6.870   0.013
 3752SOL    HW212156   0.271   6.731   6.953
 3753SOL     OW12157   0.015   1.135   4.110
 3753SOL    HW112158   0.055   1.045   4.088
 3753SOL    HW212159   0.084   1.206   4.096
 3754SOL     OW12160   3.931   6.526   0.981
 3754SOL    HW112161   3.869   6.521   0.902
 3754SOL    HW212162   3.891   6.585   1.051
 3755SOL     OW12163   5.953   5.689   4.384
 3755SOL    HW112164   5.899   5.618   4.338
 3755SOL    HW212165   5.900   5.774   4.389
 3756SOL     OW12166   2.288   6.454   5.510
 3756SOL    HW112167   2.314   6.519   5.581
 3756SOL    HW212168   2.196   6.475   5.478
 3757SOL     OW12169   3.796   6.655   6.376
 3757SOL    HW112170   3.871   6.589   6.374
 3757SOL    HW212171   3.741   6.645   6.293
 3758SOL     OW12172   1.590   1.436   4.798
 3758SOL    HW112173   1.593   1.386   4.711
 3758SOL    HW212174   1.568   1.373   4.872
 3759SOL     OW12175   4.518   5.534   6.070
 3759SOL    HW112176   4.479   5.622   6.042
 3759SOL    HW212177   4.469   5.501   6.151
 3760SOL     OW12178   1.821   2.519   4.464
 3760SOL    HW112179   1.894   2.470   4.512
 3760SOL    HW212180   1.835   2.617   4.474
 3761SOL     OW12181   0.731   0.453   5.708
 3761SOL    HW112182   0.718   0.399   5.790
 3761SOL    HW212183   0.642   0.475   5.667
 3762SOL     OW12184   0.887   5.045   6.971
 3762SOL    HW112185   0.818   4.973   6.976
 3762SOL    HW212186   0.922   5.052   6.877
 3763SOL     OW12187   6.881   4.327   6.995
 3763SOL    HW112188   6.802   4.302   0.029
 3763SOL    HW212189   6.937   4.394   0.022
 3764SOL     OW12190   1.926   0.098   3.659
 3764SOL    HW112191   1.849   0.120   3.719
 3764SOL    HW212192   1.922   0.001   3.634
 3765SOL     OW12193   4.928   1.413   1.155
 3765SOL    HW112194   4.941   1.503   1.196
 3765SOL    HW212195   4.831   1.389   1.157
 3766SOL     OW12196   0.857   1.357   3.417
 3766SOL    HW112197   0.876   1.428   3.485
 3766SOL    HW212198   0.761   1.363   3.390
 3767SOL     OW12199   2.326   5.131   0.138
 3767SOL    HW112200   2.390   5.191   0.089
 3767SOL    HW212201   2.354   5.124   0.234
 3768SOL     OW12202   2.023   6.155   4.964
 3768SOL    HW112203   1.973   6.240   4.983
 3768SOL    HW212204   1.967   6.095   4.908
 3769SOL     OW12205   5.810   5.725   5.508
 3769SOL    HW112206   5.767   5.802   5.555
 3769SOL    HW212207   5.738   5.665   5.472
 3770SOL     OW12208   1.691   6.946   6.619
 3770SOL    HW112209   1.733   7.013   6.679
 3770SOL    HW212210   1.648   6.992   6.541
 3771SOL     OW12211   6.140   3.074   6.706
 3771SOL    HW112212   6.194   3.055   6.788
 3771SOL    HW212213   6.044   3.051   6.724
 3772SOL     OW12214   0.273   0.646   0.498
 3772SOL    HW112215   0.257   0.637   0.597
 3772SOL    HW212216   0.188   0.670   0.452
 3773SOL     OW12217   6.598   2.935   6.321
 3773SOL    HW112218   6.670   2.868   6.340
 3773SOL    HW212219   6.605   3.011   6.386
 3774SOL     OW12220   0.375   5.991   0.144
 3774SOL    HW112221   0.432   5.909   0.140
 3774SOL    HW212222   0.433   6.071   0.154
 3775SOL     OW12223   5.000   4.776   2.155
 3775SOL    HW112224   5.041   4.686   2.140
 3775SOL    HW212225   5.010   4.832   2.073
 3776SOL     OW12226   4.275   1.486   1.246
 3776SOL    HW112227   4.251   1.581   1.230
 3776SOL    HW212228   4.231   1.454   1.330
 3777SOL     OW12229   3.357   4.883   4.966
 3777SOL    HW112230   3.393   4.859   5.056
 3777SOL    HW212231   3.257   4.875   4.966
 3778SOL     OW12232   3.324   4.930   2.847
 3778SOL    HW112233   3.289   4.888   2.764
 3778SOL    HW212234   3.292   5.025   2.853
 3779SOL     OW12235   2.216   5.001   0.958
 3779SOL    HW112236   2.298   4.971   0.909
 3779SOL    HW212237   2.197   4.937   1.033
 3780SOL     OW12238   4.950   5.807   5.981
 3780SOL    HW112239   4.956   5.805   5.881
 3780SOL    HW212240   5.042   5.795   6.020
 3781SOL     OW12241   1.239   0.110   4.103
 3781SOL    HW112242   1.234   0.064   4.014
 3781SOL    HW212243   1.236   0.041   4.176
 3782SOL     OW12244   2.782   0.963   4.456
 3782SOL    HW112245   2.839   0.993   4.380
 3782SOL    HW212246   2.716   1.035   4.479
 3783SOL     OW12247   5.507   5.715   4.282
 3783SOL    HW112248   5.418   5.738   4.244
 3783SOL    HW212249   5.541   5.631   4.241
 3784SOL     OW12250   4.907   2.559   2.539
 3784SOL    HW112251   4.865   2.592   2.624
 3784SOL    HW212252   4.873   2.613   2.462
 3785SOL     OW12253   1.481   1.432   0.128
 3785SOL    HW112254   1.455   1.452   0.033
 3785SOL    HW212255   1.421   1.361   0.164
 3786SOL     OW12256   2.368   6.770   3.228
 3786SOL    HW112257   2.418   6.721   3.158
 3786SOL    HW212258   2.409   6.752   3.318
 3787SOL     OW12259   6.007   0.088   2.620
 3787SOL    HW112260   6.043   7.017   2.618
 3787SOL    HW212261   5.988   0.118   2.526
 3788SOL     OW12262   1.161   4.016   4.261
 3788SOL    HW112263   1.135   3.920   4.273
 3788SOL    HW212264   1.098   4.074   4.312
 3789SOL     OW12265   0.199   3.447   5.201
 3789SOL    HW112266   0.100   3.447   5.187
 3789SOL    HW212267   0.245   3.479   5.118
 3790SOL     OW12268   1.783   4.483   5.604
 3790SOL    HW112269   1.828   4.510   5.689
 3790SOL    HW212270   1.685   4.500   5.611
 3791SOL     OW12271   6.075   7.003   0.480
 3791SOL    HW112272   6.100   6.946   0.401
 3791SOL    HW212273   6.005   6.956   0.534
 3792SOL     OW12274   0.738   0.875   4.562
 3792SOL    HW112275   0.786   0.956   4.528
 3792SOL    HW212276   0.645   0.873   4.526
 3793SOL     OW12277   4.380   0.176   2.485
 3793SOL    HW112278   4.305   0.111   2.494
 3793SOL    HW212279   4.370   0.248   2.553
 3794SOL     OW12280   2.293   3.985   0.821
 3794SOL    HW112281   2.245   4.067   0.851
 3794SOL    HW212282   2.228   3.920   0.783
 3795SOL     OW12283   3.684   6.138   5.992
 3795SOL    HW112284   3.658   6.234   5.983
 3795SOL    HW212285   3.705   6.117   6.087
 3796SOL     OW12286   2.871   1.649   0.682
 3796SOL    HW112287   2.924   1.696   0.612
 3796SOL    HW212288   2.789   1.610   0.641
 3797SOL     OW12289   6.846   4.260   2.856
 3797SOL    HW112290   6.920   4.220   2.910
 3797SOL    HW212291   6.825   4.351   2.890
 3798SOL     OW12292   3.693   6.145   2.785
 3798SOL    HW112293   3.751   6.223   2.760
 3798SOL    HW212294   3.726   6.105   2.870
 3799SOL     OW12295   0.859   2.377   4.159
 3799SOL    HW112296   0.923   2.303   4.139
 3799SOL    HW212297   0.809   2.403   4.077
 3800SOL     OW12298   5.764   3.263   4.434
 3800SOL    HW112299   5.723   3.271   4.525
 3800SOL    HW212300   5.766   3.353   4.391
 3801SOL     OW12301   6.064   6.112   3.195
 3801SOL    HW112302   6.020   6.027   3.166
 3801SOL    HW212303   6.081   6.109   3.293
 3802SOL     OW12304   1.136   2.446   3.095
 3802SOL    HW112305   1.038   2.438   3.112
 3802SOL    HW212306   1.170   2.365   3.048
 3803SOL     OW12307   3.555   2.213   1.306
 3803SOL    HW112308   3.602   2.265   1.376
 3803SOL    HW212309   3.617   2.146   1.266
 3804SOL     OW12310   5.081   1.539   3.516
 3804SOL    HW112311   5.145   1.569   3.445
 3804SOL    HW212312   5.112   1.570   3.605
 3805SOL     OW12313   2.796   3.284   1.879
 3805SOL    HW112314   2.776   3.217   1.951
 3805SOL    HW212315   2.769   3.246   1.790
 3806SOL     OW12316   3.229   3.965   6.935
 3806SOL    HW112317   3.145   4.012   6.963
 3806SOL    HW212318   3.307   4.004   6.983
 3807SOL     OW12319   2.357   6.519   3.719
 3807SOL    HW112320   2.278   6.474   3.677
 3807SOL    HW212321   2.367   6.487   3.814
 3808SOL     OW12322   4.559   0.183   0.928
 3808SOL    HW112323   4.591   0.156   1.019
 3808SOL    HW212324   4.556   0.102   0.868
 3809SOL     OW12325   5.616   2.686   0.423
 3809SOL    HW112326   5.597   2.594   0.457
 3809SOL    HW212327   5.703   2.687   0.375
 3810SOL     OW12328   4.749   2.117   4.942
 3810SOL    HW112329   4.825   2.159   4.991
 3810SOL    HW212330   4.696   2.188   4.895
 3811SOL     OW12331   1.316   4.367   3.901
 3811SOL    HW112332   1.296   4.281   3.855
 3811SOL    HW212333   1.285   4.363   3.996
 3812SOL     OW12334   5.023   0.107   5.260
 3812SOL    HW112335   4.979   0.195   5.239
 3812SOL    HW212336   5.074   0.116   5.345
 3813SOL     OW12337   4.539   3.845   0.509
 3813SOL    HW112338   4.632   3.879   0.522
 3813SOL    HW212339   4.508   3.863   0.416
 3814SOL     OW12340   0.289   7.007   0.694
 3814SOL    HW112341   0.385   6.981   0.705
 3814SOL    HW212342   0.239   6.933   0.648
 3815SOL     OW12343   4.334   2.893   0.290
 3815SOL    HW112344   4.399   2.825   0.254
 3815SOL    HW212345   4.373   2.984   0.280
 3816SOL     OW12346   0.459   6.271   0.436
 3816SOL    HW112347   0.538   6.314   0.479
 3816SOL    HW212348   0.480   6.250   0.340
 3817SOL     OW12349   5.362   3.741   3.298
 3817SOL    HW112350   5.337   3.700   3.211
 3817SOL    HW212351   5.460   3.728   3.314
 3818SOL     OW12352   5.500   0.176   0.089
 3818SOL    HW112353   5.411   0.219   0.108
 3818SOL    HW212354   5.550   0.165   0.175
 3819SOL     OW12355   5.379   5.372   1.287
 3819SOL    HW112356   5.324   5.399   1.208
 3819SOL    HW212357   5.337   5.408   1.370
 3820SOL     OW12358   6.355   6.683   3.259
 3820SOL    HW112359   6.432   6.720   3.207
 3820SOL    HW212360   6.339   6.588   3.231
 3821SOL     OW12361   2.662   2.255   0.572
 3821SOL    HW112362   2.577   2.302   0.598
 3821SOL    HW212363   2.658   2.160   0.605
 3822SOL     OW12364   1.718   6.081   3.046
 3822SOL    HW112365   1.646   6.064   2.978
 3822SOL    HW212366   1.798   6.120   3.000
 3823SOL     OW12367   3.186   2.523   5.972
 3823SOL    HW112368   3.098   2.491   5.938
 3823SOL    HW212369   3.174   2.614   6.013
 3824SOL     OW12370   5.840   1.922   6.888
 3824SOL    HW112371   5.922   1.930   6.831
 3824SOL    HW212372   5.823   1.826   6.909
 3825SOL     OW12373   0.185   6.784   0.558
 3825SOL    HW112374   0.204   6.747   0.467
 3825SOL    HW212375   0.189   6.711   0.626
 3826SOL     OW12376   0.286   3.374   0.262
 3826SOL    HW112377   0.230   3.378   0.179
 3826SOL    HW212378   0.233   3.334   0.336
 3827SOL     OW12379   3.136   2.797   1.197
 3827SOL    HW112380   3.223   2.747   1.207
 3827SOL    HW212381   3.146   2.888   1.238
 3828SOL     OW12382   3.841   2.230   1.697
 3828SOL    HW112383   3.816   2.134   1.687
 3828SOL    HW212384   3.785   2.273   1.767
 3829SOL     OW12385   2.223   4.287   4.634
 3829SOL    HW112386   2.235   4.213   4.700
 3829SOL    HW212387   2.131   4.282   4.594
 3830SOL     OW12388   0.798   0.199   4.803
 3830SOL    HW112389   0.830   0.115   4.759
 3830SOL    HW212390   0.845   0.210   4.891
 3831SOL     OW12391   4.918   1.546   2.488
 3831SOL    HW112392   4.824   1.527   2.517
 3831SOL    HW212393   4.933   1.645   2.485
 3832SOL     OW12394   5.877   0.505   2.468
 3832SOL    HW112395   5.889   0.511   2.567
 3832SOL    HW212396   5.898   0.593   2.426
 3833SOL     OW12397   0.818   5.676   6.092
 3833SOL    HW112398   0.871   5.602   6.052
 3833SOL    HW212399   0.722   5.665   6.066
 3834SOL     OW12400   3.660   2.902   0.906
 3834SOL    HW112401   3.691   2.944   0.991
 3834SOL    HW212402   3.563   2.881   0.912
 3835SOL     OW12403   2.888   5.133   5.168
 3835SOL    HW112404   2.945   5.126   5.086
 3835SOL    HW212405   2.794   5.155   5.142
 3836SOL     OW12406   1.747   4.017   5.640
 3836SOL    HW112407   1.791   3.929   5.620
 3836SOL    HW212408   1.701   4.012   5.729
 3837SOL     OW12409   4.930   3.753   0.058
 3837SOL    HW112410   5.029   3.766   0.052
 3837SOL    HW212411   4.910   3.678   0.120
 3838SOL     OW12412   6.796   3.568   4.162
 3838SOL    HW112413   6.814   3.645   4.101
 3838SOL    HW212414   6.780   3.486   4.108
 3839SOL     OW12415   3.955   0.629   4.431
 3839SOL    HW112416   4.033   0.689   4.414
 3839SOL    HW212417   3.885   0.679   4.481
 3840SOL     OW12418   1.978   1.005   5.297
 3840SOL    HW112419   2.036   1.080   5.266
 3840SOL    HW212420   1.991   0.991   5.395
 3841SOL     OW12421   0.294   3.224   5.306
 3841SOL    HW112422   0.260   3.305   5.258
 3841SOL    HW212423   0.333   3.252   5.394
 3842SOL     OW12424   0.734   4.313   6.612
 3842SOL    HW112425   0.695   4.269   6.531
 3842SOL    HW212426   0.661   4.352   6.668
 3843SOL     OW12427   6.964   4.792   1.941
 3843SOL    HW112428   6.932   4.837   1.858
 3843SOL    HW212429   0.031   4.751   1.926
 3844SOL     OW12430   6.880   3.612   6.049
 3844SOL    HW112431   6.962   3.560   6.027
 3844SOL    HW212432   6.881   3.639   6.145
 3845SOL     OW12433   3.870   2.930   2.866
 3845SOL    HW112434   3.792   2.929   2.928
 3845SOL    HW212435   3.914   2.841   2.865
 3846SOL     OW12436   0.515   4.379   4.062
 3846SOL    HW112437   0.591   4.316   4.080
 3846SOL    HW212438   0.457   4.341   3.991
 3847SOL     OW12439   6.153   0.913   5.338
 3847SOL    HW112440   6.157   0.868   5.427
 3847SOL    HW212441   6.058   0.940   5.319
 3848SOL     OW12442   3.290   5.442   2.654
 3848SOL    HW112443   3.200   5.440   2.695
 3848SOL    HW212444   3.350   5.376   2.699
 3849SOL     OW12445   0.795   1.734   5.116
 3849SOL    HW112446   0.747   1.646   5.120
 3849SOL    HW212447   0.835   1.745   5.025
 3850SOL     OW12448   2.639   3.425   1.310
 3850SOL    HW112449   2.646   3.333   1.348
 3850SOL    HW212450   2.542   3.448   1.295
 3851SOL     OW12451   1.201   4.269   2.935
 3851SOL    HW112452   1.237   4.229   3.020
 3851SOL    HW212453   1.276   4.312   2.885
 3852SOL     OW12454   4.749   6.797   4.217
 3852SOL    HW112455   4.799   6.872   4.261
 3852SOL    HW212456   4.814   6.735   4.172
 3853SOL     OW12457   1.756   2.995   2.601
 3853SOL    HW112458   1.678   2.935   2.618
 3853SOL    HW212459   1.835   2.962   2.653
 3854SOL     OW12460   1.292   3.787   2.655
 3854SOL    HW112461   1.347   3.766   2.736
 3854SOL    HW212462   1.214   3.724   2.650
 3855SOL     OW12463   4.475   5.782   6.817
 3855SOL    HW112464   4.480   5.719   6.739
 3855SOL    HW212465   4.430   5.736   6.893
 3856SOL     OW12466   6.939   6.438   5.359
 3856SOL    HW112467   6.860   6.385   5.390
 3856SOL    HW212468   6.965   6.408   5.267
 3857SOL     OW12469   1.112   5.741   5.954
 3857SOL    HW112470   1.194   5.796   5.942
 3857SOL    HW212471   1.032   5.792   5.921
 3858SOL     OW12472   1.603   6.281   5.714
 3858SOL    HW112473   1.582   6.377   5.734
 3858SOL    HW212474   1.698   6.261   5.739
 3859SOL     OW12475   6.750   2.384   2.850
 3859SOL    HW112476   6.746   2.389   2.950
 3859SOL    HW212477   6.842   2.409   2.819
 3860SOL     OW12478   1.115   0.252   5.341
 3860SOL    HW112479   1.040   0.233   5.278
 3860SOL    HW212480   1.196   0.199   5.314
 3861SOL     OW12481   5.276   4.333   1.877
 3861SOL    HW112482   5.178   4.335   1.901
 3861SOL    HW212483   5.316   4.423   1.893
 3862SOL     OW12484   0.374   6.641   5.192
 3862SOL    HW112485   0.370   6.603   5.285
 3862SOL    HW212486   0.285   6.678   5.167
 3863SOL     OW12487   3.612   4.316   6.599
 3863SOL    HW112488   3.700   4.281   6.631
 3863SOL    HW212489   3.577   4.257   6.527
 3864SOL     OW12490   4.077   1.803   5.560
 3864SOL    HW112491   4.051   1.732   5.626
 3864SOL    HW212492   3.999   1.822   5.500
 3865SOL     OW12493   3.823   0.653   1.461
 3865SOL    HW112494   3.885   0.686   1.532
 3865SOL    HW212495   3.763   0.583   1.499
 3866SOL     OW12496   4.143   0.708   0.841
 3866SOL    HW112497   4.184   0.643   0.777
 3866SOL    HW212498   4.200   0.790   0.846
 3867SOL     OW12499   1.265   3.350   4.195
 3867SOL    HW112500   1.199   3.339   4.269
 3867SOL    HW212501   1.239   3.429   4.139
 3868SOL     OW12502   2.035   6.574   1.711
 3868SOL    HW112503   2.121   6.582   1.761
 3868SOL    HW212504   2.044   6.505   1.640
 3869SOL     OW12505   6.836   3.140   4.554
 3869SOL    HW112506   6.738   3.156   4.544
 3869SOL    HW212507   6.886   3.204   4.497
 3870SOL     OW12508   4.582   4.557   0.595
 3870SOL    HW112509   4.511   4.535   0.529
 3870SOL    HW212510   4.666   4.507   0.574
 3871SOL     OW12511   3.356   0.950   2.236
 3871SOL    HW112512   3.323   0.980   2.325
 3871SOL    HW212513   3.435   1.005   2.210
 3872SOL     OW12514   3.071   3.044   1.877
 3872SOL    HW112515   3.073   3.066   1.975
 3872SOL    HW212516   3.104   2.950   1.863
 3873SOL     OW12517   5.955   5.809   1.276
 3873SOL    HW112518   5.862   5.774   1.263
 3873SOL    HW212519   5.994   5.770   1.359
 3874SOL     OW12520   3.901   6.190   6.871
 3874SOL    HW112521   3.977   6.128   6.892
 3874SOL    HW212522   3.821   6.165   6.925
 3875SOL     OW12523   1.058   3.203   2.366
 3875SOL    HW112524   1.131   3.143   2.336
 3875SOL    HW212525   0.975   3.184   2.313
 3876SOL     OW12526   5.733   5.694   6.219
 3876SOL    HW112527   5.706   5.615   6.165
 3876SOL    HW212528   5.787   5.756   6.162
 3877SOL     OW12529   6.817   1.415   0.434
 3877SOL    HW112530   6.725   1.383   0.411
 3877SOL    HW212531   6.830   1.410   0.533
 3878SOL     OW12532   2.716   6.233   5.707
 3878SOL    HW112533   2.686   6.159   5.646
 3878SOL    HW212534   2.643   6.253   5.772
 3879SOL     OW12535   4.104   6.451   1.482
 3879SOL    HW112536   4.137   6.361   1.456
 3879SOL    HW212537   4.063   6.496   1.403
 3880SOL     OW12538   5.929   4.064   3.208
 3880SOL    HW112539   5.944   3.974   3.249
 3880SOL    HW212540   5.880   4.054   3.121
 3881SOL     OW12541   1.377   5.453   0.885
 3881SOL    HW112542   1.371   5.408   0.974
 3881SOL    HW212543   1.467   5.438   0.845
 3882SOL     OW12544   6.182   1.287   4.765
 3882SOL    HW112545   6.270   1.256   4.729
 3882SOL    HW212546   6.194   1.372   4.817
 3883SOL     OW12547   4.647   1.329   4.179
 3883SOL    HW112548   4.651   1.229   4.174
 3883SOL    HW212549   4.616   1.365   4.091
 3884SOL     OW12550   1.127   6.217   4.597
 3884SOL    HW112551   1.122   6.185   4.692
 3884SOL    HW212552   1.220   6.207   4.564
 3885SOL     OW12553   6.439   1.213   4.642
 3885SOL    HW112554   6.536   1.236   4.642
 3885SOL    HW212555   6.395   1.258   4.564
 3886SOL     OW12556   6.051   0.287   5.582
 3886SOL    HW112557   6.027   0.274   5.486
 3886SOL    HW212558   6.112   0.366   5.591
 3887SOL     OW12559   5.609   2.181   5.738
 3887SOL    HW112560   5.604   2.280   5.732
 3887SOL    HW212561   5.556   2.140   5.664
 3888SOL     OW12562   0.002   0.385   6.289
 3888SOL    HW112563   0.042   0.407   6.378
 3888SOL    HW212564   6.948   0.447   6.271
 3889SOL     OW12565   0.094   4.658   6.485
 3889SOL    HW112566   0.069   4.592   6.415
 3889SOL    HW212567   0.020   4.723   6.498
 3890SOL     OW12568   6.609   6.547   2.806
 3890SOL    HW112569   6.602   6.451   2.829
 3890SOL    HW212570   6.525   6.577   2.762
 3891SOL     OW12571   5.216   4.362   4.859
 3891SOL    HW112572   5.173   4.445   4.823
 3891SOL    HW212573   5.250   4.379   4.951
 3892SOL     OW12574   1.020   0.118   2.121
 3892SOL    HW112575   1.053   0.169   2.200
 3892SOL    HW212576   1.058   0.025   2.123
 3893SOL     OW12577   3.720   5.807   2.744
 3893SOL    HW112578   3.634   5.776   2.784
 3893SOL    HW212579   3.704   5.889   2.689
 3894SOL     OW12580   3.769   2.438   0.639
 3894SOL    HW112581   3.775   2.505   0.713
 3894SOL    HW212582   3.726   2.354   0.673
 3895SOL     OW12583   0.912   0.867   5.614
 3895SOL    HW112584   0.844   0.917   5.561
 3895SOL    HW212585   0.947   0.791   5.560
 3896SOL     OW12586   0.677   2.435   6.188
 3896SOL    HW112587   0.723   2.434   6.100
 3896SOL    HW212588   0.601   2.500   6.186
 3897SOL     OW12589   3.073   6.348   2.588
 3897SOL    HW112590   3.086   6.255   2.553
 3897SOL    HW212591   3.063   6.410   2.511
 3898SOL     OW12592   3.247   3.034   3.341
 3898SOL    HW112593   3.259   3.079   3.253
 3898SOL    HW212594   3.160   3.063   3.381
 3899SOL     OW12595   5.276   0.988   4.604
 3899SOL    HW112596   5.343   0.948   4.667
 3899SOL    HW212597   5.310   1.076   4.570
 3900SOL     OW12598   5.738   2.800   3.187
 3900SOL    HW112599   5.715   2.808   3.283
 3900SOL    HW212600   5.799   2.721   3.173
 3901SOL     OW12601   1.881   6.239   5.789
 3901SOL    HW112602   1.934   6.254   5.705
 3901SOL    HW212603   1.916   6.158   5.836
 3902SOL     OW12604   4.694   4.224   3.043
 3902SOL    HW112605   4.647   4.165   2.977
 3902SOL    HW212606   4.786   4.188   3.059
 3903SOL     OW12607   4.115   4.052   6.720
 3903SOL    HW112608   4.133   3.991   6.796
 3903SOL    HW212609   4.038   4.112   6.742
 3904SOL     OW12610   1.128   0.033   6.913
 3904SOL    HW112611   1.190   0.012   6.988
 3904SOL    HW212612   1.079   6.973   6.885
 3905SOL     OW12613   6.322   6.468   6.551
 3905SOL    HW112614   6.250   6.432   6.492
 3905SOL    HW212615   6.289   6.471   6.646
 3906SOL     OW12616   1.745   4.403   4.603
 3906SOL    HW112617   1.841   4.381   4.587
 3906SOL    HW212618   1.702   4.429   4.517
 3907SOL     OW12619   0.482   0.924   4.904
 3907SOL    HW112620   0.574   0.962   4.908
 3907SOL    HW212621   0.459   0.883   4.992
 3908SOL     OW12622   0.969   0.275   6.079
 3908SOL    HW112623   0.993   0.178   6.076
 3908SOL    HW212624   0.976   0.314   5.987
 3909SOL     OW12625   4.979   3.937   6.570
 3909SOL    HW112626   4.902   3.941   6.507
 3909SOL    HW212627   4.997   4.027   6.608
 3910SOL     OW12628   3.761   3.757   1.957
 3910SOL    HW112629   3.671   3.722   1.985
 3910SOL    HW212630   3.769   3.852   1.985
 3911SOL     OW12631   5.325   0.279   0.582
 3911SOL    HW112632   5.406   0.233   0.618
 3911SOL    HW212633   5.252   0.276   0.650
 3912SOL     OW12634   2.971   0.837   5.946
 3912SOL    HW112635   3.065   0.817   5.975
 3912SOL    HW212636   2.948   0.780   5.867
 3913SOL     OW12637   3.674   6.065   7.009
 3913SOL    HW112638   3.675   5.966   7.003
 3913SOL    HW212639   3.644   6.092   0.079
 3914SOL     OW12640   5.258   1.778   1.688
 3914SOL    HW112641   5.222   1.861   1.731
 3914SOL    HW212642   5.222   1.771   1.595
 3915SOL     OW12643   3.132   6.714   0.336
 3915SOL    HW112644   3.085   6.657   0.269
 3915SOL    HW212645   3.180   6.656   0.402
 3916SOL     OW12646   3.216   0.153   3.006
 3916SOL    HW112647   3.261   0.226   3.057
 3916SOL    HW212648   3.225   0.067   3.056
 3917SOL     OW12649   2.676   5.091   0.442
 3917SOL    HW112650   2.645   4.999   0.419
 3917SOL    HW212651   2.680   5.102   0.541
 3918SOL     OW12652   4.770   1.366   0.573
 3918SOL    HW112653   4.864   1.363   0.540
 3918SOL    HW212654   4.740   1.461   0.582
 3919SOL     OW12655   4.059   1.179   1.091
 3919SOL    HW112656   3.970   1.162   1.132
 3919SOL    HW212657   4.051   1.172   0.991
 3920SOL     OW12658   2.682   1.339   6.903
 3920SOL    HW112659   2.763   1.288   6.932
 3920SOL    HW212660   2.659   1.408   6.972
 3921SOL     OW12661   6.760   2.816   6.919
 3921SOL    HW112662   6.705   2.766   6.852
 3921SOL    HW212663   6.750   2.914   6.904
 3922SOL     OW12664   4.679   4.792   2.121
 3922SOL    HW112665   4.751   4.770   2.055
 3922SOL    HW212666   4.616   4.859   2.081
 3923SOL     OW12667   6.035   1.060   1.316
 3923SOL    HW112668   5.967   1.104   1.375
 3923SOL    HW212669   6.099   1.008   1.372
 3924SOL     OW12670   0.021   4.248   3.500
 3924SOL    HW112671   7.021   4.150   3.493
 3924SOL    HW212672   0.018   4.275   3.596
 3925SOL     OW12673   4.465   4.483   0.860
 3925SOL    HW112674   4.388   4.419   0.857
 3925SOL    HW212675   4.486   4.514   0.767
 3926SOL     OW12676   0.769   0.050   5.744
 3926SOL    HW112677   0.834   0.050   5.668
 3926SOL    HW212678   0.692   0.109   5.722
 3927SOL     OW12679   0.739   3.058   4.158
 3927SOL    HW112680   0.698   3.133   4.210
 3927SOL    HW212681   0.824   3.090   4.115
 3928SOL     OW12682   3.055   6.633   3.043
 3928SOL    HW112683   2.958   6.653   3.029
 3928SOL    HW212684   3.109   6.682   2.974
 3929SOL     OW12685   6.723   1.732   6.814
 3929SOL    HW112686   6.686   1.686   6.895
 3929SOL    HW212687   6.752   1.825   6.838
 3930SOL     OW12688   1.332   2.190   3.946
 3930SOL    HW112689   1.349   2.285   3.972
 3930SOL    HW212690   1.328   2.183   3.846
 3931SOL     OW12691   1.674   1.868   1.988
 3931SOL    HW112692   1.652   1.918   2.071
 3931SOL    HW212693   1.594   1.862   1.929
 3932SOL     OW12694   2.077   5.786   3.285
 3932SOL    HW112695   2.026   5.790   3.371
 3932SOL    HW212696   2.162   5.838   3.295
 3933SOL     OW12697   1.018   5.352   0.635
 3933SOL    HW112698   1.080   5.420   0.675
 3933SOL    HW212699   1.067   5.266   0.623
 3934SOL     OW12700   0.608   2.018   2.930
 3934SOL    HW112701   0.645   1.976   3.013
 3934SOL    HW212702   0.682   2.034   2.865
 3935SOL     OW12703   6.446   2.722   6.609
 3935SOL    HW112704   6.528   2.778   6.599
 3935SOL    HW212705   6.434   2.695   6.704
 3936SOL     OW12706   6.970   6.019   4.924
 3936SOL    HW112707   6.914   6.018   5.007
 3936SOL    HW212708   6.914   5.992   4.845
 3937SOL     OW12709   0.530   5.314   2.805
 3937SOL    HW112710   0.445   5.367   2.811
 3937SOL    HW212711   0.587   5.336   2.884
 3938SOL     OW12712   6.995   3.496   4.854
 3938SOL    HW112713   6.994   3.583   4.904
 3938SOL    HW212714   0.062   3.483   4.811
 3939SOL     OW12715   1.190   1.282   2.399
 3939SOL    HW112716   1.243   1.342   2.460
 3939SOL    HW212717   1.187   1.323   2.308
 3940SOL     OW12718   2.865   4.723   1.709
 3940SOL    HW112719   2.781   4.776   1.711
 3940SOL    HW212720   2.860   4.649   1.777
 3941SOL     OW12721   5.925   6.860   4.726
 3941SOL    HW112722   5.859   6.793   4.690
 3941SOL    HW212723   6.011   6.852   4.676
 3942SOL     OW12724   1.573   6.436   6.081
 3942SOL    HW112725   1.520   6.492   6.145
 3942SOL    HW212726   1.557   6.339   6.100
 3943SOL     OW12727   1.037   3.891   1.860
 3943SOL    HW112728   1.122   3.840   1.851
 3943SOL    HW212729   0.983   3.853   1.935
 3944SOL     OW12730   5.500   3.179   6.619
 3944SOL    HW112731   5.469   3.114   6.689
 3944SOL    HW212732   5.442   3.260   6.620
 3945SOL     OW12733   0.980   2.121   3.117
 3945SOL    HW112734   1.056   2.156   3.172
 3945SOL    HW212735   1.005   2.031   3.080
 3946SOL     OW12736   6.838   3.689   0.360
 3946SOL    HW112737   6.743   3.659   0.375
 3946SOL    HW212738   6.873   3.732   0.443
 3947SOL     OW12739   5.959   5.717   0.204
 3947SOL    HW112740   6.017   5.653   0.152
 3947SOL    HW212741   6.006   5.745   0.287
 3948SOL     OW12742   2.041   3.282   6.794
 3948SOL    HW112743   1.974   3.271   6.868
 3948SOL    HW212744   2.097   3.200   6.787
 3949SOL     OW12745   6.475   6.800   2.514
 3949SOL    HW112746   6.509   6.887   2.550
 3949SOL    HW212747   6.548   6.733   2.514
 3950SOL     OW12748   4.246   3.954   1.736
 3950SOL    HW112749   4.253   3.854   1.730
 3950SOL    HW212750   4.299   3.986   1.815
 3951SOL     OW12751   0.446   2.446   5.908
 3951SOL    HW112752   0.496   2.366   5.941
 3951SOL    HW212753   0.398   2.422   5.824
 3952SOL     OW12754   5.821   2.390   4.722
 3952SOL    HW112755   5.839   2.296   4.693
 3952SOL    HW212756   5.869   2.453   4.661
 3953SOL     OW12757   3.146   3.925   6.106
 3953SOL    HW112758   3.123   3.833   6.139
 3953SOL    HW212759   3.081   3.991   6.145
 3954SOL     OW12760   6.258   4.088   5.475
 3954SOL    HW112761   6.210   4.118   5.392
 3954SOL    HW212762   6.296   3.997   5.460
 3955SOL     OW12763   5.171   6.234   0.351
 3955SOL    HW112764   5.094   6.173   0.371
 3955SOL    HW212765   5.186   6.296   0.428
 3956SOL     OW12766   0.702   3.124   5.717
 3956SOL    HW112767   0.776   3.190   5.728
 3956SOL    HW212768   0.664   3.131   5.625
 3957SOL     OW12769   3.074   6.943   3.995
 3957SOL    HW112770   2.987   6.918   4.039
 3957SOL    HW212771   3.141   6.870   4.010
 3958SOL     OW12772   6.422   6.687   0.110
 3958SOL    HW112773   6.508   6.694   0.059
 3958SOL    HW212774   6.422   6.756   0.184
 3959SOL     OW12775   2.513   5.563   1.104
 3959SOL    HW112776   2.572   5.502   1.158
 3959SOL    HW212777   2.418   5.542   1.124
 3960SOL     OW12778   4.675   2.360   6.913
 3960SOL    HW112779   4.741   2.371   6.838
 3960SOL    HW212780   4.613   2.285   6.891
 3961SOL     OW12781   5.312   2.245   2.234
 3961SOL    HW112782   5.264   2.182   2.294
 3961SOL    HW212783   5.311   2.337   2.273
 3962SOL     OW12784   0.924   5.894   0.340
 3962SOL    HW112785   0.853   5.893   0.411
 3962SOL    HW212786   0.968   5.805   0.336
 3963SOL     OW12787   4.996   5.568   3.368
 3963SOL    HW112788   5.071   5.529   3.315
 3963SOL    HW212789   4.954   5.498   3.425
 3964SOL     OW12790   5.179   5.893   5.348
 3964SOL    HW112791   5.275   5.887   5.320
 3964SOL    HW212792   5.151   5.989   5.353
 3965SOL     OW12793   3.388   4.657   0.034
 3965SOL    HW112794   3.344   4.568   0.044
 3965SOL    HW212795   3.426   4.665   6.963
 3966SOL     OW12796   6.345   4.126   6.386
 3966SOL    HW112797   6.305   4.186   6.455
 3966SOL    HW212798   6.336   4.169   6.296
 3967SOL     OW12799   0.756   5.267   4.181
 3967SOL    HW112800   0.658   5.251   4.164
 3967SOL    HW212801   0.786   5.348   4.132
 3968SOL     OW12802   5.430   0.383   3.398
 3968SOL    HW112803   5.528   0.368   3.410
 3968SOL    HW212804   5.394   0.434   3.476
 3969SOL     OW12805   1.585   5.039   2.996
 3969SOL    HW112806   1.518   5.108   2.969
 3969SOL    HW212807   1.628   5.001   2.914
 3970SOL     OW12808   4.795   4.755   4.325
 3970SOL    HW112809   4.750   4.728   4.240
 3970SOL    HW212810   4.818   4.853   4.321
 3971SOL     OW12811   3.160   5.407   2.995
 3971SOL    HW112812   3.249   5.368   2.974
 3971SOL    HW212813   3.124   5.366   3.079
 3972SOL     OW12814   0.316   6.055   0.815
 3972SOL    HW112815   0.297   6.112   0.735
 3972SOL    HW212816   0.404   6.082   0.856
 3973SOL     OW12817   3.083   3.163   5.052
 3973SOL    HW112818   3.048   3.135   4.963
 3973SOL    HW212819   3.012   3.151   5.121
 3974SOL     OW12820   0.454   1.369   5.983
 3974SOL    HW112821   0.551   1.394   5.992
 3974SOL    HW212822   0.403   1.448   5.950
 3975SOL     OW12823   6.418   0.557   5.930
 3975SOL    HW112824   6.398   0.459   5.923
 3975SOL    HW212825   6.377   0.593   6.014
 3976SOL     OW12826   0.472   4.225   1.422
 3976SOL    HW112827   0.492   4.258   1.515
 3976SOL    HW212828   0.376   4.243   1.401
 3977SOL     OW12829   2.590   6.056   5.533
 3977SOL    HW112830   2.546   6.130   5.483
 3977SOL    HW212831   2.543   5.970   5.514
 3978SOL     OW12832   5.975   1.447   5.717
 3978SOL    HW112833   5.879   1.425   5.735
 3978SOL    HW212834   5.981   1.518   5.647
 3979SOL     OW12835   1.958   0.211   1.534
 3979SOL    HW112836   2.000   0.239   1.448
 3979SOL    HW212837   1.949   0.290   1.595
 3980SOL     OW12838   5.636   3.240   4.657
 3980SOL    HW112839   5.566   3.177   4.691
 3980SOL    HW212840   5.675   3.292   4.733
 3981SOL     OW12841   7.020   1.959   6.362
 3981SOL    HW112842   0.059   1.952   6.283
 3981SOL    HW212843   6.974   2.047   6.361
 3982SOL     OW12844   2.011   0.948   4.868
 3982SOL    HW112845   1.914   0.935   4.888
 3982SOL    HW212846   2.058   0.859   4.872
 3983SOL     OW12847   3.569   0.199   4.977
 3983SOL    HW112848   3.649   0.141   4.965
 3983SOL    HW212849   3.486   0.146   4.958
 3984SOL     OW12850   1.937   6.494   2.174
 3984SOL    HW112851   2.023   6.510   2.126
 3984SOL    HW212852   1.919   6.571   2.235
 3985SOL     OW12853   1.709   4.137   6.825
 3985SOL    HW112854   1.755   4.223   6.847
 3985SOL    HW212855   1.611   4.152   6.818
 3986SOL     OW12856   0.566   1.978   1.773
 3986SOL    HW112857   0.540   1.907   1.707
 3986SOL    HW212858   0.589   1.935   1.860
 3987SOL     OW12859   1.270   5.719   5.244
 3987SOL    HW112860   1.254   5.731   5.146
 3987SOL    HW212861   1.185   5.734   5.294
 3988SOL     OW12862   3.823   1.605   6.620
 3988SOL    HW112863   3.837   1.516   6.663
 3988SOL    HW212864   3.821   1.594   6.521
 3989SOL     OW12865   6.226   6.801   6.589
 3989SOL    HW112866   6.210   6.888   6.635
 3989SOL    HW212867   6.322   6.775   6.598
 3990SOL     OW12868   6.782   2.479   5.093
 3990SOL    HW112869   6.725   2.523   5.163
 3990SOL    HW212870   6.807   2.547   5.024
 3991SOL     OW12871   0.305   2.357   3.447
 3991SOL    HW112872   0.318   2.438   3.504
 3991SOL    HW212873   0.362   2.283   3.482
 3992SOL     OW12874   3.688   3.187   6.750
 3992SOL    HW112875   3.620   3.239   6.802
 3992SOL    HW212876   3.661   3.090   6.748
 3993SOL     OW12877   2.770   2.318   2.676
 3993SOL    HW112878   2.739   2.231   2.636
 3993SOL    HW212879   2.854   2.302   2.728
 3994SOL     OW12880   2.091   2.436   5.023
 3994SOL    HW112881   2.094   2.439   4.923
 3994SOL    HW212882   2.130   2.521   5.060
 3995SOL     OW12883   2.315   4.234   3.334
 3995SOL    HW112884   2.298   4.139   3.309
 3995SOL    HW212885   2.320   4.290   3.251
 3996SOL     OW12886   1.694   1.453   4.154
 3996SOL    HW112887   1.735   1.375   4.107
 3996SOL    HW212888   1.600   1.429   4.182
 3997SOL     OW12889   4.971   3.516   3.408
 3997SOL    HW112890   4.949   3.420   3.396
 3997SOL    HW212891   5.051   3.525   3.468
 3998SOL     OW12892   6.207   2.053   2.011
 3998SOL    HW112893   6.142   2.110   1.962
 3998SOL    HW212894   6.213   1.963   1.966
 3999SOL     OW12895   6.000   3.971   3.544
 3999SOL    HW112896   6.090   3.926   3.545
 3999SOL    HW212897   5.930   3.903   3.524
 4000SOL     OW12898   3.305   5.920   2.981
 4000SOL    HW112899   3.256   5.925   2.894
 4000SOL    HW212900   3.376   5.991   2.984
 4001SOL     OW12901   2.362   4.169   6.053
 4001SOL    HW112902   2.340   4.210   5.964
 4001SOL    HW212903   2.279   4.163   6.108
 4002SOL     OW12904   3.727   3.043   4.556
 4002SOL    HW112905   3.816   3.080   4.583
 4002SOL    HW212906   3.691   2.986   4.630
 4003SOL     OW12907   2.008   1.312   6.142
 4003SOL    HW112908   2.021   1.276   6.234
 4003SOL    HW212909   2.055   1.400   6.133
 4004SOL     OW12910   6.503   3.249   3.893
 4004SOL    HW112911   6.533   3.155   3.878
 4004SOL    HW212912   6.479   3.261   3.990
 4005SOL     OW12913   4.151   4.662   0.884
 4005SOL    HW112914   4.169   4.624   0.974
 4005SOL    HW212915   4.238   4.680   0.837
 4006SOL     OW12916   5.325   4.794   1.886
 4006SOL    HW112917   5.370   4.848   1.815
 4006SOL    HW212918   5.319   4.847   1.970
 4007SOL     OW12919   0.073   2.217   2.985
 4007SOL    HW112920   0.136   2.144   3.013
 4007SOL    HW212921   0.074   2.225   2.885
 4008SOL     OW12922   3.209   0.444   6.542
 4008SOL    HW112923   3.127   0.474   6.493
 4008SOL    HW212924   3.185   0.369   6.604
 4009SOL     OW12925   4.641   1.997   1.454
 4009SOL    HW112926   4.653   1.999   1.553
 4009SOL    HW212927   4.599   1.910   1.427
 4010SOL     OW12928   3.225   3.497   1.704
 4010SOL    HW112929   3.202   3.407   1.742
 4010SOL    HW212930   3.141   3.544   1.677
 4011SOL     OW12931   6.693   5.930   1.902
 4011SOL    HW112932   6.625   5.974   1.843
 4011SOL    HW212933   6.732   5.851   1.855
 4012SOL     OW12934   4.160   6.825   2.645
 4012SOL    HW112935   4.157   6.916   2.685
 4012SOL    HW212936   4.072   6.779   2.658
 4013SOL     OW12937   1.991   0.341   1.138
 4013SOL    HW112938   2.012   0.435   1.108
 4013SOL    HW212939   2.069   0.304   1.187
 4014SOL     OW12940   3.331   6.253   4.059
 4014SOL    HW112941   3.275   6.223   4.136
 4014SOL    HW212942   3.375   6.174   4.017
 4015SOL     OW12943   4.613   5.208   6.584
 4015SOL    HW112944   4.606   5.170   6.676
 4015SOL    HW212945   4.671   5.149   6.528
 4016SOL     OW12946   3.085   5.294   0.130
 4016SOL    HW112947   3.063   5.248   0.216
 4016SOL    HW212948   3.181   5.324   0.132
 4017SOL     OW12949   0.391   5.354   5.205
 4017SOL    HW112950   0.458   5.281   5.195
 4017SOL    HW212951   0.300   5.314   5.220
 4018SOL     OW12952   4.570   0.478   1.471
 4018SOL    HW112953   4.570   0.464   1.570
 4018SOL    HW212954   4.664   0.474   1.436
 4019SOL     OW12955   5.384   3.693   2.805
 4019SOL    HW112956   5.396   3.598   2.776
 4019SOL    HW212957   5.377   3.753   2.725
 4020SOL     OW12958   6.710   2.723   5.602
 4020SOL    HW112959   6.730   2.638   5.552
 4020SOL    HW212960   6.778   2.736   5.674
 4021SOL     OW12961   3.553   4.172   5.432
 4021SOL    HW112962   3.472   4.122   5.464
 4021SOL    HW212963   3.528   4.234   5.358
 4022SOL     OW12964   3.766   6.295   6.562
 4022SOL    HW112965   3.695   6.279   6.493
 4022SOL    HW212966   3.761   6.223   6.632
 4023SOL     OW12967   6.796   0.653   5.310
 4023SOL    HW112968   6.736   0.721   5.267
 4023SOL    HW212969   6.887   0.657   5.268
 4024SOL     OW12970   2.558   4.598   3.777
 4024SOL    HW112971   2.585   4.651   3.857
 4024SOL    HW212972   2.527   4.507   3.806
 4025SOL     OW12973   0.546   6.378   4.130
 4025SOL    HW112974   0.517   6.299   4.184
 4025SOL    HW212975   0.645   6.389   4.136
 4026SOL     OW12976   6.433   6.727   4.290
 4026SOL    HW112977   6.389   6.708   4.378
 4026SOL    HW212978   6.504   6.659   4.273
 4027SOL     OW12979   2.317   2.707   0.148
 4027SOL    HW112980   2.235   2.746   0.189
 4027SOL    HW212981   2.333   2.750   0.059
 4028SOL     OW12982   4.622   1.391   3.706
 4028SOL    HW112983   4.590   1.390   3.611
 4028SOL    HW212984   4.708   1.441   3.711
 4029SOL     OW12985   2.976   4.000   5.542
 4029SOL    HW112986   2.973   4.075   5.476
 4029SOL    HW212987   3.064   4.002   5.589
 4030SOL     OW12988   6.680   1.098   2.250
 4030SOL    HW112989   6.765   1.046   2.241
 4030SOL    HW212990   6.603   1.035   2.260
 4031SOL     OW12991   5.513   6.254   3.329
 4031SOL    HW112992   5.499   6.195   3.409
 4031SOL    HW212993   5.592   6.221   3.277
 4032SOL     OW12994   0.218   7.001   2.297
 4032SOL    HW112995   0.133   6.949   2.291
 4032SOL    HW212996   0.216   0.054   2.230
 4033SOL     OW12997   2.269   2.785   1.471
 4033SOL    HW112998   2.327   2.853   1.516
 4033SOL    HW212999   2.315   2.752   1.388
 4034SOL     OW13000   6.013   2.122   5.134
 4034SOL    HW113001   5.992   2.026   5.154
 4034SOL    HW213002   6.013   2.175   5.219
 4035SOL     OW13003   6.126   1.263   0.902
 4035SOL    HW113004   6.171   1.173   0.900
 4035SOL    HW213005   6.029   1.251   0.879
 4036SOL     OW13006   4.189   4.707   2.358
 4036SOL    HW113007   4.112   4.762   2.326
 4036SOL    HW213008   4.229   4.657   2.281
 4037SOL     OW13009   2.080   1.949   6.948
 4037SOL    HW113010   1.985   1.963   6.976
 4037SOL    HW213011   2.112   1.860   6.979
 4038SOL     OW13012   4.203   2.930   1.381
 4038SOL    HW113013   4.222   2.999   1.311
 4038SOL    HW213014   4.202   2.973   1.471
 4039SOL     OW13015   5.548   5.692   1.477
 4039SOL    HW113016   5.606   5.703   1.396
 4039SOL    HW213017   5.598   5.641   1.547
 4040SOL     OW13018   3.612   6.900   4.961
 4040SOL    HW113019   3.677   6.930   4.891
 4040SOL    HW213020   3.658   6.893   5.049
 4041SOL     OW13021   1.242   5.097   0.809
 4041SOL    HW113022   1.182   5.103   0.729
 4041SOL    HW213023   1.303   5.177   0.810
 4042SOL     OW13024   6.128   5.983   4.432
 4042SOL    HW113025   6.044   5.969   4.379
 4042SOL    HW213026   6.116   5.945   4.524
 4043SOL     OW13027   6.868   2.225   6.328
 4043SOL    HW113028   6.860   2.275   6.414
 4043SOL    HW213029   6.779   2.221   6.283
 4044SOL     OW13030   4.680   6.314   3.824
 4044SOL    HW113031   4.608   6.339   3.759
 4044SOL    HW213032   4.757   6.273   3.775
 4045SOL     OW13033   3.958   5.914   5.913
 4045SOL    HW113034   3.950   5.836   5.852
 4045SOL    HW213035   3.897   5.902   5.992
 4046SOL     OW13036   1.516   1.805   3.550
 4046SOL    HW113037   1.529   1.745   3.629
 4046SOL    HW213038   1.429   1.854   3.559
 4047SOL     OW13039   2.643   2.512   0.079
 4047SOL    HW113040   2.618   2.578   0.150
 4047SOL    HW213041   2.681   2.561   7.022
 4048SOL     OW13042   5.308   1.520   1.780
 4048SOL    HW113043   5.290   1.610   1.739
 4048SOL    HW213044   5.386   1.526   1.842
 4049SOL     OW13045   5.304   4.839   6.293
 4049SOL    HW113046   5.289   4.893   6.377
 4049SOL    HW213047   5.231   4.858   6.228
 4050SOL     OW13048   0.903   6.515   2.014
 4050SOL    HW113049   0.814   6.537   1.972
 4050SOL    HW213050   0.892   6.437   2.076
 4051SOL     OW13051   4.078   1.293   6.727
 4051SOL    HW113052   4.125   1.336   6.804
 4051SOL    HW213053   4.093   1.347   6.644
 4052SOL     OW13054   6.057   1.131   2.406
 4052SOL    HW113055   6.141   1.185   2.407
 4052SOL    HW213056   5.987   1.180   2.352
 4053SOL     OW13057   3.090   6.684   4.347
 4053SOL    HW113058   3.013   6.621   4.356
 4053SOL    HW213059   3.172   6.632   4.320
 4054SOL     OW13060   5.787   3.826   0.893
 4054SOL    HW113061   5.752   3.838   0.986
 4054SOL    HW213062   5.713   3.793   0.834
 4055SOL     OW13063   2.796   3.542   0.395
 4055SOL    HW113064   2.831   3.449   0.385
 4055SOL    HW213065   2.839   3.586   0.473
 4056SOL     OW13066   5.119   3.916   0.796
 4056SOL    HW113067   5.149   3.989   0.734
 4056SOL    HW213068   5.036   3.945   0.844
 4057SOL     OW13069   6.817   2.395   0.898
 4057SOL    HW113070   6.893   2.441   0.852
 4057SOL    HW213071   6.809   2.301   0.866
 4058SOL     OW13072   2.290   0.108   4.985
 4058SOL    HW113073   2.296   0.061   4.896
 4058SOL    HW213074   2.208   0.165   4.987
 4059SOL     OW13075   1.039   1.595   2.916
 4059SOL    HW113076   1.024   1.523   2.848
 4059SOL    HW213077   0.968   1.589   2.987
 4060SOL     OW13078   5.673   5.470   5.068
 4060SOL    HW113079   5.708   5.465   4.975
 4060SOL    HW213080   5.747   5.496   5.130
 4061SOL     OW13081   2.328   5.011   2.367
 4061SOL    HW113082   2.280   5.098   2.378
 4061SOL    HW213083   2.415   5.027   2.321
 4062SOL     OW13084   2.393   0.851   1.611
 4062SOL    HW113085   2.462   0.923   1.606
 4062SOL    HW213086   2.421   0.774   1.553
 4063SOL     OW13087   5.976   6.409   0.310
 4063SOL    HW113088   5.906   6.345   0.342
 4063SOL    HW213089   5.952   6.444   0.220
 4064SOL     OW13090   2.535   0.654   3.708
 4064SOL    HW113091   2.477   0.607   3.642
 4064SOL    HW213092   2.558   0.745   3.674
 4065SOL     OW13093   1.325   6.980   1.728
 4065SOL    HW113094   1.340   6.881   1.739
 4065SOL    HW213095   1.239   6.996   1.681
 4066SOL     OW13096   6.226   4.719   3.426
 4066SOL    HW113097   6.133   4.687   3.405
 4066SOL    HW213098   6.292   4.671   3.368
 4067SOL     OW13099   6.143   3.768   3.016
 4067SOL    HW113100   6.117   3.815   2.932
 4067SOL    HW213101   6.229   3.805   3.050
 4068SOL     OW13102   1.589   1.277   5.076
 4068SOL    HW113103   1.519   1.212   5.046
 4068SOL    HW213104   1.600   1.271   5.175
 4069SOL     OW13105   2.953   5.337   6.410
 4069SOL    HW113106   2.919   5.402   6.342
 4069SOL    HW213107   3.031   5.287   6.373
 4070SOL     OW13108   0.443   3.505   2.200
 4070SOL    HW113109   0.459   3.447   2.120
 4070SOL    HW213110   0.353   3.485   2.239
 4071SOL     OW13111   1.200   1.124   5.530
 4071SOL    HW113112   1.107   1.140   5.562
 4071SOL    HW213113   1.212   1.167   5.440
 4072SOL     OW13114   0.634   5.710   4.482
 4072SOL    HW113115   0.592   5.800   4.469
 4072SOL    HW213116   0.562   5.642   4.496
 4073SOL     OW13117   3.260   6.300   6.065
 4073SOL    HW113118   3.288   6.205   6.074
 4073SOL    HW213119   3.163   6.305   6.043
 4074SOL     OW13120   6.840   4.197   1.821
 4074SOL    HW113121   6.837   4.280   1.766
 4074SOL    HW213122   6.928   4.192   1.869
 4075SOL     OW13123   4.507   2.121   1.890
 4075SOL    HW113124   4.558   2.166   1.963
 4075SOL    HW213125   4.409   2.123   1.911
 4076SOL     OW13126   3.002   3.094   5.626
 4076SOL    HW113127   3.034   3.062   5.537
 4076SOL    HW213128   2.970   3.016   5.680
 4077SOL     OW13129   3.479   1.539   0.055
 4077SOL    HW113130   3.459   1.441   0.064
 4077SOL    HW213131   3.514   1.557   6.985
 4078SOL     OW13132   0.269   5.357   1.437
 4078SOL    HW113133   0.194   5.346   1.373
 4078SOL    HW213134   0.347   5.302   1.408
 4079SOL     OW13135   1.885   1.060   3.653
 4079SOL    HW113136   1.928   1.009   3.727
 4079SOL    HW213137   1.799   1.100   3.685
 4080SOL     OW13138   4.375   4.424   6.009
 4080SOL    HW113139   4.359   4.518   6.037
 4080SOL    HW213140   4.315   4.400   5.933
 4081SOL     OW13141   2.058   2.847   4.379
 4081SOL    HW113142   2.139   2.804   4.417
 4081SOL    HW213143   1.986   2.851   4.449
 4082SOL     OW13144   0.197   3.865   0.312
 4082SOL    HW113145   0.146   3.783   0.339
 4082SOL    HW213146   0.161   3.944   0.362
 4083SOL     OW13147   6.740   3.868   2.276
 4083SOL    HW113148   6.657   3.911   2.240
 4083SOL    HW213149   6.820   3.907   2.230
 4084SOL     OW13150   5.488   1.989   3.517
 4084SOL    HW113151   5.456   1.907   3.470
 4084SOL    HW213152   5.587   1.985   3.529
 4085SOL     OW13153   2.752   5.665   1.634
 4085SOL    HW113154   2.848   5.682   1.657
 4085SOL    HW213155   2.720   5.584   1.682
 4086SOL     OW13156   1.160   5.425   1.928
 4086SOL    HW113157   1.166   5.525   1.935
 4086SOL    HW213158   1.115   5.388   2.010
 4087SOL     OW13159   1.916   1.752   3.347
 4087SOL    HW113160   1.879   1.805   3.270
 4087SOL    HW213161   2.004   1.791   3.374
 4088SOL     OW13162   6.998   1.426   6.933
 4088SOL    HW113163   0.052   1.490   6.929
 4088SOL    HW213164   6.946   1.430   6.848
 4089SOL     OW13165   6.246   6.228   4.360
 4089SOL    HW113166   6.204   6.142   4.387
 4089SOL    HW213167   6.331   6.241   4.412
 4090SOL     OW13168   1.496   4.972   5.800
 4090SOL    HW113169   1.559   4.997   5.726
 4090SOL    HW213170   1.433   4.902   5.768
 4091SOL     OW13171   6.890   6.305   6.877
 4091SOL    HW113172   6.865   6.330   6.970
 4091SOL    HW213173   6.832   6.230   6.845
 4092SOL     OW13174   6.537   2.563   6.018
 4092SOL    HW113175   6.482   2.593   5.941
 4092SOL    HW213176   6.629   2.540   5.987
 4093SOL     OW13177   4.393   6.711   2.326
 4093SOL    HW113178   4.409   6.730   2.423
 4093SOL    HW213179   4.339   6.784   2.286
 4094SOL     OW13180   2.482   5.859   4.809
 4094SOL    HW113181   2.428   5.912   4.874
 4094SOL    HW213182   2.564   5.823   4.855
 4095SOL     OW13183   0.095   3.635   0.403
 4095SOL    HW113184   7.020   3.633   0.382
 4095SOL    HW213185   0.131   3.541   0.399
 4096SOL     OW13186   4.525   5.818   5.914
 4096SOL    HW113187   4.527   5.858   5.822
 4096SOL    HW213188   4.430   5.816   5.947
 4097SOL     OW13189   3.665   4.735   5.559
 4097SOL    HW113190   3.611   4.704   5.480
 4097SOL    HW213191   3.724   4.661   5.589
 4098SOL     OW13192   0.089   2.235   1.537
 4098SOL    HW113193   0.047   2.144   1.539
 4098SOL    HW213194   0.150   2.245   1.615
 4099SOL     OW13195   2.606   4.817   1.589
 4099SOL    HW113196   2.616   4.719   1.575
 4099SOL    HW213197   2.563   4.835   1.677
 4100SOL     OW13198   0.164   6.072   4.431
 4100SOL    HW113199   0.158   6.070   4.530
 4100SOL    HW213200   0.116   6.152   4.395
 4101SOL     OW13201   6.126   0.737   0.293
 4101SOL    HW113202   6.191   0.759   0.220
 4101SOL    HW213203   6.048   0.799   0.288
 4102SOL     OW13204   6.571   0.482   0.794
 4102SOL    HW113205   6.557   0.384   0.781
 4102SOL    HW213206   6.666   0.499   0.822
 4103SOL     OW13207   0.595   0.440   0.120
 4103SOL    HW113208   0.657   0.364   0.137
 4103SOL    HW213209   0.580   0.491   0.204
 4104SOL     OW13210   0.945   4.771   2.989
 4104SOL    HW113211   0.984   4.686   2.955
 4104SOL    HW213212   0.861   4.751   3.040
 4105SOL     OW13213   4.849   0.229   1.716
 4105SOL    HW113214   4.880   0.137   1.742
 4105SOL    HW213215   4.787   0.223   1.638
 4106SOL     OW13216   6.279   2.656   3.224
 4106SOL    HW113217   6.358   2.683   3.280
 4106SOL    HW213218   6.220   2.736   3.210
 4107SOL     OW13219   1.196   5.547   1.292
 4107SOL    HW113220   1.221   5.601   1.212
 4107SOL    HW213221   1.237   5.587   1.374
 4108SOL     OW13222   6.149   4.094   5.234
 4108SOL    HW113223   6.217   4.073   5.164
 4108SOL    HW213224   6.065   4.044   5.214
 4109SOL     OW13225   6.329   6.957   4.951
 4109SOL    HW113226   6.256   6.928   5.013
 4109SOL    HW213227   6.417   6.922   4.982
 4110SOL     OW13228   3.672   3.835   6.316
 4110SOL    HW113229   3.616   3.821   6.234
 4110SOL    HW213230   3.676   3.750   6.368
 4111SOL     OW13231   4.214   3.441   0.149
 4111SOL    HW113232   4.286   3.506   0.174
 4111SOL    HW213233   4.147   3.485   0.091
 4112SOL     OW13234   5.075   6.458   4.743
 4112SOL    HW113235   5.090   6.530   4.811
 4112SOL    HW213236   5.159   6.405   4.731
 4113SOL     OW13237   4.881   6.189   4.543
 4113SOL    HW113238   4.851   6.283   4.560
 4113SOL    HW213239   4.977   6.189   4.518
 4114SOL     OW13240   3.495   2.082   3.747
 4114SOL    HW113241   3.493   2.064   3.649
 4114SOL    HW213242   3.405   2.113   3.777
 4115SOL     OW13243   3.513   4.918   2.104
 4115SOL    HW113244   3.528   4.858   2.025
 4115SOL    HW213245   3.478   5.006   2.072
 4116SOL     OW13246   3.535   1.704   2.078
 4116SOL    HW113247   3.597   1.671   2.149
 4116SOL    HW213248   3.588   1.742   2.002
 4117SOL     OW13249   1.485   4.628   2.382
 4117SOL    HW113250   1.521   4.549   2.332
 4117SOL    HW213251   1.423   4.596   2.454
 4118SOL     OW13252   2.854   6.578   0.581
 4118SOL    HW113253   2.809   6.607   0.496
 4118SOL    HW213254   2.933   6.637   0.598
 4119SOL     OW13255   3.570   1.956   3.989
 4119SOL    HW113256   3.543   2.015   3.914
 4119SOL    HW213257   3.583   2.011   4.072
 4120SOL     OW13258   3.693   0.526   0.107
 4120SOL    HW113259   3.650   0.436   0.117
 4120SOL    HW213260   3.752   0.543   0.186
 4121SOL     OW13261   6.301   0.727   4.602
 4121SOL    HW113262   6.249   0.642   4.611
 4121SOL    HW213263   6.347   0.747   4.689
 4122SOL     OW13264   1.050   5.793   5.374
 4122SOL    HW113265   1.060   5.884   5.333
 4122SOL    HW213266   0.970   5.793   5.435
 4123SOL     OW13267   4.371   5.207   5.731
 4123SOL    HW113268   4.397   5.295   5.693
 4123SOL    HW213269   4.411   5.196   5.821
 4124SOL     OW13270   6.448   5.753   6.430
 4124SOL    HW113271   6.466   5.658   6.402
 4124SOL    HW213272   6.484   5.815   6.361
 4125SOL     OW13273   4.555   1.235   2.708
 4125SOL    HW113274   4.461   1.218   2.738
 4125SOL    HW213275   4.592   1.151   2.668
 4126SOL     OW13276   1.062   3.525   4.653
 4126SOL    HW113277   1.060   3.588   4.731
 4126SOL    HW213278   0.996   3.451   4.668
 4127SOL     OW13279   4.447   4.940   4.811
 4127SOL    HW113280   4.426   5.014   4.747
 4127SOL    HW213281   4.409   4.854   4.777
 4128SOL     OW13282   1.436   2.996   1.713
 4128SOL    HW113283   1.458   2.910   1.666
 4128SOL    HW213284   1.446   2.983   1.812
 4129SOL     OW13285   3.833   1.250   6.365
 4129SOL    HW113286   3.798   1.166   6.407
 4129SOL    HW213287   3.775   1.274   6.287
 4130SOL     OW13288   6.551   2.955   5.991
 4130SOL    HW113289   6.649   2.954   6.012
 4130SOL    HW213290   6.512   3.042   6.018
 4131SOL     OW13291   1.445   0.154   2.966
 4131SOL    HW113292   1.447   0.251   2.940
 4131SOL    HW213293   1.539   0.121   2.978
 4132SOL     OW13294   5.153   4.391   3.870
 4132SOL    HW113295   5.156   4.294   3.845
 4132SOL    HW213296   5.180   4.402   3.965
 4133SOL     OW13297   3.043   6.191   0.883
 4133SOL    HW113298   2.987   6.249   0.825
 4133SOL    HW213299   3.081   6.116   0.829
 4134SOL     OW13300   2.561   2.927   0.528
 4134SOL    HW113301   2.493   2.975   0.473
 4134SOL    HW213302   2.545   2.828   0.521
 4135SOL     OW13303   0.864   1.582   3.133
 4135SOL    HW113304   0.771   1.546   3.125
 4135SOL    HW213305   0.869   1.644   3.211
 4136SOL     OW13306   1.348   2.031   2.947
 4136SOL    HW113307   1.351   1.949   2.891
 4136SOL    HW213308   1.420   2.094   2.919
 4137SOL     OW13309   0.377   4.527   0.752
 4137SOL    HW113310   0.427   4.613   0.764
 4137SOL    HW213311   0.440   4.450   0.756
 4138SOL     OW13312   4.475   5.312   3.436
 4138SOL    HW113313   4.535   5.315   3.356
 4138SOL    HW213314   4.449   5.217   3.454
 4139SOL     OW13315   1.895   1.790   5.236
 4139SOL    HW113316   1.945   1.860   5.288
 4139SOL    HW213317   1.943   1.770   5.151
 4140SOL     OW13318   2.950   0.525   5.409
 4140SOL    HW113319   2.864   0.513   5.360
 4140SOL    HW213320   2.932   0.572   5.495
 4141SOL     OW13321   6.001   6.209   1.392
 4141SOL    HW113322   6.045   6.135   1.342
 4141SOL    HW213323   5.937   6.257   1.331
 4142SOL     OW13324   6.113   5.605   1.106
 4142SOL    HW113325   6.074   5.694   1.129
 4142SOL    HW213326   6.043   5.547   1.066
 4143SOL     OW13327   6.814   2.345   1.145
 4143SOL    HW113328   6.790   2.350   1.048
 4143SOL    HW213329   6.819   2.437   1.183
 4144SOL     OW13330   4.875   3.867   6.107
 4144SOL    HW113331   4.950   3.817   6.149
 4144SOL    HW213332   4.908   3.917   6.027
 4145SOL     OW13333   6.620   6.507   1.331
 4145SOL    HW113334   6.521   6.492   1.325
 4145SOL    HW213335   6.638   6.603   1.352
 4146SOL     OW13336   6.892   0.831   4.923
 4146SOL    HW113337   6.929   0.830   4.830
 4146SOL    HW213338   6.918   0.747   4.971
 4147SOL     OW13339   4.583   3.738   6.003
 4147SOL    HW113340   4.504   3.736   5.942
 4147SOL    HW213341   4.599   3.831   6.035
 4148SOL     OW13342   1.359   0.491   4.754
 4148SOL    HW113343   1.273   0.440   4.756
 4148SOL    HW213344   1.387   0.512   4.847
 4149SOL     OW13345   7.001   2.760   0.500
 4149SOL    HW113346   6.962   2.694   0.564
 4149SOL    HW213347   0.058   2.720   0.454
 4150SOL     OW13348   0.908   0.744   6.176
 4150SOL    HW113349   0.948   0.666   6.224
 4150SOL    HW213350   0.911   0.825   6.236
 4151SOL     OW13351   3.553   5.448   5.366
 4151SOL    HW113352   3.537   5.356   5.401
 4151SOL    HW213353   3.531   5.451   5.268
 4152SOL     OW13354   3.745   6.195   1.647
 4152SOL    HW113355   3.681   6.164   1.576
 4152SOL    HW213356   3.700   6.264   1.704
 4153SOL     OW13357   4.153   5.096   0.291
 4153SOL    HW113358   4.244   5.082   0.254
 4153SOL    HW213359   4.096   5.145   0.225
 4154SOL     OW13360   0.425   4.722   4.452
 4154SOL    HW113361   0.513   4.732   4.405
 4154SOL    HW213362   0.358   4.681   4.390
 4155SOL     OW13363   6.942   1.177   2.092
 4155SOL    HW113364   6.950   1.240   2.170
 4155SOL    HW213365   6.856   1.194   2.044
 4156SOL     OW13366   6.132   6.226   5.104
 4156SOL    HW113367   6.117   6.168   5.184
 4156SOL    HW213368   6.192   6.179   5.040
 4157SOL     OW13369   4.899   5.616   4.580
 4157SOL    HW113370   4.893   5.716   4.574
 4157SOL    HW213371   4.901   5.589   4.677
 4158SOL     OW13372   1.841   4.628   2.772
 4158SOL    HW113373   1.760   4.667   2.729
 4158SOL    HW213374   1.829   4.626   2.871
 4159SOL     OW13375   1.952   3.516   4.386
 4159SOL    HW113376   1.899   3.567   4.453
 4159SOL    HW213377   1.890   3.460   4.330
 4160SOL     OW13378   6.059   0.623   0.744
 4160SOL    HW113379   6.041   0.531   0.708
 4160SOL    HW213380   6.156   0.629   0.770
 4161SOL     OW13381   0.795   0.777   0.178
 4161SOL    HW113382   0.791   0.876   0.178
 4161SOL    HW213383   0.874   0.747   0.125
 4162SOL     OW13384   5.931   6.692   5.916
 4162SOL    HW113385   5.902   6.670   6.009
 4162SOL    HW213386   6.010   6.754   5.919
 4163SOL     OW13387   6.015   6.382   3.684
 4163SOL    HW113388   5.980   6.290   3.701
 4163SOL    HW213389   6.088   6.378   3.616
 4164SOL     OW13390   1.761   6.530   6.556
 4164SOL    HW113391   1.747   6.488   6.646
 4164SOL    HW213392   1.836   6.596   6.560
 4165SOL     OW13393   3.856   0.228   6.998
 4165SOL    HW113394   3.820   0.236   6.905
 4165SOL    HW213395   3.945   0.274   7.003
 4166SOL     OW13396   6.365   3.969   0.887
 4166SOL    HW113397   6.385   3.874   0.865
 4166SOL    HW213398   6.440   4.027   0.855
 4167SOL     OW13399   0.869   4.390   1.367
 4167SOL    HW113400   0.933   4.394   1.290
 4167SOL    HW213401   0.919   4.407   1.452
 4168SOL     OW13402   6.610   4.961   0.785
 4168SOL    HW113403   6.514   4.989   0.792
 4168SOL    HW213404   6.625   4.881   0.843
 4169SOL     OW13405   6.051   4.061   4.008
 4169SOL    HW113406   6.003   4.144   3.981
 4169SOL    HW213407   6.135   4.087   4.057
 4170SOL     OW13408   3.796   4.067   5.518
 4170SOL    HW113409   3.826   4.115   5.601
 4170SOL    HW213410   3.706   4.101   5.491
 4171SOL     OW13411   5.696   5.661   1.261
 4171SOL    HW113412   5.728   5.567   1.265
 4171SOL    HW213413   5.608   5.664   1.212
 4172SOL     OW13414   0.464   2.197   6.221
 4172SOL    HW113415   0.386   2.259   6.211
 4172SOL    HW213416   0.511   2.188   6.134
 4173SOL     OW13417   4.716   3.581   5.822
 4173SOL    HW113418   4.777   3.510   5.855
 4173SOL    HW213419   4.697   3.646   5.896
 4174SOL     OW13420   5.409   0.971   3.519
 4174SOL    HW113421   5.421   0.874   3.501
 4174SOL    HW213422   5.334   0.985   3.583
 4175SOL     OW13423   1.911   6.293   4.613
 4175SOL    HW113424   1.969   6.287   4.531
 4175SOL    HW213425   1.838   6.226   4.607
 4176SOL     OW13426   3.050   6.557   2.408
 4176SOL    HW113427   2.960   6.530   2.374
 4176SOL    HW213428   3.081   6.638   2.359
 4177SOL     OW13429   6.539   4.558   4.688
 4177SOL    HW113430   6.506   4.595   4.774
 4177SOL    HW213431   6.634   4.586   4.675
 4178SOL     OW13432   4.893   0.677   4.061
 4178SOL    HW113433   4.897   0.761   4.115
 4178SOL    HW213434   4.801   0.638   4.067
 4179SOL     OW13435   5.450   2.322   2.908
 4179SOL    HW113436   5.445   2.421   2.897
 4179SOL    HW213437   5.411   2.277   2.828
 4180SOL     OW13438   4.998   3.860   1.629
 4180SOL    HW113439   5.013   3.885   1.533
 4180SOL    HW213440   4.955   3.770   1.633
 4181SOL     OW13441   2.516   2.259   0.096
 4181SOL    HW113442   2.573   2.200   0.040
 4181SOL    HW213443   2.569   2.339   0.125
 4182SOL     OW13444   0.201   6.563   2.906
 4182SOL    HW113445   0.219   6.655   2.872
 4182SOL    HW213446   0.259   6.497   2.858
 4183SOL     OW13447   4.652   0.599   6.798
 4183SOL    HW113448   4.704   0.539   6.859
 4183SOL    HW213449   4.564   0.621   6.840
 4184SOL     OW13450   4.393   4.962   1.654
 4184SOL    HW113451   4.404   4.915   1.742
 4184SOL    HW213452   4.320   5.029   1.662
 4185SOL     OW13453   0.817   5.731   2.533
 4185SOL    HW113454   0.907   5.773   2.529
 4185SOL    HW213455   0.813   5.653   2.470
 4186SOL     OW13456   2.488   4.764   0.892
 4186SOL    HW113457   2.401   4.715   0.902
 4186SOL    HW213458   2.517   4.798   0.982
 4187SOL     OW13459   3.553   3.523   6.158
 4187SOL    HW113460   3.493   3.512   6.079
 4187SOL    HW213461   3.648   3.515   6.128
 4188SOL     OW13462   5.269   0.247   4.474
 4188SOL    HW113463   5.367   0.237   4.457
 4188SOL    HW213464   5.253   0.258   4.572
 4189SOL     OW13465   3.774   0.564   5.095
 4189SOL    HW113466   3.841   0.490   5.086
 4189SOL    HW213467   3.725   0.574   5.008
 4190SOL     OW13468   0.374   0.766   0.202
 4190SOL    HW113469   0.333   0.680   0.232
 4190SOL    HW213470   0.431   0.803   0.276
 4191SOL     OW13471   5.429   3.362   3.166
 4191SOL    HW113472   5.419   3.307   3.083
 4191SOL    HW213473   5.390   3.313   3.244
 4192SOL     OW13474   0.543   1.108   4.085
 4192SOL    HW113475   0.503   1.032   4.034
 4192SOL    HW213476   0.642   1.102   4.082
 4193SOL     OW13477   2.029   6.885   2.644
 4193SOL    HW113478   2.117   6.850   2.612
 4193SOL    HW213479   2.018   6.864   2.741
 4194SOL     OW13480   5.697   0.878   5.490
 4194SOL    HW113481   5.716   0.976   5.480
 4194SOL    HW213482   5.756   0.839   5.561
 4195SOL     OW13483   4.232   0.504   1.945
 4195SOL    HW113484   4.224   0.502   1.845
 4195SOL    HW213485   4.248   0.411   1.979
 4196SOL     OW13486   5.759   2.398   3.666
 4196SOL    HW113487   5.676   2.422   3.716
 4196SOL    HW213488   5.785   2.304   3.687
 4197SOL     OW13489   5.349   5.687   5.165
 4197SOL    HW113490   5.331   5.608   5.224
 4197SOL    HW213491   5.343   5.659   5.069
 4198SOL     OW13492   5.462   3.184   6.330
 4198SOL    HW113493   5.462   3.173   6.429
 4198SOL    HW213494   5.547   3.145   6.292
 4199SOL     OW13495   1.717   3.859   6.439
 4199SOL    HW113496   1.688   3.896   6.350
 4199SOL    HW213497   1.776   3.780   6.424
 4200SOL     OW13498   3.267   6.249   5.007
 4200SOL    HW113499   3.299   6.258   5.101
 4200SOL    HW213500   3.265   6.339   4.963
 4201SOL     OW13501   5.928   6.127   3.741
 4201SOL    HW113502   5.994   6.079   3.798
 4201SOL    HW213503   5.889   6.064   3.674
 4202SOL     OW13504   4.290   5.982   5.674
 4202SOL    HW113505   4.221   6.047   5.643
 4202SOL    HW213506   4.248   5.916   5.736
 4203SOL     OW13507   4.937   5.592   1.381
 4203SOL    HW113508   4.952   5.521   1.450
 4203SOL    HW213509   4.839   5.602   1.365
 4204SOL     OW13510   3.590   2.828   2.436
 4204SOL    HW113511   3.585   2.832   2.535
 4204SOL    HW213512   3.685   2.815   2.408
 4205SOL     OW13513   3.593   5.083   4.170
 4205SOL    HW113514   3.542   5.053   4.250
 4205SOL    HW213515   3.554   5.168   4.135
 4206SOL     OW13516   5.840   0.772   5.684
 4206SOL    HW113517   5.925   0.826   5.683
 4206SOL    HW213518   5.832   0.726   5.772
 4207SOL     OW13519   2.169   1.690   1.735
 4207SOL    HW113520   2.181   1.686   1.635
 4207SOL    HW213521   2.131   1.604   1.767
 4208SOL     OW13522   0.934   3.173   6.821
 4208SOL    HW113523   0.853   3.161   6.764
 4208SOL    HW213524   0.950   3.270   6.836
 4209SOL     OW13525   0.451   1.846   5.253
 4209SOL    HW113526   0.496   1.835   5.165
 4209SOL    HW213527   0.362   1.801   5.251
 4210SOL     OW13528   2.839   3.449   2.227
 4210SOL    HW113529   2.861   3.365   2.276
 4210SOL    HW213530   2.740   3.457   2.216
 4211SOL     OW13531   3.880   5.664   5.033
 4211SOL    HW113532   3.838   5.753   5.052
 4211SOL    HW213533   3.875   5.608   5.116
 4212SOL     OW13534   6.389   2.445   2.050
 4212SOL    HW113535   6.453   2.477   1.980
 4212SOL    HW213536   6.299   2.431   2.009
 4213SOL     OW13537   2.736   1.113   2.776
 4213SOL    HW113538   2.819   1.057   2.772
 4213SOL    HW213539   2.669   1.078   2.710
 4214SOL     OW13540   0.946   3.854   5.866
 4214SOL    HW113541   0.929   3.769   5.915
 4214SOL    HW213542   0.908   3.848   5.774
 4215SOL     OW13543   6.754   6.021   4.499
 4215SOL    HW113544   6.781   6.099   4.443
 4215SOL    HW213545   6.708   5.953   4.442
 4216SOL     OW13546   1.517   1.688   3.289
 4216SOL    HW113547   1.596   1.648   3.242
 4216SOL    HW213548   1.548   1.729   3.375
 4217SOL     OW13549   6.696   0.034   2.721
 4217SOL    HW113550   6.758   6.985   2.687
 4217SOL    HW213551   6.626   7.015   2.779
 4218SOL     OW13552   5.344   0.269   1.423
 4218SOL    HW113553   5.409   0.343   1.440
 4218SOL    HW213554   5.294   0.248   1.507
 4219SOL     OW13555   3.063   5.329   4.122
 4219SOL    HW113556   3.089   5.425   4.121
 4219SOL    HW213557   3.048   5.297   4.028
 4220SOL     OW13558   5.866   2.525   3.189
 4220SOL    HW113559   5.906   2.565   3.107
 4220SOL    HW213560   5.818   2.440   3.166
 4221SOL     OW13561   6.104   5.566   6.185
 4221SOL    HW113562   6.161   5.631   6.235
 4221SOL    HW213563   6.099   5.480   6.236
 4222SOL     OW13564   6.089   2.544   2.452
 4222SOL    HW113565   6.166   2.525   2.391
 4222SOL    HW213566   6.079   2.643   2.464
 4223SOL     OW13567   2.911   3.399   5.007
 4223SOL    HW113568   2.943   3.309   4.977
 4223SOL    HW213569   2.900   3.398   5.107
 4224SOL     OW13570   4.803   3.046   3.522
 4224SOL    HW113571   4.824   2.951   3.499
 4224SOL    HW213572   4.707   3.065   3.503
 4225SOL     OW13573   4.199   0.345   5.858
 4225SOL    HW113574   4.140   0.423   5.838
 4225SOL    HW213575   4.144   0.263   5.871
 4226SOL     OW13576   0.756   0.404   3.333
 4226SOL    HW113577   0.809   0.481   3.367
 4226SOL    HW213578   0.801   0.318   3.360
 4227SOL     OW13579   3.442   4.696   6.591
 4227SOL    HW113580   3.424   4.672   6.495
 4227SOL    HW213581   3.359   4.733   6.632
 4228SOL     OW13582   0.453   3.461   3.193
 4228SOL    HW113583   0.400   3.504   3.266
 4228SOL    HW213584   0.392   3.436   3.118
 4229SOL     OW13585   4.485   5.172   5.982
 4229SOL    HW113586   4.552   5.234   6.022
 4229SOL    HW213587   4.421   5.143   6.053
 4230SOL     OW13588   2.158   0.706   4.456
 4230SOL    HW113589   2.101   0.769   4.509
 4230SOL    HW213590   2.106   0.622   4.436
 4231SOL     OW13591   5.149   6.225   4.509
 4231SOL    HW113592   5.196   6.166   4.442
 4231SOL    HW213593   5.210   6.243   4.586
 4232SOL     OW13594   6.761   4.556   1.975
 4232SOL    HW113595   6.809   4.498   1.909
 4232SOL    HW213596   6.828   4.611   2.025
 4233SOL     OW13597   0.118   0.546   6.900
 4233SOL    HW113598   0.110   0.457   6.945
 4233SOL    HW213599   0.141   0.616   6.968
 4234SOL     OW13600   1.327   0.198   5.889
 4234SOL    HW113601   1.383   0.200   5.972
 4234SOL    HW213602   1.358   0.125   5.829
 4235SOL     OW13603   6.081   3.460   5.305
 4235SOL    HW113604   6.147   3.417   5.367
 4235SOL    HW213605   5.992   3.465   5.350
 4236SOL     OW13606   0.735   3.327   3.033
 4236SOL    HW113607   0.690   3.373   3.109
 4236SOL    HW213608   0.752   3.231   3.057
 4237SOL     OW13609   6.443   4.756   4.151
 4237SOL    HW113610   6.457   4.853   4.130
 4237SOL    HW213611   6.443   4.743   4.250
 4238SOL     OW13612   4.019   4.860   3.776
 4238SOL    HW113613   3.924   4.879   3.753
 4238SOL    HW213614   4.027   4.844   3.874
 4239SOL     OW13615   6.307   1.160   3.367
 4239SOL    HW113616   6.406   1.167   3.370
 4239SOL    HW213617   6.268   1.251   3.348
 4240SOL     OW13618   2.100   6.872   6.946
 4240SOL    HW113619   2.071   6.855   0.018
 4240SOL    HW213620   2.160   6.951   6.943
 4241SOL     OW13621   5.046   1.335   1.429
 4241SOL    HW113622   5.025   1.319   1.333
 4241SOL    HW213623   5.140   1.308   1.448
 4242SOL     OW13624   2.109   0.880   3.029
 4242SOL    HW113625   2.154   0.798   3.063
 4242SOL    HW213626   2.023   0.855   2.985
 4243SOL     OW13627   0.794   3.695   3.313
 4243SOL    HW113628   0.878   3.698   3.259
 4243SOL    HW213629   0.769   3.600   3.331
 4244SOL     OW13630   4.609   5.363   0.756
 4244SOL    HW113631   4.568   5.294   0.696
 4244SOL    HW213632   4.537   5.413   0.804
 4245SOL     OW13633   6.386   1.382   6.469
 4245SOL    HW113634   6.444   1.301   6.481
 4245SOL    HW213635   6.435   1.463   6.500
 4246SOL     OW13636   5.779   2.359   3.396
 4246SOL    HW113637   5.766   2.379   3.493
 4246SOL    HW213638   5.806   2.443   3.349
 4247SOL     OW13639   2.269   5.164   3.645
 4247SOL    HW113640   2.332   5.106   3.696
 4247SOL    HW213641   2.214   5.218   3.709
 4248SOL     OW13642   1.385   1.149   3.819
 4248SOL    HW113643   1.318   1.168   3.747
 4248SOL    HW213644   1.354   1.190   3.905
 4249SOL     OW13645   6.015   1.195   3.356
 4249SOL    HW113646   5.958   1.121   3.392
 4249SOL    HW213647   6.095   1.157   3.310
 4250SOL     OW13648   6.840   6.004   4.173
 4250SOL    HW113649   6.893   6.042   4.097
 4250SOL    HW213650   6.861   5.907   4.184
 4251SOL     OW13651   6.483   2.705   0.681
 4251SOL    HW113652   6.532   2.633   0.729
 4251SOL    HW213653   6.385   2.685   0.681
 4252SOL     OW13654   5.161   6.168   6.625
 4252SOL    HW113655   5.169   6.163   6.526
 4252SOL    HW213656   5.066   6.151   6.652
 4253SOL     OW13657   3.475   6.282   2.139
 4253SOL    HW113658   3.474   6.382   2.142
 4253SOL    HW213659   3.387   6.248   2.105
 4254SOL     OW13660   2.095   4.374   1.636
 4254SOL    HW113661   2.141   4.384   1.548
 4254SOL    HW213662   1.996   4.383   1.624
 4255SOL     OW13663   0.165   3.750   3.588
 4255SOL    HW113664   0.073   3.720   3.562
 4255SOL    HW213665   0.189   3.708   3.675
 4256SOL     OW13666   0.848   6.105   1.509
 4256SOL    HW113667   0.791   6.178   1.548
 4256SOL    HW213668   0.937   6.104   1.554
 4257SOL     OW13669   4.969   1.167   4.268
 4257SOL    HW113670   5.067   1.188   4.277
 4257SOL    HW213671   4.928   1.163   4.359
 4258SOL     OW13672   3.200   6.348   1.085
 4258SOL    HW113673   3.210   6.267   1.144
 4258SOL    HW213674   3.154   6.322   1.000
 4259SOL     OW13675   1.554   6.279   0.680
 4259SOL    HW113676   1.646   6.242   0.691
 4259SOL    HW213677   1.499   6.216   0.625
 4260SOL     OW13678   5.498   0.367   3.751
 4260SOL    HW113679   5.557   0.302   3.704
 4260SOL    HW213680   5.539   0.392   3.838
 4261SOL     OW13681   1.908   0.612   2.754
 4261SOL    HW113682   1.829   0.640   2.700
 4261SOL    HW213683   1.890   0.524   2.798
 4262SOL     OW13684   1.073   4.297   5.938
 4262SOL    HW113685   1.066   4.210   5.986
 4262SOL    HW213686   1.154   4.346   5.969
 4263SOL     OW13687   2.593   1.228   3.596
 4263SOL    HW113688   2.555   1.290   3.527
 4263SOL    HW213689   2.593   1.273   3.686
 4264SOL     OW13690   6.092   2.162   4.170
 4264SOL    HW113691   6.178   2.177   4.218
 4264SOL    HW213692   6.111   2.129   4.077
 4265SOL     OW13693   3.810   1.081   0.829
 4265SOL    HW113694   3.766   1.030   0.902
 4265SOL    HW213695   3.751   1.081   0.748
 4266SOL     OW13696   1.695   6.375   6.805
 4266SOL    HW113697   1.626   6.356   6.876
 4266SOL    HW213698   1.779   6.406   6.849
 4267SOL     OW13699   2.104   3.497   4.030
 4267SOL    HW113700   2.146   3.587   4.019
 4267SOL    HW213701   2.173   3.433   4.063
 4268SOL     OW13702   1.981   5.611   6.794
 4268SOL    HW113703   2.033   5.549   6.854
 4268SOL    HW213704   1.884   5.586   6.798
 4269SOL     OW13705   3.084   1.127   3.832
 4269SOL    HW113706   3.153   1.071   3.786
 4269SOL    HW213707   3.021   1.164   3.764
 4270SOL     OW13708   3.159   2.993   2.185
 4270SOL    HW113709   3.193   2.917   2.128
 4270SOL    HW213710   3.218   3.004   2.265
 4271SOL     OW13711   6.957   1.238   0.118
 4271SOL    HW113712   6.975   1.289   0.033
 4271SOL    HW213713   6.952   1.302   0.194
 4272SOL     OW13714   6.837   2.728   4.898
 4272SOL    HW113715   6.892   2.811   4.912
 4272SOL    HW213716   6.834   2.707   4.801
 4273SOL     OW13717   5.089   6.311   5.117
 4273SOL    HW113718   5.034   6.344   5.041
 4273SOL    HW213719   5.184   6.300   5.088
 4274SOL     OW13720   0.926   0.140   1.874
 4274SOL    HW113721   0.961   0.145   1.967
 4274SOL    HW213722   0.934   0.046   1.840
 4275SOL     OW13723   0.635   2.025   3.959
 4275SOL    HW113724   0.570   2.089   4.000
 4275SOL    HW213725   0.602   1.997   3.869
 4276SOL     OW13726   3.163   4.906   4.083
 4276SOL    HW113727   3.112   4.906   3.997
 4276SOL    HW213728   3.261   4.910   4.064
 4277SOL     OW13729   0.536   4.555   2.458
 4277SOL    HW113730   0.600   4.494   2.504
 4277SOL    HW213731   0.488   4.611   2.525
 4278SOL     OW13732   0.587   7.019   3.894
 4278SOL    HW113733   0.673   0.048   3.888
 4278SOL    HW213734   0.598   6.930   3.850
 4279SOL     OW13735   1.237   1.039   2.512
 4279SOL    HW113736   1.312   1.044   2.577
 4279SOL    HW213737   1.242   1.117   2.449
 4280SOL     OW13738   6.288   0.009   6.145
 4280SOL    HW113739   6.275   0.100   6.185
 4280SOL    HW213740   6.327   0.018   6.053
 4281SOL     OW13741   5.494   4.569   3.197
 4281SOL    HW113742   5.405   4.567   3.243
 4281SOL    HW213743   5.524   4.476   3.178
 4282SOL     OW13744   2.906   4.902   0.444
 4282SOL    HW113745   2.827   4.886   0.385
 4282SOL    HW213746   2.876   4.917   0.538
 4283SOL     OW13747   3.626   1.461   3.439
 4283SOL    HW113748   3.590   1.471   3.532
 4283SOL    HW213749   3.551   1.465   3.373
 4284SOL     OW13750   4.249   5.622   0.639
 4284SOL    HW113751   4.205   5.533   0.650
 4284SOL    HW213752   4.234   5.655   0.546
 4285SOL     OW13753   2.229   1.223   5.803
 4285SOL    HW113754   2.177   1.309   5.793
 4285SOL    HW213755   2.229   1.175   5.716
 4286SOL     OW13756   5.548   0.102   5.781
 4286SOL    HW113757   5.646   0.118   5.765
 4286SOL    HW213758   5.524   0.131   5.874
 4287SOL     OW13759   4.603   1.032   5.564
 4287SOL    HW113760   4.620   1.090   5.484
 4287SOL    HW213761   4.688   1.020   5.615
 4288SOL     OW13762   0.587   5.426   3.216
 4288SOL    HW113763   0.537   5.423   3.129
 4288SOL    HW213764   0.610   5.521   3.238
 4289SOL     OW13765   0.912   2.405   6.394
 4289SOL    HW113766   0.936   2.402   6.297
 4289SOL    HW213767   0.950   2.325   6.441
 4290SOL     OW13768   0.334   6.350   5.037
 4290SOL    HW113769   0.401   6.416   5.070
 4290SOL    HW213770   0.377   6.291   4.968
 4291SOL     OW13771   5.060   4.042   6.251
 4291SOL    HW113772   5.018   4.116   6.199
 4291SOL    HW213773   4.996   4.009   6.320
 4292SOL     OW13774   5.607   3.060   0.054
 4292SOL    HW113775   5.611   3.144   0.109
 4292SOL    HW213776   5.547   3.075   6.998
 4293SOL     OW13777   3.403   4.342   6.786
 4293SOL    HW113778   3.312   4.367   6.754
 4293SOL    HW213779   3.456   4.306   6.709
 4294SOL     OW13780   2.034   1.781   6.068
 4294SOL    HW113781   2.024   1.782   5.968
 4294SOL    HW213782   1.947   1.752   6.109
 4295SOL     OW13783   4.300   6.094   3.779
 4295SOL    HW113784   4.213   6.078   3.826
 4295SOL    HW213785   4.373   6.044   3.826
 4296SOL     OW13786   2.971   6.834   0.488
 4296SOL    HW113787   2.876   6.844   0.458
 4296SOL    HW213788   3.022   6.783   0.420
 4297SOL     OW13789   6.562   6.663   2.119
 4297SOL    HW113790   6.534   6.593   2.184
 4297SOL    HW213791   6.546   6.631   2.025
 4298SOL     OW13792   3.076   6.242   1.713
 4298SOL    HW113793   3.112   6.310   1.778
 4298SOL    HW213794   3.150   6.180   1.685
 4299SOL     OW13795   0.521   3.213   6.942
 4299SOL    HW113796   0.506   3.143   7.011
 4299SOL    HW213797   0.592   3.183   6.878
 4300SOL     OW13798   2.732   0.000   0.191
 4300SOL    HW113799   2.821   0.002   0.147
 4300SOL    HW213800   2.660   0.009   0.122
 4301SOL     OW13801   4.513   0.527   1.978
 4301SOL    HW113802   4.415   0.545   1.969
 4301SOL    HW213803   4.555   0.595   2.038
 4302SOL     OW13804   6.617   7.003   6.354
 4302SOL    HW113805   6.698   6.954   6.385
 4302SOL    HW213806   6.553   6.939   6.313
 4303SOL     OW13807   6.974   4.749   3.601
 4303SOL    HW113808   6.951   4.676   3.537
 4303SOL    HW213809   6.957   4.719   3.695
 4304SOL     OW13810   3.522   3.661   2.514
 4304SOL    HW113811   3.456   3.688   2.444
 4304SOL    HW213812   3.474   3.646   2.601
 4305SOL     OW13813   0.429   6.461   6.423
 4305SOL    HW113814   0.424   6.495   6.330
 4305SOL    HW213815   0.387   6.370   6.428
 4306SOL     OW13816   5.139   5.108   4.471
 4306SOL    HW113817   5.158   5.012   4.492
 4306SOL    HW213818   5.140   5.161   4.556
 4307SOL     OW13819   5.510   3.180   4.981
 4307SOL    HW113820   5.434   3.129   5.021
 4307SOL    HW213821   5.595   3.157   5.028
 4308SOL     OW13822   5.674   5.361   1.282
 4308SOL    HW113823   5.578   5.356   1.255
 4308SOL    HW213824   5.688   5.307   1.366
 4309SOL     OW13825   1.513   2.353   0.524
 4309SOL    HW113826   1.599   2.399   0.548
 4309SOL    HW213827   1.453   2.351   0.604
 4310SOL     OW13828   1.771   2.514   1.657
 4310SOL    HW113829   1.846   2.476   1.712
 4310SOL    HW213830   1.805   2.591   1.604
 4311SOL     OW13831   0.845   6.093   2.323
 4311SOL    HW113832   0.884   6.004   2.299
 4311SOL    HW213833   0.756   6.080   2.365
 4312SOL     OW13834   1.536   5.463   3.096
 4312SOL    HW113835   1.606   5.426   3.157
 4312SOL    HW213836   1.573   5.540   3.045
 4313SOL     OW13837   4.456   1.823   0.153
 4313SOL    HW113838   4.405   1.901   0.116
 4313SOL    HW213839   4.393   1.754   0.187
 4314SOL     OW13840   6.304   1.508   4.920
 4314SOL    HW113841   6.267   1.562   4.996
 4314SOL    HW213842   6.344   1.569   4.852
 4315SOL     OW13843   2.236   1.082   3.120
 4315SOL    HW113844   2.289   1.132   3.051
 4315SOL    HW213845   2.190   1.004   3.078
 4316SOL     OW13846   5.284   0.286   2.240
 4316SOL    HW113847   5.189   0.304   2.216
 4316SOL    HW213848   5.288   0.245   2.331
 4317SOL     OW13849   4.658   1.551   5.987
 4317SOL    HW113850   4.701   1.581   5.901
 4317SOL    HW213851   4.558   1.557   5.977
 4318SOL     OW13852   0.746   1.279   4.692
 4318SOL    HW113853   0.655   1.277   4.734
 4318SOL    HW213854   0.815   1.260   4.761
 4319SOL     OW13855   1.179   1.888   1.145
 4319SOL    HW113856   1.241   1.817   1.179
 4319SOL    HW213857   1.219   1.978   1.164
 4320SOL     OW13858   3.701   5.407   1.164
 4320SOL    HW113859   3.704   5.452   1.075
 4320SOL    HW213860   3.755   5.323   1.160
 4321SOL     OW13861   6.706   4.510   3.791
 4321SOL    HW113862   6.677   4.502   3.695
 4321SOL    HW213863   6.685   4.602   3.824
 4322SOL     OW13864   6.566   3.412   6.235
 4322SOL    HW113865   6.523   3.322   6.229
 4322SOL    HW213866   6.659   3.407   6.197
 4323SOL     OW13867   5.091   4.936   0.465
 4323SOL    HW113868   5.015   4.947   0.530
 4323SOL    HW213869   5.174   4.912   0.515
 4324SOL     OW13870   6.203   3.926   5.732
 4324SOL    HW113871   6.234   3.838   5.768
 4324SOL    HW213872   6.278   3.992   5.739
 4325SOL     OW13873   2.638   1.451   2.174
 4325SOL    HW113874   2.698   1.529   2.157
 4325SOL    HW213875   2.569   1.445   2.102
 4326SOL     OW13876   5.514   4.283   2.005
 4326SOL    HW113877   5.499   4.381   1.995
 4326SOL    HW213878   5.430   4.239   2.038
 4327SOL     OW13879   4.464   6.171   2.607
 4327SOL    HW113880   4.559   6.153   2.631
 4327SOL    HW213881   4.438   6.262   2.640
 4328SOL     OW13882   5.505   4.311   5.245
 4328SOL    HW113883   5.498   4.375   5.169
 4328SOL    HW213884   5.601   4.284   5.256
 4329SOL     OW13885   5.917   2.515   5.658
 4329SOL    HW113886   5.883   2.421   5.657
 4329SOL    HW213887   5.971   2.529   5.741
 4330SOL     OW13888   1.612   6.673   4.117
 4330SOL    HW113889   1.640   6.768   4.132
 4330SOL    HW213890   1.642   6.644   4.026
 4331SOL     OW13891   6.227   0.953   1.785
 4331SOL    HW113892   6.261   0.864   1.817
 4331SOL    HW213893   6.276   0.978   1.701
 4332SOL     OW13894   6.820   3.000   2.950
 4332SOL    HW113895   6.728   2.962   2.961
 4332SOL    HW213896   6.881   2.927   2.919
 4333SOL     OW13897   4.409   1.805   5.130
 4333SOL    HW113898   4.376   1.797   5.036
 4333SOL    HW213899   4.457   1.892   5.141
 4334SOL     OW13900   1.430   2.880   2.317
 4334SOL    HW113901   1.492   2.957   2.331
 4334SOL    HW213902   1.336   2.913   2.310
 4335SOL     OW13903   3.689   2.882   1.885
 4335SOL    HW113904   3.757   2.843   1.947
 4335SOL    HW213905   3.628   2.943   1.936
 4336SOL     OW13906   2.614   5.541   5.642
 4336SOL    HW113907   2.636   5.450   5.679
 4336SOL    HW213908   2.698   5.584   5.609
 4337SOL     OW13909   2.297   4.772   1.593
 4337SOL    HW113910   2.343   4.856   1.621
 4337SOL    HW213911   2.280   4.715   1.674
 4338SOL     OW13912   6.133   0.352   6.382
 4338SOL    HW113913   6.074   0.414   6.331
 4338SOL    HW213914   6.214   0.402   6.414
 4339SOL     OW13915   3.892   2.228   6.474
 4339SOL    HW113916   3.975   2.268   6.434
 4339SOL    HW213917   3.813   2.284   6.449
 4340SOL     OW13918   6.054   3.789   0.887
 4340SOL    HW113919   6.072   3.858   0.817
 4340SOL    HW213920   5.955   3.778   0.899
 4341SOL     OW13921   1.388   4.982   1.295
 4341SOL    HW113922   1.352   4.981   1.202
 4341SOL    HW213923   1.331   4.923   1.353
 4342SOL     OW13924   5.312   3.586   3.071
 4342SOL    HW113925   5.336   3.615   2.978
 4342SOL    HW213926   5.360   3.501   3.093
 4343SOL     OW13927   3.317   6.500   5.159
 4343SOL    HW113928   3.381   6.543   5.095
 4343SOL    HW213929   3.362   6.423   5.205
 4344SOL     OW13930   1.117   3.184   3.213
 4344SOL    HW113931   1.136   3.267   3.160
 4344SOL    HW213932   1.019   3.177   3.231
 4345SOL     OW13933   3.083   3.190   4.772
 4345SOL    HW113934   3.175   3.210   4.804
 4345SOL    HW213935   3.065   3.242   4.688
 4346SOL     OW13936   2.223   2.888   2.433
 4346SOL    HW113937   2.275   2.819   2.384
 4346SOL    HW213938   2.126   2.879   2.411
 4347SOL     OW13939   5.810   6.805   2.381
 4347SOL    HW113940   5.802   6.707   2.365
 4347SOL    HW213941   5.869   6.821   2.460
 4348SOL     OW13942   0.622   5.712   3.970
 4348SOL    HW113943   0.628   5.659   3.885
 4348SOL    HW213944   0.701   5.774   3.975
 4349SOL     OW13945   6.899   2.956   4.188
 4349SOL    HW113946   6.801   2.948   4.168
 4349SOL    HW213947   6.927   2.881   4.248
 4350SOL     OW13948   4.683   2.257   4.115
 4350SOL    HW113949   4.723   2.271   4.206
 4350SOL    HW213950   4.592   2.298   4.112
 4351SOL     OW13951   1.200   6.166   1.340
 4351SOL    HW113952   1.179   6.068   1.342
 4351SOL    HW213953   1.255   6.190   1.419
 4352SOL     OW13954   6.163   4.209   1.730
 4352SOL    HW113955   6.134   4.288   1.676
 4352SOL    HW213956   6.084   4.170   1.778
 4353SOL     OW13957   3.395   3.784   0.298
 4353SOL    HW113958   3.323   3.723   0.330
 4353SOL    HW213959   3.355   3.864   0.253
 4354SOL     OW13960   1.189   1.829   6.296
 4354SOL    HW113961   1.267   1.848   6.356
 4354SOL    HW213962   1.141   1.747   6.328
 4355SOL     OW13963   1.780   6.926   2.570
 4355SOL    HW113964   1.869   6.909   2.611
 4355SOL    HW213965   1.769   6.868   2.489
 4356SOL     OW13966   4.672   3.310   5.322
 4356SOL    HW113967   4.685   3.353   5.412
 4356SOL    HW213968   4.646   3.380   5.255
 4357SOL     OW13969   0.064   1.445   1.263
 4357SOL    HW113970   6.988   1.441   1.278
 4357SOL    HW213971   0.089   1.387   1.185
 4358SOL     OW13972   6.901   0.281   0.297
 4358SOL    HW113973   6.881   0.310   0.204
 4358SOL    HW213974   6.851   0.196   0.317
 4359SOL     OW13975   1.476   1.219   6.856
 4359SOL    HW113976   1.529   1.135   6.863
 4359SOL    HW213977   1.454   1.253   6.947
 4360SOL     OW13978   0.651   2.715   4.807
 4360SOL    HW113979   0.559   2.748   4.825
 4360SOL    HW213980   0.648   2.649   4.732
 4361SOL     OW13981   1.928   3.802   1.456
 4361SOL    HW113982   1.846   3.762   1.413
 4361SOL    HW213983   2.002   3.736   1.456
 4362SOL     OW13984   0.003   5.740   3.776
 4362SOL    HW113985   6.925   5.746   3.782
 4362SOL    HW213986   0.029   5.687   3.695
 4363SOL     OW13987   4.489   1.407   2.138
 4363SOL    HW113988   4.557   1.384   2.208
 4363SOL    HW213989   4.531   1.401   2.048
 4364SOL     OW13990   3.003   3.932   3.301
 4364SOL    HW113991   2.982   3.908   3.206
 4364SOL    HW213992   3.077   4.000   3.303
 4365SOL     OW13993   3.024   0.703   1.945
 4365SOL    HW113994   3.006   0.604   1.950
 4365SOL    HW213995   3.097   0.726   2.008
 4366SOL     OW13996   6.030   6.263   6.516
 4366SOL    HW113997   6.009   6.166   6.508
 4366SOL    HW213998   6.095   6.290   6.444
 4367SOL     OW13999   3.036   4.974   3.541
 4367SOL    HW114000   2.986   4.993   3.625
 4367SOL    HW214001   2.986   5.014   3.464
 4368SOL     OW14002   3.734   5.463   1.933
 4368SOL    HW114003   3.670   5.468   2.010
 4368SOL    HW214004   3.688   5.420   1.856
 4369SOL     OW14005   4.794   5.093   3.398
 4369SOL    HW114006   4.756   5.169   3.347
 4369SOL    HW214007   4.879   5.062   3.354
 4370SOL     OW14008   3.585   4.004   1.433
 4370SOL    HW114009   3.625   3.940   1.498
 4370SOL    HW214010   3.500   3.965   1.396
 4371SOL     OW14011   2.092   1.531   3.301
 4371SOL    HW114012   2.093   1.444   3.350
 4371SOL    HW214013   2.041   1.598   3.353
 4372SOL     OW14014   2.347   2.899   4.077
 4372SOL    HW114015   2.308   2.984   4.112
 4372SOL    HW214016   2.359   2.905   3.978
 4373SOL     OW14017   4.356   0.733   6.467
 4373SOL    HW114018   4.397   0.798   6.402
 4373SOL    HW214019   4.424   0.664   6.492
 4374SOL     OW14020   2.194   1.709   1.442
 4374SOL    HW114021   2.243   1.746   1.363
 4374SOL    HW214022   2.210   1.610   1.448
 4375SOL     OW14023   4.186   6.411   2.624
 4375SOL    HW114024   4.162   6.320   2.591
 4375SOL    HW214025   4.110   6.473   2.608
 4376SOL     OW14026   6.554   0.649   1.782
 4376SOL    HW114027   6.602   0.705   1.850
 4376SOL    HW214028   6.455   0.658   1.796
 4377SOL     OW14029   6.193   5.677   0.680
 4377SOL    HW114030   6.283   5.720   0.692
 4377SOL    HW214031   6.185   5.644   0.586
 4378SOL     OW14032   1.406   4.360   2.816
 4378SOL    HW114033   1.418   4.353   2.717
 4378SOL    HW214034   1.479   4.311   2.863
 4379SOL     OW14035   2.294   1.111   1.744
 4379SOL    HW114036   2.238   1.091   1.664
 4379SOL    HW214037   2.390   1.099   1.722
 4380SOL     OW14038   1.628   6.288   4.169
 4380SOL    HW114039   1.669   6.372   4.203
 4380SOL    HW214040   1.530   6.288   4.187
 4381SOL     OW14041   2.113   3.983   4.844
 4381SOL    HW114042   2.172   3.963   4.767
 4381SOL    HW214043   2.169   4.001   4.925
 4382SOL     OW14044   6.015   3.888   6.116
 4382SOL    HW114045   5.993   3.947   6.038
 4382SOL    HW214046   6.112   3.898   6.138
 4383SOL     OW14047   0.336   2.644   5.614
 4383SOL    HW114048   0.370   2.551   5.604
 4383SOL    HW214049   0.413   2.708   5.620
 4384SOL     OW14050   5.372   0.648   6.924
 4384SOL    HW114051   5.371   0.746   6.902
 4384SOL    HW214052   5.343   0.636   7.019
 4385SOL     OW14053   6.910   2.874   4.598
 4385SOL    HW114054   6.836   2.939   4.584
 4385SOL    HW214055   6.872   2.783   4.615
 4386SOL     OW14056   0.798   3.590   6.793
 4386SOL    HW114057   0.793   3.588   6.694
 4386SOL    HW214058   0.818   3.683   6.824
 4387SOL     OW14059   0.848   2.251   1.658
 4387SOL    HW114060   0.759   2.285   1.630
 4387SOL    HW214061   0.845   2.223   1.754
 4388SOL     OW14062   5.126   0.889   6.694
 4388SOL    HW114063   5.061   0.847   6.759
 4388SOL    HW214064   5.086   0.973   6.658
 4389SOL     OW14065   5.438   1.395   0.440
 4389SOL    HW114066   5.383   1.478   0.447
 4389SOL    HW214067   5.426   1.355   0.348
 4390SOL     OW14068   3.675   2.013   2.112
 4390SOL    HW114069   3.629   1.944   2.057
 4390SOL    HW214070   3.671   2.101   2.065
 4391SOL     OW14071   1.523   5.292   6.451
 4391SOL    HW114072   1.522   5.241   6.365
 4391SOL    HW214073   1.618   5.310   6.478
 4392SOL     OW14074   6.246   3.459   4.678
 4392SOL    HW114075   6.336   3.438   4.641
 4392SOL    HW214076   6.257   3.507   4.765
 4393SOL     OW14077   5.367   6.654   2.739
 4393SOL    HW114078   5.463   6.684   2.736
 4393SOL    HW214079   5.316   6.712   2.802
 4394SOL     OW14080   6.444   5.372   2.799
 4394SOL    HW114081   6.466   5.359   2.702
 4394SOL    HW214082   6.482   5.459   2.830
 4395SOL     OW14083   4.101   1.743   1.813
 4395SOL    HW114084   4.135   1.657   1.851
 4395SOL    HW214085   4.057   1.726   1.724
 4396SOL     OW14086   2.620   2.082   3.887
 4396SOL    HW114087   2.663   2.064   3.975
 4396SOL    HW214088   2.532   2.128   3.902
 4397SOL     OW14089   0.392   1.390   4.812
 4397SOL    HW114090   0.427   1.456   4.745
 4397SOL    HW214091   0.357   1.440   4.891
 4398SOL     OW14092   1.433   4.488   4.909
 4398SOL    HW114093   1.418   4.390   4.894
 4398SOL    HW214094   1.366   4.540   4.856
 4399SOL     OW14095   1.843   0.265   2.047
 4399SOL    HW114096   1.898   0.186   2.017
 4399SOL    HW214097   1.899   0.323   2.106
 4400SOL     OW14098   1.936   6.666   4.646
 4400SOL    HW114099   1.888   6.578   4.644
 4400SOL    HW214100   1.988   6.674   4.731
 4401SOL     OW14101   5.507   6.369   6.633
 4401SOL    HW114102   5.442   6.410   6.569
 4401SOL    HW214103   5.594   6.417   6.627
 4402SOL     OW14104   1.845   6.173   2.418
 4402SOL    HW114105   1.819   6.088   2.465
 4402SOL    HW214106   1.939   6.197   2.441
 4403SOL     OW14107   0.206   6.909   3.719
 4403SOL    HW114108   0.212   6.999   3.761
 4403SOL    HW214109   0.167   6.844   3.783
 4404SOL     OW14110   0.862   4.216   5.562
 4404SOL    HW114111   0.877   4.302   5.514
 4404SOL    HW214112   0.777   4.221   5.614
 4405SOL     OW14113   2.907   4.005   0.443
 4405SOL    HW114114   2.897   3.954   0.358
 4405SOL    HW214115   2.929   4.100   0.422
 4406SOL     OW14116   5.865   4.572   1.500
 4406SOL    HW114117   5.777   4.526   1.486
 4406SOL    HW214118   5.869   4.653   1.442
 4407SOL     OW14119   0.252   4.686   0.532
 4407SOL    HW114120   0.269   4.774   0.577
 4407SOL    HW214121   0.286   4.612   0.590
 4408SOL     OW14122   4.755   0.794   0.888
 4408SOL    HW114123   4.706   0.797   0.976
 4408SOL    HW214124   4.692   0.769   0.816
 4409SOL     OW14125   4.225   0.769   2.365
 4409SOL    HW114126   4.163   0.745   2.290
 4409SOL    HW214127   4.191   0.728   2.449
 4410SOL     OW14128   1.630   4.796   0.586
 4410SOL    HW114129   1.662   4.749   0.504
 4410SOL    HW214130   1.705   4.805   0.652
 4411SOL     OW14131   4.058   3.159   3.872
 4411SOL    HW114132   4.107   3.126   3.952
 4411SOL    HW214133   4.104   3.240   3.835
 4412SOL     OW14134   3.537   1.489   4.333
 4412SOL    HW114135   3.585   1.402   4.325
 4412SOL    HW214136   3.597   1.556   4.378
 4413SOL     OW14137   4.763   6.049   4.881
 4413SOL    HW114138   4.847   6.101   4.861
 4413SOL    HW214139   4.787   5.953   4.896
 4414SOL     OW14140   4.216   4.683   1.870
 4414SOL    HW114141   4.168   4.617   1.811
 4414SOL    HW214142   4.161   4.766   1.877
 4415SOL     OW14143   3.938   4.316   6.403
 4415SOL    HW114144   3.929   4.218   6.385
 4415SOL    HW214145   4.034   4.339   6.414
 4416SOL     OW14146   3.157   0.570   4.217
 4416SOL    HW114147   3.169   0.502   4.290
 4416SOL    HW214148   3.196   0.657   4.245
 4417SOL     OW14149   6.655   4.435   3.231
 4417SOL    HW114150   6.663   4.413   3.134
 4417SOL    HW214151   6.694   4.525   3.249
 4418SOL     OW14152   5.643   0.808   4.171
 4418SOL    HW114153   5.627   0.739   4.101
 4418SOL    HW214154   5.739   0.809   4.197
 4419SOL     OW14155   5.955   6.112   0.218
 4419SOL    HW114156   5.935   6.035   0.158
 4419SOL    HW214157   6.028   6.088   0.282
 4420SOL     OW14158   4.943   1.727   1.157
 4420SOL    HW114159   4.996   1.807   1.186
 4420SOL    HW214160   4.863   1.757   1.106
 4421SOL     OW14161   2.107   1.212   3.315
 4421SOL    HW114162   2.051   1.141   3.359
 4421SOL    HW214163   2.172   1.168   3.253
 4422SOL     OW14164   2.405   3.726   6.017
 4422SOL    HW114165   2.351   3.673   5.951
 4422SOL    HW214166   2.452   3.663   6.079
 4423SOL     OW14167   1.447   2.965   5.904
 4423SOL    HW114168   1.356   3.007   5.910
 4423SOL    HW214169   1.511   3.014   5.962
 4424SOL     OW14170   5.491   6.385   3.968
 4424SOL    HW114171   5.451   6.463   4.015
 4424SOL    HW214172   5.462   6.300   4.013
 4425SOL     OW14173   3.509   5.611   5.695
 4425SOL    HW114174   3.487   5.706   5.675
 4425SOL    HW214175   3.431   5.553   5.669
 4426SOL     OW14176   0.192   1.968   5.004
 4426SOL    HW114177   0.115   1.928   4.954
 4426SOL    HW214178   0.269   1.983   4.942
 4427SOL     OW14179   6.819   6.731   2.767
 4427SOL    HW114180   6.834   6.784   2.851
 4427SOL    HW214181   6.755   6.656   2.786
 4428SOL     OW14182   3.140   5.116   2.170
 4428SOL    HW114183   3.212   5.169   2.212
 4428SOL    HW214184   3.168   5.020   2.164
 4429SOL     OW14185   3.034   0.804   4.057
 4429SOL    HW114186   3.055   0.709   4.080
 4429SOL    HW214187   2.968   0.806   3.982
 4430SOL     OW14188   5.605   3.160   4.027
 4430SOL    HW114189   5.703   3.162   4.007
 4430SOL    HW214190   5.587   3.095   4.101
 4431SOL     OW14191   1.509   0.872   2.095
 4431SOL    HW114192   1.604   0.891   2.071
 4431SOL    HW214193   1.461   0.832   2.017
 4432SOL     OW14194   3.431   3.640   3.628
 4432SOL    HW114195   3.490   3.630   3.549
 4432SOL    HW214196   3.340   3.668   3.599
 4433SOL     OW14197   6.188   0.479   4.750
 4433SOL    HW114198   6.168   0.531   4.833
 4433SOL    HW214199   6.267   0.420   4.765
 4434SOL     OW14200   4.042   2.249   3.327
 4434SOL    HW114201   4.098   2.171   3.353
 4434SOL    HW214202   4.031   2.251   3.228
 4435SOL     OW14203   4.467   3.600   0.890
 4435SOL    HW114204   4.401   3.530   0.861
 4435SOL    HW214205   4.426   3.657   0.960
 4436SOL     OW14206   3.241   2.130   0.755
 4436SOL    HW114207   3.316   2.183   0.716
 4436SOL    HW214208   3.203   2.070   0.685
 4437SOL     OW14209   5.398   1.391   3.785
 4437SOL    HW114210   5.496   1.370   3.786
 4437SOL    HW214211   5.360   1.367   3.696
 4438SOL     OW14212   4.013   1.020   6.710
 4438SOL    HW114213   4.087   0.958   6.685
 4438SOL    HW214214   4.041   1.115   6.692
 4439SOL     OW14215   0.236   6.091   1.299
 4439SOL    HW114216   0.274   6.024   1.363
 4439SOL    HW214217   0.185   6.160   1.349
 4440SOL     OW14218   1.711   4.393   0.399
 4440SOL    HW114219   1.798   4.352   0.427
 4440SOL    HW214220   1.718   4.493   0.405
 4441SOL     OW14221   6.614   1.923   2.830
 4441SOL    HW114222   6.660   1.913   2.918
 4441SOL    HW214223   6.624   1.840   2.776
 4442SOL     OW14224   3.153   6.190   4.279
 4442SOL    HW114225   3.054   6.203   4.272
 4442SOL    HW214226   3.172   6.102   4.322
 4443SOL     OW14227   0.213   2.976   0.538
 4443SOL    HW114228   0.226   2.935   0.628
 4443SOL    HW214229   0.169   2.910   0.477
 4444SOL     OW14230   3.617   5.660   6.105
 4444SOL    HW114231   3.693   5.722   6.127
 4444SOL    HW214232   3.610   5.590   6.175
 4445SOL     OW14233   0.198   0.604   0.765
 4445SOL    HW114234   0.199   0.512   0.804
 4445SOL    HW214235   0.118   0.654   0.798
 4446SOL     OW14236   6.095   1.685   2.041
 4446SOL    HW114237   6.037   1.731   2.109
 4446SOL    HW214238   6.190   1.690   2.070
 4447SOL     OW14239   5.978   3.503   5.966
 4447SOL    HW114240   6.009   3.554   6.046
 4447SOL    HW214241   5.882   3.526   5.947
 4448SOL     OW14242   3.596   4.197   1.066
 4448SOL    HW114243   3.555   4.198   0.975
 4448SOL    HW214244   3.593   4.104   1.103
 4449SOL     OW14245   4.260   0.712   6.004
 4449SOL    HW114246   4.218   0.695   5.915
 4449SOL    HW214247   4.317   0.634   6.030
 4450SOL     OW14248   4.129   3.615   4.420
 4450SOL    HW114249   4.164   3.561   4.343
 4450SOL    HW214250   4.064   3.683   4.387
 4451SOL     OW14251   5.769   4.036   2.981
 4451SOL    HW114252   5.746   4.079   2.894
 4451SOL    HW214253   5.685   4.010   3.028
 4452SOL     OW14254   5.452   6.763   5.037
 4452SOL    HW114255   5.522   6.825   5.073
 4452SOL    HW214256   5.374   6.816   5.003
 4453SOL     OW14257   6.263   2.554   1.335
 4453SOL    HW114258   6.324   2.610   1.391
 4453SOL    HW214259   6.207   2.614   1.277
 4454SOL     OW14260   5.275   1.952   6.926
 4454SOL    HW114261   5.263   1.995   6.836
 4454SOL    HW214262   5.192   1.900   6.949
 4455SOL     OW14263   3.818   0.110   6.176
 4455SOL    HW114264   3.755   0.161   6.234
 4455SOL    HW214265   3.912   0.138   6.196
 4456SOL     OW14266   2.810   5.313   2.582
 4456SOL    HW114267   2.875   5.289   2.510
 4456SOL    HW214268   2.860   5.343   2.663
 4457SOL     OW14269   4.272   2.139   0.394
 4457SOL    HW114270   4.289   2.040   0.394
 4457SOL    HW214271   4.177   2.156   0.370
 4458SOL     OW14272   0.935   3.868   0.063
 4458SOL    HW114273   0.897   3.892   0.152
 4458SOL    HW214274   1.033   3.888   0.062
 4459SOL     OW14275   5.030   0.780   3.262
 4459SOL    HW114276   5.030   0.680   3.270
 4459SOL    HW214277   4.985   0.819   3.342
 4460SOL     OW14278   2.816   3.343   5.573
 4460SOL    HW114279   2.886   3.338   5.644
 4460SOL    HW214280   2.760   3.260   5.575
 4461SOL     OW14281   0.695   0.509   2.874
 4461SOL    HW114282   0.714   0.499   2.776
 4461SOL    HW214283   0.780   0.531   2.922
 4462SOL     OW14284   6.961   3.333   1.879
 4462SOL    HW114285   0.000   3.328   1.801
 4462SOL    HW214286   7.012   3.360   1.961
 4463SOL     OW14287   2.462   2.930   6.989
 4463SOL    HW114288   2.521   2.928   6.907
 4463SOL    HW214289   2.520   2.933   0.048
 4464SOL     OW14290   6.178   4.555   6.752
 4464SOL    HW114291   6.097   4.529   6.803
 4464SOL    HW214292   6.202   4.650   6.775
 4465SOL     OW14293   2.054   5.564   3.551
 4465SOL    HW114294   2.031   5.535   3.457
 4465SOL    HW214295   1.970   5.568   3.605
 4466SOL     OW14296   1.266   0.704   1.908
 4466SOL    HW114297   1.327   0.767   1.861
 4466SOL    HW214298   1.179   0.750   1.928
 4467SOL     OW14299   1.089   6.336   3.400
 4467SOL    HW114300   1.034   6.416   3.377
 4467SOL    HW214301   1.169   6.363   3.453
 4468SOL     OW14302   1.322   2.584   0.783
 4468SOL    HW114303   1.312   2.489   0.755
 4468SOL    HW214304   1.417   2.613   0.770
 4469SOL     OW14305   3.647   0.402   1.586
 4469SOL    HW114306   3.690   0.354   1.510
 4469SOL    HW214307   3.640   0.340   1.665
 4470SOL     OW14308   6.272   3.802   1.965
 4470SOL    HW114309   6.228   3.712   1.977
 4470SOL    HW214310   6.259   3.833   1.871
 4471SOL     OW14311   7.018   1.464   0.272
 4471SOL    HW114312   7.014   1.527   0.195
 4471SOL    HW214313   6.936   1.474   0.328
 4472SOL     OW14314   1.877   3.234   3.564
 4472SOL    HW114315   1.830   3.159   3.518
 4472SOL    HW214316   1.954   3.197   3.617
 4473SOL     OW14317   6.533   1.801   3.259
 4473SOL    HW114318   6.567   1.895   3.260
 4473SOL    HW214319   6.448   1.797   3.207
 4474SOL     OW14320   3.625   0.903   1.924
 4474SOL    HW114321   3.585   0.812   1.928
 4474SOL    HW214322   3.724   0.896   1.938
 4475SOL     OW14323   1.658   3.716   2.611
 4475SOL    HW114324   1.647   3.732   2.513
 4475SOL    HW214325   1.745   3.753   2.641
 4476SOL     OW14326   4.999   6.531   3.825
 4476SOL    HW114327   5.098   6.532   3.809
 4476SOL    HW214328   4.952   6.503   3.742
 4477SOL     OW14329   1.501   0.218   5.490
 4477SOL    HW114330   1.573   0.200   5.423
 4477SOL    HW214331   1.541   0.261   5.571
 4478SOL     OW14332   2.963   5.877   2.298
 4478SOL    HW114333   2.870   5.905   2.271
 4478SOL    HW214334   2.958   5.797   2.357
 4479SOL     OW14335   0.530   0.526   1.218
 4479SOL    HW114336   0.496   0.617   1.193
 4479SOL    HW214337   0.622   0.534   1.256
 4480SOL     OW14338   1.569   3.779   5.434
 4480SOL    HW114339   1.660   3.800   5.470
 4480SOL    HW214340   1.561   3.814   5.340
 4481SOL     OW14341   2.538   6.971   5.065
 4481SOL    HW114342   2.447   7.003   5.038
 4481SOL    HW214343   2.587   6.941   4.983
 4482SOL     OW14344   0.357   3.947   4.176
 4482SOL    HW114345   0.416   3.986   4.247
 4482SOL    HW214346   0.286   4.014   4.151
 4483SOL     OW14347   5.599   3.448   1.595
 4483SOL    HW114348   5.680   3.492   1.557
 4483SOL    HW214349   5.521   3.464   1.536
 4484SOL     OW14350   3.058   2.522   5.390
 4484SOL    HW114351   3.004   2.607   5.394
 4484SOL    HW214352   3.043   2.477   5.302
 4485SOL     OW14353   5.440   2.209   5.969
 4485SOL    HW114354   5.465   2.303   5.994
 4485SOL    HW214355   5.490   2.183   5.887
 4486SOL     OW14356   5.363   3.617   4.655
 4486SOL    HW114357   5.369   3.546   4.585
 4486SOL    HW214358   5.314   3.581   4.734
 4487SOL     OW14359   2.528   3.126   6.475
 4487SOL    HW114360   2.449   3.188   6.479
 4487SOL    HW214361   2.556   3.114   6.380
 4488SOL     OW14362   6.071   3.328   5.051
 4488SOL    HW114363   6.102   3.234   5.056
 4488SOL    HW214364   6.058   3.365   5.143
 4489SOL     OW14365   5.322   5.713   4.513
 4489SOL    HW114366   5.265   5.632   4.528
 4489SOL    HW214367   5.390   5.694   4.443
 4490SOL     OW14368   6.265   2.409   2.287
 4490SOL    HW114369   6.315   2.349   2.349
 4490SOL    HW214370   6.328   2.442   2.216
 4491SOL     OW14371   0.296   2.891   4.181
 4491SOL    HW114372   0.309   2.984   4.145
 4491SOL    HW214373   0.206   2.884   4.223
 4492SOL     OW14374   5.184   3.176   0.790
 4492SOL    HW114375   5.168   3.173   0.889
 4492SOL    HW214376   5.098   3.166   0.741
 4493SOL     OW14377   4.956   5.834   5.690
 4493SOL    HW114378   4.905   5.792   5.615
 4493SOL    HW214379   4.902   5.908   5.730
 4494SOL     OW14380   6.569   1.643   5.717
 4494SOL    HW114381   6.629   1.626   5.796
 4494SOL    HW214382   6.475   1.619   5.740
 4495SOL     OW14383   4.753   6.006   3.981
 4495SOL    HW114384   4.837   5.964   3.946
 4495SOL    HW214385   4.774   6.097   4.017
 4496SOL     OW14386   4.290   5.960   1.094
 4496SOL    HW114387   4.355   5.981   1.020
 4496SOL    HW214388   4.217   6.028   1.093
 4497SOL     OW14389   4.994   0.247   6.720
 4497SOL    HW114390   5.064   0.250   6.649
 4497SOL    HW214391   4.933   0.169   6.704
 4498SOL     OW14392   0.368   2.933   6.431
 4498SOL    HW114393   0.297   2.904   6.366
 4498SOL    HW214394   0.431   2.857   6.448
 4499SOL     OW14395   0.290   3.575   3.768
 4499SOL    HW114396   0.271   3.526   3.853
 4499SOL    HW214397   0.366   3.532   3.720
 4500SOL     OW14398   3.015   3.464   4.306
 4500SOL    HW114399   2.958   3.546   4.301
 4500SOL    HW214400   3.111   3.490   4.298
 4501SOL     OW14401   0.188   3.039   5.835
 4501SOL    HW114402   0.155   3.002   5.749
 4501SOL    HW214403   0.263   2.983   5.869
 4502SOL     OW14404   1.751   1.983   0.065
 4502SOL    HW114405   1.738   2.009   6.992
 4502SOL    HW214406   1.695   1.902   0.085
 4503SOL     OW14407   3.434   0.373   2.379
 4503SOL    HW114408   3.362   0.407   2.439
 4503SOL    HW214409   3.394   0.338   2.294
 4504SOL     OW14410   6.709   1.490   4.745
 4504SOL    HW114411   6.674   1.419   4.684
 4504SOL    HW214412   6.808   1.499   4.732
 4505SOL     OW14413   6.497   5.681   3.017
 4505SOL    HW114414   6.593   5.707   3.006
 4505SOL    HW214415   6.446   5.758   3.054
 4506SOL     OW14416   4.424   2.342   4.137
 4506SOL    HW114417   4.375   2.359   4.223
 4506SOL    HW214418   4.433   2.427   4.086
 4507SOL     OW14419   5.412   4.946   2.116
 4507SOL    HW114420   5.358   4.917   2.194
 4507SOL    HW214421   5.506   4.963   2.145
 4508SOL     OW14422   0.526   5.180   5.957
 4508SOL    HW114423   0.565   5.269   5.932
 4508SOL    HW214424   0.551   5.113   5.887
 4509SOL     OW14425   5.483   2.376   3.752
 4509SOL    HW114426   5.403   2.436   3.750
 4509SOL    HW214427   5.515   2.367   3.846
 4510SOL     OW14428   4.749   0.466   5.541
 4510SOL    HW114429   4.667   0.467   5.598
 4510SOL    HW214430   4.828   0.442   5.598
 4511SOL     OW14431   6.669   3.660   6.585
 4511SOL    HW114432   6.740   3.645   6.654
 4511SOL    HW214433   6.585   3.690   6.629
 4512SOL     OW14434   2.498   6.834   5.624
 4512SOL    HW114435   2.437   6.765   5.663
 4512SOL    HW214436   2.473   6.849   5.528
 4513SOL     OW14437   5.224   6.844   0.565
 4513SOL    HW114438   5.182   6.769   0.512
 4513SOL    HW214439   5.193   6.931   0.529
 4514SOL     OW14440   4.903   1.145   5.357
 4514SOL    HW114441   4.955   1.061   5.344
 4514SOL    HW214442   4.928   1.186   5.445
 4515SOL     OW14443   6.811   3.681   5.498
 4515SOL    HW114444   6.858   3.644   5.578
 4515SOL    HW214445   6.790   3.778   5.515
 4516SOL     OW14446   1.673   0.932   6.054
 4516SOL    HW114447   1.648   1.019   6.011
 4516SOL    HW214448   1.754   0.945   6.111
 4517SOL     OW14449   1.825   0.279   7.012
 4517SOL    HW114450   1.778   0.305   0.074
 4517SOL    HW214451   1.828   0.357   6.950
 4518SOL     OW14452   6.505   1.253   3.659
 4518SOL    HW114453   6.442   1.176   3.674
 4518SOL    HW214454   6.476   1.304   3.578
 4519SOL     OW14455   5.493   0.255   1.944
 4519SOL    HW114456   5.514   0.163   1.975
 4519SOL    HW214457   5.529   0.321   2.010
 4520SOL     OW14458   5.459   5.687   3.349
 4520SOL    HW114459   5.424   5.640   3.267
 4520SOL    HW214460   5.436   5.633   3.430
 4521SOL     OW14461   5.200   1.956   4.202
 4521SOL    HW114462   5.210   2.027   4.271
 4521SOL    HW214463   5.120   1.976   4.145
 4522SOL     OW14464   5.938   6.663   3.749
 4522SOL    HW114465   5.937   6.724   3.669
 4522SOL    HW214466   5.985   6.578   3.725
 4523SOL     OW14467   0.936   4.293   6.993
 4523SOL    HW114468   0.898   4.214   0.019
 4523SOL    HW214469   0.936   4.373   0.030
 4524SOL     OW14470   5.214   2.232   4.539
 4524SOL    HW114471   5.263   2.167   4.481
 4524SOL    HW214472   5.121   2.199   4.556
 4525SOL     OW14473   6.182   1.069   3.120
 4525SOL    HW114474   6.257   1.025   3.170
 4525SOL    HW214475   6.191   1.049   3.022
 4526SOL     OW14476   4.879   0.600   1.051
 4526SOL    HW114477   4.870   0.520   0.992
 4526SOL    HW214478   4.832   0.678   1.009
 4527SOL     OW14479   4.312   0.925   4.056
 4527SOL    HW114480   4.293   0.952   4.150
 4527SOL    HW214481   4.401   0.962   4.028
 4528SOL     OW14482   4.636   6.697   6.988
 4528SOL    HW114483   4.687   6.737   6.912
 4528SOL    HW214484   4.588   6.769   0.016
 4529SOL     OW14485   3.307   1.726   4.526
 4529SOL    HW114486   3.310   1.627   4.512
 4529SOL    HW214487   3.245   1.747   4.601
 4530SOL     OW14488   6.997   3.443   5.624
 4530SOL    HW114489   0.009   3.536   5.613
 4530SOL    HW214490   6.951   3.414   5.540
 4531SOL     OW14491   0.565   3.231   3.492
 4531SOL    HW114492   0.490   3.288   3.527
 4531SOL    HW214493   0.623   3.203   3.568
 4532SOL     OW14494   7.011   1.221   2.788
 4532SOL    HW114495   7.019   1.152   2.716
 4532SOL    HW214496   6.929   1.276   2.773
 4533SOL     OW14497   1.054   0.247   2.353
 4533SOL    HW114498   0.993   0.312   2.398
 4533SOL    HW214499   1.068   0.168   2.412
 4534SOL     OW14500   5.935   4.108   4.682
 4534SOL    HW114501   5.964   4.181   4.743
 4534SOL    HW214502   5.909   4.148   4.593
 4535SOL     OW14503   4.971   1.831   2.545
 4535SOL    HW114504   5.036   1.846   2.620
 4535SOL    HW214505   4.879   1.851   2.576
 4536SOL     OW14506   4.622   2.092   3.899
 4536SOL    HW114507   4.648   2.120   3.991
 4536SOL    HW214508   4.700   2.105   3.837
 4537SOL     OW14509   4.074   3.176   5.890
 4537SOL    HW114510   4.154   3.211   5.940
 4537SOL    HW214511   4.094   3.171   5.793
 4538SOL     OW14512   2.680   0.680   4.411
 4538SOL    HW114513   2.714   0.770   4.438
 4538SOL    HW214514   2.751   0.631   4.360
 4539SOL     OW14515   2.046   0.613   4.174
 4539SOL    HW114516   2.079   0.556   4.250
 4539SOL    HW214517   2.070   0.570   4.087
 4540SOL     OW14518   3.241   2.978   4.632
 4540SOL    HW114519   3.160   3.031   4.657
 4540SOL    HW214520   3.296   2.962   4.714
 4541SOL     OW14521   5.696   1.161   0.486
 4541SOL    HW114522   5.704   1.181   0.389
 4541SOL    HW214523   5.606   1.189   0.519
 4542SOL     OW14524   6.435   0.040   2.003
 4542SOL    HW114525   6.418   6.968   2.033
 4542SOL    HW214526   6.385   0.057   1.919
 4543SOL     OW14527   5.227   1.947   0.697
 4543SOL    HW114528   5.132   1.950   0.728
 4543SOL    HW214529   5.277   1.876   0.747
 4544SOL     OW14530   3.052   6.670   5.549
 4544SOL    HW114531   3.104   6.646   5.467
 4544SOL    HW214532   2.997   6.752   5.531
 4545SOL     OW14533   5.975   2.611   4.619
 4545SOL    HW114534   6.007   2.660   4.538
 4545SOL    HW214535   5.988   2.667   4.700
 4546SOL     OW14536   1.403   1.308   6.370
 4546SOL    HW114537   1.306   1.323   6.353
 4546SOL    HW214538   1.417   1.215   6.406
 4547SOL     OW14539   6.741   2.688   3.235
 4547SOL    HW114540   6.666   2.696   3.301
 4547SOL    HW214541   6.716   2.734   3.150
 4548SOL     OW14542   1.409   4.215   4.872
 4548SOL    HW114543   1.460   4.182   4.792
 4548SOL    HW214544   1.426   4.155   4.950
 4549SOL     OW14545   5.806   3.980   2.274
 4549SOL    HW114546   5.833   3.913   2.343
 4549SOL    HW214547   5.809   3.936   2.184
 4550SOL     OW14548   0.666   5.807   2.731
 4550SOL    HW114549   0.721   5.797   2.648
 4550SOL    HW214550   0.691   5.891   2.778
 4551SOL     OW14551   6.286   1.789   5.920
 4551SOL    HW114552   6.318   1.850   5.992
 4551SOL    HW214553   6.287   1.694   5.953
 4552SOL     OW14554   6.601   2.821   0.455
 4552SOL    HW114555   6.574   2.796   0.548
 4552SOL    HW214556   6.686   2.874   0.458
 4553SOL     OW14557   3.918   4.239   0.069
 4553SOL    HW114558   3.861   4.217   7.012
 4553SOL    HW214559   3.979   4.162   0.089
 4554SOL     OW14560   4.469   0.920   1.731
 4554SOL    HW114561   4.507   0.970   1.808
 4554SOL    HW214562   4.421   0.983   1.670
 4555SOL     OW14563   3.433   1.780   5.579
 4555SOL    HW114564   3.425   1.880   5.582
 4555SOL    HW214565   3.366   1.740   5.642
 4556SOL     OW14566   4.654   2.438   3.631
 4556SOL    HW114567   4.633   2.467   3.538
 4556SOL    HW214568   4.704   2.352   3.630
 4557SOL     OW14569   5.373   0.132   5.208
 4557SOL    HW114570   5.322   0.215   5.232
 4557SOL    HW214571   5.458   0.128   5.261
 4558SOL     OW14572   6.591   3.545   5.614
 4558SOL    HW114573   6.649   3.540   5.695
 4558SOL    HW214574   6.639   3.597   5.543
 4559SOL     OW14575   0.376   4.599   1.405
 4559SOL    HW114576   0.451   4.553   1.358
 4559SOL    HW214577   0.345   4.543   1.482
 4560SOL     OW14578   4.617   4.647   3.785
 4560SOL    HW114579   4.543   4.690   3.733
 4560SOL    HW214580   4.676   4.718   3.824
 4561SOL     OW14581   2.977   0.476   1.129
 4561SOL    HW114582   3.028   0.561   1.137
 4561SOL    HW214583   3.038   0.399   1.148
 4562SOL     OW14584   3.262   6.078   5.479
 4562SOL    HW114585   3.209   6.071   5.563
 4562SOL    HW214586   3.337   6.012   5.480
 4563SOL     OW14587   0.340   4.150   0.218
 4563SOL    HW114588   0.249   4.109   0.209
 4563SOL    HW214589   0.371   4.143   0.313
 4564SOL     OW14590   0.330   6.690   0.966
 4564SOL    HW114591   0.238   6.673   0.932
 4564SOL    HW214592   0.397   6.644   0.908
 4565SOL     OW14593   0.499   1.461   5.463
 4565SOL    HW114594   0.446   1.408   5.529
 4565SOL    HW214595   0.454   1.459   5.374
 4566SOL     OW14596   0.020   1.295   0.831
 4566SOL    HW114597   0.098   1.356   0.844
 4566SOL    HW214598   7.015   1.256   0.919
 4567SOL     OW14599   0.239   1.088   6.977
 4567SOL    HW114600   0.224   1.018   6.906
 4567SOL    HW214601   0.151   1.119   7.012
 4568SOL     OW14602   0.812   4.916   4.983
 4568SOL    HW114603   0.893   4.860   4.965
 4568SOL    HW214604   0.821   4.959   5.073
 4569SOL     OW14605   1.966   1.162   3.056
 4569SOL    HW114606   1.905   1.114   3.119
 4569SOL    HW214607   2.036   1.211   3.108
 4570SOL     OW14608   0.566   5.078   3.011
 4570SOL    HW114609   0.513   4.996   3.031
 4570SOL    HW214610   0.512   5.159   3.035
 4571SOL     OW14611   3.538   3.666   5.803
 4571SOL    HW114612   3.455   3.710   5.770
 4571SOL    HW214613   3.516   3.576   5.840
 4572SOL     OW14614   1.002   6.875   6.672
 4572SOL    HW114615   1.097   6.852   6.651
 4572SOL    HW214616   0.951   6.886   6.586
 4573SOL     OW14617   6.358   6.272   0.427
 4573SOL    HW114618   6.359   6.357   0.374
 4573SOL    HW214619   6.338   6.293   0.523
 4574SOL     OW14620   6.498   3.878   1.196
 4574SOL    HW114621   6.502   3.794   1.249
 4574SOL    HW214622   6.578   3.884   1.136
 4575SOL     OW14623   6.735   2.047   6.849
 4575SOL    HW114624   6.691   2.129   6.887
 4575SOL    HW214625   6.690   2.022   6.764
 4576SOL     OW14626   2.075   6.355   6.487
 4576SOL    HW114627   2.019   6.339   6.567
 4576SOL    HW214628   2.081   6.272   6.432
 4577SOL     OW14629   1.071   2.195   4.085
 4577SOL    HW114630   1.057   2.189   3.987
 4577SOL    HW214631   1.169   2.185   4.106
 4578SOL     OW14632   0.694   2.830   4.302
 4578SOL    HW114633   0.723   2.903   4.240
 4578SOL    HW214634   0.640   2.763   4.252
 4579SOL     OW14635   5.458   2.098   2.699
 4579SOL    HW114636   5.554   2.121   2.684
 4579SOL    HW214637   5.443   2.001   2.676
 4580SOL     OW14638   5.252   5.634   0.117
 4580SOL    HW114639   5.254   5.559   0.184
 4580SOL    HW214640   5.183   5.701   0.145
 4581SOL     OW14641   3.223   5.714   3.191
 4581SOL    HW114642   3.246   5.779   3.119
 4581SOL    HW214643   3.246   5.621   3.161
 4582SOL     OW14644   5.481   5.990   4.644
 4582SOL    HW114645   5.503   5.933   4.723
 4582SOL    HW214646   5.392   5.962   4.607
 4583SOL     OW14647   2.808   0.888   4.780
 4583SOL    HW114648   2.813   0.788   4.776
 4583SOL    HW214649   2.869   0.928   4.712
 4584SOL     OW14650   0.176   5.132   5.442
 4584SOL    HW114651   0.161   5.084   5.528
 4584SOL    HW214652   0.215   5.070   5.375
 4585SOL     OW14653   3.426   6.182   2.793
 4585SOL    HW114654   3.525   6.172   2.787
 4585SOL    HW214655   3.404   6.279   2.805
 4586SOL     OW14656   3.787   5.169   0.483
 4586SOL    HW114657   3.698   5.151   0.442
 4586SOL    HW214658   3.847   5.090   0.468
 4587SOL     OW14659   3.884   3.495   2.024
 4587SOL    HW114660   3.868   3.583   2.067
 4587SOL    HW214661   3.903   3.426   2.095
 4588SOL     OW14662   3.904   3.987   5.867
 4588SOL    HW114663   3.868   3.894   5.866
 4588SOL    HW214664   3.936   4.009   5.959
 4589SOL     OW14665   5.958   0.839   1.668
 4589SOL    HW114666   6.052   0.858   1.641
 4589SOL    HW214667   5.926   0.912   1.729
 4590SOL     OW14668   4.837   5.823   1.739
 4590SOL    HW114669   4.791   5.829   1.650
 4590SOL    HW214670   4.769   5.806   1.811
 4591SOL     OW14671   0.478   5.985   5.321
 4591SOL    HW114672   0.568   5.991   5.278
 4591SOL    HW214673   0.424   6.065   5.294
 4592SOL     OW14674   4.069   2.177   2.204
 4592SOL    HW114675   4.138   2.247   2.225
 4592SOL    HW214676   4.094   2.091   2.247
 4593SOL     OW14677   3.775   5.776   4.331
 4593SOL    HW114678   3.679   5.791   4.356
 4593SOL    HW214679   3.789   5.803   4.236
 4594SOL     OW14680   3.145   1.940   1.532
 4594SOL    HW114681   3.057   1.958   1.490
 4594SOL    HW214682   3.191   1.866   1.484
 4595SOL     OW14683   3.793   2.689   5.831
 4595SOL    HW114684   3.760   2.781   5.851
 4595SOL    HW214685   3.764   2.627   5.905
 4596SOL     OW14686   5.993   6.533   2.465
 4596SOL    HW114687   5.912   6.535   2.406
 4596SOL    HW214688   5.964   6.522   2.560
 4597SOL     OW14689   5.229   4.731   7.012
 4597SOL    HW114690   5.309   4.757   6.957
 4597SOL    HW214691   5.258   4.668   0.061
 4598SOL     OW14692   2.088   5.398   6.983
 4598SOL    HW114693   2.037   5.377   0.045
 4598SOL    HW214694   2.108   5.313   6.935
 4599SOL     OW14695   1.410   4.582   0.905
 4599SOL    HW114696   1.355   4.650   0.857
 4599SOL    HW214697   1.441   4.619   0.993
 4600SOL     OW14698   1.358   5.152   5.272
 4600SOL    HW114699   1.403   5.085   5.213
 4600SOL    HW214700   1.269   5.177   5.233
 4601SOL     OW14701   1.690   0.121   5.251
 4601SOL    HW114702   1.629   0.139   5.174
 4601SOL    HW214703   1.697   0.022   5.265
 4602SOL     OW14704   0.959   5.944   1.110
 4602SOL    HW114705   0.875   5.965   1.161
 4602SOL    HW214706   1.038   5.968   1.165
 4603SOL     OW14707   3.578   6.445   1.592
 4603SOL    HW114708   3.569   6.526   1.533
 4603SOL    HW214709   3.602   6.366   1.536
 4604SOL     OW14710   4.539   0.654   2.246
 4604SOL    HW114711   4.458   0.595   2.245
 4604SOL    HW214712   4.619   0.600   2.275
 4605SOL     OW14713   4.528   1.081   3.266
 4605SOL    HW114714   4.612   1.065   3.215
 4605SOL    HW214715   4.484   1.165   3.233
 4606SOL     OW14716   0.902   6.734   1.296
 4606SOL    HW114717   0.991   6.741   1.341
 4606SOL    HW214718   0.897   6.650   1.243
 4607SOL     OW14719   2.653   2.746   1.023
 4607SOL    HW114720   2.670   2.648   1.012
 4607SOL    HW214721   2.563   2.768   0.986
 4608SOL     OW14722   0.878   5.327   3.609
 4608SOL    HW114723   0.858   5.247   3.666
 4608SOL    HW214724   0.831   5.317   3.521
 4609SOL     OW14725   3.925   5.497   6.111
 4609SOL    HW114726   4.010   5.454   6.081
 4609SOL    HW214727   3.931   5.596   6.099
 4610SOL     OW14728   5.621   1.979   0.518
 4610SOL    HW114729   5.546   2.019   0.571
 4610SOL    HW214730   5.699   1.961   0.578
 4611SOL     OW14731   6.176   6.050   5.894
 4611SOL    HW114732   6.121   6.098   5.826
 4611SOL    HW214733   6.174   5.952   5.876
 4612SOL     OW14734   0.970   6.168   0.255
 4612SOL    HW114735   1.026   6.219   0.321
 4612SOL    HW214736   0.943   6.081   0.295
 4613SOL     OW14737   2.871   5.680   2.487
 4613SOL    HW114738   2.895   5.605   2.425
 4613SOL    HW214739   2.895   5.656   2.581
 4614SOL     OW14740   0.790   4.340   4.897
 4614SOL    HW114741   0.878   4.329   4.943
 4614SOL    HW214742   0.767   4.437   4.893
 4615SOL     OW14743   1.864   0.784   0.560
 4615SOL    HW114744   1.842   0.796   0.464
 4615SOL    HW214745   1.902   0.869   0.597
 4616SOL     OW14746   5.423   0.459   5.698
 4616SOL    HW114747   5.395   0.388   5.632
 4616SOL    HW214748   5.453   0.540   5.649
 4617SOL     OW14749   1.179   2.182   2.297
 4617SOL    HW114750   1.143   2.176   2.204
 4617SOL    HW214751   1.195   2.278   2.320
 4618SOL     OW14752   1.980   2.262   5.203
 4618SOL    HW114753   1.998   2.322   5.280
 4618SOL    HW214754   1.991   2.313   5.118
 4619SOL     OW14755   4.134   6.321   3.067
 4619SOL    HW114756   4.107   6.362   2.980
 4619SOL    HW214757   4.232   6.304   3.067
 4620SOL     OW14758   3.218   4.209   0.512
 4620SOL    HW114759   3.254   4.301   0.531
 4620SOL    HW214760   3.170   4.210   0.424
 4621SOL     OW14761   5.360   1.793   3.078
 4621SOL    HW114762   5.390   1.887   3.095
 4621SOL    HW214763   5.419   1.752   3.008
 4622SOL     OW14764   1.510   3.836   0.060
 4622SOL    HW114765   1.422   3.840   0.108
 4622SOL    HW214766   1.545   3.742   0.062
 4623SOL     OW14767   6.796   6.529   0.844
 4623SOL    HW114768   6.833   6.467   0.774
 4623SOL    HW214769   6.844   6.512   0.931
 4624SOL     OW14770   5.558   6.965   3.303
 4624SOL    HW114771   5.560   6.956   3.403
 4624SOL    HW214772   5.478   6.917   3.267
 4625SOL     OW14773   1.452   4.755   0.079
 4625SOL    HW114774   1.520   4.815   0.037
 4625SOL    HW214775   1.369   4.807   0.096
 4626SOL     OW14776   5.533   5.756   2.350
 4626SOL    HW114777   5.579   5.696   2.284
 4626SOL    HW214778   5.476   5.700   2.411
 4627SOL     OW14779   3.196   5.447   3.831
 4627SOL    HW114780   3.286   5.463   3.790
 4627SOL    HW214781   3.125   5.458   3.762
 4628SOL     OW14782   5.882   3.664   3.884
 4628SOL    HW114783   5.893   3.759   3.856
 4628SOL    HW214784   5.844   3.610   3.809
 4629SOL     OW14785   2.237   5.221   4.775
 4629SOL    HW114786   2.146   5.234   4.736
 4629SOL    HW214787   2.264   5.125   4.765
 4630SOL     OW14788   3.973   5.703   2.695
 4630SOL    HW114789   3.876   5.727   2.691
 4630SOL    HW214790   3.997   5.647   2.616
 4631SOL     OW14791   2.252   6.148   3.739
 4631SOL    HW114792   2.344   6.135   3.700
 4631SOL    HW214793   2.213   6.233   3.702
 4632SOL     OW14794   4.257   5.194   3.145
 4632SOL    HW114795   4.196   5.206   3.066
 4632SOL    HW214796   4.253   5.098   3.175
 4633SOL     OW14797   6.315   1.712   3.638
 4633SOL    HW114798   6.357   1.799   3.662
 4633SOL    HW214799   6.224   1.706   3.679
 4634SOL     OW14800   1.883   4.348   6.871
 4634SOL    HW114801   1.900   4.411   6.795
 4634SOL    HW214802   1.860   4.400   6.953
 4635SOL     OW14803   5.388   3.742   1.953
 4635SOL    HW114804   5.336   3.827   1.963
 4635SOL    HW214805   5.462   3.755   1.887
 4636SOL     OW14806   1.886   5.340   0.122
 4636SOL    HW114807   1.908   5.246   0.148
 4636SOL    HW214808   1.821   5.378   0.188
 4637SOL     OW14809   1.148   0.517   0.046
 4637SOL    HW114810   1.146   0.600   7.012
 4637SOL    HW214811   1.228   0.520   0.106
 4638SOL     OW14812   4.201   2.710   6.969
 4638SOL    HW114813   4.187   2.719   0.045
 4638SOL    HW214814   4.114   2.724   6.921
 4639SOL     OW14815   1.847   4.503   5.115
 4639SOL    HW114816   1.788   4.476   5.039
 4639SOL    HW214817   1.940   4.519   5.081
 4640SOL     OW14818   4.917   4.952   4.053
 4640SOL    HW114819   4.849   4.910   3.992
 4640SOL    HW214820   4.872   4.986   4.135
 4641SOL     OW14821   2.905   6.468   4.354
 4641SOL    HW114822   2.821   6.499   4.309
 4641SOL    HW214823   2.955   6.406   4.293
 4642SOL     OW14824   0.651   6.467   5.045
 4642SOL    HW114825   0.657   6.393   5.113
 4642SOL    HW214826   0.690   6.550   5.083
 4643SOL     OW14827   5.328   2.776   1.204
 4643SOL    HW114828   5.244   2.763   1.257
 4643SOL    HW214829   5.389   2.699   1.219
 4644SOL     OW14830   1.256   4.863   4.722
 4644SOL    HW114831   1.258   4.941   4.785
 4644SOL    HW214832   1.341   4.862   4.668
 4645SOL     OW14833   1.280   0.837   3.958
 4645SOL    HW114834   1.293   0.738   3.962
 4645SOL    HW214835   1.319   0.880   4.039
 4646SOL     OW14836   2.840   6.479   3.472
 4646SOL    HW114837   2.769   6.416   3.442
 4646SOL    HW214838   2.822   6.570   3.434
 4647SOL     OW14839   1.566   0.011   3.555
 4647SOL    HW114840   1.628   6.956   3.555
 4647SOL    HW214841   1.583   0.068   3.635
 4648SOL     OW14842   3.907   0.807   1.694
 4648SOL    HW114843   3.867   0.737   1.752
 4648SOL    HW214844   3.835   0.866   1.657
 4649SOL     OW14845   5.032   6.780   5.909
 4649SOL    HW114846   5.106   6.782   5.975
 4649SOL    HW214847   5.067   6.753   5.819
 4650SOL     OW14848   4.508   5.937   3.934
 4650SOL    HW114849   4.600   5.956   3.968
 4650SOL    HW214850   4.509   5.850   3.884
 4651SOL     OW14851   0.256   1.448   0.851
 4651SOL    HW114852   0.329   1.391   0.813
 4651SOL    HW214853   0.292   1.539   0.872
 4652SOL     OW14854   0.307   0.140   4.584
 4652SOL    HW114855   0.235   0.073   4.568
 4652SOL    HW214856   0.284   0.225   4.537
 4653SOL     OW14857   6.315   5.419   6.693
 4653SOL    HW114858   6.318   5.319   6.699
 4653SOL    HW214859   6.223   5.451   6.712
 4654SOL     OW14860   0.245   6.701   0.306
 4654SOL    HW114861   0.339   6.672   0.321
 4654SOL    HW214862   0.234   6.729   0.211
 4655SOL     OW14863   6.538   5.490   1.709
 4655SOL    HW114864   6.581   5.414   1.757
 4655SOL    HW214865   6.478   5.539   1.772
 4656SOL     OW14866   1.141   0.527   3.427
 4656SOL    HW114867   1.102   0.437   3.412
 4656SOL    HW214868   1.174   0.534   3.521
 4657SOL     OW14869   4.667   6.544   1.474
 4657SOL    HW114870   4.635   6.529   1.380
 4657SOL    HW214871   4.591   6.577   1.530
 4658SOL     OW14872   3.917   1.638   2.201
 4658SOL    HW114873   3.876   1.729   2.214
 4658SOL    HW214874   3.993   1.626   2.265
 4659SOL     OW14875   2.631   4.194   5.693
 4659SOL    HW114876   2.653   4.280   5.740
 4659SOL    HW214877   2.657   4.203   5.596
 4660SOL     OW14878   1.386   3.273   5.782
 4660SOL    HW114879   1.462   3.221   5.745
 4660SOL    HW214880   1.391   3.368   5.749
 4661SOL     OW14881   3.856   3.797   5.605
 4661SOL    HW114882   3.811   3.875   5.562
 4661SOL    HW214883   3.819   3.784   5.697
 4662SOL     OW14884   4.351   0.537   5.154
 4662SOL    HW114885   4.278   0.604   5.143
 4662SOL    HW214886   4.383   0.537   5.248
 4663SOL     OW14887   1.045   1.846   2.658
 4663SOL    HW114888   0.958   1.797   2.650
 4663SOL    HW214889   1.114   1.785   2.698
 4664SOL     OW14890   2.311   1.839   0.296
 4664SOL    HW114891   2.237   1.773   0.300
 4664SOL    HW214892   2.291   1.907   0.226
 4665SOL     OW14893   4.410   0.385   0.539
 4665SOL    HW114894   4.406   0.476   0.580
 4665SOL    HW214895   4.420   0.317   0.611
 4666SOL     OW14896   1.432   1.948   0.671
 4666SOL    HW114897   1.440   1.939   0.572
 4666SOL    HW214898   1.371   1.877   0.707
 4667SOL     OW14899   6.385   4.385   1.429
 4667SOL    HW114900   6.427   4.313   1.373
 4667SOL    HW214901   6.452   4.457   1.446
 4668SOL     OW14902   5.959   2.717   2.968
 4668SOL    HW114903   5.912   2.779   2.906
 4668SOL    HW214904   6.006   2.769   3.039
 4669SOL     OW14905   3.252   6.878   0.168
 4669SOL    HW114906   3.194   6.818   0.222
 4669SOL    HW214907   3.265   6.840   0.076
 4670SOL     OW14908   3.010   1.999   5.045
 4670SOL    HW114909   3.038   2.092   5.020
 4670SOL    HW214910   2.912   1.988   5.029
 4671SOL     OW14911   6.815   2.769   2.295
 4671SOL    HW114912   6.835   2.830   2.219
 4671SOL    HW214913   6.716   2.756   2.303
 4672SOL     OW14914   2.586   4.747   6.158
 4672SOL    HW114915   2.675   4.744   6.202
 4672SOL    HW214916   2.522   4.690   6.210
 4673SOL     OW14917   4.846   6.265   1.246
 4673SOL    HW114918   4.792   6.303   1.172
 4673SOL    HW214919   4.935   6.234   1.211
 4674SOL     OW14920   4.923   6.967   6.984
 4674SOL    HW114921   4.946   6.887   0.018
 4674SOL    HW214922   5.007   7.008   6.947
 4675SOL     OW14923   0.530   2.855   6.782
 4675SOL    HW114924   0.545   2.941   6.734
 4675SOL    HW214925   0.605   2.838   6.846
 4676SOL     OW14926   6.734   5.523   3.762
 4676SOL    HW114927   6.813   5.495   3.707
 4676SOL    HW214928   6.653   5.471   3.734
 4677SOL     OW14929   3.120   1.798   0.639
 4677SOL    HW114930   3.137   1.785   0.737
 4677SOL    HW214931   3.116   1.895   0.619
 4678SOL     OW14932   1.893   4.442   3.133
 4678SOL    HW114933   1.811   4.394   3.163
 4678SOL    HW214934   1.969   4.419   3.193
 4679SOL     OW14935   4.168   6.951   1.575
 4679SOL    HW114936   4.189   6.885   1.646
 4679SOL    HW214937   4.133   0.013   1.617
 4680SOL     OW14938   3.658   1.026   6.342
 4680SOL    HW114939   3.602   0.946   6.366
 4680SOL    HW214940   3.695   1.014   6.250
 4681SOL     OW14941   5.423   4.924   0.268
 4681SOL    HW114942   5.518   4.953   0.261
 4681SOL    HW214943   5.366   4.981   0.209
 4682SOL     OW14944   4.494   4.875   5.895
 4682SOL    HW114945   4.510   4.868   5.796
 4682SOL    HW214946   4.493   4.971   5.922
 4683SOL     OW14947   5.355   5.712   2.780
 4683SOL    HW114948   5.443   5.668   2.763
 4683SOL    HW214949   5.297   5.702   2.699
 4684SOL     OW14950   4.737   0.216   5.680
 4684SOL    HW114951   4.759   0.140   5.619
 4684SOL    HW214952   4.661   0.268   5.642
 4685SOL     OW14953   1.916   4.524   6.655
 4685SOL    HW114954   1.887   4.606   6.706
 4685SOL    HW214955   2.010   4.535   6.623
 4686SOL     OW14956   4.101   5.993   6.861
 4686SOL    HW114957   4.192   6.009   6.821
 4686SOL    HW214958   4.052   5.926   6.806
 4687SOL     OW14959   4.886   3.146   3.759
 4687SOL    HW114960   4.864   3.089   3.680
 4687SOL    HW214961   4.879   3.091   3.843
 4688SOL     OW14962   5.736   3.124   5.261
 4688SOL    HW114963   5.714   3.142   5.357
 4688SOL    HW214964   5.737   3.210   5.210
 4689SOL     OW14965   5.183   0.520   0.506
 4689SOL    HW114966   5.195   0.503   0.603
 4689SOL    HW214967   5.193   0.435   0.455
 4690SOL     OW14968   1.736   0.429   0.827
 4690SOL    HW114969   1.829   0.394   0.814
 4690SOL    HW214970   1.693   0.382   0.904
 4691SOL     OW14971   2.885   3.418   1.065
 4691SOL    HW114972   2.905   3.425   1.163
 4691SOL    HW214973   2.855   3.325   1.043
 4692SOL     OW14974   5.422   5.302   2.969
 4692SOL    HW114975   5.489   5.253   2.912
 4692SOL    HW214976   5.335   5.309   2.920
 4693SOL     OW14977   1.028   1.202   3.232
 4693SOL    HW114978   0.968   1.246   3.300
 4693SOL    HW214979   0.991   1.112   3.209
 4694SOL     OW14980   2.659   1.507   0.097
 4694SOL    HW114981   2.736   1.488   0.157
 4694SOL    HW214982   2.662   1.603   0.068
 4695SOL     OW14983   1.334   4.928   1.017
 4695SOL    HW114984   1.402   4.861   0.984
 4695SOL    HW214985   1.324   5.000   0.949
 4696SOL     OW14986   0.241   5.012   6.681
 4696SOL    HW114987   0.152   4.985   6.717
 4696SOL    HW214988   0.245   5.111   6.671
 4697SOL     OW14989   1.077   3.902   1.441
 4697SOL    HW114990   1.007   3.931   1.376
 4697SOL    HW214991   1.040   3.832   1.502
 4698SOL     OW14992   4.246   6.010   3.214
 4698SOL    HW114993   4.240   6.095   3.161
 4698SOL    HW214994   4.313   5.949   3.172
 4699SOL     OW14995   0.549   6.317   2.321
 4699SOL    HW114996   0.546   6.217   2.319
 4699SOL    HW214997   0.598   6.350   2.240
 4700SOL     OW14998   6.681   2.189   2.663
 4700SOL    HW114999   6.723   2.258   2.723
 4700SOL    HW215000   6.667   2.105   2.715
 4701SOL     OW15001   3.246   2.341   0.025
 4701SOL    HW115002   3.311   2.391   0.083
 4701SOL    HW215003   3.293   2.309   6.965
 4702SOL     OW15004   4.900   4.989   0.652
 4702SOL    HW115005   4.854   5.057   0.595
 4702SOL    HW215006   4.835   4.920   0.681
 4703SOL     OW15007   0.797   0.107   2.459
 4703SOL    HW115008   0.698   0.091   2.462
 4703SOL    HW215009   0.833   0.107   2.552
 4704SOL     OW15010   6.522   6.085   6.538
 4704SOL    HW115011   6.572   6.046   6.615
 4704SOL    HW215012   6.549   6.040   6.453
 4705SOL     OW15013   4.349   2.481   1.105
 4705SOL    HW115014   4.288   2.430   1.166
 4705SOL    HW215015   4.326   2.578   1.109
 4706SOL     OW15016   2.489   0.765   0.423
 4706SOL    HW115017   2.486   0.665   0.419
 4706SOL    HW215018   2.433   0.803   0.350
 4707SOL     OW15019   1.025   6.894   0.865
 4707SOL    HW115020   1.058   6.843   0.945
 4707SOL    HW215021   1.008   6.989   0.891
 4708SOL     OW15022   1.219   2.116   5.934
 4708SOL    HW115023   1.222   2.023   5.896
 4708SOL    HW215024   1.283   2.122   6.011
 4709SOL     OW15025   4.789   5.489   5.423
 4709SOL    HW115026   4.781   5.588   5.437
 4709SOL    HW215027   4.742   5.441   5.497
 4710SOL     OW15028   5.212   0.565   5.837
 4710SOL    HW115029   5.292   0.544   5.780
 4710SOL    HW215030   5.242   0.601   5.925
 4711SOL     OW15031   6.133   1.670   1.757
 4711SOL    HW115032   6.085   1.639   1.839
 4711SOL    HW215033   6.070   1.672   1.680
 4712SOL     OW15034   3.181   5.018   6.229
 4712SOL    HW115035   3.111   5.034   6.299
 4712SOL    HW215036   3.229   4.933   6.249
 4713SOL     OW15037   3.604   4.552   0.920
 4713SOL    HW115038   3.626   4.605   0.838
 4713SOL    HW215039   3.532   4.486   0.899
 4714SOL     OW15040   1.136   1.390   6.348
 4714SOL    HW115041   1.081   1.307   6.341
 4714SOL    HW215042   1.139   1.436   6.260
 4715SOL     OW15043   6.052   3.380   1.474
 4715SOL    HW115044   6.036   3.444   1.399
 4715SOL    HW215045   6.046   3.430   1.561
 4716SOL     OW15046   4.034   6.417   5.376
 4716SOL    HW115047   4.114   6.374   5.335
 4716SOL    HW215048   4.004   6.363   5.454
 4717SOL     OW15049   0.825   6.059   4.139
 4717SOL    HW115050   0.864   6.150   4.127
 4717SOL    HW215051   0.894   5.998   4.178
 4718SOL     OW15052   6.016   1.660   1.505
 4718SOL    HW115053   5.989   1.600   1.429
 4718SOL    HW215054   6.059   1.743   1.468
 4719SOL     OW15055   4.882   3.304   2.031
 4719SOL    HW115056   4.820   3.227   2.019
 4719SOL    HW215057   4.855   3.378   1.969
 4720SOL     OW15058   2.136   5.384   5.793
 4720SOL    HW115059   2.077   5.350   5.720
 4720SOL    HW215060   2.185   5.465   5.762
 4721SOL     OW15061   0.113   1.919   1.748
 4721SOL    HW115062   0.076   1.950   1.661
 4721SOL    HW215063   0.131   1.821   1.744
 4722SOL     OW15064   1.191   5.766   6.794
 4722SOL    HW115065   1.124   5.787   6.723
 4722SOL    HW215066   1.252   5.844   6.808
 4723SOL     OW15067   2.320   3.522   5.286
 4723SOL    HW115068   2.396   3.467   5.320
 4723SOL    HW215069   2.346   3.618   5.287
 4724SOL     OW15070   6.924   0.168   4.649
 4724SOL    HW115071   6.859   0.176   4.725
 4724SOL    HW215072   6.879   0.196   4.564
 4725SOL     OW15073   6.168   5.500   0.466
 4725SOL    HW115074   6.250   5.448   0.439
 4725SOL    HW215075   6.089   5.465   0.417
 4726SOL     OW15076   1.438   3.276   6.405
 4726SOL    HW115077   1.416   3.372   6.419
 4726SOL    HW215078   1.533   3.259   6.433
 4727SOL     OW15079   0.330   6.273   1.118
 4727SOL    HW115080   0.410   6.237   1.069
 4727SOL    HW215081   0.305   6.210   1.191
 4728SOL     OW15082   5.731   1.514   2.137
 4728SOL    HW115083   5.638   1.493   2.167
 4728SOL    HW215084   5.759   1.602   2.174
 4729SOL     OW15085   4.730   1.101   0.640
 4729SOL    HW115086   4.726   1.199   0.623
 4729SOL    HW215087   4.825   1.074   0.658
 4730SOL     OW15088   3.265   6.090   4.793
 4730SOL    HW115089   3.173   6.094   4.753
 4730SOL    HW215090   3.272   6.158   4.866
 4731SOL     OW15091   3.359   0.931   0.404
 4731SOL    HW115092   3.330   0.892   0.491
 4731SOL    HW215093   3.431   0.873   0.365
 4732SOL     OW15094   0.638   3.528   5.317
 4732SOL    HW115095   0.578   3.495   5.390
 4732SOL    HW215096   0.641   3.628   5.318
 4733SOL     OW15097   1.534   3.713   3.957
 4733SOL    HW115098   1.500   3.639   3.899
 4733SOL    HW215099   1.634   3.713   3.955
 4734SOL     OW15100   4.275   3.342   0.398
 4734SOL    HW115101   4.249   3.393   0.315
 4734SOL    HW215102   4.375   3.332   0.400
 4735SOL     OW15103   6.785   5.532   4.024
 4735SOL    HW115104   6.831   5.444   4.034
 4735SOL    HW215105   6.755   5.544   3.930
 4736SOL     OW15106   6.230   1.313   5.733
 4736SOL    HW115107   6.241   1.256   5.814
 4736SOL    HW215108   6.145   1.365   5.740
 4737SOL     OW15109   3.000   4.223   1.345
 4737SOL    HW115110   2.912   4.218   1.392
 4737SOL    HW215111   3.015   4.316   1.313
 4738SOL     OW15112   2.163   6.739   3.056
 4738SOL    HW115113   2.251   6.713   3.096
 4738SOL    HW215114   2.128   6.820   3.102
 4739SOL     OW15115   5.179   1.576   3.157
 4739SOL    HW115116   5.277   1.558   3.166
 4739SOL    HW215117   5.165   1.663   3.111
 4740SOL     OW15118   0.685   1.463   1.099
 4740SOL    HW115119   0.759   1.475   1.165
 4740SOL    HW215120   0.714   1.498   1.010
 4741SOL     OW15121   4.777   3.395   1.362
 4741SOL    HW115122   4.772   3.426   1.267
 4741SOL    HW215123   4.684   3.379   1.396
 4742SOL     OW15124   2.699   6.878   0.448
 4742SOL    HW115125   2.680   6.923   0.361
 4742SOL    HW215126   2.613   6.845   0.489
 4743SOL     OW15127   1.687   3.304   5.257
 4743SOL    HW115128   1.645   3.317   5.167
 4743SOL    HW215129   1.775   3.257   5.246
 4744SOL     OW15130   3.047   3.660   6.145
 4744SOL    HW115131   2.997   3.655   6.231
 4744SOL    HW215132   2.993   3.616   6.073
 4745SOL     OW15133   3.116   5.918   5.019
 4745SOL    HW115134   3.025   5.960   5.017
 4745SOL    HW215135   3.184   5.985   4.989
 4746SOL     OW15136   5.549   6.805   2.275
 4746SOL    HW115137   5.624   6.849   2.324
 4746SOL    HW215138   5.538   6.711   2.307
 4747SOL     OW15139   1.416   4.172   6.806
 4747SOL    HW115140   1.334   4.195   6.859
 4747SOL    HW215141   1.432   4.242   6.737
 4748SOL     OW15142   0.831   5.031   0.938
 4748SOL    HW115143   0.790   5.118   0.911
 4748SOL    HW215144   0.896   5.047   1.012
 4749SOL     OW15145   3.141   6.667   5.283
 4749SOL    HW115146   3.071   6.694   5.217
 4749SOL    HW215147   3.222   6.633   5.234
 4750SOL     OW15148   0.028   3.282   3.964
 4750SOL    HW115149   0.121   3.318   3.975
 4750SOL    HW215150   0.001   3.290   3.868
 4751SOL     OW15151   2.896   2.883   1.086
 4751SOL    HW115152   2.812   2.829   1.082
 4751SOL    HW215153   2.967   2.828   1.130
 4752SOL     OW15154   2.956   0.136   0.022
 4752SOL    HW115155   2.967   0.135   0.121
 4752SOL    HW215156   2.896   0.212   7.018
 4753SOL     OW15157   5.539   0.495   4.489
 4753SOL    HW115158   5.533   0.453   4.580
 4753SOL    HW215159   5.629   0.536   4.478
 4754SOL     OW15160   6.117   0.644   4.971
 4754SOL    HW115161   6.177   0.686   5.039
 4754SOL    HW215162   6.030   0.693   4.967
 4755SOL     OW15163   2.693   0.739   0.901
 4755SOL    HW115164   2.685   0.823   0.954
 4755SOL    HW215165   2.666   0.661   0.957
 4756SOL     OW15166   5.631   3.178   1.395
 4756SOL    HW115167   5.565   3.108   1.369
 4756SOL    HW215168   5.588   3.242   1.459
 4757SOL     OW15169   1.608   2.291   1.383
 4757SOL    HW115170   1.678   2.307   1.454
 4757SOL    HW215171   1.599   2.372   1.327
 4758SOL     OW15172   2.053   6.297   4.126
 4758SOL    HW115173   1.981   6.285   4.195
 4758SOL    HW215174   2.067   6.211   4.076
 4759SOL     OW15175   5.157   5.492   4.481
 4759SOL    HW115176   5.160   5.520   4.386
 4759SOL    HW215177   5.066   5.508   4.519
 4760SOL     OW15178   3.751   1.902   0.572
 4760SOL    HW115179   3.728   1.928   0.478
 4760SOL    HW215180   3.823   1.832   0.570
 4761SOL     OW15181   0.923   6.302   6.682
 4761SOL    HW115182   0.829   6.271   6.695
 4761SOL    HW215183   0.985   6.224   6.691
 4762SOL     OW15184   1.958   5.635   2.836
 4762SOL    HW115185   2.045   5.677   2.860
 4762SOL    HW215186   1.885   5.676   2.891
 4763SOL     OW15187   6.127   6.498   3.923
 4763SOL    HW115188   6.089   6.457   3.840
 4763SOL    HW215189   6.211   6.450   3.948
 4764SOL     OW15190   5.279   4.216   5.445
 4764SOL    HW115191   5.309   4.298   5.395
 4764SOL    HW215192   5.221   4.160   5.386
 4765SOL     OW15193   5.581   1.180   4.298
 4765SOL    HW115194   5.580   1.275   4.269
 4765SOL    HW215195   5.487   1.148   4.312
 4766SOL     OW15196   4.421   6.676   3.863
 4766SOL    HW115197   4.454   6.745   3.928
 4766SOL    HW215198   4.434   6.585   3.901
 4767SOL     OW15199   3.528   5.104   5.796
 4767SOL    HW115200   3.504   5.008   5.784
 4767SOL    HW215201   3.605   5.112   5.858
 4768SOL     OW15202   4.625   1.991   5.429
 4768SOL    HW115203   4.587   1.999   5.337
 4768SOL    HW215204   4.561   1.942   5.488
 4769SOL     OW15205   4.949   4.707   0.393
 4769SOL    HW115206   5.015   4.632   0.393
 4769SOL    HW215207   4.995   4.793   0.414
 4770SOL     OW15208   1.505   0.589   4.544
 4770SOL    HW115209   1.595   0.604   4.585
 4770SOL    HW215210   1.445   0.545   4.611
 4771SOL     OW15211   2.855   5.195   5.824
 4771SOL    HW115212   2.880   5.188   5.727
 4771SOL    HW215213   2.935   5.174   5.881
 4772SOL     OW15214   3.016   4.960   1.359
 4772SOL    HW115215   2.917   4.959   1.373
 4772SOL    HW215216   3.046   4.870   1.324
 4773SOL     OW15217   6.841   5.884   4.695
 4773SOL    HW115218   6.904   5.821   4.650
 4773SOL    HW215219   6.808   5.952   4.629
 4774SOL     OW15220   1.302   2.673   1.653
 4774SOL    HW115221   1.355   2.666   1.737
 4774SOL    HW215222   1.223   2.612   1.658
 4775SOL     OW15223   5.176   6.879   2.442
 4775SOL    HW115224   5.206   6.796   2.396
 4775SOL    HW215225   5.101   6.920   2.389
 4776SOL     OW15226   1.199   6.366   5.362
 4776SOL    HW115227   1.156   6.312   5.434
 4776SOL    HW215228   1.131   6.425   5.319
 4777SOL     OW15229   3.123   4.471   1.324
 4777SOL    HW115230   3.059   4.544   1.347
 4777SOL    HW215231   3.129   4.463   1.224
 4778SOL     OW15232   6.748   2.701   2.778
 4778SOL    HW115233   6.774   2.769   2.709
 4778SOL    HW215234   6.686   2.634   2.738
 4779SOL     OW15235   6.252   6.424   2.418
 4779SOL    HW115236   6.160   6.461   2.431
 4779SOL    HW215237   6.246   6.324   2.408
 4780SOL     OW15238   6.755   0.830   0.382
 4780SOL    HW115239   6.796   0.742   0.359
 4780SOL    HW215240   6.823   0.903   0.369
 4781SOL     OW15241   2.676   5.883   2.237
 4781SOL    HW115242   2.688   5.959   2.173
 4781SOL    HW215243   2.603   5.905   2.302
 4782SOL     OW15244   3.928   6.469   6.872
 4782SOL    HW115245   3.976   6.490   6.957
 4782SOL    HW215246   3.925   6.370   6.860
 4783SOL     OW15247   4.615   4.541   6.864
 4783SOL    HW115248   4.665   4.457   6.881
 4783SOL    HW215249   4.638   4.609   6.934
 4784SOL     OW15250   5.927   4.362   6.599
 4784SOL    HW115251   5.869   4.329   6.524
 4784SOL    HW215252   5.901   4.315   6.684
 4785SOL     OW15253   5.863   5.417   1.943
 4785SOL    HW115254   5.768   5.444   1.925
 4785SOL    HW215255   5.898   5.364   1.865
 4786SOL     OW15256   2.529   1.844   0.935
 4786SOL    HW115257   2.610   1.874   0.886
 4786SOL    HW215258   2.551   1.763   0.990
 4787SOL     OW15259   3.964   1.799   3.218
 4787SOL    HW115260   4.022   1.859   3.274
 4787SOL    HW215261   3.912   1.738   3.279
 4788SOL     OW15262   1.272   5.129   5.689
 4788SOL    HW115263   1.347   5.086   5.739
 4788SOL    HW215264   1.206   5.167   5.753
 4789SOL     OW15265   4.956   0.945   0.734
 4789SOL    HW115266   5.054   0.926   0.743
 4789SOL    HW215267   4.905   0.886   0.796
 4790SOL     OW15268   0.046   3.003   5.597
 4790SOL    HW115269   0.049   2.919   5.543
 4790SOL    HW215270   0.035   3.082   5.536
 4791SOL     OW15271   5.879   1.793   1.208
 4791SOL    HW115272   5.827   1.827   1.130
 4791SOL    HW215273   5.966   1.754   1.176
 4792SOL     OW15274   2.122   3.309   2.829
 4792SOL    HW115275   2.168   3.249   2.895
 4792SOL    HW215276   2.120   3.264   2.739
 4793SOL     OW15277   1.937   2.783   6.049
 4793SOL    HW115278   2.027   2.773   6.008
 4793SOL    HW215279   1.870   2.803   5.978
 4794SOL     OW15280   4.642   0.273   3.237
 4794SOL    HW115281   4.610   0.319   3.320
 4794SOL    HW215282   4.696   0.193   3.263
 4795SOL     OW15283   6.744   1.869   4.112
 4795SOL    HW115284   6.802   1.830   4.040
 4795SOL    HW215285   6.798   1.930   4.170
 4796SOL     OW15286   5.121   1.844   5.710
 4796SOL    HW115287   5.097   1.941   5.718
 4796SOL    HW215288   5.072   1.805   5.632
 4797SOL     OW15289   1.985   6.288   5.523
 4797SOL    HW115290   1.996   6.386   5.541
 4797SOL    HW215291   2.060   6.238   5.565
 4798SOL     OW15292   6.830   3.246   4.966
 4798SOL    HW115293   6.864   3.313   4.900
 4798SOL    HW215294   6.736   3.221   4.943
 4799SOL     OW15295   4.860   2.636   7.005
 4799SOL    HW115296   4.944   2.665   0.028
 4799SOL    HW215297   4.839   2.542   0.009
 4800SOL     OW15298   3.268   3.559   6.027
 4800SOL    HW115299   3.258   3.576   5.929
 4800SOL    HW215300   3.197   3.609   6.077
 4801SOL     OW15301   2.912   1.994   1.015
 4801SOL    HW115302   2.867   2.047   1.086
 4801SOL    HW215303   2.952   1.911   1.054
 4802SOL     OW15304   0.642   6.215   2.021
 4802SOL    HW115305   0.711   6.143   2.012
 4802SOL    HW215306   0.646   6.276   1.942
 4803SOL     OW15307   1.297   5.751   1.146
 4803SOL    HW115308   1.344   5.808   1.078
 4803SOL    HW215309   1.362   5.692   1.192
 4804SOL     OW15310   5.012   5.768   6.646
 4804SOL    HW115311   4.984   5.771   6.550
 4804SOL    HW215312   5.110   5.753   6.652
 4805SOL     OW15313   5.987   0.379   1.589
 4805SOL    HW115314   6.036   0.345   1.669
 4805SOL    HW215315   5.958   0.473   1.604
 4806SOL     OW15316   0.810   4.973   3.308
 4806SOL    HW115317   0.774   4.901   3.249
 4806SOL    HW215318   0.819   4.939   3.401
 4807SOL     OW15319   0.890   4.805   0.382
 4807SOL    HW115320   0.924   4.862   0.456
 4807SOL    HW215321   0.818   4.745   0.417
 4808SOL     OW15322   6.105   3.508   6.283
 4808SOL    HW115323   6.115   3.425   6.228
 4808SOL    HW215324   6.083   3.483   6.377
 4809SOL     OW15325   3.493   4.266   0.118
 4809SOL    HW115326   3.559   4.219   0.060
 4809SOL    HW215327   3.541   4.314   0.192
 4810SOL     OW15328   0.931   5.245   2.616
 4810SOL    HW115329   0.960   5.167   2.671
 4810SOL    HW215330   0.935   5.222   2.519
 4811SOL     OW15331   2.227   4.630   1.797
 4811SOL    HW115332   2.164   4.559   1.765
 4811SOL    HW215333   2.294   4.589   1.860
 4812SOL     OW15334   6.679   4.959   4.348
 4812SOL    HW115335   6.645   5.043   4.305
 4812SOL    HW215336   6.778   4.963   4.354
 4813SOL     OW15337   5.382   1.769   0.846
 4813SOL    HW115338   5.334   1.693   0.802
 4813SOL    HW215339   5.433   1.734   0.925
 4814SOL     OW15340   6.007   4.157   0.357
 4814SOL    HW115341   6.096   4.155   0.402
 4814SOL    HW215342   6.016   4.199   0.266
 4815SOL     OW15343   5.807   4.372   3.035
 4815SOL    HW115344   5.848   4.388   3.124
 4815SOL    HW215345   5.764   4.281   3.034
 4816SOL     OW15346   1.043   5.098   1.384
 4816SOL    HW115347   1.010   5.043   1.307
 4816SOL    HW215348   0.967   5.152   1.421
 4817SOL     OW15349   0.526   2.574   6.775
 4817SOL    HW115350   0.433   2.539   6.779
 4817SOL    HW215351   0.587   2.504   6.738
 4818SOL     OW15352   1.212   0.495   5.187
 4818SOL    HW115353   1.113   0.494   5.172
 4818SOL    HW215354   1.236   0.428   5.258
 4819SOL     OW15355   0.792   2.304   0.320
 4819SOL    HW115356   0.705   2.301   0.271
 4819SOL    HW215357   0.867   2.311   0.255
 4820SOL     OW15358   6.120   2.759   1.184
 4820SOL    HW115359   6.180   2.835   1.210
 4820SOL    HW215360   6.120   2.750   1.084
 4821SOL     OW15361   1.092   6.096   2.575
 4821SOL    HW115362   1.014   6.143   2.533
 4821SOL    HW215363   1.080   6.096   2.674
 4822SOL     OW15364   2.280   2.616   4.756
 4822SOL    HW115365   2.375   2.592   4.778
 4822SOL    HW215366   2.245   2.678   4.825
 4823SOL     OW15367   2.138   1.129   4.364
 4823SOL    HW115368   2.147   1.040   4.408
 4823SOL    HW215369   2.163   1.122   4.268
 4824SOL     OW15370   5.019   2.939   5.061
 4824SOL    HW115371   5.031   2.869   5.132
 4824SOL    HW215372   4.942   2.998   5.084
 4825SOL     OW15373   1.595   2.871   4.507
 4825SOL    HW115374   1.566   2.871   4.603
 4825SOL    HW215375   1.516   2.857   4.448
 4826SOL     OW15376   5.796   0.755   0.049
 4826SOL    HW115377   5.771   0.774   0.144
 4826SOL    HW215378   5.734   0.686   0.011
 4827SOL     OW15379   6.242   1.500   0.867
 4827SOL    HW115380   6.318   1.499   0.931
 4827SOL    HW215381   6.196   1.411   0.868
 4828SOL     OW15382   4.973   1.639   0.902
 4828SOL    HW115383   4.889   1.591   0.876
 4828SOL    HW215384   4.970   1.662   0.999
 4829SOL     OW15385   3.817   0.108   5.150
 4829SOL    HW115386   3.744   0.099   5.217
 4829SOL    HW215387   3.896   0.053   5.180
 4830SOL     OW15388   3.833   5.926   4.542
 4830SOL    HW115389   3.915   5.904   4.595
 4830SOL    HW215390   3.828   5.867   4.461
 4831SOL     OW15391   0.903   4.527   5.575
 4831SOL    HW115392   1.002   4.530   5.590
 4831SOL    HW215393   0.857   4.515   5.663
 4832SOL     OW15394   3.463   4.075   3.700
 4832SOL    HW115395   3.368   4.096   3.677
 4832SOL    HW215396   3.522   4.095   3.622
 4833SOL     OW15397   6.567   1.192   2.858
 4833SOL    HW115398   6.519   1.136   2.926
 4833SOL    HW215399   6.628   1.133   2.805
 4834SOL     OW15400   2.626   5.853   1.827
 4834SOL    HW115401   2.687   5.885   1.900
 4834SOL    HW215402   2.678   5.804   1.758
 4835SOL     OW15403   5.428   2.494   6.005
 4835SOL    HW115404   5.384   2.521   6.090
 4835SOL    HW215405   5.367   2.514   5.928
 4836SOL     OW15406   5.050   2.075   5.023
 4836SOL    HW115407   5.119   2.052   5.092
 4836SOL    HW215408   5.063   2.169   4.993
 4837SOL     OW15409   6.894   3.555   2.843
 4837SOL    HW115410   6.851   3.547   2.753
 4837SOL    HW215411   6.981   3.505   2.843
 4838SOL     OW15412   2.483   5.849   0.114
 4838SOL    HW115413   2.565   5.812   0.157
 4838SOL    HW215414   2.410   5.853   0.182
 4839SOL     OW15415   1.143   3.882   0.761
 4839SOL    HW115416   1.049   3.858   0.738
 4839SOL    HW215417   1.145   3.973   0.803
 4840SOL     OW15418   6.723   4.758   6.316
 4840SOL    HW115419   6.736   4.680   6.255
 4840SOL    HW215420   6.643   4.810   6.288
 4841SOL     OW15421   2.591   5.272   3.230
 4841SOL    HW115422   2.492   5.279   3.234
 4841SOL    HW215423   2.623   5.300   3.139
 4842SOL     OW15424   3.183   4.943   3.201
 4842SOL    HW115425   3.180   4.945   3.101
 4842SOL    HW215426   3.116   4.877   3.235
 4843SOL     OW15427   6.045   2.788   0.911
 4843SOL    HW115428   5.952   2.815   0.888
 4843SOL    HW215429   6.110   2.847   0.862
 4844SOL     OW15430   0.065   3.489   5.963
 4844SOL    HW115431   0.066   3.391   5.982
 4844SOL    HW215432   0.136   3.535   6.015
 4845SOL     OW15433   4.815   5.046   6.465
 4845SOL    HW115434   4.800   5.000   6.377
 4845SOL    HW215435   4.830   4.977   6.536
 4846SOL     OW15436   0.391   2.474   3.731
 4846SOL    HW115437   0.412   2.566   3.697
 4846SOL    HW215438   0.307   2.477   3.785
 4847SOL     OW15439   2.277   1.023   6.157
 4847SOL    HW115440   2.209   1.002   6.086
 4847SOL    HW215441   2.293   1.122   6.159
 4848SOL     OW15442   2.202   0.726   4.847
 4848SOL    HW115443   2.256   0.661   4.793
 4848SOL    HW215444   2.264   0.781   4.904
 4849SOL     OW15445   1.782   5.615   0.746
 4849SOL    HW115446   1.783   5.601   0.845
 4849SOL    HW215447   1.731   5.540   0.703
 4850SOL     OW15448   4.417   1.192   1.396
 4850SOL    HW115449   4.318   1.205   1.383
 4850SOL    HW215450   4.432   1.112   1.454
 4851SOL     OW15451   3.448   5.928   5.605
 4851SOL    HW115452   3.526   5.991   5.608
 4851SOL    HW215453   3.390   5.943   5.685
 4852SOL     OW15454   1.971   5.864   4.830
 4852SOL    HW115455   1.952   5.872   4.732
 4852SOL    HW215456   2.053   5.807   4.843
 4853SOL     OW15457   3.995   1.106   3.691
 4853SOL    HW115458   3.941   1.191   3.685
 4853SOL    HW215459   4.072   1.112   3.628
 4854SOL     OW15460   4.523   6.658   2.010
 4854SOL    HW115461   4.472   6.586   1.963
 4854SOL    HW215462   4.511   6.648   2.109
 4855SOL     OW15463   6.150   2.525   5.401
 4855SOL    HW115464   6.200   2.463   5.461
 4855SOL    HW215465   6.066   2.554   5.446
 4856SOL     OW15466   1.878   3.362   2.924
 4856SOL    HW115467   1.825   3.322   2.849
 4856SOL    HW215468   1.975   3.365   2.899
 4857SOL     OW15469   3.072   2.168   3.390
 4857SOL    HW115470   3.153   2.110   3.391
 4857SOL    HW215471   3.080   2.238   3.460
 4858SOL     OW15472   6.930   6.314   5.111
 4858SOL    HW115473   6.994   6.356   5.047
 4858SOL    HW215474   6.914   6.219   5.084
 4859SOL     OW15475   0.224   4.826   2.320
 4859SOL    HW115476   0.278   4.885   2.380
 4859SOL    HW215477   0.158   4.775   2.375
 4860SOL     OW15478   4.492   3.827   0.244
 4860SOL    HW115479   4.540   3.862   0.163
 4860SOL    HW215480   4.411   3.883   0.262
 4861SOL     OW15481   5.822   5.511   6.464
 4861SOL    HW115482   5.858   5.578   6.529
 4861SOL    HW215483   5.833   5.547   6.371
 4862SOL     OW15484   2.097   4.673   4.784
 4862SOL    HW115485   2.146   4.722   4.856
 4862SOL    HW215486   2.058   4.589   4.822
 4863SOL     OW15487   5.218   3.289   2.362
 4863SOL    HW115488   5.254   3.196   2.367
 4863SOL    HW215489   5.119   3.287   2.348
 4864SOL     OW15490   2.837   1.107   1.902
 4864SOL    HW115491   2.893   1.175   1.950
 4864SOL    HW215492   2.758   1.084   1.958
 4865SOL     OW15493   1.949   5.916   4.543
 4865SOL    HW115494   1.869   5.976   4.546
 4865SOL    HW215495   2.032   5.971   4.534
 4866SOL     OW15496   5.884   4.774   1.319
 4866SOL    HW115497   5.794   4.767   1.276
 4866SOL    HW215498   5.900   4.869   1.347
 4867SOL     OW15499   5.013   5.737   3.151
 4867SOL    HW115500   5.112   5.736   3.142
 4867SOL    HW215501   4.985   5.665   3.215
 4868SOL     OW15502   6.852   5.486   1.598
 4868SOL    HW115503   6.805   5.424   1.661
 4868SOL    HW215504   6.944   5.450   1.579
 4869SOL     OW15505   6.712   2.212   1.618
 4869SOL    HW115506   6.803   2.183   1.647
 4869SOL    HW215507   6.671   2.268   1.690
 4870SOL     OW15508   5.576   5.449   1.693
 4870SOL    HW115509   5.668   5.477   1.666
 4870SOL    HW215510   5.573   5.349   1.702
 4871SOL     OW15511   0.106   1.371   4.752
 4871SOL    HW115512   0.063   1.327   4.674
 4871SOL    HW215513   0.206   1.364   4.745
 4872SOL     OW15514   0.400   5.900   4.007
 4872SOL    HW115515   0.476   5.845   3.973
 4872SOL    HW215516   0.372   5.867   4.097
 4873SOL     OW15517   6.730   4.858   3.827
 4873SOL    HW115518   6.706   4.914   3.748
 4873SOL    HW215519   6.824   4.880   3.856
 4874SOL     OW15520   5.960   4.092   2.646
 4874SOL    HW115521   6.037   4.095   2.582
 4874SOL    HW215522   5.979   4.153   2.723
 4875SOL     OW15523   4.929   2.367   0.755
 4875SOL    HW115524   4.912   2.433   0.681
 4875SOL    HW215525   4.843   2.322   0.780
 4876SOL     OW15526   6.201   0.965   4.879
 4876SOL    HW115527   6.210   0.869   4.908
 4876SOL    HW215528   6.283   1.016   4.907
 4877SOL     OW15529   6.614   1.623   0.695
 4877SOL    HW115530   6.700   1.573   0.702
 4877SOL    HW215531   6.538   1.558   0.694
 4878SOL     OW15532   6.703   1.741   2.471
 4878SOL    HW115533   6.725   1.838   2.480
 4878SOL    HW215534   6.673   1.722   2.377
 4879SOL     OW15535   4.190   5.247   3.639
 4879SOL    HW115536   4.215   5.185   3.713
 4879SOL    HW215537   4.221   5.209   3.552
 4880SOL     OW15538   6.214   3.172   6.420
 4880SOL    HW115539   6.130   3.166   6.366
 4880SOL    HW215540   6.191   3.173   6.517
 4881SOL     OW15541   2.443   6.261   6.629
 4881SOL    HW115542   2.351   6.277   6.665
 4881SOL    HW215543   2.511   6.307   6.687
 4882SOL     OW15544   5.741   1.449   4.112
 4882SOL    HW115545   5.645   1.435   4.136
 4882SOL    HW215546   5.748   1.494   4.023
 4883SOL     OW15547   5.017   4.906   2.457
 4883SOL    HW115548   5.055   4.841   2.522
 4883SOL    HW215549   5.085   4.926   2.386
 4884SOL     OW15550   4.401   0.089   0.689
 4884SOL    HW115551   4.421   7.017   0.665
 4884SOL    HW215552   4.323   0.122   0.636
 4885SOL     OW15553   2.774   6.494   2.241
 4885SOL    HW115554   2.704   6.449   2.185
 4885SOL    HW215555   2.795   6.437   2.320
 4886SOL     OW15556   6.985   5.680   5.776
 4886SOL    HW115557   0.056   5.713   5.793
 4886SOL    HW215558   6.983   5.631   5.689
 4887SOL     OW15559   0.420   1.398   2.796
 4887SOL    HW115560   0.359   1.322   2.819
 4887SOL    HW215561   0.434   1.401   2.697
 4888SOL     OW15562   1.912   6.519   4.026
 4888SOL    HW115563   1.956   6.444   4.076
 4888SOL    HW215564   1.980   6.566   3.971
 4889SOL     OW15565   6.881   1.546   6.685
 4889SOL    HW115566   6.973   1.564   6.649
 4889SOL    HW215567   6.844   1.630   6.725
 4890SOL     OW15568   0.569   2.330   5.479
 4890SOL    HW115569   0.639   2.386   5.436
 4890SOL    HW215570   0.488   2.327   5.421
 4891SOL     OW15571   1.378   5.889   0.673
 4891SOL    HW115572   1.311   5.834   0.622
 4891SOL    HW215573   1.389   5.978   0.629
 4892SOL     OW15574   2.530   6.059   2.412
 4892SOL    HW115575   2.432   6.048   2.394
 4892SOL    HW215576   2.547   6.049   2.510
 4893SOL     OW15577   6.330   4.563   0.126
 4893SOL    HW115578   6.344   4.660   0.102
 4893SOL    HW215579   6.347   4.507   0.045
 4894SOL     OW15580   2.536   1.096   1.604
 4894SOL    HW115581   2.633   1.118   1.592
 4894SOL    HW215582   2.481   1.165   1.557
 4895SOL     OW15583   0.297   5.007   1.603
 4895SOL    HW115584   0.356   4.927   1.620
 4895SOL    HW215585   0.259   5.001   1.511
 4896SOL     OW15586   2.296   5.305   2.657
 4896SOL    HW115587   2.214   5.249   2.664
 4896SOL    HW215588   2.328   5.305   2.562
 4897SOL     OW15589   2.312   5.645   6.334
 4897SOL    HW115590   2.348   5.614   6.245
 4897SOL    HW215591   2.299   5.566   6.394
 4898SOL     OW15592   5.862   1.797   5.320
 4898SOL    HW115593   5.854   1.896   5.330
 4898SOL    HW215594   5.787   1.762   5.264
 4899SOL     OW15595   6.382   4.594   3.252
 4899SOL    HW115596   6.368   4.495   3.256
 4899SOL    HW215597   6.427   4.618   3.166
 4900SOL     OW15598   1.852   6.077   5.440
 4900SOL    HW115599   1.905   6.143   5.492
 4900SOL    HW215600   1.905   6.048   5.360
 4901SOL     OW15601   2.912   0.041   5.204
 4901SOL    HW115602   3.003   0.069   5.235
 4901SOL    HW215603   2.917   6.970   5.168
 4902SOL     OW15604   2.471   2.045   4.742
 4902SOL    HW115605   2.549   2.054   4.681
 4902SOL    HW215606   2.417   2.129   4.741
 4903SOL     OW15607   3.198   6.686   6.537
 4903SOL    HW115608   3.265   6.759   6.551
 4903SOL    HW215609   3.227   6.605   6.589
 4904SOL     OW15610   1.458   0.260   3.731
 4904SOL    HW115611   1.361   0.285   3.732
 4904SOL    HW215612   1.499   0.289   3.644
 4905SOL     OW15613   4.453   2.006   2.241
 4905SOL    HW115614   4.528   1.957   2.195
 4905SOL    HW215615   4.472   2.104   2.241
 4906SOL     OW15616   3.334   1.022   6.423
 4906SOL    HW115617   3.268   1.015   6.349
 4906SOL    HW215618   3.360   1.118   6.436
 4907SOL     OW15619   4.874   6.338   2.189
 4907SOL    HW115620   4.864   6.307   2.095
 4907SOL    HW215621   4.961   6.388   2.198
 4908SOL     OW15622   4.401   4.958   0.207
 4908SOL    HW115623   4.395   4.957   0.108
 4908SOL    HW215624   4.400   4.864   0.241
 4909SOL     OW15625   6.260   0.345   5.907
 4909SOL    HW115626   6.255   0.304   5.998
 4909SOL    HW215627   6.241   0.275   5.838
 4910SOL     OW15628   5.750   6.656   4.586
 4910SOL    HW115629   5.719   6.674   4.492
 4910SOL    HW215630   5.671   6.635   4.643
 4911SOL     OW15631   6.790   2.527   5.922
 4911SOL    HW115632   6.822   2.612   5.879
 4911SOL    HW215633   6.854   2.500   5.994
 4912SOL     OW15634   5.456   2.121   1.317
 4912SOL    HW115635   5.497   2.030   1.307
 4912SOL    HW215636   5.481   2.158   1.407
 4913SOL     OW15637   3.991   3.198   3.559
 4913SOL    HW115638   4.068   3.233   3.613
 4913SOL    HW215639   3.927   3.150   3.619
 4914SOL     OW15640   3.638   0.477   4.633
 4914SOL    HW115641   3.580   0.409   4.587
 4914SOL    HW215642   3.726   0.435   4.657
 4915SOL     OW15643   5.017   0.338   4.849
 4915SOL    HW115644   4.933   0.300   4.890
 4915SOL    HW215645   5.009   0.437   4.843
 4916SOL     OW15646   2.251   1.360   3.503
 4916SOL    HW115647   2.225   1.300   3.428
 4916SOL    HW215648   2.340   1.401   3.484
 4917SOL     OW15649   1.542   4.369   0.731
 4917SOL    HW115650   1.467   4.433   0.745
 4917SOL    HW215651   1.617   4.391   0.793
 4918SOL     OW15652   3.233   0.065   2.427
 4918SOL    HW115653   3.262   6.994   2.448
 4918SOL    HW215654   3.165   0.095   2.495
 4919SOL     OW15655   2.373   1.807   1.270
 4919SOL    HW115656   2.397   1.835   1.177
 4919SOL    HW215657   2.443   1.745   1.305
 4920SOL     OW15658   4.326   0.359   6.364
 4920SOL    HW115659   4.403   0.331   6.421
 4920SOL    HW215660   4.285   0.442   6.401
 4921SOL     OW15661   1.828   4.102   1.344
 4921SOL    HW115662   1.922   4.079   1.319
 4921SOL    HW215663   1.772   4.019   1.343
 4922SOL     OW15664   1.554   3.526   4.844
 4922SOL    HW115665   1.648   3.545   4.873
 4922SOL    HW215666   1.491   3.553   4.916
 4923SOL     OW15667   4.155   1.208   1.355
 4923SOL    HW115668   4.077   1.261   1.389
 4923SOL    HW215669   4.142   1.188   1.258
 4924SOL     OW15670   2.146   2.752   5.902
 4924SOL    HW115671   2.198   2.668   5.920
 4924SOL    HW215672   2.176   2.823   5.966
 4925SOL     OW15673   6.500   6.512   0.841
 4925SOL    HW115674   6.464   6.544   0.928
 4925SOL    HW215675   6.589   6.469   0.856
 4926SOL     OW15676   4.820   2.602   1.248
 4926SOL    HW115677   4.882   2.560   1.314
 4926SOL    HW215678   4.845   2.574   1.155
 4927SOL     OW15679   4.077   3.808   4.084
 4927SOL    HW115680   4.166   3.854   4.086
 4927SOL    HW215681   4.035   3.813   4.175
 4928SOL     OW15682   0.232   0.003   6.728
 4928SOL    HW115683   0.249   6.944   6.672
 4928SOL    HW215684   0.297   0.006   6.804
 4929SOL     OW15685   1.258   4.053   5.268
 4929SOL    HW115686   1.174   4.029   5.219
 4929SOL    HW215687   1.236   4.073   5.364
 4930SOL     OW15688   6.420   0.711   1.541
 4930SOL    HW115689   6.470   0.671   1.464
 4930SOL    HW215690   6.481   0.718   1.620
 4931SOL     OW15691   0.086   6.610   0.796
 4931SOL    HW115692   0.027   6.688   0.776
 4931SOL    HW215693   0.043   6.526   0.764
 4932SOL     OW15694   2.238   3.310   1.643
 4932SOL    HW115695   2.291   3.377   1.695
 4932SOL    HW215696   2.278   3.298   1.552
 4933SOL     OW15697   2.783   6.795   4.716
 4933SOL    HW115698   2.776   6.892   4.739
 4933SOL    HW215699   2.865   6.780   4.660
 4934SOL     OW15700   1.739   5.124   3.238
 4934SOL    HW115701   1.698   5.099   3.150
 4934SOL    HW215702   1.672   5.176   3.292
 4935SOL     OW15703   0.951   1.378   0.089
 4935SOL    HW115704   1.000   1.396   0.174
 4935SOL    HW215705   0.853   1.390   0.104
 4936SOL     OW15706   1.943   4.926   2.140
 4936SOL    HW115707   1.953   4.879   2.053
 4936SOL    HW215708   1.984   5.017   2.133
 4937SOL     OW15709   0.303   3.790   6.217
 4937SOL    HW115710   0.217   3.810   6.169
 4937SOL    HW215711   0.315   3.691   6.223
 4938SOL     OW15712   3.011   5.228   1.353
 4938SOL    HW115713   2.941   5.232   1.425
 4938SOL    HW215714   3.046   5.135   1.346
 4939SOL     OW15715   1.102   2.055   3.511
 4939SOL    HW115716   1.058   2.125   3.454
 4939SOL    HW215717   1.079   2.070   3.607
 4940SOL     OW15718   0.604   1.816   5.650
 4940SOL    HW115719   0.644   1.866   5.573
 4940SOL    HW215720   0.508   1.795   5.630
 4941SOL     OW15721   4.081   2.804   5.305
 4941SOL    HW115722   3.982   2.805   5.314
 4941SOL    HW215723   4.109   2.723   5.253
 4942SOL     OW15724   5.371   3.175   4.750
 4942SOL    HW115725   5.421   3.186   4.836
 4942SOL    HW215726   5.286   3.227   4.754
 4943SOL     OW15727   5.025   3.991   5.849
 4943SOL    HW115728   5.030   3.935   5.767
 4943SOL    HW215729   4.938   4.042   5.849
 4944SOL     OW15730   2.465   4.299   1.519
 4944SOL    HW115731   2.399   4.224   1.526
 4944SOL    HW215732   2.556   4.262   1.503
 4945SOL     OW15733   0.868   6.950   5.108
 4945SOL    HW115734   0.895   6.882   5.040
 4945SOL    HW215735   0.911   0.016   5.086
 4946SOL     OW15736   1.046   5.456   7.006
 4946SOL    HW115737   1.107   5.529   0.013
 4946SOL    HW215738   1.067   5.430   6.912
 4947SOL     OW15739   2.429   0.949   0.892
 4947SOL    HW115740   2.501   1.018   0.881
 4947SOL    HW215741   2.392   0.954   0.985
 4948SOL     OW15742   2.248   2.755   2.898
 4948SOL    HW115743   2.321   2.712   2.950
 4948SOL    HW215744   2.162   2.749   2.950
 4949SOL     OW15745   0.179   3.907   4.806
 4949SOL    HW115746   0.177   3.847   4.726
 4949SOL    HW215747   0.244   3.870   4.873
 4950SOL     OW15748   2.255   4.384   5.460
 4950SOL    HW115749   2.339   4.413   5.415
 4950SOL    HW215750   2.196   4.337   5.395
 4951SOL     OW15751   6.278   0.069   4.718
 4951SOL    HW115752   6.256   0.032   4.628
 4951SOL    HW215753   6.311   7.018   4.777
 4952SOL     OW15754   0.405   6.635   6.214
 4952SOL    HW115755   0.467   6.714   6.219
 4952SOL    HW215756   0.311   6.666   6.228
 4953SOL     OW15757   1.368   6.746   3.073
 4953SOL    HW115758   1.309   6.826   3.091
 4953SOL    HW215759   1.408   6.714   3.158
 4954SOL     OW15760   3.182   3.520   0.137
 4954SOL    HW115761   3.178   3.575   0.221
 4954SOL    HW215762   3.201   3.580   0.060
 4955SOL     OW15763   2.834   6.322   6.972
 4955SOL    HW115764   2.848   6.229   6.939
 4955SOL    HW215765   2.920   6.373   6.966
 4956SOL     OW15766   3.062   0.481   4.940
 4956SOL    HW115767   3.095   0.445   4.853
 4956SOL    HW215768   3.017   0.408   4.991
 4957SOL     OW15769   5.349   2.774   0.936
 4957SOL    HW115770   5.346   2.785   1.035
 4957SOL    HW215771   5.256   2.771   0.900
 4958SOL     OW15772   1.418   5.558   6.133
 4958SOL    HW115773   1.409   5.486   6.063
 4958SOL    HW215774   1.501   5.610   6.116
 4959SOL     OW15775   6.151   1.291   1.197
 4959SOL    HW115776   6.104   1.209   1.229
 4959SOL    HW215777   6.129   1.306   1.100
 4960SOL     OW15778   4.388   4.668   4.253
 4960SOL    HW115779   4.437   4.606   4.315
 4960SOL    HW215780   4.335   4.734   4.306
 4961SOL     OW15781   3.328   0.185   6.275
 4961SOL    HW115782   3.235   0.224   6.282
 4961SOL    HW215783   3.377   0.230   6.201
 4962SOL     OW15784   5.872   2.709   0.284
 4962SOL    HW115785   5.952   2.703   0.342
 4962SOL    HW215786   5.885   2.652   0.203
 4963SOL     OW15787   0.913   5.724   0.735
 4963SOL    HW115788   0.894   5.634   0.696
 4963SOL    HW215789   0.965   5.713   0.819
 4964SOL     OW15790   1.995   0.002   4.410
 4964SOL    HW115791   1.975   6.926   4.419
 4964SOL    HW215792   2.081   0.023   4.457
 4965SOL     OW15793   0.854   6.343   2.215
 4965SOL    HW115794   0.951   6.330   2.237
 4965SOL    HW215795   0.806   6.257   2.227
 4966SOL     OW15796   2.984   6.990   4.763
 4966SOL    HW115797   3.038   7.009   4.845
 4966SOL    HW215798   3.013   6.903   4.723
 4967SOL     OW15799   3.114   5.038   5.908
 4967SOL    HW115800   3.134   4.957   5.853
 4967SOL    HW215801   3.114   5.013   6.005
 4968SOL     OW15802   0.322   1.345   3.256
 4968SOL    HW115803   0.301   1.370   3.161
 4968SOL    HW215804   0.258   1.275   3.287
 4969SOL     OW15805   2.100   6.227   2.644
 4969SOL    HW115806   2.176   6.285   2.675
 4969SOL    HW215807   2.019   6.247   2.699
 4970SOL     OW15808   2.369   1.484   1.200
 4970SOL    HW115809   2.293   1.535   1.161
 4970SOL    HW215810   2.347   1.458   1.294
 4971SOL     OW15811   6.242   5.684   2.872
 4971SOL    HW115812   6.215   5.759   2.931
 4971SOL    HW215813   6.342   5.671   2.877
 4972SOL     OW15814   0.455   3.943   1.262
 4972SOL    HW115815   0.421   4.035   1.246
 4972SOL    HW215816   0.477   3.931   1.358
 4973SOL     OW15817   0.866   6.649   1.614
 4973SOL    HW115818   0.871   6.748   1.613
 4973SOL    HW215819   0.844   6.615   1.523
 4974SOL     OW15820   6.109   5.097   0.715
 4974SOL    HW115821   6.022   5.072   0.757
 4974SOL    HW215822   6.146   5.177   0.762
 4975SOL     OW15823   5.814   3.980   6.285
 4975SOL    HW115824   5.867   3.914   6.232
 4975SOL    HW215825   5.872   4.056   6.312
 4976SOL     OW15826   2.097   1.872   4.591
 4976SOL    HW115827   2.093   1.781   4.551
 4976SOL    HW215828   2.171   1.924   4.548
 4977SOL     OW15829   4.746   5.120   0.432
 4977SOL    HW115830   4.779   5.072   0.351
 4977SOL    HW215831   4.660   5.079   0.462
 4978SOL     OW15832   5.886   4.585   4.756
 4978SOL    HW115833   5.852   4.519   4.689
 4978SOL    HW215834   5.832   4.669   4.750
 4979SOL     OW15835   6.699   6.646   6.061
 4979SOL    HW115836   6.648   6.727   6.034
 4979SOL    HW215837   6.785   6.673   6.105
 4980SOL     OW15838   5.147   5.413   3.681
 4980SOL    HW115839   5.084   5.374   3.614
 4980SOL    HW215840   5.120   5.385   3.773
 4981SOL     OW15841   3.962   4.990   1.417
 4981SOL    HW115842   3.862   4.984   1.416
 4981SOL    HW215843   3.992   5.033   1.502
 4982SOL     OW15844   3.355   1.974   5.836
 4982SOL    HW115845   3.326   2.058   5.791
 4982SOL    HW215846   3.454   1.977   5.852
 4983SOL     OW15847   5.329   3.581   5.416
 4983SOL    HW115848   5.328   3.666   5.363
 4983SOL    HW215849   5.401   3.585   5.485
 4984SOL     OW15850   5.035   3.601   3.152
 4984SOL    HW115851   5.003   3.546   3.229
 4984SOL    HW215852   5.123   3.565   3.119
 4985SOL     OW15853   6.108   6.881   3.244
 4985SOL    HW115854   6.009   6.867   3.249
 4985SOL    HW215855   6.154   6.818   3.306
 4986SOL     OW15856   6.552   5.148   0.475
 4986SOL    HW115857   6.543   5.215   0.401
 4986SOL    HW215858   6.475   5.084   0.471
 4987SOL     OW15859   0.691   6.491   2.529
 4987SOL    HW115860   0.656   6.572   2.575
 4987SOL    HW215861   0.665   6.493   2.432
 4988SOL     OW15862   5.097   0.968   2.428
 4988SOL    HW115863   5.052   1.045   2.471
 4988SOL    HW215864   5.162   0.927   2.492
 4989SOL     OW15865   5.280   6.568   0.987
 4989SOL    HW115866   5.333   6.651   1.002
 4989SOL    HW215867   5.255   6.527   1.075
 4990SOL     OW15868   2.871   2.041   6.035
 4990SOL    HW115869   2.823   1.987   6.105
 4990SOL    HW215870   2.962   2.003   6.021
 4991SOL     OW15871   6.085   5.661   4.116
 4991SOL    HW115872   6.046   5.687   4.204
 4991SOL    HW215873   6.118   5.566   4.121
 4992SOL     OW15874   4.608   0.097   2.096
 4992SOL    HW115875   4.577   0.163   2.164
 4992SOL    HW215876   4.708   0.092   2.097
 4993SOL     OW15877   3.642   6.313   5.459
 4993SOL    HW115878   3.652   6.214   5.449
 4993SOL    HW215879   3.730   6.358   5.446
 4994SOL     OW15880   1.716   6.900   4.258
 4994SOL    HW115881   1.797   6.874   4.310
 4994SOL    HW215882   1.639   6.914   4.320
 4995SOL     OW15883   1.069   2.315   5.137
 4995SOL    HW115884   1.075   2.415   5.144
 4995SOL    HW215885   0.981   2.284   5.171
 4996SOL     OW15886   0.049   1.084   3.559
 4996SOL    HW115887   0.064   1.174   3.601
 4996SOL    HW215888   6.993   1.039   3.602
 4997SOL     OW15889   4.591   2.265   2.343
 4997SOL    HW115890   4.689   2.284   2.355
 4997SOL    HW215891   4.549   2.252   2.432
 4998SOL     OW15892   2.038   3.276   4.599
 4998SOL    HW115893   2.110   3.277   4.669
 4998SOL    HW215894   2.036   3.364   4.552
 4999SOL     OW15895   6.692   3.566   4.918
 4999SOL    HW115896   6.687   3.546   4.820
 4999SOL    HW215897   6.788   3.579   4.944
 5000SOL     OW15898   3.400   0.639   3.351
 5000SOL    HW115899   3.366   0.695   3.276
 5000SOL    HW215900   3.474   0.581   3.319
 5001SOL     OW15901   1.284   5.173   1.844
 5001SOL    HW115902   1.217   5.118   1.795
 5001SOL    HW215903   1.256   5.269   1.843
 5002SOL     OW15904   0.922   3.659   2.251
 5002SOL    HW115905   0.979   3.581   2.278
 5002SOL    HW215906   0.827   3.643   2.277
 5003SOL     OW15907   3.638   5.612   3.153
 5003SOL    HW115908   3.560   5.550   3.156
 5003SOL    HW215909   3.719   5.564   3.188
 5004SOL     OW15910   2.238   4.770   5.036
 5004SOL    HW115911   2.185   4.855   5.041
 5004SOL    HW215912   2.314   4.782   4.972
 5005SOL     OW15913   3.514   2.883   0.343
 5005SOL    HW115914   3.613   2.884   0.336
 5005SOL    HW215915   3.487   2.850   0.434
 5006SOL     OW15916   5.312   0.911   1.623
 5006SOL    HW115917   5.220   0.950   1.620
 5006SOL    HW215918   5.329   0.873   1.713
 5007SOL     OW15919   0.177   6.751   1.274
 5007SOL    HW115920   0.187   6.809   1.194
 5007SOL    HW215921   0.204   6.657   1.251
 5008SOL     OW15922   5.327   6.380   1.995
 5008SOL    HW115923   5.326   6.450   1.924
 5008SOL    HW215924   5.339   6.290   1.952
 5009SOL     OW15925   6.952   1.956   0.482
 5009SOL    HW115926   6.941   1.982   0.386
 5009SOL    HW215927   6.875   1.989   0.535
 5010SOL     OW15928   4.206   3.146   1.592
 5010SOL    HW115929   4.247   3.217   1.534
 5010SOL    HW215930   4.277   3.105   1.649
 5011SOL     OW15931   1.603   4.872   2.366
 5011SOL    HW115932   1.564   4.780   2.372
 5011SOL    HW215933   1.541   4.937   2.409
 5012SOL     OW15934   5.139   3.295   5.152
 5012SOL    HW115935   5.200   3.242   5.093
 5012SOL    HW215936   5.145   3.260   5.246
 5013SOL     OW15937   5.178   1.432   6.634
 5013SOL    HW115938   5.262   1.440   6.689
 5013SOL    HW215939   5.158   1.335   6.619
 5014SOL     OW15940   5.693   4.697   1.083
 5014SOL    HW115941   5.743   4.745   1.012
 5014SOL    HW215942   5.595   4.717   1.074
 5015SOL     OW15943   5.064   1.684   5.065
 5015SOL    HW115944   5.098   1.777   5.081
 5015SOL    HW215945   4.965   1.684   5.074
 5016SOL     OW15946   2.264   2.671   5.639
 5016SOL    HW115947   2.255   2.763   5.602
 5016SOL    HW215948   2.199   2.659   5.714
 5017SOL     OW15949   2.278   2.245   1.168
 5017SOL    HW115950   2.219   2.257   1.088
 5017SOL    HW215951   2.350   2.179   1.146
 5018SOL     OW15952   1.304   4.777   2.747
 5018SOL    HW115953   1.275   4.747   2.656
 5018SOL    HW215954   1.257   4.724   2.817
 5019SOL     OW15955   1.007   5.327   5.825
 5019SOL    HW115956   0.951   5.349   5.745
 5019SOL    HW215957   1.009   5.228   5.838
 5020SOL     OW15958   5.403   6.851   6.522
 5020SOL    HW115959   5.400   6.946   6.490
 5020SOL    HW215960   5.404   6.849   6.622
 5021SOL     OW15961   0.694   1.353   6.923
 5021SOL    HW115962   0.648   1.442   6.924
 5021SOL    HW215963   0.626   1.281   6.942
 5022SOL     OW15964   2.153   1.568   1.069
 5022SOL    HW115965   2.066   1.526   1.096
 5022SOL    HW215966   2.182   1.532   0.981
 5023SOL     OW15967   0.095   3.140   1.447
 5023SOL    HW115968   0.184   3.163   1.410
 5023SOL    HW215969   0.068   3.207   1.516
 5024SOL     OW15970   5.959   5.272   1.716
 5024SOL    HW115971   6.059   5.272   1.713
 5024SOL    HW215972   5.924   5.183   1.687
 5025SOL     OW15973   4.172   1.962   3.324
 5025SOL    HW115974   4.151   1.958   3.422
 5025SOL    HW215975   4.264   1.927   3.308
 5026SOL     OW15976   6.420   6.116   5.217
 5026SOL    HW115977   6.472   6.045   5.170
 5026SOL    HW215978   6.353   6.073   5.278
 5027SOL     OW15979   6.841   6.419   1.814
 5027SOL    HW115980   6.776   6.426   1.738
 5027SOL    HW215981   6.929   6.385   1.780
 5028SOL     OW15982   0.379   2.389   2.271
 5028SOL    HW115983   0.310   2.459   2.290
 5028SOL    HW215984   0.468   2.433   2.258
 5029SOL     OW15985   6.409   2.142   2.466
 5029SOL    HW115986   6.505   2.115   2.463
 5029SOL    HW215987   6.358   2.090   2.397
 5030SOL     OW15988   0.296   5.932   6.304
 5030SOL    HW115989   0.239   5.913   6.384
 5030SOL    HW215990   0.251   6.001   6.247
 5031SOL     OW15991   6.215   0.924   6.321
 5031SOL    HW115992   6.171   1.014   6.320
 5031SOL    HW215993   6.312   0.934   6.295
 5032SOL     OW15994   2.074   2.642   6.440
 5032SOL    HW115995   2.139   2.647   6.364
 5032SOL    HW215996   2.121   2.663   6.526
 5033SOL     OW15997   2.049   6.848   5.575
 5033SOL    HW115998   2.058   6.800   5.488
 5033SOL    HW215999   2.088   6.793   5.649
 5034SOL     OW16000   5.885   0.010   3.634
 5034SOL    HW116001   5.872   6.937   3.606
 5034SOL    HW216002   5.895   0.015   3.734
 5035SOL     OW16003   0.261   4.048   5.921
 5035SOL    HW116004   0.296   3.968   5.873
 5035SOL    HW216005   0.276   4.038   6.019
 5036SOL     OW16006   0.653   4.870   6.998
 5036SOL    HW116007   0.605   4.794   0.019
 5036SOL    HW216008   0.592   4.917   6.934
 5037SOL     OW16009   5.624   4.019   1.591
 5037SOL    HW116010   5.632   4.111   1.553
 5037SOL    HW216011   5.680   3.956   1.537
 5038SOL     OW16012   3.793   3.719   5.874
 5038SOL    HW116013   3.811   3.675   5.962
 5038SOL    HW216014   3.701   3.695   5.843
 5039SOL     OW16015   2.344   4.491   5.924
 5039SOL    HW116016   2.347   4.419   5.855
 5039SOL    HW216017   2.392   4.573   5.889
 5040SOL     OW16018   1.553   6.549   5.822
 5040SOL    HW116019   1.466   6.597   5.823
 5040SOL    HW216020   1.561   6.492   5.904
 5041SOL     OW16021   1.825   1.787   2.767
 5041SOL    HW116022   1.800   1.713   2.829
 5041SOL    HW216023   1.774   1.777   2.682
 5042SOL     OW16024   6.238   3.026   7.013
 5042SOL    HW116025   6.305   2.974   0.043
 5042SOL    HW216026   6.149   3.022   0.036
 5043SOL     OW16027   3.359   6.950   6.195
 5043SOL    HW116028   3.328   0.021   6.213
 5043SOL    HW216029   3.458   6.945   6.207
 5044SOL     OW16030   0.825   6.410   0.017
 5044SOL    HW116031   0.903   6.439   6.983
 5044SOL    HW216032   0.803   6.315   7.020
 5045SOL     OW16033   5.632   0.051   6.097
 5045SOL    HW116034   5.639   0.086   6.191
 5045SOL    HW216035   5.684   6.989   6.089
 5046SOL     OW16036   3.449   4.159   2.841
 5046SOL    HW116037   3.472   4.182   2.935
 5046SOL    HW216038   3.350   4.164   2.829
 5047SOL     OW16039   0.794   4.085   2.837
 5047SOL    HW116040   0.887   4.054   2.817
 5047SOL    HW216041   0.796   4.148   2.914
 5048SOL     OW16042   0.904   1.259   2.991
 5048SOL    HW116043   0.964   1.254   3.071
 5048SOL    HW216044   0.827   1.319   3.011
 5049SOL     OW16045   5.082   1.842   6.253
 5049SOL    HW116046   5.084   1.821   6.155
 5049SOL    HW216047   5.097   1.758   6.306
 5050SOL     OW16048   2.197   0.688   1.316
 5050SOL    HW116049   2.189   0.645   1.405
 5050SOL    HW216050   2.291   0.718   1.301
 5051SOL     OW16051   4.234   4.316   0.921
 5051SOL    HW116052   4.175   4.235   0.914
 5051SOL    HW216053   4.294   4.306   1.001
 5052SOL     OW16054   2.594   0.968   6.138
 5052SOL    HW116055   2.631   0.990   6.228
 5052SOL    HW216056   2.533   1.041   6.109
 5053SOL     OW16057   2.120   3.773   3.973
 5053SOL    HW116058   2.108   3.828   4.056
 5053SOL    HW216059   2.115   3.833   3.893
 5054SOL     OW16060   3.468   4.970   4.705
 5054SOL    HW116061   3.506   5.060   4.724
 5054SOL    HW216062   3.458   4.918   4.790
 5055SOL     OW16063   1.973   2.346   5.465
 5055SOL    HW116064   1.921   2.260   5.461
 5055SOL    HW216065   1.911   2.423   5.452
 5056SOL     OW16066   5.528   4.421   6.534
 5056SOL    HW116067   5.447   4.475   6.511
 5056SOL    HW216068   5.501   4.345   6.593
 5057SOL     OW16069   6.406   5.925   3.721
 5057SOL    HW116070   6.472   5.945   3.794
 5057SOL    HW216071   6.340   6.000   3.715
 5058SOL     OW16072   3.321   4.010   5.453
 5058SOL    HW116073   3.255   4.006   5.378
 5058SOL    HW216074   3.388   3.936   5.443
 5059SOL     OW16075   6.598   1.145   3.346
 5059SOL    HW116076   6.617   1.239   3.316
 5059SOL    HW216077   6.620   1.081   3.272
 5060SOL     OW16078   0.700   2.316   5.739
 5060SOL    HW116079   0.678   2.330   5.643
 5060SOL    HW216080   0.789   2.272   5.748
 5061SOL     OW16081   4.417   2.783   1.568
 5061SOL    HW116082   4.421   2.683   1.579
 5061SOL    HW216083   4.341   2.806   1.508
 5062SOL     OW16084   6.085   0.724   3.234
 5062SOL    HW116085   6.104   0.668   3.153
 5062SOL    HW216086   6.002   0.777   3.220
 5063SOL     OW16087   0.702   6.817   2.103
 5063SOL    HW116088   0.769   6.868   2.157
 5063SOL    HW216089   0.613   6.861   2.109
 5064SOL     OW16090   4.975   3.586   1.514
 5064SOL    HW116091   4.981   3.610   1.417
 5064SOL    HW216092   5.033   3.507   1.533
 5065SOL     OW16093   2.252   0.908   3.552
 5065SOL    HW116094   2.328   0.961   3.515
 5065SOL    HW216095   2.210   0.957   3.627
 5066SOL     OW16096   4.760   5.029   2.337
 5066SOL    HW116097   4.697   5.078   2.278
 5066SOL    HW216098   4.760   5.071   2.428
 5067SOL     OW16099   4.837   1.242   1.976
 5067SOL    HW116100   4.912   1.298   2.011
 5067SOL    HW216101   4.874   1.166   1.922
 5068SOL     OW16102   3.466   4.450   1.258
 5068SOL    HW116103   3.412   4.400   1.191
 5068SOL    HW216104   3.432   4.544   1.264
 5069SOL     OW16105   1.975   3.734   5.834
 5069SOL    HW116106   2.022   3.675   5.901
 5069SOL    HW216107   2.024   3.730   5.747
 5070SOL     OW16108   5.318   4.359   4.368
 5070SOL    HW116109   5.245   4.291   4.372
 5070SOL    HW216110   5.393   4.331   4.427
 5071SOL     OW16111   4.281   2.132   3.695
 5071SOL    HW116112   4.326   2.209   3.739
 5071SOL    HW216113   4.347   2.059   3.677
 5072SOL     OW16114   1.202   0.085   1.106
 5072SOL    HW116115   1.206   0.137   1.021
 5072SOL    HW216116   1.108   0.088   1.142
 5073SOL     OW16117   0.182   5.687   2.267
 5073SOL    HW116118   0.227   5.683   2.357
 5073SOL    HW216119   0.245   5.728   2.201
 5074SOL     OW16120   3.289   3.077   0.890
 5074SOL    HW116121   3.205   3.094   0.941
 5074SOL    HW216122   3.346   3.011   0.940
 5075SOL     OW16123   1.173   2.378   6.725
 5075SOL    HW116124   1.186   2.363   6.823
 5075SOL    HW216125   1.077   2.363   6.702
 5076SOL     OW16126   3.745   1.360   0.977
 5076SOL    HW116127   3.764   1.275   0.928
 5076SOL    HW216128   3.832   1.407   0.996
 5077SOL     OW16129   1.044   4.288   5.263
 5077SOL    HW116130   1.034   4.212   5.199
 5077SOL    HW216131   1.137   4.288   5.300
 5078SOL     OW16132   2.266   1.502   3.769
 5078SOL    HW116133   2.239   1.464   3.681
 5078SOL    HW216134   2.186   1.509   3.829
 5079SOL     OW16135   2.734   3.657   6.067
 5079SOL    HW116136   2.781   3.706   6.141
 5079SOL    HW216137   2.767   3.691   5.979
 5080SOL     OW16138   6.248   6.433   5.961
 5080SOL    HW116139   6.330   6.472   6.005
 5080SOL    HW216140   6.257   6.442   5.862
 5081SOL     OW16141   3.478   3.059   4.434
 5081SOL    HW116142   3.399   3.035   4.490
 5081SOL    HW216143   3.557   3.073   4.493
 5082SOL     OW16144   4.888   6.034   6.689
 5082SOL    HW116145   4.811   6.061   6.746
 5082SOL    HW216146   4.911   5.939   6.708
 5083SOL     OW16147   2.508   7.000   2.978
 5083SOL    HW116148   2.576   0.015   3.041
 5083SOL    HW216149   2.547   6.923   2.928
 5084SOL     OW16150   0.256   4.680   4.204
 5084SOL    HW116151   0.178   4.721   4.251
 5084SOL    HW216152   0.251   4.701   4.107
 5085SOL     OW16153   4.658   3.729   6.560
 5085SOL    HW116154   4.594   3.698   6.631
 5085SOL    HW216155   4.609   3.785   6.493
 5086SOL     OW16156   0.248   5.100   3.426
 5086SOL    HW116157   0.206   5.100   3.517
 5086SOL    HW216158   0.305   5.181   3.416
 5087SOL     OW16159   0.518   5.002   2.697
 5087SOL    HW116160   0.519   5.090   2.744
 5087SOL    HW216161   0.589   4.943   2.735
 5088SOL     OW16162   6.513   1.333   5.045
 5088SOL    HW116163   6.473   1.407   4.991
 5088SOL    HW216164   6.457   1.250   5.035
 5089SOL     OW16165   5.346   3.146   3.631
 5089SOL    HW116166   5.390   3.111   3.714
 5089SOL    HW216167   5.279   3.215   3.656
 5090SOL     OW16168   1.699   3.944   2.868
 5090SOL    HW116169   1.714   4.025   2.812
 5090SOL    HW216170   1.637   3.882   2.821
 5091SOL     OW16171   0.905   6.933   2.275
 5091SOL    HW116172   0.868   6.996   2.343
 5091SOL    HW216173   1.004   6.942   2.271
 5092SOL     OW16174   3.619   2.966   1.336
 5092SOL    HW116175   3.695   2.905   1.314
 5092SOL    HW216176   3.646   3.060   1.320
 5093SOL     OW16177   2.579   1.608   1.044
 5093SOL    HW116178   2.601   1.544   0.970
 5093SOL    HW216179   2.526   1.560   1.114
 5094SOL     OW16180   1.597   6.017   5.412
 5094SOL    HW116181   1.679   6.071   5.431
 5094SOL    HW216182   1.524   6.078   5.379
 5095SOL     OW16183   0.095   2.823   4.785
 5095SOL    HW116184   0.075   2.881   4.864
 5095SOL    HW216185   0.039   2.853   4.708
 5096SOL     OW16186   4.206   3.951   0.658
 5096SOL    HW116187   4.218   4.017   0.584
 5096SOL    HW216188   4.295   3.929   0.698
 5097SOL     OW16189   1.157   0.739   6.808
 5097SOL    HW116190   1.251   0.710   6.826
 5097SOL    HW216191   1.157   0.811   6.739
 5098SOL     OW16192   1.367   1.008   1.499
 5098SOL    HW116193   1.271   0.984   1.515
 5098SOL    HW216194   1.373   1.107   1.483
 5099SOL     OW16195   0.734   6.129   6.938
 5099SOL    HW116196   0.688   6.106   6.852
 5099SOL    HW216197   0.779   6.047   6.975
 5100SOL     OW16198   3.880   5.793   5.322
 5100SOL    HW116199   3.921   5.882   5.300
 5100SOL    HW216200   3.831   5.800   5.409
 5101SOL     OW16201   4.232   6.631   0.393
 5101SOL    HW116202   4.142   6.637   0.349
 5101SOL    HW216203   4.224   6.656   0.489
 5102SOL     OW16204   6.131   0.944   4.582
 5102SOL    HW116205   6.197   0.873   4.556
 5102SOL    HW216206   6.125   0.948   4.682
 5103SOL     OW16207   0.551   1.133   4.389
 5103SOL    HW116208   0.565   1.120   4.291
 5103SOL    HW216209   0.534   1.045   4.432
 5104SOL     OW16210   1.903   6.553   2.709
 5104SOL    HW116211   1.851   6.498   2.644
 5104SOL    HW216212   1.840   6.593   2.776
 5105SOL     OW16213   3.412   2.494   0.190
 5105SOL    HW116214   3.376   2.587   0.199
 5105SOL    HW216215   3.421   2.453   0.280
 5106SOL     OW16216   3.422   0.945   0.983
 5106SOL    HW116217   3.423   0.966   0.885
 5106SOL    HW216218   3.327   0.946   1.016
 5107SOL     OW16219   4.048   0.851   0.524
 5107SOL    HW116220   3.995   0.769   0.502
 5107SOL    HW216221   4.141   0.841   0.490
 5108SOL     OW16222   3.015   3.751   4.311
 5108SOL    HW116223   3.042   3.846   4.324
 5108SOL    HW216224   2.991   3.711   4.400
 5109SOL     OW16225   1.263   1.166   0.909
 5109SOL    HW116226   1.317   1.111   0.972
 5109SOL    HW216227   1.190   1.213   0.958
 5110SOL     OW16228   0.584   0.520   6.512
 5110SOL    HW116229   0.517   0.578   6.558
 5110SOL    HW216230   0.577   0.427   6.546
 5111SOL     OW16231   2.271   1.045   5.596
 5111SOL    HW116232   2.320   1.048   5.509
 5111SOL    HW216233   2.320   0.985   5.660
 5112SOL     OW16234   0.547   7.015   2.359
 5112SOL    HW116235   0.567   6.926   2.320
 5112SOL    HW216236   0.455   0.021   2.332
 5113SOL     OW16237   2.263   0.028   1.891
 5113SOL    HW116238   2.190   0.055   1.828
 5113SOL    HW216239   2.322   6.983   1.847
 5114SOL     OW16240   3.084   2.129   0.103
 5114SOL    HW116241   2.996   2.176   0.112
 5114SOL    HW216242   3.155   2.195   0.076
 5115SOL     OW16243   2.033   5.250   4.627
 5115SOL    HW116244   1.999   5.174   4.571
 5115SOL    HW216245   1.969   5.326   4.623
 5116SOL     OW16246   5.842   6.470   6.518
 5116SOL    HW116247   5.905   6.396   6.495
 5116SOL    HW216248   5.864   6.505   6.609
 5117SOL     OW16249   2.322   4.936   4.779
 5117SOL    HW116250   2.253   4.914   4.710
 5117SOL    HW216251   2.403   4.974   4.735
 5118SOL     OW16252   4.753   0.338   0.474
 5118SOL    HW116253   4.704   0.265   0.427
 5118SOL    HW216254   4.701   0.423   0.468
 5119SOL     OW16255   5.620   1.024   1.612
 5119SOL    HW116256   5.550   1.072   1.559
 5119SOL    HW216257   5.578   0.952   1.666
 5120SOL     OW16258   4.502   1.229   3.897
 5120SOL    HW116259   4.526   1.282   3.815
 5120SOL    HW216260   4.441   1.283   3.955
 5121SOL     OW16261   1.889   2.587   0.314
 5121SOL    HW116262   1.914   2.513   0.252
 5121SOL    HW216263   1.898   2.557   0.408
 5122SOL     OW16264   2.910   0.255   3.979
 5122SOL    HW116265   2.850   0.335   3.983
 5122SOL    HW216266   3.004   0.285   3.960
 5123SOL     OW16267   6.043   2.195   5.379
 5123SOL    HW116268   5.999   2.204   5.469
 5123SOL    HW216269   6.122   2.134   5.386
 5124SOL     OW16270   3.063   5.226   4.927
 5124SOL    HW116271   3.048   5.314   4.881
 5124SOL    HW216272   2.996   5.160   4.894
 5125SOL     OW16273   6.026   2.944   3.869
 5125SOL    HW116274   6.119   2.947   3.904
 5125SOL    HW216275   5.989   2.851   3.881
 5126SOL     OW16276   6.139   5.231   6.050
 5126SOL    HW116277   6.088   5.305   6.007
 5126SOL    HW216278   6.212   5.200   5.990
 5127SOL     OW16279   6.818   4.231   0.409
 5127SOL    HW116280   6.797   4.135   0.429
 5127SOL    HW216281   6.909   4.253   0.446
 5128SOL     OW16282   0.195   6.773   6.397
 5128SOL    HW116283   0.285   6.777   6.441
 5128SOL    HW216284   0.143   6.696   6.434
 5129SOL     OW16285   4.375   0.084   2.804
 5129SOL    HW116286   4.283   0.046   2.793
 5129SOL    HW216287   4.375   0.181   2.777
 5130SOL     OW16288   1.532   5.941   4.409
 5130SOL    HW116289   1.545   5.944   4.310
 5130SOL    HW216290   1.517   5.846   4.437
 5131SOL     OW16291   3.046   4.850   3.835
 5131SOL    HW116292   3.099   4.878   3.755
 5131SOL    HW216293   2.969   4.793   3.805
 5132SOL     OW16294   3.428   1.208   6.014
 5132SOL    HW116295   3.432   1.217   6.114
 5132SOL    HW216296   3.506   1.255   5.973
 5133SOL     OW16297   2.326   5.425   6.521
 5133SOL    HW116298   2.407   5.394   6.572
 5133SOL    HW216299   2.249   5.364   6.540
 5134SOL     OW16300   6.496   0.497   2.165
 5134SOL    HW116301   6.453   0.587   2.170
 5134SOL    HW216302   6.529   0.472   2.256
 5135SOL     OW16303   5.262   3.475   4.068
 5135SOL    HW116304   5.261   3.438   4.161
 5135SOL    HW216305   5.169   3.471   4.030
 5136SOL     OW16306   5.372   0.868   5.940
 5136SOL    HW116307   5.361   0.800   6.013
 5136SOL    HW216308   5.310   0.945   5.958
 5137SOL     OW16309   5.258   3.517   4.904
 5137SOL    HW116310   5.216   3.437   4.860
 5137SOL    HW216311   5.186   3.576   4.941
 5138SOL     OW16312   3.518   4.155   4.522
 5138SOL    HW116313   3.509   4.074   4.464
 5138SOL    HW216314   3.430   4.202   4.528
 5139SOL     OW16315   0.864   0.014   4.390
 5139SOL    HW116316   0.809   0.041   4.469
 5139SOL    HW216317   0.890   0.095   4.337
 5140SOL     OW16318   3.838   2.117   5.634
 5140SOL    HW116319   3.847   2.038   5.573
 5140SOL    HW216320   3.908   2.185   5.611
 5141SOL     OW16321   6.764   3.645   1.208
 5141SOL    HW116322   6.833   3.587   1.166
 5141SOL    HW216323   6.746   3.724   1.148
 5142SOL     OW16324   5.484   7.020   4.860
 5142SOL    HW116325   5.431   6.942   4.825
 5142SOL    HW216326   5.546   6.988   4.931
 5143SOL     OW16327   0.589   4.242   4.585
 5143SOL    HW116328   0.664   4.180   4.562
 5143SOL    HW216329   0.524   4.195   4.645
 5144SOL     OW16330   2.146   4.432   6.167
 5144SOL    HW116331   2.132   4.462   6.073
 5144SOL    HW216332   2.153   4.332   6.169
 5145SOL     OW16333   4.226   5.917   5.932
 5145SOL    HW116334   4.127   5.920   5.944
 5145SOL    HW216335   4.261   6.011   5.924
 5146SOL     OW16336   3.427   4.149   5.053
 5146SOL    HW116337   3.515   4.102   5.055
 5146SOL    HW216338   3.388   4.145   4.961
 5147SOL     OW16339   6.041   5.079   3.744
 5147SOL    HW116340   5.946   5.075   3.775
 5147SOL    HW216341   6.052   5.021   3.663
 5148SOL     OW16342   0.305   1.291   2.170
 5148SOL    HW116343   0.307   1.350   2.250
 5148SOL    HW216344   0.210   1.278   2.141
 5149SOL     OW16345   6.092   5.457   4.818
 5149SOL    HW116346   6.072   5.434   4.723
 5149SOL    HW216347   6.156   5.390   4.855
 5150SOL     OW16348   2.042   4.525   3.985
 5150SOL    HW116349   2.136   4.561   3.985
 5150SOL    HW216350   1.978   4.600   3.969
 5151SOL     OW16351   6.711   4.314   2.106
 5151SOL    HW116352   6.730   4.404   2.068
 5151SOL    HW216353   6.651   4.263   2.044
 5152SOL     OW16354   2.293   5.574   7.009
 5152SOL    HW116355   2.377   5.565   6.957
 5152SOL    HW216356   2.227   5.505   6.979
 5153SOL     OW16357   0.347   2.204   0.782
 5153SOL    HW116358   0.324   2.109   0.761
 5153SOL    HW216359   0.336   2.259   0.699
 5154SOL     OW16360   1.144   2.882   5.563
 5154SOL    HW116361   1.106   2.813   5.625
 5154SOL    HW216362   1.176   2.960   5.616
 5155SOL     OW16363   3.755   0.605   1.829
 5155SOL    HW116364   3.760   0.619   1.928
 5155SOL    HW216365   3.765   0.507   1.809
 5156SOL     OW16366   5.910   4.678   5.490
 5156SOL    HW116367   5.916   4.666   5.390
 5156SOL    HW216368   6.001   4.700   5.525
 5157SOL     OW16369   3.185   1.997   2.431
 5157SOL    HW116370   3.230   1.931   2.370
 5157SOL    HW216371   3.127   2.058   2.377
 5158SOL     OW16372   4.351   2.466   0.833
 5158SOL    HW116373   4.373   2.473   0.930
 5158SOL    HW216374   4.323   2.372   0.813
 5159SOL     OW16375   5.792   3.266   5.970
 5159SOL    HW116376   5.852   3.186   5.970
 5159SOL    HW216377   5.841   3.345   6.009
 5160SOL     OW16378   0.041   5.135   3.235
 5160SOL    HW116379   0.069   5.220   3.192
 5160SOL    HW216380   0.110   5.107   3.302
 5161SOL     OW16381   1.273   3.861   0.190
 5161SOL    HW116382   1.257   3.937   0.254
 5161SOL    HW216383   1.301   3.780   0.242
 5162SOL     OW16384   0.929   5.470   2.777
 5162SOL    HW116385   0.941   5.387   2.722
 5162SOL    HW216386   0.998   5.537   2.751
 5163SOL     OW16387   3.640   6.108   0.271
 5163SOL    HW116388   3.667   6.204   0.264
 5163SOL    HW216389   3.543   6.099   0.246
 5164SOL     OW16390   3.164   3.077   0.078
 5164SOL    HW116391   3.216   3.035   0.004
 5164SOL    HW216392   3.187   3.032   0.165
 5165SOL     OW16393   0.285   4.246   5.737
 5165SOL    HW116394   0.276   4.186   5.817
 5165SOL    HW216395   0.232   4.208   5.661
 5166SOL     OW16396   2.485   4.924   2.865
 5166SOL    HW116397   2.488   5.006   2.807
 5166SOL    HW216398   2.411   4.933   2.931
 5167SOL     OW16399   6.336   4.229   4.937
 5167SOL    HW116400   6.325   4.291   4.859
 5167SOL    HW216401   6.266   4.157   4.932
 5168SOL     OW16402   5.240   3.198   2.961
 5168SOL    HW116403   5.175   3.272   2.943
 5168SOL    HW216404   5.295   3.182   2.878
 5169SOL     OW16405   4.344   2.311   3.411
 5169SOL    HW116406   4.355   2.267   3.500
 5169SOL    HW216407   4.259   2.364   3.411
 5170SOL     OW16408   1.371   3.629   5.175
 5170SOL    HW116409   1.364   3.579   5.261
 5170SOL    HW216410   1.465   3.622   5.140
 5171SOL     OW16411   6.671   4.379   5.967
 5171SOL    HW116412   6.630   4.296   6.004
 5171SOL    HW216413   6.748   4.355   5.908
 5172SOL     OW16414   1.613   4.216   2.988
 5172SOL    HW116415   1.600   4.121   2.959
 5172SOL    HW216416   1.672   4.218   3.070
 5173SOL     OW16417   4.623   5.538   5.197
 5173SOL    HW116418   4.553   5.606   5.220
 5173SOL    HW216419   4.667   5.506   5.281
 5174SOL     OW16420   2.389   4.886   3.653
 5174SOL    HW116421   2.420   4.793   3.629
 5174SOL    HW216422   2.403   4.901   3.751
 5175SOL     OW16423   2.354   3.787   6.994
 5175SOL    HW116424   2.342   3.818   6.900
 5175SOL    HW216425   2.380   3.865   0.029
 5176SOL     OW16426   4.677   4.589   6.203
 5176SOL    HW116427   4.666   4.493   6.180
 5176SOL    HW216428   4.744   4.598   6.277
 5177SOL     OW16429   4.940   6.616   0.907
 5177SOL    HW116430   5.024   6.607   0.853
 5177SOL    HW216431   4.865   6.570   0.859
 5178SOL     OW16432   1.351   4.641   1.979
 5178SOL    HW116433   1.417   4.611   2.048
 5178SOL    HW216434   1.392   4.713   1.923
 5179SOL     OW16435   4.960   4.587   4.131
 5179SOL    HW116436   4.921   4.504   4.092
 5179SOL    HW216437   4.913   4.667   4.094
 5180SOL     OW16438   3.548   1.068   1.418
 5180SOL    HW116439   3.557   1.115   1.331
 5180SOL    HW216440   3.617   1.102   1.482
 5181SOL     OW16441   6.327   0.717   1.903
 5181SOL    HW116442   6.349   0.740   1.997
 5181SOL    HW216443   6.237   0.673   1.900
 5182SOL     OW16444   4.537   4.638   2.291
 5182SOL    HW116445   4.596   4.704   2.244
 5182SOL    HW216446   4.449   4.631   2.243
 5183SOL     OW16447   3.812   1.837   3.010
 5183SOL    HW116448   3.768   1.925   3.029
 5183SOL    HW216449   3.875   1.815   3.085
 5184SOL     OW16450   2.208   2.062   3.602
 5184SOL    HW116451   2.177   2.054   3.697
 5184SOL    HW216452   2.276   1.991   3.583
 5185SOL     OW16453   5.169   0.932   2.994
 5185SOL    HW116454   5.122   0.845   3.003
 5185SOL    HW216455   5.120   1.002   3.046
 5186SOL     OW16456   6.080   2.493   6.444
 5186SOL    HW116457   6.162   2.550   6.433
 5186SOL    HW216458   5.999   2.551   6.447
 5187SOL     OW16459   1.204   5.766   5.608
 5187SOL    HW116460   1.168   5.760   5.515
 5187SOL    HW216461   1.165   5.846   5.654
 5188SOL     OW16462   6.218   6.116   1.888
 5188SOL    HW116463   6.139   6.148   1.835
 5188SOL    HW216464   6.252   6.190   1.945
 5189SOL     OW16465   4.790   6.187   0.211
 5189SOL    HW116466   4.714   6.188   0.276
 5189SOL    HW216467   4.772   6.251   0.137
 5190SOL     OW16468   0.780   3.602   3.722
 5190SOL    HW116469   0.699   3.642   3.680
 5190SOL    HW216470   0.861   3.655   3.695
 5191SOL     OW16471   3.198   6.201   2.199
 5191SOL    HW116472   3.221   6.109   2.233
 5191SOL    HW216473   3.139   6.247   2.265
 5192SOL     OW16474   1.634   6.066   1.076
 5192SOL    HW116475   1.624   5.968   1.098
 5192SOL    HW216476   1.549   6.100   1.037
 5193SOL     OW16477   5.231   5.819   5.640
 5193SOL    HW116478   5.205   5.830   5.544
 5193SOL    HW216479   5.149   5.815   5.697
 5194SOL     OW16480   3.740   2.535   6.599
 5194SOL    HW116481   3.778   2.457   6.650
 5194SOL    HW216482   3.737   2.615   6.658
 5195SOL     OW16483   0.434   0.412   4.255
 5195SOL    HW116484   0.413   0.407   4.353
 5195SOL    HW216485   0.348   0.408   4.203
 5196SOL     OW16486   4.922   6.947   2.340
 5196SOL    HW116487   4.910   6.999   2.256
 5196SOL    HW216488   4.837   6.899   2.362
 5197SOL     OW16489   2.017   3.953   6.831
 5197SOL    HW116490   1.969   3.960   6.744
 5197SOL    HW216491   1.977   4.018   6.896
 5198SOL     OW16492   4.676   5.904   3.174
 5198SOL    HW116493   4.583   5.907   3.136
 5198SOL    HW216494   4.672   5.869   3.267
 5199SOL     OW16495   0.908   6.121   0.910
 5199SOL    HW116496   0.964   6.201   0.892
 5199SOL    HW216497   0.919   6.093   1.005
 5200SOL     OW16498   6.924   3.756   4.915
 5200SOL    HW116499   6.988   3.801   4.853
 5200SOL    HW216500   6.836   3.804   4.911
 5201SOL     OW16501   0.740   6.398   2.899
 5201SOL    HW116502   0.761   6.495   2.915
 5201SOL    HW216503   0.820   6.353   2.861
 5202SOL     OW16504   4.929   2.858   6.578
 5202SOL    HW116505   4.855   2.895   6.521
 5202SOL    HW216506   5.003   2.924   6.585
 5203SOL     OW16507   2.167   1.863   6.307
 5203SOL    HW116508   2.134   1.939   6.363
 5203SOL    HW216509   2.120   1.862   6.220
 5204SOL     OW16510   3.485   5.086   0.416
 5204SOL    HW116511   3.473   5.015   0.347
 5204SOL    HW216512   3.398   5.105   0.461
 5205SOL     OW16513   1.471   6.521   0.446
 5205SOL    HW116514   1.503   6.549   0.536
 5205SOL    HW216515   1.377   6.488   0.453
 5206SOL     OW16516   0.364   4.592   4.926
 5206SOL    HW116517   0.349   4.581   4.828
 5206SOL    HW216518   0.462   4.596   4.944
 5207SOL     OW16519   1.054   6.149   3.704
 5207SOL    HW116520   1.067   6.247   3.690
 5207SOL    HW216521   0.958   6.125   3.688
 5208SOL     OW16522   3.669   2.032   6.749
 5208SOL    HW116523   3.611   2.091   6.693
 5208SOL    HW216524   3.759   2.074   6.760
 5209SOL     OW16525   5.558   5.955   3.323
 5209SOL    HW116526   5.540   5.857   3.317
 5209SOL    HW216527   5.525   6.000   3.240
 5210SOL     OW16528   5.564   2.450   5.637
 5210SOL    HW116529   5.645   2.414   5.591
 5210SOL    HW216530   5.501   2.489   5.570
 5211SOL     OW16531   3.671   3.349   5.281
 5211SOL    HW116532   3.748   3.353   5.217
 5211SOL    HW216533   3.642   3.254   5.293
 5212SOL     OW16534   6.237   1.537   0.571
 5212SOL    HW116535   6.277   1.560   0.660
 5212SOL    HW216536   6.238   1.438   0.559
 5213SOL     OW16537   4.739   4.083   6.776
 5213SOL    HW116538   4.796   4.105   6.696
 5213SOL    HW216539   4.716   3.985   6.774
 5214SOL     OW16540   4.820   1.493   6.176
 5214SOL    HW116541   4.772   1.513   6.090
 5214SOL    HW216542   4.799   1.399   6.204
 5215SOL     OW16543   5.753   4.697   3.565
 5215SOL    HW116544   5.746   4.764   3.640
 5215SOL    HW216545   5.661   4.674   3.533
 5216SOL     OW16546   4.136   5.395   1.774
 5216SOL    HW116547   4.087   5.378   1.860
 5216SOL    HW216548   4.205   5.466   1.789
 5217SOL     OW16549   3.474   5.331   4.283
 5217SOL    HW116550   3.442   5.417   4.324
 5217SOL    HW216551   3.397   5.268   4.273
 5218SOL     OW16552   0.902   0.971   3.194
 5218SOL    HW116553   0.871   0.965   3.099
 5218SOL    HW216554   0.907   0.878   3.232
 5219SOL     OW16555   4.048   0.575   5.541
 5219SOL    HW116556   3.998   0.492   5.565
 5219SOL    HW216557   4.028   0.599   5.446
 5220SOL     OW16558   1.471   6.164   2.594
 5220SOL    HW116559   1.532   6.085   2.593
 5220SOL    HW216560   1.403   6.154   2.521
 5221SOL     OW16561   5.607   1.986   3.874
 5221SOL    HW116562   5.616   2.015   3.970
 5221SOL    HW216563   5.522   2.023   3.836
 5222SOL     OW16564   2.874   6.806   3.521
 5222SOL    HW116565   2.863   6.760   3.609
 5222SOL    HW216566   2.785   6.839   3.490
 5223SOL     OW16567   5.266   0.899   0.961
 5223SOL    HW116568   5.361   0.931   0.968
 5223SOL    HW216569   5.207   0.976   0.937
 5224SOL     OW16570   0.001   2.239   3.743
 5224SOL    HW116571   6.985   2.221   3.834
 5224SOL    HW216572   0.076   2.305   3.752
 5225SOL     OW16573   0.159   6.982   3.279
 5225SOL    HW116574   0.212   0.036   3.316
 5225SOL    HW216575   0.195   6.896   3.314
 5226SOL     OW16576   0.410   5.626   4.751
 5226SOL    HW116577   0.334   5.661   4.806
 5226SOL    HW216578   0.469   5.569   4.808
 5227SOL     OW16579   1.822   4.685   3.962
 5227SOL    HW116580   1.768   4.650   3.885
 5227SOL    HW216581   1.767   4.681   4.046
 5228SOL     OW16582   6.378   2.207   1.027
 5228SOL    HW116583   6.471   2.171   1.031
 5228SOL    HW216584   6.378   2.304   1.052
 5229SOL     OW16585   1.575   4.274   0.179
 5229SOL    HW116586   1.629   4.194   0.154
 5229SOL    HW216587   1.619   4.321   0.255
 5230SOL     OW16588   0.282   6.521   1.186
 5230SOL    HW116589   0.308   6.426   1.170
 5230SOL    HW216590   0.316   6.578   1.111
 5231SOL     OW16591   4.115   3.614   4.976
 5231SOL    HW116592   4.112   3.609   4.876
 5231SOL    HW216593   4.149   3.704   5.004
 5232SOL     OW16594   3.227   1.726   5.774
 5232SOL    HW116595   3.137   1.737   5.731
 5232SOL    HW216596   3.256   1.813   5.814
 5233SOL     OW16597   5.481   0.469   1.555
 5233SOL    HW116598   5.425   0.551   1.543
 5233SOL    HW216599   5.564   0.477   1.499
 5234SOL     OW16600   2.149   0.333   7.009
 5234SOL    HW116601   2.055   0.319   6.976
 5234SOL    HW216602   2.184   0.420   6.976
 5235SOL     OW16603   1.843   2.942   1.279
 5235SOL    HW116604   1.744   2.959   1.275
 5235SOL    HW216605   1.891   3.024   1.249
 5236SOL     OW16606   5.855   3.606   2.249
 5236SOL    HW116607   5.858   3.676   2.320
 5236SOL    HW216608   5.777   3.623   2.189
 5237SOL     OW16609   2.403   0.787   5.646
 5237SOL    HW116610   2.440   0.785   5.553
 5237SOL    HW216611   2.475   0.811   5.710
 5238SOL     OW16612   1.232   4.751   0.777
 5238SOL    HW116613   1.265   4.796   0.694
 5238SOL    HW216614   1.134   4.732   0.768
 5239SOL     OW16615   3.942   3.822   4.319
 5239SOL    HW116616   3.962   3.859   4.410
 5239SOL    HW216617   3.844   3.807   4.310
 5240SOL     OW16618   2.721   1.875   6.582
 5240SOL    HW116619   2.638   1.821   6.570
 5240SOL    HW216620   2.702   1.971   6.565
 5241SOL     OW16621   1.075   5.182   6.356
 5241SOL    HW116622   1.017   5.175   6.275
 5241SOL    HW216623   1.145   5.252   6.342
 5242SOL     OW16624   0.301   6.535   5.431
 5242SOL    HW116625   0.202   6.543   5.421
 5242SOL    HW216626   0.335   6.607   5.491
 5243SOL     OW16627   1.249   5.669   1.943
 5243SOL    HW116628   1.233   5.759   1.903
 5243SOL    HW216629   1.347   5.648   1.940
 5244SOL     OW16630   3.366   4.020   5.961
 5244SOL    HW116631   3.292   3.986   6.020
 5244SOL    HW216632   3.454   3.985   5.994
 5245SOL     OW16633   4.745   4.426   0.161
 5245SOL    HW116634   4.844   4.433   0.175
 5245SOL    HW216635   4.726   4.402   0.066
 5246SOL     OW16636   5.795   4.724   2.503
 5246SOL    HW116637   5.794   4.652   2.433
 5246SOL    HW216638   5.883   4.771   2.502
 5247SOL     OW16639   1.219   6.318   0.754
 5247SOL    HW116640   1.212   6.399   0.812
 5247SOL    HW216641   1.209   6.345   0.658
 5248SOL     OW16642   6.084   0.190   4.925
 5248SOL    HW116643   6.153   0.159   4.860
 5248SOL    HW216644   5.993   0.170   4.889
 5249SOL     OW16645   0.599   4.929   4.539
 5249SOL    HW116646   0.516   4.913   4.487
 5249SOL    HW216647   0.588   4.894   4.632
 5250SOL     OW16648   0.671   0.997   5.479
 5250SOL    HW116649   0.599   0.982   5.412
 5250SOL    HW216650   0.674   1.094   5.504
 5251SOL     OW16651   0.613   3.250   0.853
 5251SOL    HW116652   0.600   3.195   0.936
 5251SOL    HW216653   0.682   3.206   0.795
 5252SOL     OW16654   1.902   5.959   1.079
 5252SOL    HW116655   1.971   6.023   1.044
 5252SOL    HW216656   1.816   6.009   1.095
 5253SOL     OW16657   6.001   3.853   4.629
 5253SOL    HW116658   6.076   3.816   4.683
 5253SOL    HW216659   5.987   3.950   4.653
 5254SOL     OW16660   5.453   0.715   3.461
 5254SOL    HW116661   5.405   0.741   3.377
 5254SOL    HW216662   5.408   0.634   3.500
 5255SOL     OW16663   4.446   0.163   6.073
 5255SOL    HW116664   4.518   0.124   6.015
 5255SOL    HW216665   4.477   0.250   6.111
 5256SOL     OW16666   4.579   0.390   3.470
 5256SOL    HW116667   4.653   0.455   3.454
 5256SOL    HW216668   4.591   0.349   3.561
 5257SOL     OW16669   4.557   6.964   2.417
 5257SOL    HW116670   4.574   0.021   2.358
 5257SOL    HW216671   4.473   6.980   2.470
 5258SOL     OW16672   5.074   3.226   1.035
 5258SOL    HW116673   4.981   3.218   0.998
 5258SOL    HW216674   5.077   3.184   1.125
 5259SOL     OW16675   4.381   5.764   1.315
 5259SOL    HW116676   4.314   5.735   1.383
 5259SOL    HW216677   4.334   5.796   1.233
 5260SOL     OW16678   5.583   3.696   1.211
 5260SOL    HW116679   5.619   3.620   1.157
 5260SOL    HW216680   5.494   3.671   1.250
 5261SOL     OW16681   1.701   3.246   6.454
 5261SOL    HW116682   1.778   3.304   6.427
 5261SOL    HW216683   1.734   3.175   6.517
 5262SOL     OW16684   3.036   0.098   2.632
 5262SOL    HW116685   2.971   0.159   2.679
 5262SOL    HW216686   3.099   0.060   2.699
 5263SOL     OW16687   1.211   0.897   5.288
 5263SOL    HW116688   1.154   0.840   5.348
 5263SOL    HW216689   1.170   0.902   5.197
 5264SOL     OW16690   6.579   0.522   2.733
 5264SOL    HW116691   6.545   0.581   2.660
 5264SOL    HW216692   6.678   0.535   2.742
 5265SOL     OW16693   5.233   4.587   3.328
 5265SOL    HW116694   5.138   4.613   3.343
 5265SOL    HW216695   5.237   4.497   3.285
 5266SOL     OW16696   2.487   0.417   2.154
 5266SOL    HW116697   2.410   0.389   2.097
 5266SOL    HW216698   2.466   0.396   2.250
 5267SOL     OW16699   4.592   4.628   5.919
 5267SOL    HW116700   4.572   4.725   5.904
 5267SOL    HW216701   4.631   4.616   6.010
 5268SOL     OW16702   5.894   6.528   5.685
 5268SOL    HW116703   5.965   6.560   5.622
 5268SOL    HW216704   5.902   6.577   5.772
 5269SOL     OW16705   2.109   6.839   4.154
 5269SOL    HW116706   2.040   6.809   4.220
 5269SOL    HW216707   2.066   6.853   4.065
 5270SOL     OW16708   5.159   1.579   2.183
 5270SOL    HW116709   5.155   1.679   2.174
 5270SOL    HW216710   5.106   1.551   2.263
 5271SOL     OW16711   4.879   5.068   4.655
 5271SOL    HW116712   4.842   5.052   4.747
 5271SOL    HW216713   4.938   4.991   4.630
 5272SOL     OW16714   1.890   5.989   2.789
 5272SOL    HW116715   1.905   6.085   2.813
 5272SOL    HW216716   1.922   5.930   2.864
 5273SOL     OW16717   0.021   3.253   3.117
 5273SOL    HW116718   6.952   3.293   3.117
 5273SOL    HW216719   0.016   3.159   3.083
 5274SOL     OW16720   6.275   5.732   2.603
 5274SOL    HW116721   6.212   5.799   2.563
 5274SOL    HW216722   6.265   5.733   2.703
 5275SOL     OW16723   3.754   1.639   6.339
 5275SOL    HW116724   3.758   1.734   6.308
 5275SOL    HW216725   3.669   1.597   6.306
 5276SOL     OW16726   1.449   0.247   1.142
 5276SOL    HW116727   1.365   0.198   1.119
 5276SOL    HW216728   1.526   0.209   1.091
 5277SOL     OW16729   1.996   2.792   3.025
 5277SOL    HW116730   1.921   2.854   3.046
 5277SOL    HW216731   2.069   2.804   3.092
 5278SOL     OW16732   5.119   6.998   4.464
 5278SOL    HW116733   5.143   0.055   4.520
 5278SOL    HW216734   5.197   6.972   4.407
 5279SOL     OW16735   1.773   5.330   6.560
 5279SOL    HW116736   1.868   5.343   6.531
 5279SOL    HW216737   1.770   5.260   6.631
 5280SOL     OW16738   2.940   6.302   5.573
 5280SOL    HW116739   2.954   6.395   5.541
 5280SOL    HW216740   2.859   6.298   5.631
 5281SOL     OW16741   0.877   1.727   3.366
 5281SOL    HW116742   0.836   1.818   3.380
 5281SOL    HW216743   0.972   1.728   3.396
 5282SOL     OW16744   2.073   1.135   2.807
 5282SOL    HW116745   2.057   1.219   2.755
 5282SOL    HW216746   2.008   1.129   2.882
 5283SOL     OW16747   2.977   0.450   1.958
 5283SOL    HW116748   2.964   0.383   1.884
 5283SOL    HW216749   2.893   0.456   2.011
 5284SOL     OW16750   5.069   2.888   2.670
 5284SOL    HW116751   4.982   2.890   2.621
 5284SOL    HW216752   5.141   2.856   2.609
 5285SOL     OW16753   1.357   4.388   4.290
 5285SOL    HW116754   1.292   4.446   4.241
 5285SOL    HW216755   1.378   4.308   4.233
 5286SOL     OW16756   0.062   4.081   1.502
 5286SOL    HW116757   0.063   3.988   1.538
 5286SOL    HW216758   0.132   4.136   1.550
 5287SOL     OW16759   1.484   5.948   1.559
 5287SOL    HW116760   1.414   5.889   1.517
 5287SOL    HW216761   1.560   5.891   1.591
 5288SOL     OW16762   4.211   1.053   2.449
 5288SOL    HW116763   4.199   0.971   2.393
 5288SOL    HW216764   4.163   1.042   2.536
 5289SOL     OW16765   1.822   4.945   6.292
 5289SOL    HW116766   1.853   4.870   6.234
 5289SOL    HW216767   1.779   5.015   6.235
 5290SOL     OW16768   1.749   3.841   5.916
 5290SOL    HW116769   1.715   3.775   5.982
 5290SOL    HW216770   1.831   3.804   5.871
 5291SOL     OW16771   2.647   4.695   5.902
 5291SOL    HW116772   2.630   4.698   6.000
 5291SOL    HW216773   2.695   4.778   5.874
 5292SOL     OW16774   6.318   4.993   6.480
 5292SOL    HW116775   6.396   4.931   6.468
 5292SOL    HW216776   6.253   4.980   6.405
 5293SOL     OW16777   1.090   0.571   4.213
 5293SOL    HW116778   1.143   0.562   4.298
 5293SOL    HW216779   1.147   0.543   4.135
 5294SOL     OW16780   6.032   2.802   4.428
 5294SOL    HW116781   6.049   2.843   4.338
 5294SOL    HW216782   5.937   2.820   4.455
 5295SOL     OW16783   4.163   0.989   2.722
 5295SOL    HW116784   4.077   1.006   2.770
 5295SOL    HW216785   4.237   0.976   2.789
 5296SOL     OW16786   2.866   5.238   6.640
 5296SOL    HW116787   2.896   5.292   6.561
 5296SOL    HW216788   2.850   5.299   6.718
 5297SOL     OW16789   2.574   2.623   0.523
 5297SOL    HW116790   2.506   2.556   0.555
 5297SOL    HW216791   2.658   2.611   0.575
 5298SOL     OW16792   1.082   5.676   0.332
 5298SOL    HW116793   1.095   5.678   0.233
 5298SOL    HW216794   1.034   5.592   0.358
 5299SOL     OW16795   2.078   2.950   0.915
 5299SOL    HW116796   2.092   3.048   0.930
 5299SOL    HW216797   2.133   2.921   0.836
 5300SOL     OW16798   0.965   6.277   1.264
 5300SOL    HW116799   1.059   6.250   1.285
 5300SOL    HW216800   0.903   6.200   1.280
 5301SOL     OW16801   3.361   2.287   6.576
 5301SOL    HW116802   3.266   2.294   6.607
 5301SOL    HW216803   3.385   2.192   6.560
 5302SOL     OW16804   5.810   5.538   3.882
 5302SOL    HW116805   5.865   5.510   3.961
 5302SOL    HW216806   5.755   5.617   3.907
 5303SOL     OW16807   6.782   5.598   3.220
 5303SOL    HW116808   6.773   5.623   3.124
 5303SOL    HW216809   6.821   5.674   3.271
 5304SOL     OW16810   5.339   0.907   6.864
 5304SOL    HW116811   5.270   0.890   6.793
 5304SOL    HW216812   5.293   0.935   6.948
 5305SOL     OW16813   0.811   5.359   3.006
 5305SOL    HW116814   0.831   5.262   3.021
 5305SOL    HW216815   0.847   5.387   2.917
 5306SOL     OW16816   0.838   4.080   4.606
 5306SOL    HW116817   0.861   4.081   4.703
 5306SOL    HW216818   0.813   3.987   4.578
 5307SOL     OW16819   4.691   1.654   0.222
 5307SOL    HW116820   4.596   1.661   0.192
 5307SOL    HW216821   4.721   1.741   0.261
 5308SOL     OW16822   0.689   5.781   3.551
 5308SOL    HW116823   0.716   5.874   3.578
 5308SOL    HW216824   0.602   5.758   3.595
 5309SOL     OW16825   4.479   4.459   1.409
 5309SOL    HW116826   4.496   4.519   1.331
 5309SOL    HW216827   4.478   4.514   1.493
 5310SOL     OW16828   6.259   3.788   2.551
 5310SOL    HW116829   6.254   3.723   2.475
 5310SOL    HW216830   6.329   3.857   2.532
 5311SOL     OW16831   6.251   5.726   0.104
 5311SOL    HW116832   6.189   5.732   0.025
 5311SOL    HW216833   6.314   5.649   0.091
 5312SOL     OW16834   0.234   5.204   1.802
 5312SOL    HW116835   0.162   5.177   1.866
 5312SOL    HW216836   0.267   5.123   1.753
 5313SOL     OW16837   1.470   3.954   6.514
 5313SOL    HW116838   1.528   3.887   6.467
 5313SOL    HW216839   1.461   3.928   6.610
 5314SOL     OW16840   3.251   6.488   0.414
 5314SOL    HW116841   3.202   6.411   0.452
 5314SOL    HW216842   3.324   6.516   0.477
 5315SOL     OW16843   4.851   3.337   1.628
 5315SOL    HW116844   4.824   3.388   1.709
 5315SOL    HW216845   4.838   3.394   1.546
 5316SOL     OW16846   1.062   3.992   5.058
 5316SOL    HW116847   0.977   3.947   5.029
 5316SOL    HW216848   1.109   4.029   4.977
 5317SOL     OW16849   6.638   6.810   4.772
 5317SOL    HW116850   6.661   6.714   4.755
 5317SOL    HW216851   6.721   6.866   4.769
 5318SOL     OW16852   0.026   2.611   6.530
 5318SOL    HW116853   0.023   2.667   6.448
 5318SOL    HW216854   0.089   2.652   6.597
 5319SOL     OW16855   3.743   6.686   0.219
 5319SOL    HW116856   3.711   6.766   0.270
 5319SOL    HW216857   3.744   6.707   0.121
 5320SOL     OW16858   5.987   5.123   0.056
 5320SOL    HW116859   6.019   5.153   0.146
 5320SOL    HW216860   6.066   5.100   7.021
 5321SOL     OW16861   1.150   4.673   3.814
 5321SOL    HW116862   1.248   4.673   3.832
 5321SOL    HW216863   1.133   4.646   3.719
 5322SOL     OW16864   4.754   5.999   6.441
 5322SOL    HW116865   4.802   5.928   6.390
 5322SOL    HW216866   4.820   6.053   6.493
 5323SOL     OW16867   3.862   1.920   6.955
 5323SOL    HW116868   3.873   2.016   6.983
 5323SOL    HW216869   3.880   1.912   6.857
 5324SOL     OW16870   4.209   2.226   0.700
 5324SOL    HW116871   4.184   2.294   0.631
 5324SOL    HW216872   4.148   2.147   0.693
 5325SOL     OW16873   4.796   0.767   4.424
 5325SOL    HW116874   4.862   0.777   4.498
 5325SOL    HW216875   4.812   0.681   4.376
 5326SOL     OW16876   0.553   5.016   3.381
 5326SOL    HW116877   0.607   5.098   3.363
 5326SOL    HW216878   0.588   4.941   3.326
 5327SOL     OW16879   5.580   2.905   5.556
 5327SOL    HW116880   5.605   2.991   5.512
 5327SOL    HW216881   5.660   2.845   5.560
 5328SOL     OW16882   4.621   2.593   5.149
 5328SOL    HW116883   4.645   2.674   5.203
 5328SOL    HW216884   4.640   2.610   5.052
 5329SOL     OW16885   7.003   4.989   6.756
 5329SOL    HW116886   6.960   4.968   6.668
 5329SOL    HW216887   6.937   4.974   6.830
 5330SOL     OW16888   3.384   4.189   5.688
 5330SOL    HW116889   3.403   4.144   5.776
 5330SOL    HW216890   3.358   4.120   5.621
 5331SOL     OW16891   5.011   1.313   0.749
 5331SOL    HW116892   5.067   1.395   0.762
 5331SOL    HW216893   4.915   1.335   0.771
 5332SOL     OW16894   0.576   3.644   1.559
 5332SOL    HW116895   0.628   3.698   1.626
 5332SOL    HW216896   0.514   3.704   1.509
 5333SOL     OW16897   1.172   0.764   3.724
 5333SOL    HW116898   1.231   0.743   3.646
 5333SOL    HW216899   1.226   0.812   3.794
 5334SOL     OW16900   4.171   0.207   4.313
 5334SOL    HW116901   4.091   0.267   4.305
 5334SOL    HW216902   4.156   0.124   4.259
 5335SOL     OW16903   5.864   5.817   2.297
 5335SOL    HW116904   5.822   5.908   2.298
 5335SOL    HW216905   5.806   5.754   2.245
 5336SOL     OW16906   2.755   1.688   3.235
 5336SOL    HW116907   2.790   1.741   3.158
 5336SOL    HW216908   2.800   1.716   3.319
 5337SOL     OW16909   5.441   3.800   1.634
 5337SOL    HW116910   5.368   3.868   1.635
 5337SOL    HW216911   5.527   3.843   1.663
 5338SOL     OW16912   5.713   1.125   5.780
 5338SOL    HW116913   5.796   1.100   5.729
 5338SOL    HW216914   5.725   1.104   5.877
 5339SOL     OW16915   6.612   2.267   3.780
 5339SOL    HW116916   6.660   2.275   3.867
 5339SOL    HW216917   6.614   2.172   3.748
 5340SOL     OW16918   5.548   2.333   0.852
 5340SOL    HW116919   5.487   2.391   0.906
 5340SOL    HW216920   5.493   2.270   0.797
 5341SOL     OW16921   3.451   4.455   6.399
 5341SOL    HW116922   3.468   4.393   6.323
 5341SOL    HW216923   3.509   4.430   6.477
 5342SOL     OW16924   3.787   0.143   3.619
 5342SOL    HW116925   3.696   0.115   3.591
 5342SOL    HW216926   3.854   0.116   3.550
 5343SOL     OW16927   3.840   3.387   4.399
 5343SOL    HW116928   3.782   3.306   4.394
 5343SOL    HW216929   3.842   3.432   4.310
 5344SOL     OW16930   2.060   2.024   2.018
 5344SOL    HW116931   2.026   2.022   1.923
 5344SOL    HW216932   2.103   2.112   2.036
 5345SOL     OW16933   3.461   6.608   0.565
 5345SOL    HW116934   3.463   6.687   0.504
 5345SOL    HW216935   3.427   6.636   0.655
 5346SOL     OW16936   3.505   5.803   4.410
 5346SOL    HW116937   3.537   5.869   4.342
 5346SOL    HW216938   3.457   5.852   4.483
 5347SOL     OW16939   6.781   2.592   1.647
 5347SOL    HW116940   6.689   2.570   1.613
 5347SOL    HW216941   6.849   2.545   1.590
 5348SOL     OW16942   6.670   1.858   1.060
 5348SOL    HW116943   6.651   1.954   1.081
 5348SOL    HW216944   6.602   1.824   0.996
 5349SOL     OW16945   1.720   2.795   0.260
 5349SOL    HW116946   1.648   2.798   0.329
 5349SOL    HW216947   1.769   2.708   0.267
 5350SOL     OW16948   1.718   6.860   5.273
 5350SOL    HW116949   1.757   6.791   5.211
 5350SOL    HW216950   1.751   6.843   5.366
 5351SOL     OW16951   6.714   5.144   2.037
 5351SOL    HW116952   6.623   5.180   2.020
 5351SOL    HW216953   6.774   5.218   2.069
 5352SOL     OW16954   2.326   5.053   3.309
 5352SOL    HW116955   2.275   4.974   3.341
 5352SOL    HW216956   2.269   5.135   3.316
 5353SOL     OW16957   3.907   4.963   4.324
 5353SOL    HW116958   3.824   4.958   4.379
 5353SOL    HW216959   3.889   5.013   4.239
 5354SOL     OW16960   2.415   5.202   2.062
 5354SOL    HW116961   2.435   5.113   2.103
 5354SOL    HW216962   2.477   5.271   2.101
 5355SOL     OW16963   6.977   4.233   4.280
 5355SOL    HW116964   0.012   4.201   4.356
 5355SOL    HW216965   6.909   4.297   4.315
 5356SOL     OW16966   5.956   4.567   2.283
 5356SOL    HW116967   5.959   4.468   2.297
 5356SOL    HW216968   6.049   4.603   2.283
 5357SOL     OW16969   3.198   5.986   0.596
 5357SOL    HW116970   3.294   5.984   0.570
 5357SOL    HW216971   3.188   5.952   0.690
 5358SOL     OW16972   4.896   1.296   6.834
 5358SOL    HW116973   4.833   1.225   6.865
 5358SOL    HW216974   4.989   1.274   6.865
 5359SOL     OW16975   1.112   1.435   5.356
 5359SOL    HW116976   1.203   1.473   5.371
 5359SOL    HW216977   1.064   1.426   5.443
 5360SOL     OW16978   3.963   6.337   4.523
 5360SOL    HW116979   3.974   6.426   4.566
 5360SOL    HW216980   4.042   6.279   4.546
 5361SOL     OW16981   2.594   1.016   5.497
 5361SOL    HW116982   2.643   1.075   5.561
 5361SOL    HW216983   2.602   1.054   5.404
 5362SOL     OW16984   6.985   6.199   3.244
 5362SOL    HW116985   6.952   6.108   3.218
 5362SOL    HW216986   0.007   6.242   3.165
 5363SOL     OW16987   6.923   0.547   5.884
 5363SOL    HW116988   7.014   0.550   5.841
 5363SOL    HW216989   6.933   0.523   5.980
 5364SOL     OW16990   6.660   6.609   2.523
 5364SOL    HW116991   6.741   6.588   2.469
 5364SOL    HW216992   6.679   6.593   2.620
 5365SOL     OW16993   3.786   2.731   0.131
 5365SOL    HW116994   3.755   2.818   0.168
 5365SOL    HW216995   3.885   2.722   0.143
 5366SOL     OW16996   5.485   5.926   1.683
 5366SOL    HW116997   5.403   5.878   1.714
 5366SOL    HW216998   5.566   5.874   1.710
 5367SOL     OW16999   0.486   6.527   0.817
 5367SOL    HW117000   0.580   6.492   0.825
 5367SOL    HW217001   0.424   6.467   0.866
 5368SOL     OW17002   5.616   0.593   2.792
 5368SOL    HW117003   5.693   0.594   2.856
 5368SOL    HW217004   5.570   0.504   2.796
 5369SOL     OW17005   2.695   6.566   1.840
 5369SOL    HW117006   2.730   6.515   1.761
 5369SOL    HW217007   2.761   6.638   1.865
 5370SOL     OW17008   4.514   2.543   1.504
 5370SOL    HW117009   4.484   2.451   1.481
 5370SOL    HW217010   4.592   2.538   1.566
 5371SOL     OW17011   0.668   3.775   5.223
 5371SOL    HW117012   0.718   3.753   5.139
 5371SOL    HW217013   0.616   3.859   5.209
 5372SOL     OW17014   1.759   6.048   3.515
 5372SOL    HW117015   1.691   6.109   3.473
 5372SOL    HW217016   1.743   5.954   3.483
 5373SOL     OW17017   3.787   6.742   4.436
 5373SOL    HW117018   3.712   6.683   4.407
 5373SOL    HW217019   3.861   6.737   4.369
 5374SOL     OW17020   1.939   4.284   0.485
 5374SOL    HW117021   2.023   4.296   0.431
 5374SOL    HW217022   1.921   4.187   0.495
 5375SOL     OW17023   0.881   5.602   4.612
 5375SOL    HW117024   0.849   5.549   4.534
 5375SOL    HW217025   0.827   5.685   4.620
 5376SOL     OW17026   1.791   2.980   0.846
 5376SOL    HW117027   1.715   2.995   0.910
 5376SOL    HW217028   1.878   2.982   0.895
 5377SOL     OW17029   6.814   6.882   2.567
 5377SOL    HW117030   6.825   6.820   2.645
 5377SOL    HW217031   6.886   6.864   2.500
 5378SOL     OW17032   6.850   0.561   2.386
 5378SOL    HW117033   6.870   0.583   2.291
 5378SOL    HW217034   6.931   0.580   2.442
 5379SOL     OW17035   1.247   4.596   4.761
 5379SOL    HW117036   1.213   4.572   4.671
 5379SOL    HW217037   1.263   4.695   4.766
 5380SOL     OW17038   2.776   1.362   2.593
 5380SOL    HW117039   2.757   1.293   2.663
 5380SOL    HW217040   2.774   1.320   2.503
 5381SOL     OW17041   6.502   4.547   2.164
 5381SOL    HW117042   6.579   4.513   2.109
 5381SOL    HW217043   6.535   4.616   2.228
 5382SOL     OW17044   2.793   1.188   1.639
 5382SOL    HW117045   2.876   1.213   1.591
 5382SOL    HW217046   2.816   1.152   1.730
 5383SOL     OW17047   2.241   2.044   4.970
 5383SOL    HW117048   2.235   1.954   4.926
 5383SOL    HW217049   2.335   2.061   4.999
 5384SOL     OW17050   6.138   6.535   5.487
 5384SOL    HW117051   6.196   6.518   5.407
 5384SOL    HW217052   6.113   6.632   5.489
 5385SOL     OW17053   3.256   3.285   3.994
 5385SOL    HW117054   3.294   3.367   4.038
 5385SOL    HW217055   3.165   3.267   4.031
 5386SOL     OW17056   5.128   1.727   4.327
 5386SOL    HW117057   5.209   1.717   4.385
 5386SOL    HW217058   5.149   1.791   4.253
 5387SOL     OW17059   2.357   0.549   3.527
 5387SOL    HW117060   2.383   0.485   3.454
 5387SOL    HW217061   2.260   0.568   3.521
 5388SOL     OW17062   0.180   1.823   3.918
 5388SOL    HW117063   0.232   1.737   3.911
 5388SOL    HW217064   0.128   1.836   3.834
 5389SOL     OW17065   4.264   1.084   3.537
 5389SOL    HW117066   4.306   1.054   3.623
 5389SOL    HW217067   4.272   1.012   3.469
 5390SOL     OW17068   4.976   3.786   3.739
 5390SOL    HW117069   4.982   3.687   3.743
 5390SOL    HW217070   4.949   3.814   3.647
 5391SOL     OW17071   2.250   1.721   0.714
 5391SOL    HW117072   2.204   1.779   0.781
 5391SOL    HW217073   2.274   1.634   0.757
 5392SOL     OW17074   5.380   3.457   1.432
 5392SOL    HW117075   5.300   3.410   1.468
 5392SOL    HW217076   5.359   3.554   1.417
 5393SOL     OW17077   4.610   6.705   5.613
 5393SOL    HW117078   4.655   6.638   5.553
 5393SOL    HW217079   4.626   6.797   5.578
 5394SOL     OW17080   0.387   5.406   0.494
 5394SOL    HW117081   0.447   5.370   0.566
 5394SOL    HW217082   0.293   5.375   0.509
 5395SOL     OW17083   4.316   1.129   1.052
 5395SOL    HW117084   4.244   1.185   1.092
 5395SOL    HW217085   4.292   1.032   1.060
 5396SOL     OW17086   5.239   3.996   1.624
 5396SOL    HW117087   5.147   3.960   1.633
 5396SOL    HW217088   5.235   4.088   1.584
 5397SOL     OW17089   0.283   2.947   1.229
 5397SOL    HW117090   0.193   2.903   1.237
 5397SOL    HW217091   0.354   2.877   1.233
 5398SOL     OW17092   3.410   1.498   3.248
 5398SOL    HW117093   3.356   1.539   3.321
 5398SOL    HW217094   3.405   1.556   3.166
 5399SOL     OW17095   2.984   6.016   1.097
 5399SOL    HW117096   3.043   6.021   1.178
 5399SOL    HW217097   3.015   6.082   1.029
 5400SOL     OW17098   3.288   3.672   6.956
 5400SOL    HW117099   3.272   3.771   6.950
 5400SOL    HW217100   3.258   3.629   6.872
 5401SOL     OW17101   6.023   3.957   1.532
 5401SOL    HW117102   6.071   3.955   1.444
 5401SOL    HW217103   5.997   4.051   1.553
 5402SOL     OW17104   2.665   5.433   1.740
 5402SOL    HW117105   2.698   5.416   1.833
 5402SOL    HW217106   2.569   5.405   1.733
 5403SOL     OW17107   5.658   2.478   6.158
 5403SOL    HW117108   5.591   2.506   6.089
 5403SOL    HW217109   5.639   2.524   6.244
 5404SOL     OW17110   1.136   0.555   2.434
 5404SOL    HW117111   1.226   0.510   2.427
 5404SOL    HW217112   1.092   0.553   2.344
 5405SOL     OW17113   6.125   6.294   0.033
 5405SOL    HW117114   6.215   6.326   0.065
 5405SOL    HW217115   6.077   6.251   0.109
 5406SOL     OW17116   2.099   0.390   6.071
 5406SOL    HW117117   2.006   0.362   6.094
 5406SOL    HW217118   2.142   0.319   6.016
 5407SOL     OW17119   3.803   1.935   1.617
 5407SOL    HW117120   3.806   1.898   1.524
 5407SOL    HW217121   3.895   1.941   1.654
 5408SOL     OW17122   3.308   0.934   5.372
 5408SOL    HW117123   3.261   0.973   5.293
 5408SOL    HW217124   3.241   0.903   5.439
 5409SOL     OW17125   6.657   1.599   3.373
 5409SOL    HW117126   6.620   1.674   3.318
 5409SOL    HW217127   6.749   1.624   3.406
 5410SOL     OW17128   0.783   2.730   6.812
 5410SOL    HW117129   0.865   2.757   6.761
 5410SOL    HW217130   0.712   2.702   6.747
 5411SOL     OW17131   5.955   4.806   5.156
 5411SOL    HW117132   5.985   4.714   5.180
 5411SOL    HW217133   5.971   4.868   5.233
 5412SOL     OW17134   3.862   0.704   6.968
 5412SOL    HW117135   3.799   0.640   7.014
 5412SOL    HW217136   3.904   0.764   0.013
 5413SOL     OW17137   0.691   0.161   1.389
 5413SOL    HW117138   0.669   0.069   1.356
 5413SOL    HW217139   0.730   0.155   1.481
 5414SOL     OW17140   6.911   3.331   5.394
 5414SOL    HW117141   6.961   3.318   5.308
 5414SOL    HW217142   6.850   3.253   5.409
 5415SOL     OW17143   1.036   6.192   1.892
 5415SOL    HW117144   1.037   6.283   1.849
 5415SOL    HW217145   1.119   6.179   1.945
 5416SOL     OW17146   3.838   5.080   6.529
 5416SOL    HW117147   3.754   5.099   6.479
 5416SOL    HW217148   3.904   5.153   6.513
 5417SOL     OW17149   4.445   6.955   4.526
 5417SOL    HW117150   4.364   6.959   4.585
 5417SOL    HW217151   4.446   0.011   4.464
 5418SOL     OW17152   5.454   0.569   4.252
 5418SOL    HW117153   5.509   0.652   4.257
 5418SOL    HW217154   5.456   0.523   4.341
 5419SOL     OW17155   3.008   5.569   0.534
 5419SOL    HW117156   3.039   5.601   0.445
 5419SOL    HW217157   3.086   5.532   0.585
 5420SOL     OW17158   1.812   2.781   1.840
 5420SOL    HW117159   1.894   2.814   1.887
 5420SOL    HW217160   1.801   2.831   1.754
 5421SOL     OW17161   2.392   4.315   3.097
 5421SOL    HW117162   2.444   4.230   3.104
 5421SOL    HW217163   2.351   4.321   3.006
 5422SOL     OW17164   1.222   6.043   5.711
 5422SOL    HW117165   1.213   6.068   5.807
 5422SOL    HW217166   1.318   6.045   5.685
 5423SOL     OW17167   5.331   3.424   6.619
 5423SOL    HW117168   5.285   3.404   6.705
 5423SOL    HW217169   5.357   3.521   6.617
 5424SOL     OW17170   6.122   3.386   4.306
 5424SOL    HW117171   6.184   3.444   4.359
 5424SOL    HW217172   6.053   3.442   4.262
 5425SOL     OW17173   5.259   1.479   4.070
 5425SOL    HW117174   5.170   1.513   4.040
 5425SOL    HW217175   5.317   1.461   3.991
 5426SOL     OW17176   6.786   5.233   3.865
 5426SOL    HW117177   6.726   5.301   3.824
 5426SOL    HW217178   6.850   5.199   3.796
 5427SOL     OW17179   5.219   5.189   0.718
 5427SOL    HW117180   5.311   5.152   0.703
 5427SOL    HW217181   5.159   5.116   0.753
 5428SOL     OW17182   6.856   0.142   2.239
 5428SOL    HW117183   6.791   0.150   2.314
 5428SOL    HW217184   6.810   0.161   2.152
 5429SOL     OW17185   1.418   0.797   5.075
 5429SOL    HW117186   1.381   0.705   5.063
 5429SOL    HW217187   1.493   0.795   5.141
 5430SOL     OW17188   2.519   2.760   5.718
 5430SOL    HW117189   2.501   2.773   5.816
 5430SOL    HW217190   2.435   2.732   5.672
 5431SOL     OW17191   3.632   5.038   6.980
 5431SOL    HW117192   3.553   4.984   7.010
 5431SOL    HW217193   3.675   4.993   6.902
 5432SOL     OW17194   3.925   6.147   5.755
 5432SOL    HW117195   3.961   6.066   5.800
 5432SOL    HW217196   3.950   6.229   5.807
 5433SOL     OW17197   0.250   1.713   2.726
 5433SOL    HW117198   0.165   1.688   2.681
 5433SOL    HW217199   0.260   1.660   2.811
 5434SOL     OW17200   4.307   1.428   4.918
 5434SOL    HW117201   4.244   1.403   4.844
 5434SOL    HW217202   4.371   1.497   4.885
 5435SOL     OW17203   5.964   2.018   1.334
 5435SOL    HW117204   5.958   1.924   1.300
 5435SOL    HW217205   6.017   2.073   1.270
 5436SOL     OW17206   5.551   4.429   4.707
 5436SOL    HW117207   5.456   4.458   4.708
 5436SOL    HW217208   5.602   4.483   4.639
 5437SOL     OW17209   2.666   4.933   5.509
 5437SOL    HW117210   2.614   4.853   5.537
 5437SOL    HW217211   2.762   4.921   5.534
 5438SOL     OW17212   5.531   4.074   2.438
 5438SOL    HW117213   5.564   4.020   2.515
 5438SOL    HW217214   5.608   4.118   2.392
 5439SOL     OW17215   6.898   2.027   0.228
 5439SOL    HW117216   6.863   2.121   0.219
 5439SOL    HW217217   6.861   1.971   0.154
 5440SOL     OW17218   6.910   0.164   2.793
 5440SOL    HW117219   6.967   0.086   2.817
 5440SOL    HW217220   6.817   0.133   2.774
 5441SOL     OW17221   4.743   2.775   3.519
 5441SOL    HW117222   4.713   2.686   3.486
 5441SOL    HW217223   4.767   2.769   3.616
 5442SOL     OW17224   3.103   6.863   3.390
 5442SOL    HW117225   3.026   6.815   3.432
 5442SOL    HW217226   3.138   6.932   3.453
 5443SOL     OW17227   2.847   6.040   4.033
 5443SOL    HW117228   2.929   5.985   4.050
 5443SOL    HW217229   2.859   6.090   3.947
 5444SOL     OW17230   0.434   0.812   3.111
 5444SOL    HW117231   0.458   0.731   3.058
 5444SOL    HW217232   0.346   0.847   3.081
 5445SOL     OW17233   6.441   4.217   3.916
 5445SOL    HW117234   6.396   4.242   3.830
 5445SOL    HW217235   6.494   4.134   3.903
 5446SOL     OW17236   5.689   5.153   4.638
 5446SOL    HW117237   5.672   5.086   4.567
 5446SOL    HW217238   5.626   5.137   4.715
 5447SOL     OW17239   1.163   2.217   0.987
 5447SOL    HW117240   1.230   2.209   1.061
 5447SOL    HW217241   1.127   2.126   0.964
 5448SOL     OW17242   6.244   4.348   4.437
 5448SOL    HW117243   6.187   4.413   4.386
 5448SOL    HW217244   6.208   4.255   4.425
 5449SOL     OW17245   1.730   1.728   0.367
 5449SOL    HW117246   1.818   1.756   0.404
 5449SOL    HW217247   1.706   1.637   0.402
 5450SOL     OW17248   2.708   6.822   1.560
 5450SOL    HW117249   2.641   6.881   1.603
 5450SOL    HW217250   2.737   6.863   1.473
 5451SOL     OW17251   1.766   5.792   3.390
 5451SOL    HW117252   1.671   5.769   3.409
 5451SOL    HW217253   1.781   5.792   3.291
 5452SOL     OW17254   2.473   4.104   0.636
 5452SOL    HW117255   2.402   4.082   0.703
 5452SOL    HW217256   2.540   4.030   0.633
 5453SOL     OW17257   5.521   4.338   1.150
 5453SOL    HW117258   5.512   4.308   1.055
 5453SOL    HW217259   5.610   4.382   1.162
 5454SOL     OW17260   5.926   5.022   5.580
 5454SOL    HW117261   5.852   4.956   5.591
 5454SOL    HW217262   5.979   5.028   5.665
 5455SOL     OW17263   6.585   2.521   2.391
 5455SOL    HW117264   6.538   2.537   2.477
 5455SOL    HW217265   6.637   2.436   2.397
 5456SOL     OW17266   2.809   0.244   0.403
 5456SOL    HW117267   2.828   0.162   0.350
 5456SOL    HW217268   2.711   0.256   0.414
 5457SOL     OW17269   0.148   2.348   1.087
 5457SOL    HW117270   0.053   2.319   1.101
 5457SOL    HW217271   0.166   2.430   1.140
 5458SOL     OW17272   0.534   4.925   0.520
 5458SOL    HW117273   0.452   4.922   0.578
 5458SOL    HW217274   0.520   4.868   0.439
 5459SOL     OW17275   2.790   3.431   6.604
 5459SOL    HW117276   2.789   3.332   6.595
 5459SOL    HW217277   2.792   3.456   6.701
 5460SOL     OW17278   3.960   6.934   3.072
 5460SOL    HW117279   3.907   6.857   3.037
 5460SOL    HW217280   3.908   7.019   3.059
 5461SOL     OW17281   0.567   0.310   5.966
 5461SOL    HW117282   0.607   0.342   6.052
 5461SOL    HW217283   0.545   0.212   5.974
 5462SOL     OW17284   6.231   6.765   1.325
 5462SOL    HW117285   6.160   6.718   1.378
 5462SOL    HW217286   6.192   6.845   1.280
 5463SOL     OW17287   0.363   1.522   0.187
 5463SOL    HW117288   0.450   1.525   0.236
 5463SOL    HW217289   0.307   1.447   0.223
 5464SOL     OW17290   6.401   0.326   4.738
 5464SOL    HW117291   6.357   0.241   4.709
 5464SOL    HW217292   6.483   0.341   4.684
 5465SOL     OW17293   5.056   1.128   4.712
 5465SOL    HW117294   5.136   1.093   4.664
 5465SOL    HW217295   5.026   1.060   4.779
 5466SOL     OW17296   5.618   2.875   4.833
 5466SOL    HW117297   5.624   2.835   4.925
 5466SOL    HW217298   5.525   2.862   4.798
 5467SOL     OW17299   4.796   4.058   3.472
 5467SOL    HW117300   4.810   3.963   3.445
 5467SOL    HW217301   4.816   4.069   3.569
 5468SOL     OW17302   6.743   2.588   4.045
 5468SOL    HW117303   6.656   2.606   4.091
 5468SOL    HW217304   6.733   2.605   3.947
 5469SOL     OW17305   2.993   6.066   5.433
 5469SOL    HW117306   3.092   6.063   5.424
 5469SOL    HW217307   2.966   6.150   5.480
 5470SOL     OW17308   3.766   5.201   2.999
 5470SOL    HW117309   3.812   5.179   3.085
 5470SOL    HW217310   3.823   5.171   2.922
 5471SOL     OW17311   5.830   6.869   3.181
 5471SOL    HW117312   5.840   6.958   3.135
 5471SOL    HW217313   5.800   6.801   3.114
 5472SOL     OW17314   2.463   4.303   6.961
 5472SOL    HW117315   2.364   4.296   6.959
 5472SOL    HW217316   2.491   4.358   0.018
 5473SOL     OW17317   0.908   3.668   1.980
 5473SOL    HW117318   0.911   3.571   1.955
 5473SOL    HW217319   0.909   3.676   2.080
 5474SOL     OW17320   1.057   4.301   3.558
 5474SOL    HW117321   1.130   4.362   3.590
 5474SOL    HW217322   1.047   4.225   3.621
 5475SOL     OW17323   2.399   2.843   1.003
 5475SOL    HW117324   2.307   2.812   1.026
 5475SOL    HW217325   2.407   2.852   0.904
 5476SOL     OW17326   2.496   4.602   5.317
 5476SOL    HW117327   2.411   4.645   5.348
 5476SOL    HW217328   2.474   4.528   5.253
 5477SOL     OW17329   2.333   4.673   2.298
 5477SOL    HW117330   2.292   4.597   2.348
 5477SOL    HW217331   2.421   4.644   2.259
 5478SOL     OW17332   2.867   6.183   4.267
 5478SOL    HW117333   2.796   6.150   4.330
 5478SOL    HW217334   2.835   6.172   4.173
 5479SOL     OW17335   5.278   1.033   6.482
 5479SOL    HW117336   5.246   1.098   6.413
 5479SOL    HW217337   5.237   1.054   6.571
 5480SOL     OW17338   5.575   5.359   4.270
 5480SOL    HW117339   5.534   5.270   4.290
 5480SOL    HW217340   5.514   5.411   4.209
 5481SOL     OW17341   4.542   1.517   4.806
 5481SOL    HW117342   4.627   1.503   4.857
 5481SOL    HW217343   4.536   1.449   4.733
 5482SOL     OW17344   3.560   4.182   1.867
 5482SOL    HW117345   3.480   4.233   1.897
 5482SOL    HW217346   3.613   4.238   1.803
 5483SOL     OW17347   0.064   2.097   5.312
 5483SOL    HW117348   0.035   2.192   5.304
 5483SOL    HW217349   0.144   2.092   5.373
 5484SOL     OW17350   4.204   1.031   4.293
 5484SOL    HW117351   4.121   1.070   4.252
 5484SOL    HW217352   4.179   0.980   4.376
 5485SOL     OW17353   3.973   0.486   4.663
 5485SOL    HW117354   4.056   0.432   4.676
 5485SOL    HW217355   3.973   0.526   4.572
 5486SOL     OW17356   2.673   6.279   5.371
 5486SOL    HW117357   2.730   6.361   5.367
 5486SOL    HW217358   2.717   6.204   5.322
 5487SOL     OW17359   5.482   2.750   6.693
 5487SOL    HW117360   5.441   2.823   6.639
 5487SOL    HW217361   5.582   2.754   6.684
 5488SOL     OW17362   6.050   0.427   1.023
 5488SOL    HW117363   6.038   0.526   1.013
 5488SOL    HW217364   6.086   0.407   1.114
 5489SOL     OW17365   0.034   4.240   1.967
 5489SOL    HW117366   0.094   4.320   1.972
 5489SOL    HW217367   0.056   4.177   2.042
 5490SOL     OW17368   3.172   0.567   1.697
 5490SOL    HW117369   3.217   0.576   1.786
 5490SOL    HW217370   3.090   0.511   1.707
 5491SOL     OW17371   0.866   3.901   0.380
 5491SOL    HW117372   0.892   3.804   0.383
 5491SOL    HW217373   0.787   3.916   0.439
 5492SOL     OW17374   0.587   3.697   6.390
 5492SOL    HW117375   0.686   3.687   6.385
 5492SOL    HW217376   0.563   3.763   6.461
 5493SOL     OW17377   3.119   4.027   4.263
 5493SOL    HW117378   3.149   4.065   4.351
 5493SOL    HW217379   3.037   4.075   4.233
 5494SOL     OW17380   0.534   3.171   6.021
 5494SOL    HW117381   0.604   3.101   6.017
 5494SOL    HW217382   0.487   3.167   6.109
 5495SOL     OW17383   4.670   1.373   1.053
 5495SOL    HW117384   4.598   1.414   1.109
 5495SOL    HW217385   4.653   1.276   1.042
 5496SOL     OW17386   4.104   0.947   3.095
 5496SOL    HW117387   4.042   1.024   3.078
 5496SOL    HW217388   4.052   0.864   3.112
 5497SOL     OW17389   6.938   1.110   4.837
 5497SOL    HW117390   6.977   1.018   4.835
 5497SOL    HW217391   7.012   1.177   4.830
 5498SOL     OW17392   6.461   6.228   1.452
 5498SOL    HW117393   6.428   6.312   1.410
 5498SOL    HW217394   6.422   6.149   1.404
 5499SOL     OW17395   0.236   0.611   4.673
 5499SOL    HW117396   0.145   0.570   4.683
 5499SOL    HW217397   0.280   0.615   4.762
 5500SOL     OW17398   0.857   0.581   0.355
 5500SOL    HW117399   0.822   0.664   0.311
 5500SOL    HW217400   0.829   0.501   0.303
 5501SOL     OW17401   3.393   1.824   0.100
 5501SOL    HW117402   3.438   1.735   0.111
 5501SOL    HW217403   3.461   1.892   0.072
 5502SOL     OW17404   4.928   3.557   0.270
 5502SOL    HW117405   5.017   3.551   0.223
 5502SOL    HW217406   4.943   3.578   0.366
 5503SOL     OW17407   6.862   4.438   1.670
 5503SOL    HW117408   6.785   4.486   1.629
 5503SOL    HW217409   6.944   4.495   1.665
 5504SOL     OW17410   4.776   1.503   5.745
 5504SOL    HW117411   4.793   1.564   5.668
 5504SOL    HW217412   4.729   1.421   5.713
 5505SOL     OW17413   2.225   5.320   4.341
 5505SOL    HW117414   2.154   5.377   4.299
 5505SOL    HW217415   2.229   5.231   4.295
 5506SOL     OW17416   0.143   3.497   0.683
 5506SOL    HW117417   0.094   3.411   0.692
 5506SOL    HW217418   0.242   3.480   0.690
 5507SOL     OW17419   4.525   1.253   4.643
 5507SOL    HW117420   4.613   1.279   4.602
 5507SOL    HW217421   4.470   1.204   4.576
 5508SOL     OW17422   1.290   1.185   0.067
 5508SOL    HW117423   1.308   1.111   0.132
 5508SOL    HW217424   1.200   1.172   0.026
 5509SOL     OW17425   0.692   6.190   6.642
 5509SOL    HW117426   0.593   6.194   6.658
 5509SOL    HW217427   0.709   6.148   6.553
 5510SOL     OW17428   4.506   5.420   0.377
 5510SOL    HW117429   4.593   5.457   0.411
 5510SOL    HW217430   4.524   5.344   0.314
 5511SOL     OW17431   1.542   0.968   3.534
 5511SOL    HW117432   1.571   0.959   3.629
 5511SOL    HW217433   1.621   0.991   3.477
 5512SOL     OW17434   5.157   2.356   0.882
 5512SOL    HW117435   5.065   2.371   0.845
 5512SOL    HW217436   5.198   2.275   0.840
 5513SOL     OW17437   3.562   4.675   6.168
 5513SOL    HW117438   3.602   4.740   6.104
 5513SOL    HW217439   3.635   4.618   6.207
 5514SOL     OW17440   3.966   0.385   4.318
 5514SOL    HW117441   3.940   0.480   4.337
 5514SOL    HW217442   3.894   0.324   4.351
 5515SOL     OW17443   0.710   5.558   2.122
 5515SOL    HW117444   0.691   5.631   2.056
 5515SOL    HW217445   0.684   5.470   2.083
 5516SOL     OW17446   1.786   3.677   6.245
 5516SOL    HW117447   1.716   3.622   6.200
 5516SOL    HW217448   1.773   3.774   6.222
 5517SOL     OW17449   2.145   3.221   2.004
 5517SOL    HW117450   2.045   3.213   2.004
 5517SOL    HW217451   2.170   3.318   1.997
 5518SOL     OW17452   6.022   6.002   6.826
 5518SOL    HW117453   5.966   6.001   6.743
 5518SOL    HW217454   6.076   6.086   6.829
 5519SOL     OW17455   5.721   3.690   3.098
 5519SOL    HW117456   5.672   3.650   3.176
 5519SOL    HW217457   5.804   3.638   3.081
 5520SOL     OW17458   6.220   6.916   2.501
 5520SOL    HW117459   6.308   6.869   2.498
 5520SOL    HW217460   6.195   6.947   2.410
 5521SOL     OW17461   5.063   6.757   2.207
 5521SOL    HW117462   5.125   6.819   2.160
 5521SOL    HW217463   4.995   6.809   2.258
 5522SOL     OW17464   5.807   5.167   0.803
 5522SOL    HW117465   5.782   5.140   0.710
 5522SOL    HW217466   5.754   5.248   0.830
 5523SOL     OW17467   3.702   1.343   1.901
 5523SOL    HW117468   3.651   1.367   1.984
 5523SOL    HW217469   3.642   1.350   1.821
 5524SOL     OW17470   4.637   0.549   4.139
 5524SOL    HW117471   4.546   0.583   4.162
 5524SOL    HW217472   4.692   0.543   4.222
 5525SOL     OW17473   0.470   2.127   7.015
 5525SOL    HW117474   0.401   2.181   6.967
 5525SOL    HW217475   0.426   2.069   0.061
 5526SOL     OW17476   4.713   5.325   3.239
 5526SOL    HW117477   4.663   5.408   3.215
 5526SOL    HW217478   4.735   5.274   3.156
 5527SOL     OW17479   4.955   3.463   4.255
 5527SOL    HW117480   4.900   3.471   4.339
 5527SOL    HW217481   5.042   3.510   4.267
 5528SOL     OW17482   1.366   0.590   0.237
 5528SOL    HW117483   1.290   0.635   0.285
 5528SOL    HW217484   1.431   0.556   0.304
 5529SOL     OW17485   3.693   7.015   4.252
 5529SOL    HW117486   3.713   6.965   4.336
 5529SOL    HW217487   3.721   6.960   4.173
 5530SOL     OW17488   5.528   2.019   0.893
 5530SOL    HW117489   5.447   1.961   0.901
 5530SOL    HW217490   5.501   2.115   0.904
 5531SOL     OW17491   3.650   3.414   1.901
 5531SOL    HW117492   3.731   3.472   1.886
 5531SOL    HW217493   3.659   3.365   1.987
 5532SOL     OW17494   1.070   3.267   0.815
 5532SOL    HW117495   1.070   3.194   0.746
 5532SOL    HW217496   1.019   3.346   0.781
 5533SOL     OW17497   3.959   2.172   3.015
 5533SOL    HW117498   4.026   2.098   3.019
 5533SOL    HW217499   3.875   2.145   3.062
 5534SOL     OW17500   0.788   1.775   6.820
 5534SOL    HW117501   0.815   1.678   6.814
 5534SOL    HW217502   0.710   1.792   6.760
 5535SOL     OW17503   0.252   2.109   3.762
 5535SOL    HW117504   0.289   2.122   3.854
 5535SOL    HW217505   0.168   2.164   3.753
 5536SOL     OW17506   3.663   1.473   4.044
 5536SOL    HW117507   3.608   1.466   4.127
 5536SOL    HW217508   3.640   1.558   3.996
 5537SOL     OW17509   2.606   1.147   2.060
 5537SOL    HW117510   2.642   1.166   2.151
 5537SOL    HW217511   2.531   1.081   2.067
 5538SOL     OW17512   3.034   5.547   5.501
 5538SOL    HW117513   2.983   5.521   5.419
 5538SOL    HW217514   2.984   5.618   5.551
 5539SOL     OW17515   0.961   3.712   1.589
 5539SOL    HW117516   0.882   3.680   1.536
 5539SOL    HW217517   0.935   3.723   1.685
 5540SOL     OW17518   4.594   4.346   4.181
 5540SOL    HW117519   4.555   4.397   4.104
 5540SOL    HW217520   4.550   4.377   4.266
 5541SOL     OW17521   5.353   6.606   6.393
 5541SOL    HW117522   5.397   6.621   6.305
 5541SOL    HW217523   5.355   6.691   6.446
 5542SOL     OW17524   4.720   3.609   6.193
 5542SOL    HW117525   4.818   3.614   6.172
 5542SOL    HW217526   4.669   3.666   6.128
 5543SOL     OW17527   3.573   4.093   6.392
 5543SOL    HW117528   3.605   4.010   6.346
 5543SOL    HW217529   3.535   4.156   6.325
 5544SOL     OW17530   4.983   5.320   7.001
 5544SOL    HW117531   4.987   5.346   0.075
 5544SOL    HW217532   5.019   5.395   6.945
 5545SOL     OW17533   4.637   1.299   2.345
 5545SOL    HW117534   4.619   1.252   2.431
 5545SOL    HW217535   4.731   1.283   2.317
 5546SOL     OW17536   0.517   4.580   4.664
 5546SOL    HW117537   0.492   4.636   4.586
 5546SOL    HW217538   0.575   4.504   4.634
 5547SOL     OW17539   3.183   6.972   4.978
 5547SOL    HW117540   3.179   0.001   5.064
 5547SOL    HW217541   3.143   6.881   4.991
 5548SOL     OW17542   6.284   2.294   5.568
 5548SOL    HW117543   6.309   2.277   5.663
 5548SOL    HW217544   6.278   2.207   5.519
 5549SOL     OW17545   4.904   4.871   6.667
 5549SOL    HW117546   4.922   4.919   6.753
 5549SOL    HW217547   4.831   4.804   6.680
 5550SOL     OW17548   3.114   5.153   2.527
 5550SOL    HW117549   3.172   5.197   2.458
 5550SOL    HW217550   3.073   5.070   2.489
 5551SOL     OW17551   2.563   0.985   2.601
 5551SOL    HW117552   2.617   0.929   2.539
 5551SOL    HW217553   2.526   1.063   2.551
 5552SOL     OW17554   6.875   0.668   6.946
 5552SOL    HW117555   6.969   0.683   6.977
 5552SOL    HW217556   6.811   0.710   7.010
 5553SOL     OW17557   3.627   6.447   0.267
 5553SOL    HW117558   3.638   6.406   0.357
 5553SOL    HW217559   3.683   6.530   0.261
 5554SOL     OW17560   3.160   1.705   5.088
 5554SOL    HW117561   3.233   1.640   5.108
 5554SOL    HW217562   3.171   1.786   5.146
 5555SOL     OW17563   0.431   4.300   3.807
 5555SOL    HW117564   0.382   4.218   3.778
 5555SOL    HW217565   0.379   4.381   3.781
 5556SOL     OW17566   0.135   2.475   4.123
 5556SOL    HW117567   0.123   2.443   4.217
 5556SOL    HW217568   0.229   2.458   4.094
 5557SOL     OW17569   3.758   4.874   3.026
 5557SOL    HW117570   3.788   4.782   3.048
 5557SOL    HW217571   3.732   4.879   2.930
 5558SOL     OW17572   4.880   3.376   5.868
 5558SOL    HW117573   4.976   3.403   5.866
 5558SOL    HW217574   4.867   3.295   5.811
 5559SOL     OW17575   2.584   6.924   2.168
 5559SOL    HW117576   2.601   6.895   2.074
 5559SOL    HW217577   2.659   6.982   2.200
 5560SOL     OW17578   0.563   6.702   3.551
 5560SOL    HW117579   0.510   6.620   3.530
 5560SOL    HW217580   0.508   6.783   3.532
 5561SOL     OW17581   2.339   1.470   4.145
 5561SOL    HW117582   2.272   1.544   4.151
 5561SOL    HW217583   2.429   1.505   4.173
 5562SOL     OW17584   2.213   2.501   6.977
 5562SOL    HW117585   2.274   2.539   0.025
 5562SOL    HW217586   2.253   2.417   6.940
 5563SOL     OW17587   4.717   6.457   2.594
 5563SOL    HW117588   4.730   6.371   2.544
 5563SOL    HW217589   4.619   6.473   2.610
 5564SOL     OW17590   4.865   2.186   1.370
 5564SOL    HW117591   4.833   2.272   1.409
 5564SOL    HW217592   4.790   2.120   1.369
 5565SOL     OW17593   4.347   1.516   6.053
 5565SOL    HW117594   4.373   1.608   6.083
 5565SOL    HW217595   4.316   1.519   5.958
 5566SOL     OW17596   1.780   5.438   1.464
 5566SOL    HW117597   1.783   5.431   1.364
 5566SOL    HW217598   1.685   5.444   1.494
 5567SOL     OW17599   0.686   4.804   1.271
 5567SOL    HW117600   0.626   4.725   1.264
 5567SOL    HW217601   0.656   4.875   1.207
 5568SOL     OW17602   5.250   2.603   2.213
 5568SOL    HW117603   5.302   2.656   2.146
 5568SOL    HW217604   5.309   2.580   2.291
 5569SOL     OW17605   3.553   1.944   1.658
 5569SOL    HW117606   3.498   1.988   1.587
 5569SOL    HW217607   3.650   1.950   1.632
 5570SOL     OW17608   6.155   4.687   4.731
 5570SOL    HW117609   6.159   4.734   4.819
 5570SOL    HW217610   6.070   4.634   4.726
 5571SOL     OW17611   0.290   6.375   0.175
 5571SOL    HW117612   0.193   6.399   0.182
 5571SOL    HW217613   0.344   6.439   0.230
 5572SOL     OW17614   2.234   2.908   6.116
 5572SOL    HW117615   2.328   2.880   6.138
 5572SOL    HW217616   2.184   2.926   6.201
 5573SOL     OW17617   0.900   2.833   0.306
 5573SOL    HW117618   0.862   2.795   0.222
 5573SOL    HW217619   0.923   2.929   0.292
 5574SOL     OW17620   0.223   1.355   4.169
 5574SOL    HW117621   0.321   1.350   4.191
 5574SOL    HW217622   0.170   1.337   4.251
 5575SOL     OW17623   1.433   0.918   1.794
 5575SOL    HW117624   1.443   0.909   1.695
 5575SOL    HW217625   1.429   1.014   1.819
 5576SOL     OW17626   6.355   5.569   1.900
 5576SOL    HW117627   6.267   5.615   1.890
 5576SOL    HW217628   6.374   5.554   1.998
 5577SOL     OW17629   2.648   3.015   5.660
 5577SOL    HW117630   2.608   3.093   5.707
 5577SOL    HW217631   2.582   2.940   5.656
 5578SOL     OW17632   3.952   2.852   1.231
 5578SOL    HW117633   3.946   2.896   1.320
 5578SOL    HW217634   3.920   2.757   1.238
 5579SOL     OW17635   6.247   3.666   5.818
 5579SOL    HW117636   6.326   3.660   5.879
 5579SOL    HW217637   6.185   3.589   5.836
 5580SOL     OW17638   5.046   1.798   0.039
 5580SOL    HW117639   4.973   1.768   7.000
 5580SOL    HW217640   5.006   1.846   0.118
 5581SOL     OW17641   2.734   0.004   1.339
 5581SOL    HW117642   2.649   6.984   1.307
 5581SOL    HW217643   2.726   0.104   1.330
 5582SOL     OW17644   3.312   3.250   3.691
 5582SOL    HW117645   3.276   3.157   3.700
 5582SOL    HW217646   3.386   3.263   3.757
 5583SOL     OW17647   4.116   0.084   2.467
 5583SOL    HW117648   4.125   0.097   2.368
 5583SOL    HW217649   4.020   0.073   2.491
 5584SOL     OW17650   5.240   4.173   4.133
 5584SOL    HW117651   5.279   4.262   4.159
 5584SOL    HW217652   5.217   4.122   4.216
 5585SOL     OW17653   5.459   0.373   4.067
 5585SOL    HW117654   5.467   0.446   4.136
 5585SOL    HW217655   5.490   0.287   4.106
 5586SOL     OW17656   1.210   2.615   6.615
 5586SOL    HW117657   1.253   2.589   6.529
 5586SOL    HW217658   1.216   2.540   6.680
 5587SOL     OW17659   3.981   6.758   2.297
 5587SOL    HW117660   3.976   6.659   2.288
 5587SOL    HW217661   3.997   6.782   2.393
 5588SOL     OW17662   1.346   6.641   4.160
 5588SOL    HW117663   1.325   6.649   4.257
 5588SOL    HW217664   1.444   6.655   4.146
 5589SOL     OW17665   4.730   3.249   6.393
 5589SOL    HW117666   4.804   3.287   6.448
 5589SOL    HW217667   4.751   3.259   6.296
 5590SOL     OW17668   6.629   5.365   3.063
 5590SOL    HW117669   6.627   5.370   2.963
 5590SOL    HW217670   6.611   5.455   3.102
 5591SOL     OW17671   5.915   0.214   6.782
 5591SOL    HW117672   5.910   0.131   6.727
 5591SOL    HW217673   6.009   0.246   6.787
 5592SOL     OW17674   2.201   3.881   2.770
 5592SOL    HW117675   2.179   3.786   2.793
 5592SOL    HW217676   2.198   3.937   2.852
 5593SOL     OW17677   6.917   2.767   5.793
 5593SOL    HW117678   6.892   2.849   5.843
 5593SOL    HW217679   7.017   2.756   5.796
 5594SOL     OW17680   2.375   1.540   6.547
 5594SOL    HW117681   2.281   1.537   6.580
 5594SOL    HW217682   2.435   1.498   6.615
 5595SOL     OW17683   6.500   0.568   5.224
 5595SOL    HW117684   6.432   0.521   5.168
 5595SOL    HW217685   6.497   0.535   5.318
 5596SOL     OW17686   5.653   0.127   3.162
 5596SOL    HW117687   5.620   0.051   3.218
 5596SOL    HW217688   5.576   0.183   3.132
 5597SOL     OW17689   5.419   2.978   5.325
 5597SOL    HW117690   5.383   3.068   5.349
 5597SOL    HW217691   5.446   2.930   5.408
 5598SOL     OW17692   5.133   2.333   3.678
 5598SOL    HW117693   5.209   2.345   3.742
 5598SOL    HW217694   5.079   2.417   3.674
 5599SOL     OW17695   5.584   4.026   1.849
 5599SOL    HW117696   5.596   4.037   1.750
 5599SOL    HW217697   5.567   4.116   1.891
 5600SOL     OW17698   2.427   0.328   2.417
 5600SOL    HW117699   2.328   0.316   2.405
 5600SOL    HW217700   2.468   0.240   2.442
 5601SOL     OW17701   4.439   2.790   5.711
 5601SOL    HW117702   4.486   2.746   5.634
 5601SOL    HW217703   4.342   2.765   5.709
 5602SOL     OW17704   0.081   1.579   3.211
 5602SOL    HW117705   0.171   1.588   3.252
 5602SOL    HW217706   0.036   1.497   3.246
 5603SOL     OW17707   4.473   2.346   5.207
 5603SOL    HW117708   4.499   2.410   5.135
 5603SOL    HW217709   4.488   2.253   5.175
 5604SOL     OW17710   0.887   1.349   4.199
 5604SOL    HW117711   0.939   1.343   4.285
 5604SOL    HW217712   0.871   1.258   4.163
 5605SOL     OW17713   0.904   0.470   5.177
 5605SOL    HW117714   0.874   0.446   5.269
 5605SOL    HW217715   0.844   0.541   5.140
 5606SOL     OW17716   4.268   1.597   0.205
 5606SOL    HW117717   4.302   1.510   0.170
 5606SOL    HW217718   4.216   1.580   0.289
 5607SOL     OW17719   5.986   2.213   3.123
 5607SOL    HW117720   6.048   2.160   3.065
 5607SOL    HW217721   5.961   2.159   3.203
 5608SOL     OW17722   6.390   0.715   2.902
 5608SOL    HW117723   6.482   0.677   2.886
 5608SOL    HW217724   6.326   0.676   2.836
 5609SOL     OW17725   5.080   6.616   0.444
 5609SOL    HW117726   5.015   6.563   0.499
 5609SOL    HW217727   5.111   6.561   0.366
 5610SOL     OW17728   5.393   4.128   0.253
 5610SOL    HW117729   5.377   4.034   0.284
 5610SOL    HW217730   5.480   4.132   0.202
 5611SOL     OW17731   0.403   4.814   2.093
 5611SOL    HW117732   0.422   4.715   2.092
 5611SOL    HW217733   0.333   4.833   2.162
 5612SOL     OW17734   2.873   2.919   0.814
 5612SOL    HW117735   2.862   3.018   0.812
 5612SOL    HW217736   2.875   2.888   0.909
 5613SOL     OW17737   6.747   4.668   4.404
 5613SOL    HW117738   6.731   4.726   4.483
 5613SOL    HW217739   6.689   4.698   4.328
 5614SOL     OW17740   6.527   2.018   4.448
 5614SOL    HW117741   6.446   2.003   4.505
 5614SOL    HW217742   6.529   1.950   4.375
 5615SOL     OW17743   0.210   1.828   2.173
 5615SOL    HW117744   0.140   1.860   2.109
 5615SOL    HW217745   0.294   1.881   2.159
 5616SOL     OW17746   2.425   1.468   4.999
 5616SOL    HW117747   2.407   1.566   4.991
 5616SOL    HW217748   2.413   1.424   4.910
 5617SOL     OW17749   1.306   5.060   4.452
 5617SOL    HW117750   1.385   5.095   4.401
 5617SOL    HW217751   1.325   4.968   4.484
 5618SOL     OW17752   6.142   5.101   3.234
 5618SOL    HW117753   6.129   5.160   3.154
 5618SOL    HW217754   6.075   5.125   3.304
 5619SOL     OW17755   3.520   2.883   3.835
 5619SOL    HW117756   3.516   2.786   3.860
 5619SOL    HW217757   3.613   2.905   3.803
 5620SOL     OW17758   4.449   4.282   5.652
 5620SOL    HW117759   4.356   4.279   5.690
 5620SOL    HW217760   4.490   4.372   5.671
 5621SOL     OW17761   1.447   2.984   6.633
 5621SOL    HW117762   1.521   3.038   6.592
 5621SOL    HW217763   1.481   2.893   6.656
 5622SOL     OW17764   4.100   6.046   5.128
 5622SOL    HW117765   4.054   6.132   5.107
 5622SOL    HW217766   4.143   6.010   5.046
 5623SOL     OW17767   4.919   6.901   4.780
 5623SOL    HW117768   4.959   6.961   4.851
 5623SOL    HW217769   4.937   6.806   4.804
 5624SOL     OW17770   1.102   5.352   3.069
 5624SOL    HW117771   1.017   5.404   3.059
 5624SOL    HW217772   1.084   5.269   3.122
 5625SOL     OW17773   1.109   5.424   4.543
 5625SOL    HW117774   1.184   5.446   4.606
 5625SOL    HW217775   1.031   5.482   4.563
 5626SOL     OW17776   1.983   4.320   4.490
 5626SOL    HW117777   2.017   4.403   4.447
 5626SOL    HW217778   1.979   4.247   4.422
 5627SOL     OW17779   0.275   5.594   5.963
 5627SOL    HW117780   0.194   5.536   5.968
 5627SOL    HW217781   0.263   5.663   5.891
 5628SOL     OW17782   2.824   2.974   0.534
 5628SOL    HW117783   2.727   2.958   0.514
 5628SOL    HW217784   2.852   2.915   0.609
 5629SOL     OW17785   3.688   3.212   1.280
 5629SOL    HW117786   3.744   3.250   1.354
 5629SOL    HW217787   3.609   3.271   1.264
 5630SOL     OW17788   1.329   3.908   6.099
 5630SOL    HW117789   1.352   3.991   6.151
 5630SOL    HW217790   1.358   3.828   6.151
 5631SOL     OW17791   5.097   1.449   1.927
 5631SOL    HW117792   5.169   1.449   1.858
 5631SOL    HW217793   5.136   1.472   2.016
 5632SOL     OW17794   4.806   1.242   6.255
 5632SOL    HW117795   4.869   1.166   6.239
 5632SOL    HW217796   4.764   1.232   6.345
 5633SOL     OW17797   0.220   5.420   4.371
 5633SOL    HW117798   0.152   5.374   4.428
 5633SOL    HW217799   0.294   5.455   4.430
 5634SOL     OW17800   2.378   5.478   4.874
 5634SOL    HW117801   2.327   5.392   4.865
 5634SOL    HW217802   2.435   5.474   4.956
 5635SOL     OW17803   2.935   6.588   6.581
 5635SOL    HW117804   2.898   6.532   6.507
 5635SOL    HW217805   3.034   6.595   6.572
 5636SOL     OW17806   6.277   1.409   5.440
 5636SOL    HW117807   6.183   1.377   5.434
 5636SOL    HW217808   6.283   1.480   5.510
 5637SOL     OW17809   5.638   6.697   4.350
 5637SOL    HW117810   5.630   6.797   4.357
 5637SOL    HW217811   5.646   6.671   4.254
 5638SOL     OW17812   5.336   5.811   1.294
 5638SOL    HW117813   5.361   5.906   1.276
 5638SOL    HW217814   5.392   5.751   1.237
 5639SOL     OW17815   1.093   0.936   1.606
 5639SOL    HW117816   1.028   0.882   1.660
 5639SOL    HW217817   1.076   1.033   1.621
 5640SOL     OW17818   2.552   6.691   2.554
 5640SOL    HW117819   2.457   6.697   2.523
 5640SOL    HW217820   2.613   6.691   2.475
 5641SOL     OW17821   0.578   4.986   5.727
 5641SOL    HW117822   0.499   4.924   5.729
 5641SOL    HW217823   0.662   4.933   5.739
 5642SOL     OW17824   0.956   5.080   5.956
 5642SOL    HW117825   0.915   5.159   6.001
 5642SOL    HW217826   1.030   5.044   6.013
 5643SOL     OW17827   3.273   0.940   4.516
 5643SOL    HW117828   3.285   0.902   4.608
 5643SOL    HW217829   3.180   0.977   4.508
 5644SOL     OW17830   5.234   0.697   4.143
 5644SOL    HW117831   5.289   0.651   4.213
 5644SOL    HW217832   5.154   0.738   4.187
 5645SOL     OW17833   6.288   4.535   2.547
 5645SOL    HW117834   6.263   4.607   2.611
 5645SOL    HW217835   6.279   4.568   2.454
 5646SOL     OW17836   1.812   5.447   3.645
 5646SOL    HW117837   1.749   5.387   3.597
 5646SOL    HW217838   1.762   5.499   3.715
 5647SOL     OW17839   6.503   6.345   6.859
 5647SOL    HW117840   6.416   6.351   6.810
 5647SOL    HW217841   6.577   6.374   6.798
 5648SOL     OW17842   2.173   0.919   2.641
 5648SOL    HW117843   2.186   0.999   2.699
 5648SOL    HW217844   2.237   0.923   2.564
 5649SOL     OW17845   1.346   6.333   5.822
 5649SOL    HW117846   1.431   6.288   5.794
 5649SOL    HW217847   1.336   6.325   5.921
 5650SOL     OW17848   0.551   5.382   1.196
 5650SOL    HW117849   0.523   5.311   1.261
 5650SOL    HW217850   0.648   5.373   1.177
 5651SOL     OW17851   0.075   1.683   1.446
 5651SOL    HW117852   0.070   1.583   1.446
 5651SOL    HW217853   0.030   1.718   1.364
 5652SOL     OW17854   5.145   6.455   2.196
 5652SOL    HW117855   5.116   6.550   2.192
 5652SOL    HW217856   5.213   6.438   2.125
 5653SOL     OW17857   0.427   6.268   6.706
 5653SOL    HW117858   0.338   6.271   6.752
 5653SOL    HW217859   0.484   6.343   6.738
 5654SOL     OW17860   0.124   6.581   6.122
 5654SOL    HW117861   0.191   6.611   6.054
 5654SOL    HW217862   0.067   6.508   6.083
 5655SOL     OW17863   1.037   3.318   4.352
 5655SOL    HW117864   1.031   3.220   4.371
 5655SOL    HW217865   0.979   3.369   4.417
 5656SOL     OW17866   2.676   4.546   0.372
 5656SOL    HW117867   2.755   4.514   0.424
 5656SOL    HW217868   2.592   4.511   0.413
 5657SOL     OW17869   5.102   6.923   1.428
 5657SOL    HW117870   5.069   6.914   1.334
 5657SOL    HW217871   5.027   6.903   1.491
 5658SOL     OW17872   3.359   6.265   5.767
 5658SOL    HW117873   3.353   6.288   5.864
 5658SOL    HW217874   3.355   6.349   5.712
 5659SOL     OW17875   2.990   3.907   3.027
 5659SOL    HW117876   3.087   3.933   3.020
 5659SOL    HW217877   2.952   3.896   2.935
 5660SOL     OW17878   5.204   0.849   5.639
 5660SOL    HW117879   5.135   0.788   5.678
 5660SOL    HW217880   5.272   0.872   5.709
 5661SOL     OW17881   6.930   4.881   6.423
 5661SOL    HW117882   6.918   4.978   6.448
 5661SOL    HW217883   6.845   4.845   6.386
 5662SOL     OW17884   2.998   4.974   4.292
 5662SOL    HW117885   3.002   4.923   4.378
 5662SOL    HW217886   3.061   4.932   4.225
 5663SOL     OW17887   1.200   4.235   6.974
 5663SOL    HW117888   1.242   4.217   0.040
 5663SOL    HW217889   1.101   4.225   6.981
 5664SOL     OW17890   6.905   3.830   4.124
 5664SOL    HW117891   6.878   3.902   4.060
 5664SOL    HW217892   6.970   3.769   4.080
 5665SOL     OW17893   1.871   1.611   6.560
 5665SOL    HW117894   1.805   1.551   6.514
 5665SOL    HW217895   1.861   1.704   6.524
 5666SOL     OW17896   5.032   5.984   0.850
 5666SOL    HW117897   4.952   5.929   0.825
 5666SOL    HW217898   5.004   6.079   0.864
 5667SOL     OW17899   0.856   4.908   3.589
 5667SOL    HW117900   0.769   4.859   3.577
 5667SOL    HW217901   0.841   4.990   3.644
 5668SOL     OW17902   4.984   2.408   6.156
 5668SOL    HW117903   4.894   2.450   6.165
 5668SOL    HW217904   5.002   2.351   6.237
 5669SOL     OW17905   0.222   3.326   6.393
 5669SOL    HW117906   0.124   3.344   6.401
 5669SOL    HW217907   0.272   3.413   6.389
 5670SOL     OW17908   0.513   3.048   3.304
 5670SOL    HW117909   0.414   3.039   3.289
 5670SOL    HW217910   0.531   3.128   3.360
 5671SOL     OW17911   1.216   6.302   6.517
 5671SOL    HW117912   1.137   6.279   6.574
 5671SOL    HW217913   1.198   6.388   6.469
 5672SOL     OW17914   4.155   5.171   6.982
 5672SOL    HW117915   4.236   5.217   7.019
 5672SOL    HW217916   4.088   5.239   6.953
 5673SOL     OW17917   1.256   6.453   1.967
 5673SOL    HW117918   1.173   6.470   1.913
 5673SOL    HW217919   1.337   6.464   1.910
 5674SOL     OW17920   6.708   3.751   3.231
 5674SOL    HW117921   6.703   3.840   3.276
 5674SOL    HW217922   6.662   3.755   3.143
 5675SOL     OW17923   4.328   2.084   6.207
 5675SOL    HW117924   4.390   2.151   6.167
 5675SOL    HW217925   4.285   2.031   6.135
 5676SOL     OW17926   1.719   1.697   1.553
 5676SOL    HW117927   1.785   1.696   1.478
 5676SOL    HW217928   1.748   1.762   1.623
 5677SOL     OW17929   0.527   2.173   2.614
 5677SOL    HW117930   0.609   2.153   2.668
 5677SOL    HW217931   0.554   2.213   2.526
 5678SOL     OW17932   2.842   6.790   2.998
 5678SOL    HW117933   2.886   6.863   3.051
 5678SOL    HW217934   2.774   6.830   2.937
 5679SOL     OW17935   1.381   0.736   3.522
 5679SOL    HW117936   1.440   0.812   3.548
 5679SOL    HW217937   1.401   0.709   3.428
 5680SOL     OW17938   1.361   5.320   1.168
 5680SOL    HW117939   1.311   5.337   1.253
 5680SOL    HW217940   1.459   5.326   1.185
 5681SOL     OW17941   0.439   3.727   6.730
 5681SOL    HW117942   0.503   3.781   6.676
 5681SOL    HW217943   0.482   3.700   6.816
 5682SOL     OW17944   1.886   4.789   5.169
 5682SOL    HW117945   1.830   4.825   5.243
 5682SOL    HW217946   1.884   4.689   5.171
 5683SOL     OW17947   4.173   1.997   6.712
 5683SOL    HW117948   4.142   1.905   6.737
 5683SOL    HW217949   4.216   1.993   6.622
 5684SOL     OW17950   3.908   3.164   4.907
 5684SOL    HW117951   3.817   3.205   4.904
 5684SOL    HW217952   3.932   3.142   5.001
 5685SOL     OW17953   0.982   4.364   2.020
 5685SOL    HW117954   0.919   4.364   1.943
 5685SOL    HW217955   1.071   4.398   1.990
 5686SOL     OW17956   3.061   0.503   6.867
 5686SOL    HW117957   3.077   0.582   6.808
 5686SOL    HW217958   3.087   0.419   6.818
 5687SOL     OW17959   6.993   4.083   4.889
 5687SOL    HW117960   6.964   4.144   4.816
 5687SOL    HW217961   0.049   4.029   4.858
 5688SOL     OW17962   6.709   1.556   7.016
 5688SOL    HW117963   6.657   1.567   0.078
 5688SOL    HW217964   6.664   1.488   6.958
 5689SOL     OW17965   4.131   1.038   6.970
 5689SOL    HW117966   4.143   1.128   7.011
 5689SOL    HW217967   4.082   1.047   6.883
 5690SOL     OW17968   2.361   6.208   0.729
 5690SOL    HW117969   2.398   6.217   0.821
 5690SOL    HW217970   2.335   6.113   0.713
 5691SOL     OW17971   2.814   6.287   2.012
 5691SOL    HW117972   2.851   6.370   1.972
 5691SOL    HW217973   2.876   6.210   1.994
 5692SOL     OW17974   6.849   3.002   5.924
 5692SOL    HW117975   6.854   3.073   5.855
 5692SOL    HW217976   6.915   3.021   5.997
 5693SOL     OW17977   5.780   3.071   2.258
 5693SOL    HW117978   5.704   3.110   2.205
 5693SOL    HW217979   5.758   3.074   2.355
 5694SOL     OW17980   0.591   1.358   3.850
 5694SOL    HW117981   0.687   1.332   3.846
 5694SOL    HW217982   0.560   1.357   3.945
 5695SOL     OW17983   0.677   2.469   2.904
 5695SOL    HW117984   0.651   2.500   2.996
 5695SOL    HW217985   0.768   2.428   2.907
 5696SOL     OW17986   1.690   0.071   2.999
 5696SOL    HW117987   1.722   0.128   3.074
 5696SOL    HW217988   1.768   0.030   2.952
 5697SOL     OW17989   5.725   1.884   1.003
 5697SOL    HW117990   5.652   1.951   0.983
 5697SOL    HW217991   5.814   1.925   0.983
 5698SOL     OW17992   0.347   2.843   1.509
 5698SOL    HW117993   0.333   2.938   1.482
 5698SOL    HW217994   0.394   2.841   1.598
 5699SOL     OW17995   6.210   2.394   3.100
 5699SOL    HW117996   6.114   2.369   3.113
 5699SOL    HW217997   6.234   2.469   3.162
 5700SOL     OW17998   6.772   6.485   4.397
 5700SOL    HW117999   6.783   6.534   4.310
 5700SOL    HW218000   6.800   6.390   4.385
 5701SOL     OW18001   1.319   6.002   3.307
 5701SOL    HW118002   1.243   6.017   3.369
 5701SOL    HW218003   1.318   6.072   3.235
 5702SOL     OW18004   1.709   0.451   5.341
 5702SOL    HW118005   1.746   0.529   5.392
 5702SOL    HW218006   1.783   0.390   5.316
 5703SOL     OW18007   5.023   4.355   0.812
 5703SOL    HW118008   5.088   4.345   0.888
 5703SOL    HW218009   5.052   4.432   0.754
 5704SOL     OW18010   4.073   5.554   2.221
 5704SOL    HW118011   3.987   5.602   2.205
 5704SOL    HW218012   4.055   5.458   2.242
 5705SOL     OW18013   5.421   1.019   0.495
 5705SOL    HW118014   5.491   0.963   0.541
 5705SOL    HW218015   5.396   1.095   0.555
 5706SOL     OW18016   0.895   2.204   0.555
 5706SOL    HW118017   0.847   2.247   0.479
 5706SOL    HW218018   0.918   2.273   0.624
 5707SOL     OW18019   0.793   6.646   0.159
 5707SOL    HW118020   0.878   6.699   0.160
 5707SOL    HW218021   0.810   6.557   0.116
 5708SOL     OW18022   5.101   6.233   1.166
 5708SOL    HW118023   5.101   6.251   1.068
 5708SOL    HW218024   5.140   6.312   1.214
 5709SOL     OW18025   1.271   6.975   3.566
 5709SOL    HW118026   1.341   6.981   3.495
 5709SOL    HW218027   1.249   6.879   3.584
 5710SOL     OW18028   2.937   3.473   5.977
 5710SOL    HW118029   2.971   3.432   5.892
 5710SOL    HW218030   2.840   3.451   5.988
 5711SOL     OW18031   4.759   0.479   3.000
 5711SOL    HW118032   4.809   0.433   2.926
 5711SOL    HW218033   4.733   0.412   3.069
 5712SOL     OW18034   0.864   5.981   6.053
 5712SOL    HW118035   0.821   5.891   6.051
 5712SOL    HW218036   0.920   5.990   6.135
 5713SOL     OW18037   1.190   2.403   1.355
 5713SOL    HW118038   1.109   2.400   1.297
 5713SOL    HW218039   1.231   2.311   1.359
 5714SOL     OW18040   1.397   6.034   6.870
 5714SOL    HW118041   1.446   5.954   6.907
 5714SOL    HW218042   1.357   6.085   6.946
 5715SOL     OW18043   1.223   6.451   3.193
 5715SOL    HW118044   1.180   6.381   3.250
 5715SOL    HW218045   1.155   6.488   3.130
 5716SOL     OW18046   1.065   4.027   6.039
 5716SOL    HW118047   1.148   3.984   6.074
 5716SOL    HW218048   1.019   3.966   5.975
 5717SOL     OW18049   1.957   5.619   0.484
 5717SOL    HW118050   1.884   5.583   0.426
 5717SOL    HW218051   1.939   5.593   0.579
 5718SOL     OW18052   0.871   3.928   6.464
 5718SOL    HW118053   0.885   3.968   6.373
 5718SOL    HW218054   0.933   3.971   6.529
 5719SOL     OW18055   2.383   1.273   6.238
 5719SOL    HW118056   2.402   1.371   6.250
 5719SOL    HW218057   2.353   1.235   6.326
 5720SOL     OW18058   0.959   4.538   3.999
 5720SOL    HW118059   1.016   4.592   3.938
 5720SOL    HW218060   0.869   4.582   4.008
 5721SOL     OW18061   6.983   3.573   1.046
 5721SOL    HW118062   6.977   3.476   1.023
 5721SOL    HW218063   6.942   3.627   0.973
 5722SOL     OW18064   5.624   2.269   5.187
 5722SOL    HW118065   5.684   2.288   5.110
 5722SOL    HW218066   5.650   2.183   5.230
 5723SOL     OW18067   4.099   3.668   0.032
 5723SOL    HW118068   4.014   3.619   0.015
 5723SOL    HW218069   4.093   3.715   0.120
 5724SOL     OW18070   4.046   2.382   5.406
 5724SOL    HW118071   4.032   2.428   5.493
 5724SOL    HW218072   4.026   2.445   5.331
 5725SOL     OW18073   6.065   5.423   3.415
 5725SOL    HW118074   6.129   5.500   3.422
 5725SOL    HW218075   6.097   5.349   3.474
 5726SOL     OW18076   6.225   3.499   3.785
 5726SOL    HW118077   6.222   3.484   3.884
 5726SOL    HW218078   6.137   3.473   3.745
 5727SOL     OW18079   0.486   2.737   4.111
 5727SOL    HW118080   0.499   2.726   4.012
 5727SOL    HW218081   0.429   2.818   4.128
 5728SOL     OW18082   4.373   1.192   6.340
 5728SOL    HW118083   4.293   1.132   6.344
 5728SOL    HW218084   4.385   1.237   6.428
 5729SOL     OW18085   1.113   1.550   0.426
 5729SOL    HW118086   1.196   1.599   0.398
 5729SOL    HW218087   1.033   1.607   0.407
 5730SOL     OW18088   3.762   5.101   5.954
 5730SOL    HW118089   3.847   5.060   5.988
 5730SOL    HW218090   3.783   5.185   5.904
 5731SOL     OW18091   2.056   6.360   3.742
 5731SOL    HW118092   2.046   6.426   3.817
 5731SOL    HW218093   1.973   6.305   3.734
 5732SOL     OW18094   6.642   4.502   5.080
 5732SOL    HW118095   6.656   4.532   5.174
 5732SOL    HW218096   6.646   4.402   5.076
 5733SOL     OW18097   3.250   0.422   5.701
 5733SOL    HW118098   3.156   0.439   5.731
 5733SOL    HW218099   3.248   0.387   5.607
 5734SOL     OW18100   1.861   6.152   6.326
 5734SOL    HW118101   1.959   6.142   6.310
 5734SOL    HW218102   1.840   6.128   6.421
 5735SOL     OW18103   4.322   1.327   2.895
 5735SOL    HW118104   4.344   1.237   2.934
 5735SOL    HW218105   4.341   1.398   2.963
 5736SOL     OW18106   5.575   4.677   0.198
 5736SOL    HW118107   5.587   4.772   0.226
 5736SOL    HW218108   5.646   4.621   0.241
 5737SOL     OW18109   5.878   5.916   0.037
 5737SOL    HW118110   5.892   5.828   0.082
 5737SOL    HW218111   5.945   5.928   6.987
 5738SOL     OW18112   3.601   2.021   7.008
 5738SOL    HW118113   3.654   1.948   0.030
 5738SOL    HW218114   3.633   2.033   6.914
 5739SOL     OW18115   1.060   6.200   5.549
 5739SOL    HW118116   0.979   6.236   5.595
 5739SOL    HW218117   1.105   6.133   5.608
 5740SOL     OW18118   4.481   3.969   1.086
 5740SOL    HW118119   4.526   3.918   1.014
 5740SOL    HW218120   4.550   4.006   1.149
 5741SOL     OW18121   0.149   4.165   4.097
 5741SOL    HW118122   0.070   4.198   4.149
 5741SOL    HW218123   0.203   4.243   4.065
 5742SOL     OW18124   4.716   6.098   2.653
 5742SOL    HW118125   4.752   6.005   2.662
 5742SOL    HW218126   4.755   6.142   2.573
 5743SOL     OW18127   2.074   6.094   5.230
 5743SOL    HW118128   2.050   6.077   5.134
 5743SOL    HW218129   2.087   6.192   5.244
 5744SOL     OW18130   5.245   1.129   1.967
 5744SOL    HW118131   5.313   1.150   2.037
 5744SOL    HW218132   5.265   1.181   1.884
 5745SOL     OW18133   2.291   0.897   3.860
 5745SOL    HW118134   2.388   0.917   3.846
 5745SOL    HW218135   2.273   0.895   3.959
 5746SOL     OW18136   4.833   6.483   1.686
 5746SOL    HW118137   4.908   6.431   1.646
 5746SOL    HW218138   4.753   6.479   1.625
 5747SOL     OW18139   1.037   5.020   2.095
 5747SOL    HW118140   0.973   5.080   2.047
 5747SOL    HW218141   0.988   4.968   2.164
 5748SOL     OW18142   1.275   0.013   1.433
 5748SOL    HW118143   1.369   0.032   1.404
 5748SOL    HW218144   1.213   0.079   1.390
 5749SOL     OW18145   1.885   6.643   5.124
 5749SOL    HW118146   1.851   6.569   5.183
 5749SOL    HW218147   1.919   6.604   5.038
 5750SOL     OW18148   5.987   6.445   5.035
 5750SOL    HW118149   5.902   6.441   4.982
 5750SOL    HW218150   6.026   6.353   5.043
 5751SOL     OW18151   2.468   2.539   4.957
 5751SOL    HW118152   2.532   2.462   4.966
 5751SOL    HW218153   2.430   2.561   5.047
 5752SOL     OW18154   5.609   0.099   0.331
 5752SOL    HW118155   5.698   0.116   0.371
 5752SOL    HW218156   5.539   0.095   0.403
 5753SOL     OW18157   3.457   3.987   4.747
 5753SOL    HW118158   3.374   3.940   4.716
 5753SOL    HW218159   3.501   4.032   4.669
 5754SOL     OW18160   0.472   4.800   1.582
 5754SOL    HW118161   0.460   4.741   1.503
 5754SOL    HW218162   0.558   4.778   1.628
 5755SOL     OW18163   1.417   2.153   6.103
 5755SOL    HW118164   1.480   2.094   6.154
 5755SOL    HW218165   1.457   2.177   6.015
 5756SOL     OW18166   0.438   0.591   2.940
 5756SOL    HW118167   0.373   0.559   2.871
 5756SOL    HW218168   0.530   0.592   2.901
 5757SOL     OW18169   0.785   5.102   3.770
 5757SOL    HW118170   0.800   5.158   3.851
 5757SOL    HW218171   0.689   5.072   3.767
 5758SOL     OW18172   2.335   1.156   2.867
 5758SOL    HW118173   2.237   1.151   2.848
 5758SOL    HW218174   2.382   1.196   2.788
 5759SOL     OW18175   5.068   0.429   6.918
 5759SOL    HW118176   5.072   0.368   6.838
 5759SOL    HW218177   5.117   0.387   6.994
 5760SOL     OW18178   5.869   1.885   0.602
 5760SOL    HW118179   5.786   1.835   0.628
 5760SOL    HW218180   5.924   1.828   0.542
 5761SOL     OW18181   6.206   4.693   6.127
 5761SOL    HW118182   6.160   4.644   6.201
 5761SOL    HW218183   6.150   4.689   6.044
 5762SOL     OW18184   5.161   4.154   1.236
 5762SOL    HW118185   5.122   4.069   1.273
 5762SOL    HW218186   5.128   4.232   1.289
 5763SOL     OW18187   6.100   5.863   0.925
 5763SOL    HW118188   6.007   5.832   0.948
 5763SOL    HW218189   6.124   5.830   0.834
 5764SOL     OW18190   4.768   4.715   4.811
 5764SOL    HW118191   4.678   4.695   4.850
 5764SOL    HW218192   4.815   4.782   4.868
 5765SOL     OW18193   6.401   3.382   0.359
 5765SOL    HW118194   6.478   3.354   0.417
 5765SOL    HW218195   6.337   3.306   0.351
 5766SOL     OW18196   1.343   1.899   5.545
 5766SOL    HW118197   1.358   1.925   5.449
 5766SOL    HW218198   1.263   1.838   5.550
 5767SOL     OW18199   2.279   0.398   0.815
 5767SOL    HW118200   2.251   0.428   0.724
 5767SOL    HW218201   2.364   0.347   0.809
 5768SOL     OW18202   0.798   6.759   4.239
 5768SOL    HW118203   0.758   6.792   4.153
 5768SOL    HW218204   0.788   6.830   4.309
 5769SOL     OW18205   2.439   5.517   4.229
 5769SOL    HW118206   2.532   5.533   4.260
 5769SOL    HW218207   2.400   5.438   4.278
 5770SOL     OW18208   6.829   6.124   6.157
 5770SOL    HW118209   6.822   6.090   6.063
 5770SOL    HW218210   6.750   6.180   6.180
 5771SOL     OW18211   1.378   6.729   4.429
 5771SOL    HW118212   1.329   6.698   4.510
 5771SOL    HW218213   1.452   6.791   4.456
 5772SOL     OW18214   5.432   1.169   1.492
 5772SOL    HW118215   5.474   1.250   1.450
 5772SOL    HW218216   5.348   1.147   1.444
 5773SOL     OW18217   4.304   0.597   3.112
 5773SOL    HW118218   4.264   0.625   3.199
 5773SOL    HW218219   4.234   0.553   3.055
 5774SOL     OW18220   3.020   6.590   4.084
 5774SOL    HW118221   3.092   6.642   4.039
 5774SOL    HW218222   2.966   6.650   4.143
 5775SOL     OW18223   1.600   0.333   2.569
 5775SOL    HW118224   1.649   0.303   2.487
 5775SOL    HW218225   1.615   0.268   2.643
 5776SOL     OW18226   0.526   0.854   3.910
 5776SOL    HW118227   0.585   0.867   3.830
 5776SOL    HW218228   0.536   0.760   3.944
 5777SOL     OW18229   6.773   0.168   4.888
 5777SOL    HW118230   6.676   0.150   4.905
 5777SOL    HW218231   6.803   0.243   4.948
 5778SOL     OW18232   1.378   0.282   0.533
 5778SOL    HW118233   1.444   0.232   0.588
 5778SOL    HW218234   1.425   0.352   0.480
 5779SOL     OW18235   4.597   2.386   1.133
 5779SOL    HW118236   4.510   2.423   1.100
 5779SOL    HW218237   4.639   2.452   1.196
 5780SOL     OW18238   6.438   6.386   3.677
 5780SOL    HW118239   6.400   6.400   3.769
 5780SOL    HW218240   6.468   6.291   3.668
 5781SOL     OW18241   6.930   5.046   4.176
 5781SOL    HW118242   6.937   5.042   4.276
 5781SOL    HW218243   6.961   4.960   4.137
 5782SOL     OW18244   1.676   1.638   1.120
 5782SOL    HW118245   1.623   1.714   1.156
 5782SOL    HW218246   1.716   1.664   1.033
 5783SOL     OW18247   1.097   0.719   1.420
 5783SOL    HW118248   1.133   0.771   1.497
 5783SOL    HW218249   1.085   0.623   1.448
 5784SOL     OW18250   0.062   6.048   5.632
 5784SOL    HW118251   0.088   6.093   5.547
 5784SOL    HW218252   6.990   6.015   5.625
 5785SOL     OW18253   2.283   2.063   0.144
 5785SOL    HW118254   2.353   2.132   0.125
 5785SOL    HW218255   2.219   2.058   0.067
 5786SOL     OW18256   0.583   4.374   0.842
 5786SOL    HW118257   0.637   4.440   0.895
 5786SOL    HW218258   0.562   4.295   0.900
 5787SOL     OW18259   3.179   1.795   4.796
 5787SOL    HW118260   3.136   1.764   4.881
 5787SOL    HW218261   3.118   1.857   4.748
 5788SOL     OW18262   2.772   1.702   1.267
 5788SOL    HW118263   2.746   1.685   1.172
 5788SOL    HW218264   2.690   1.705   1.324
 5789SOL     OW18265   3.276   4.393   0.005
 5789SOL    HW118266   3.268   4.375   6.929
 5789SOL    HW218267   3.350   4.338   0.043
 5790SOL     OW18268   1.477   4.121   5.140
 5790SOL    HW118269   1.477   4.221   5.139
 5790SOL    HW218270   1.400   4.088   5.194
 5791SOL     OW18271   3.681   1.831   2.437
 5791SOL    HW118272   3.629   1.916   2.445
 5791SOL    HW218273   3.770   1.851   2.395
 5792SOL     OW18274   6.175   3.563   2.701
 5792SOL    HW118275   6.219   3.638   2.654
 5792SOL    HW218276   6.075   3.573   2.695
 5793SOL     OW18277   5.043   1.202   4.013
 5793SOL    HW118278   5.105   1.129   3.987
 5793SOL    HW218279   4.999   1.179   4.100
 5794SOL     OW18280   2.474   1.367   0.519
 5794SOL    HW118281   2.403   1.389   0.452
 5794SOL    HW218282   2.476   1.269   0.536
 5795SOL     OW18283   6.390   0.381   6.855
 5795SOL    HW118284   6.337   0.422   6.929
 5795SOL    HW218285   6.422   0.452   6.794
 5796SOL     OW18286   4.704   1.268   6.488
 5796SOL    HW118287   4.719   1.367   6.481
 5796SOL    HW218288   4.609   1.251   6.514
 5797SOL     OW18289   4.543   2.862   6.178
 5797SOL    HW118290   4.507   2.768   6.174
 5797SOL    HW218291   4.537   2.904   6.088
 5798SOL     OW18292   0.635   4.694   5.334
 5798SOL    HW118293   0.716   4.639   5.316
 5798SOL    HW218294   0.660   4.775   5.387
 5799SOL     OW18295   0.540   0.231   3.223
 5799SOL    HW118296   0.586   0.288   3.291
 5799SOL    HW218297   0.461   0.281   3.186
 5800SOL     OW18298   6.360   6.364   2.005
 5800SOL    HW118299   6.269   6.392   2.035
 5800SOL    HW218300   6.397   6.297   2.069
 5801SOL     OW18301   2.301   2.420   3.470
 5801SOL    HW118302   2.299   2.346   3.403
 5801SOL    HW218303   2.242   2.396   3.548
 5802SOL     OW18304   0.987   3.942   2.315
 5802SOL    HW118305   0.931   3.868   2.352
 5802SOL    HW218306   1.066   3.957   2.374
 5803SOL     OW18307   2.613   5.165   2.343
 5803SOL    HW118308   2.615   5.125   2.435
 5803SOL    HW218309   2.601   5.093   2.275
 5804SOL     OW18310   0.427   5.459   3.786
 5804SOL    HW118311   0.526   5.447   3.781
 5804SOL    HW218312   0.406   5.550   3.821
 5805SOL     OW18313   2.766   3.394   6.887
 5805SOL    HW118314   2.809   3.479   6.919
 5805SOL    HW218315   2.788   3.319   6.949
 5806SOL     OW18316   6.843   5.404   4.807
 5806SOL    HW118317   6.939   5.428   4.814
 5806SOL    HW218318   6.786   5.479   4.841
 5807SOL     OW18319   0.308   4.184   2.255
 5807SOL    HW118320   0.328   4.277   2.285
 5807SOL    HW218321   0.212   4.164   2.272
 5808SOL     OW18322   5.823   5.562   4.846
 5808SOL    HW118323   5.891   5.528   4.782
 5808SOL    HW218324   5.753   5.614   4.797
 5809SOL     OW18325   5.415   1.838   4.088
 5809SOL    HW118326   5.445   1.759   4.142
 5809SOL    HW218327   5.352   1.893   4.143
 5810SOL     OW18328   3.815   1.609   4.842
 5810SOL    HW118329   3.809   1.654   4.931
 5810SOL    HW218330   3.729   1.561   4.823
 5811SOL     OW18331   2.921   0.863   5.260
 5811SOL    HW118332   2.904   0.880   5.163
 5811SOL    HW218333   3.006   0.908   5.287
 5812SOL     OW18334   6.458   2.642   4.074
 5812SOL    HW118335   6.448   2.719   4.138
 5812SOL    HW218336   6.391   2.571   4.097
 5813SOL     OW18337   1.916   2.296   0.868
 5813SOL    HW118338   2.000   2.244   0.850
 5813SOL    HW218339   1.882   2.272   0.959
 5814SOL     OW18340   6.654   4.574   1.556
 5814SOL    HW118341   6.590   4.642   1.593
 5814SOL    HW218342   6.672   4.593   1.460
 5815SOL     OW18343   3.810   2.022   4.270
 5815SOL    HW118344   3.715   2.051   4.280
 5815SOL    HW218345   3.843   2.045   4.178
 5816SOL     OW18346   4.539   5.189   0.229
 5816SOL    HW118347   4.626   5.151   0.197
 5816SOL    HW218348   4.482   5.116   0.265
 5817SOL     OW18349   5.715   3.547   5.925
 5817SOL    HW118350   5.659   3.466   5.910
 5817SOL    HW218351   5.704   3.578   6.019
 5818SOL     OW18352   6.583   6.204   4.621
 5818SOL    HW118353   6.663   6.145   4.609
 5818SOL    HW218354   6.590   6.252   4.708
 5819SOL     OW18355   3.666   6.544   6.785
 5819SOL    HW118356   3.598   6.471   6.783
 5819SOL    HW218357   3.758   6.504   6.792
 5820SOL     OW18358   4.224   5.575   3.871
 5820SOL    HW118359   4.310   5.574   3.820
 5820SOL    HW218360   4.147   5.584   3.806
 5821SOL     OW18361   0.098   6.954   1.085
 5821SOL    HW118362   0.070   0.007   1.145
 5821SOL    HW218363   0.069   6.974   0.992
 5822SOL     OW18364   1.502   2.426   1.705
 5822SOL    HW118365   1.451   2.498   1.752
 5822SOL    HW218366   1.592   2.460   1.679
 5823SOL     OW18367   1.741   1.007   5.690
 5823SOL    HW118368   1.790   1.088   5.657
 5823SOL    HW218369   1.645   1.013   5.661
 5824SOL     OW18370   6.482   5.541   2.170
 5824SOL    HW118371   6.578   5.561   2.149
 5824SOL    HW218372   6.461   5.571   2.263
 5825SOL     OW18373   1.198   1.567   5.748
 5825SOL    HW118374   1.293   1.537   5.747
 5825SOL    HW218375   1.138   1.491   5.722
 5826SOL     OW18376   6.894   4.920   5.286
 5826SOL    HW118377   6.879   4.971   5.201
 5826SOL    HW218378   6.820   4.854   5.298
 5827SOL     OW18379   2.098   4.464   5.018
 5827SOL    HW118380   2.171   4.530   4.999
 5827SOL    HW218381   2.133   4.391   5.077
 5828SOL     OW18382   6.343   1.956   1.215
 5828SOL    HW118383   6.269   2.012   1.177
 5828SOL    HW218384   6.410   2.016   1.259
 5829SOL     OW18385   1.922   0.761   3.285
 5829SOL    HW118386   1.826   0.732   3.291
 5829SOL    HW218387   1.944   0.784   3.191
 5830SOL     OW18388   4.997   6.545   5.468
 5830SOL    HW118389   4.897   6.543   5.478
 5830SOL    HW218390   5.021   6.571   5.375
 5831SOL     OW18391   0.853   1.045   5.231
 5831SOL    HW118392   0.822   1.029   5.325
 5831SOL    HW218393   0.929   1.110   5.232
 5832SOL     OW18394   3.029   4.620   6.608
 5832SOL    HW118395   2.964   4.688   6.575
 5832SOL    HW218396   3.079   4.582   6.530
 5833SOL     OW18397   3.490   3.514   4.510
 5833SOL    HW118398   3.550   3.593   4.525
 5833SOL    HW218399   3.544   3.439   4.472
 5834SOL     OW18400   0.151   3.325   0.042
 5834SOL    HW118401   0.186   3.260   6.998
 5834SOL    HW218402   0.052   3.332   0.033
 5835SOL     OW18403   5.147   3.028   3.988
 5835SOL    HW118404   5.184   3.055   4.076
 5835SOL    HW218405   5.215   3.044   3.917
 5836SOL     OW18406   2.762   6.738   2.351
 5836SOL    HW118407   2.761   6.666   2.281
 5836SOL    HW218408   2.827   6.809   2.325
 5837SOL     OW18409   3.982   4.023   6.146
 5837SOL    HW118410   3.939   4.002   6.233
 5837SOL    HW218411   4.073   3.980   6.142
 5838SOL     OW18412   2.938   2.707   0.163
 5838SOL    HW118413   2.988   2.752   0.237
 5838SOL    HW218414   2.893   2.625   0.197
 5839SOL     OW18415   0.793   1.766   2.350
 5839SOL    HW118416   0.821   1.855   2.313
 5839SOL    HW218417   0.874   1.714   2.375
 5840SOL     OW18418   0.644   5.419   6.578
 5840SOL    HW118419   0.667   5.480   6.654
 5840SOL    HW218420   0.707   5.437   6.501
 5841SOL     OW18421   5.268   2.234   2.530
 5841SOL    HW118422   5.187   2.279   2.567
 5841SOL    HW218423   5.315   2.183   2.602
 5842SOL     OW18424   4.574   3.152   1.395
 5842SOL    HW118425   4.670   3.124   1.387
 5842SOL    HW218426   4.535   3.111   1.477
 5843SOL     OW18427   1.963   3.831   3.004
 5843SOL    HW118428   1.926   3.807   2.915
 5843SOL    HW218429   1.959   3.751   3.065
 5844SOL     OW18430   2.098   6.448   6.018
 5844SOL    HW118431   2.065   6.425   6.110
 5844SOL    HW218432   2.064   6.539   5.993
 5845SOL     OW18433   0.173   0.869   2.208
 5845SOL    HW118434   0.230   0.905   2.282
 5845SOL    HW218435   0.179   0.930   2.129
 5846SOL     OW18436   0.147   2.552   4.772
 5846SOL    HW118437   0.064   2.498   4.790
 5846SOL    HW218438   0.124   2.649   4.770
 5847SOL     OW18439   2.550   2.324   1.971
 5847SOL    HW118440   2.452   2.322   1.954
 5847SOL    HW218441   2.599   2.347   1.887
 5848SOL     OW18442   2.288   5.968   3.346
 5848SOL    HW118443   2.322   5.994   3.256
 5848SOL    HW218444   2.363   5.969   3.412
 5849SOL     OW18445   0.132   0.334   6.049
 5849SOL    HW118446   0.110   0.367   6.140
 5849SOL    HW218447   0.061   0.269   6.020
 5850SOL     OW18448   6.792   2.586   1.962
 5850SOL    HW118449   6.761   2.587   1.867
 5850SOL    HW218450   6.795   2.680   1.997
 5851SOL     OW18451   4.858   3.807   3.356
 5851SOL    HW118452   4.868   3.797   3.257
 5851SOL    HW218453   4.834   3.718   3.396
 5852SOL     OW18454   6.775   5.710   2.962
 5852SOL    HW118455   6.797   5.627   2.910
 5852SOL    HW218456   6.763   5.786   2.898
 5853SOL     OW18457   3.576   6.007   4.264
 5853SOL    HW118458   3.641   6.082   4.274
 5853SOL    HW218459   3.507   6.031   4.196
 5854SOL     OW18460   5.321   4.734   5.812
 5854SOL    HW118461   5.234   4.748   5.859
 5854SOL    HW218462   5.306   4.680   5.729
 5855SOL     OW18463   0.152   0.999   5.069
 5855SOL    HW118464   0.195   0.913   5.096
 5855SOL    HW218465   0.058   1.002   5.103
 5856SOL     OW18466   1.703   5.664   3.786
 5856SOL    HW118467   1.630   5.722   3.750
 5856SOL    HW218468   1.788   5.717   3.791
 5857SOL     OW18469   6.589   1.881   6.268
 5857SOL    HW118470   6.498   1.874   6.229
 5857SOL    HW218471   6.651   1.817   6.221
 5858SOL     OW18472   2.528   2.119   2.369
 5858SOL    HW118473   2.475   2.054   2.314
 5858SOL    HW218474   2.567   2.189   2.310
 5859SOL     OW18475   5.813   6.214   1.184
 5859SOL    HW118476   5.718   6.241   1.167
 5859SOL    HW218477   5.861   6.204   1.096
 5860SOL     OW18478   1.144   4.105   2.114
 5860SOL    HW118479   1.048   4.123   2.096
 5860SOL    HW218480   1.160   4.007   2.115
 5861SOL     OW18481   4.511   1.926   4.399
 5861SOL    HW118482   4.429   1.910   4.343
 5861SOL    HW218483   4.526   1.848   4.459
 5862SOL     OW18484   5.421   5.029   1.450
 5862SOL    HW118485   5.372   4.970   1.513
 5862SOL    HW218486   5.362   5.054   1.373
 5863SOL     OW18487   3.130   1.327   5.080
 5863SOL    HW118488   3.190   1.396   5.120
 5863SOL    HW218489   3.080   1.366   5.003
 5864SOL     OW18490   4.141   3.493   1.897
 5864SOL    HW118491   4.163   3.397   1.913
 5864SOL    HW218492   4.073   3.523   1.964
 5865SOL     OW18493   6.081   0.552   5.339
 5865SOL    HW118494   6.100   0.467   5.387
 5865SOL    HW218495   6.147   0.622   5.368
 5866SOL     OW18496   4.064   4.134   0.344
 5866SOL    HW118497   3.965   4.123   0.333
 5866SOL    HW218498   4.084   4.229   0.368
 5867SOL     OW18499   0.883   3.767   0.793
 5867SOL    HW118500   0.802   3.802   0.746
 5867SOL    HW218501   0.900   3.672   0.763
 5868SOL     OW18502   0.981   1.435   5.635
 5868SOL    HW118503   0.961   1.359   5.697
 5868SOL    HW218504   0.896   1.480   5.609
 5869SOL     OW18505   1.839   6.149   3.771
 5869SOL    HW118506   1.824   6.097   3.688
 5869SOL    HW218507   1.755   6.196   3.797
 5870SOL     OW18508   5.161   5.913   4.623
 5870SOL    HW118509   5.212   5.841   4.577
 5870SOL    HW218510   5.065   5.909   4.596
 5871SOL     OW18511   3.897   2.606   1.245
 5871SOL    HW118512   3.880   2.557   1.159
 5871SOL    HW218513   3.821   2.588   1.308
 5872SOL     OW18514   3.909   6.103   1.238
 5872SOL    HW118515   3.843   6.109   1.164
 5872SOL    HW218516   3.893   6.176   1.304
 5873SOL     OW18517   2.891   2.052   1.499
 5873SOL    HW118518   2.834   2.000   1.562
 5873SOL    HW218519   2.924   2.135   1.544
 5874SOL     OW18520   2.723   4.033   0.082
 5874SOL    HW118521   2.660   4.058   0.009
 5874SOL    HW218522   2.715   4.099   0.157
 5875SOL     OW18523   4.458   0.937   6.334
 5875SOL    HW118524   4.440   1.035   6.325
 5875SOL    HW218525   4.511   0.905   6.255
 5876SOL     OW18526   3.198   3.828   0.852
 5876SOL    HW118527   3.143   3.893   0.800
 5876SOL    HW218528   3.194   3.738   0.809
 5877SOL     OW18529   0.455   0.398   0.721
 5877SOL    HW118530   0.418   0.486   0.750
 5877SOL    HW218531   0.381   0.337   0.693
 5878SOL     OW18532   5.981   5.285   4.213
 5878SOL    HW118533   6.067   5.237   4.197
 5878SOL    HW218534   5.930   5.239   4.286
 5879SOL     OW18535   1.590   3.547   0.037
 5879SOL    HW118536   1.504   3.497   0.048
 5879SOL    HW218537   1.639   3.512   6.980
 5880SOL     OW18538   5.439   4.768   6.844
 5880SOL    HW118539   5.438   4.795   6.747
 5880SOL    HW218540   5.532   4.747   6.872
 5881SOL     OW18541   1.102   6.820   1.929
 5881SOL    HW118542   1.080   6.761   2.006
 5881SOL    HW218543   1.177   6.781   1.877
 5882SOL     OW18544   0.813   5.825   6.319
 5882SOL    HW118545   0.876   5.768   6.372
 5882SOL    HW218546   0.813   5.796   6.224
 5883SOL     OW18547   0.534   1.651   6.694
 5883SOL    HW118548   0.487   1.583   6.639
 5883SOL    HW218549   0.540   1.620   6.789
 5884SOL     OW18550   4.622   0.993   4.372
 5884SOL    HW118551   4.609   1.000   4.273
 5884SOL    HW218552   4.645   0.898   4.395
 5885SOL     OW18553   0.448   5.548   2.516
 5885SOL    HW118554   0.518   5.477   2.531
 5885SOL    HW218555   0.490   5.624   2.466
 5886SOL     OW18556   1.038   1.657   3.765
 5886SOL    HW118557   1.051   1.756   3.763
 5886SOL    HW218558   1.020   1.627   3.858
 5887SOL     OW18559   2.128   2.030   1.313
 5887SOL    HW118560   2.194   1.968   1.356
 5887SOL    HW218561   2.173   2.117   1.291
 5888SOL     OW18562   2.005   6.873   1.041
 5888SOL    HW118563   1.925   6.933   1.043
 5888SOL    HW218564   2.025   6.848   0.946
 5889SOL     OW18565   6.327   1.830   6.434
 5889SOL    HW118566   6.415   1.877   6.426
 5889SOL    HW218567   6.310   1.807   6.530
 5890SOL     OW18568   2.391   0.617   2.454
 5890SOL    HW118569   2.392   0.517   2.447
 5890SOL    HW218570   2.429   0.645   2.542
 5891SOL     OW18571   2.567   3.806   0.228
 5891SOL    HW118572   2.586   3.727   0.287
 5891SOL    HW218573   2.652   3.855   0.208
 5892SOL     OW18574   1.074   5.322   2.174
 5892SOL    HW118575   1.000   5.259   2.193
 5892SOL    HW218576   1.088   5.383   2.253
 5893SOL     OW18577   2.290   4.158   1.808
 5893SOL    HW118578   2.212   4.160   1.870
 5893SOL    HW218579   2.258   4.165   1.714
 5894SOL     OW18580   0.796   5.903   4.885
 5894SOL    HW118581   0.875   5.874   4.831
 5894SOL    HW218582   0.761   5.990   4.849
 5895SOL     OW18583   5.636   3.536   3.711
 5895SOL    HW118584   5.569   3.603   3.681
 5895SOL    HW218585   5.591   3.467   3.768
 5896SOL     OW18586   4.595   1.701   1.427
 5896SOL    HW118587   4.694   1.702   1.437
 5896SOL    HW218588   4.566   1.614   1.387
 5897SOL     OW18589   3.710   1.007   1.645
 5897SOL    HW118590   3.779   1.063   1.690
 5897SOL    HW218591   3.660   0.953   1.713
 5898SOL     OW18592   2.555   0.610   4.677
 5898SOL    HW118593   2.594   0.525   4.712
 5898SOL    HW218594   2.589   0.626   4.584
 5899SOL     OW18595   6.443   6.096   6.945
 5899SOL    HW118596   6.358   6.098   6.894
 5899SOL    HW218597   6.499   6.175   6.920
 5900SOL     OW18598   6.769   4.733   3.161
 5900SOL    HW118599   6.800   4.735   3.256
 5900SOL    HW218600   6.741   4.824   3.132
 5901SOL     OW18601   3.458   0.389   0.894
 5901SOL    HW118602   3.359   0.377   0.906
 5901SOL    HW218603   3.499   0.416   0.982
 5902SOL     OW18604   5.717   3.332   5.709
 5902SOL    HW118605   5.812   3.363   5.712
 5902SOL    HW218606   5.694   3.288   5.796
 5903SOL     OW18607   4.613   4.324   6.119
 5903SOL    HW118608   4.618   4.227   6.095
 5903SOL    HW218609   4.538   4.367   6.069
 5904SOL     OW18610   0.733   4.175   1.304
 5904SOL    HW118611   0.646   4.197   1.350
 5904SOL    HW218612   0.800   4.246   1.323
 5905SOL     OW18613   6.771   0.327   3.249
 5905SOL    HW118614   6.740   0.411   3.206
 5905SOL    HW218615   6.855   0.343   3.300
 5906SOL     OW18616   4.496   1.633   4.194
 5906SOL    HW118617   4.572   1.655   4.134
 5906SOL    HW218618   4.439   1.715   4.207
 5907SOL     OW18619   1.029   6.228   0.539
 5907SOL    HW118620   0.929   6.235   0.549
 5907SOL    HW218621   1.060   6.139   0.572
 5908SOL     OW18622   6.335   3.923   0.260
 5908SOL    HW118623   6.378   4.008   0.228
 5908SOL    HW218624   6.345   3.915   0.359
 5909SOL     OW18625   6.507   4.898   6.239
 5909SOL    HW118626   6.412   4.909   6.211
 5909SOL    HW218627   6.548   4.988   6.255
 5910SOL     OW18628   0.365   4.451   1.643
 5910SOL    HW118629   0.346   4.522   1.710
 5910SOL    HW218630   0.448   4.401   1.669
 5911SOL     OW18631   6.665   4.585   6.637
 5911SOL    HW118632   6.749   4.608   6.588
 5911SOL    HW218633   6.605   4.665   6.641
 5912SOL     OW18634   5.848   2.856   6.900
 5912SOL    HW118635   5.806   2.861   6.990
 5912SOL    HW218636   5.822   2.936   6.847
 5913SOL     OW18637   3.345   2.897   6.357
 5913SOL    HW118638   3.300   2.973   6.405
 5913SOL    HW218639   3.288   2.869   6.279
 5914SOL     OW18640   2.628   5.811   6.106
 5914SOL    HW118641   2.696   5.746   6.141
 5914SOL    HW218642   2.585   5.773   6.024
 5915SOL     OW18643   5.750   4.361   1.751
 5915SOL    HW118644   5.806   4.439   1.778
 5915SOL    HW218645   5.653   4.388   1.753
 5916SOL     OW18646   4.432   5.867   5.382
 5916SOL    HW118647   4.452   5.848   5.286
 5916SOL    HW218648   4.357   5.933   5.388
 5917SOL     OW18649   3.971   3.616   3.913
 5917SOL    HW118650   3.913   3.552   3.962
 5917SOL    HW218651   3.976   3.703   3.962
 5918SOL     OW18652   2.057   3.624   5.400
 5918SOL    HW118653   2.142   3.590   5.359
 5918SOL    HW218654   1.983   3.621   5.332
 5919SOL     OW18655   3.832   2.436   1.048
 5919SOL    HW118656   3.835   2.493   0.965
 5919SOL    HW218657   3.753   2.375   1.043
 5920SOL     OW18658   3.684   6.962   0.368
 5920SOL    HW118659   3.688   0.010   0.439
 5920SOL    HW218660   3.717   7.000   0.281
 5921SOL     OW18661   3.254   5.188   5.719
 5921SOL    HW118662   3.352   5.188   5.735
 5921SOL    HW218663   3.207   5.148   5.798
 5922SOL     OW18664   6.857   5.380   3.335
 5922SOL    HW118665   6.792   5.306   3.317
 5922SOL    HW218666   6.830   5.461   3.283
 5923SOL     OW18667   5.613   0.479   0.807
 5923SOL    HW118668   5.556   0.403   0.838
 5923SOL    HW218669   5.643   0.533   0.886
 5924SOL     OW18670   6.811   1.807   4.536
 5924SOL    HW118671   6.867   1.842   4.461
 5924SOL    HW218672   6.853   1.724   4.573
 5925SOL     OW18673   4.383   5.600   2.733
 5925SOL    HW118674   4.402   5.549   2.818
 5925SOL    HW218675   4.455   5.667   2.718
 5926SOL     OW18676   3.860   4.844   1.980
 5926SOL    HW118677   3.779   4.785   1.984
 5926SOL    HW218678   3.910   4.826   1.895
 5927SOL     OW18679   1.726   4.225   3.241
 5927SOL    HW118680   1.811   4.208   3.290
 5927SOL    HW218681   1.649   4.191   3.295
 5928SOL     OW18682   3.400   0.357   1.304
 5928SOL    HW118683   3.383   0.430   1.371
 5928SOL    HW218684   3.472   0.386   1.241
 5929SOL     OW18685   0.780   6.226   5.952
 5929SOL    HW118686   0.717   6.272   6.015
 5929SOL    HW218687   0.805   6.137   5.990
 5930SOL     OW18688   6.791   1.968   3.430
 5930SOL    HW118689   6.871   2.016   3.395
 5930SOL    HW218690   6.708   2.007   3.390
 5931SOL     OW18691   6.049   5.372   3.148
 5931SOL    HW118692   6.134   5.407   3.108
 5931SOL    HW218693   6.038   5.409   3.240
 5932SOL     OW18694   2.493   6.903   1.264
 5932SOL    HW118695   2.527   6.820   1.218
 5932SOL    HW218696   2.461   6.968   1.196
 5933SOL     OW18697   0.450   5.898   3.074
 5933SOL    HW118698   0.395   5.981   3.074
 5933SOL    HW218699   0.508   5.896   3.155
 5934SOL     OW18700   3.800   4.031   3.918
 5934SOL    HW118701   3.702   4.032   3.935
 5934SOL    HW218702   3.850   4.052   4.002
 5935SOL     OW18703   4.191   3.455   5.753
 5935SOL    HW118704   4.122   3.485   5.688
 5935SOL    HW218705   4.282   3.483   5.721
 5936SOL     OW18706   4.139   3.649   0.638
 5936SOL    HW118707   4.218   3.600   0.674
 5936SOL    HW218708   4.092   3.696   0.713
 5937SOL     OW18709   0.725   4.790   2.752
 5937SOL    HW118710   0.811   4.771   2.800
 5937SOL    HW218711   0.682   4.704   2.725
 5938SOL     OW18712   1.308   5.201   3.876
 5938SOL    HW118713   1.240   5.257   3.827
 5938SOL    HW218714   1.290   5.104   3.858
 5939SOL     OW18715   3.336   0.139   3.341
 5939SOL    HW118716   3.250   0.186   3.359
 5939SOL    HW218717   3.321   0.063   3.278
 5940SOL     OW18718   4.383   5.457   1.350
 5940SOL    HW118719   4.356   5.366   1.319
 5940SOL    HW218720   4.310   5.522   1.332
 5941SOL     OW18721   6.328   3.358   1.737
 5941SOL    HW118722   6.237   3.388   1.767
 5941SOL    HW218723   6.371   3.305   1.810
 5942SOL     OW18724   4.600   2.835   0.042
 5942SOL    HW118725   4.686   2.855   7.019
 5942SOL    HW218726   4.555   2.758   7.019
 5943SOL     OW18727   3.216   5.481   0.708
 5943SOL    HW118728   3.162   5.421   0.767
 5943SOL    HW218729   3.275   5.539   0.764
 5944SOL     OW18730   5.906   2.637   1.302
 5944SOL    HW118731   5.830   2.701   1.288
 5944SOL    HW218732   5.988   2.672   1.257
 5945SOL     OW18733   6.426   5.050   5.655
 5945SOL    HW118734   6.459   5.144   5.652
 5945SOL    HW218735   6.460   5.006   5.738
 5946SOL     OW18736   3.225   3.589   5.729
 5946SOL    HW118737   3.129   3.615   5.724
 5946SOL    HW218738   3.249   3.529   5.653
 5947SOL     OW18739   3.883   2.962   2.202
 5947SOL    HW118740   3.932   3.020   2.267
 5947SOL    HW218741   3.943   2.938   2.126
 5948SOL     OW18742   4.124   4.937   3.313
 5948SOL    HW118743   4.035   4.961   3.274
 5948SOL    HW218744   4.114   4.859   3.375
 5949SOL     OW18745   3.865   3.327   1.462
 5949SOL    HW118746   3.904   3.329   1.554
 5949SOL    HW218747   3.931   3.288   1.398
 5950SOL     OW18748   4.811   2.582   5.642
 5950SOL    HW118749   4.875   2.551   5.713
 5950SOL    HW218750   4.833   2.538   5.555
 5951SOL     OW18751   0.055   5.658   4.606
 5951SOL    HW118752   6.998   5.632   4.550
 5951SOL    HW218753   0.128   5.691   4.546
 5952SOL     OW18754   5.456   5.241   3.922
 5952SOL    HW118755   5.484   5.301   3.847
 5952SOL    HW218756   5.462   5.146   3.893
 5953SOL     OW18757   6.596   2.584   5.262
 5953SOL    HW118758   6.537   2.505   5.246
 5953SOL    HW218759   6.556   2.664   5.219
 5954SOL     OW18760   6.930   4.264   5.886
 5954SOL    HW118761   6.940   4.303   5.794
 5954SOL    HW218762   6.997   4.303   5.948
 5955SOL     OW18763   5.010   5.496   2.722
 5955SOL    HW118764   4.992   5.476   2.818
 5955SOL    HW218765   5.020   5.595   2.710
 5956SOL     OW18766   3.368   1.084   5.656
 5956SOL    HW118767   3.357   1.150   5.581
 5956SOL    HW218768   3.459   1.043   5.650
 5957SOL     OW18769   4.213   0.666   5.750
 5957SOL    HW118770   4.286   0.725   5.716
 5957SOL    HW218771   4.165   0.624   5.673
 5958SOL     OW18772   6.240   6.164   2.395
 5958SOL    HW118773   6.183   6.116   2.329
 5958SOL    HW218774   6.327   6.114   2.405
 5959SOL     OW18775   3.684   2.013   5.874
 5959SOL    HW118776   3.723   2.028   5.783
 5959SOL    HW218777   3.673   2.101   5.920
 5960SOL     OW18778   4.538   6.190   4.666
 5960SOL    HW118779   4.491   6.108   4.699
 5960SOL    HW218780   4.567   6.175   4.572
 5961SOL     OW18781   4.980   1.386   3.130
 5961SOL    HW118782   4.934   1.368   3.043
 5961SOL    HW218783   5.049   1.456   3.117
 5962SOL     OW18784   4.665   5.696   1.242
 5962SOL    HW118785   4.569   5.720   1.251
 5962SOL    HW218786   4.704   5.742   1.162
 5963SOL     OW18787   3.609   2.951   4.834
 5963SOL    HW118788   3.518   2.917   4.858
 5963SOL    HW218789   3.678   2.910   4.894
 5964SOL     OW18790   0.132   5.340   5.645
 5964SOL    HW118791   0.135   5.279   5.566
 5964SOL    HW218792   0.069   5.416   5.627
 5965SOL     OW18793   1.127   2.605   6.990
 5965SOL    HW118794   1.094   2.584   0.060
 5965SOL    HW218795   1.110   2.701   6.969
 5966SOL     OW18796   2.305   6.033   4.958
 5966SOL    HW118797   2.207   6.054   4.960
 5966SOL    HW218798   2.351   6.085   5.031
 5967SOL     OW18799   4.293   6.044   0.459
 5967SOL    HW118800   4.364   6.059   0.389
 5967SOL    HW218801   4.221   6.113   0.449
 5968SOL     OW18802   4.775   1.010   1.522
 5968SOL    HW118803   4.729   1.097   1.540
 5968SOL    HW218804   4.710   0.935   1.535
 5969SOL     OW18805   6.742   0.763   6.359
 5969SOL    HW118806   6.739   0.828   6.435
 5969SOL    HW218807   6.774   0.674   6.392
 5970SOL     OW18808   0.651   4.048   2.623
 5970SOL    HW118809   0.719   4.072   2.692
 5970SOL    HW218810   0.679   3.964   2.577
 5971SOL     OW18811   1.423   1.487   3.436
 5971SOL    HW118812   1.455   1.564   3.380
 5971SOL    HW218813   1.327   1.469   3.414
 5972SOL     OW18814   5.396   6.367   6.992
 5972SOL    HW118815   5.353   6.282   6.961
 5972SOL    HW218816   5.491   6.369   6.960
 5973SOL     OW18817   1.635   3.761   2.362
 5973SOL    HW118818   1.727   3.763   2.323
 5973SOL    HW218819   1.569   3.787   2.292
 5974SOL     OW18820   5.445   4.839   6.570
 5974SOL    HW118821   5.538   4.810   6.549
 5974SOL    HW218822   5.380   4.782   6.520
 5975SOL     OW18823   3.312   1.871   0.861
 5975SOL    HW118824   3.400   1.837   0.827
 5975SOL    HW218825   3.289   1.956   0.813
 5976SOL     OW18826   3.145   3.866   4.899
 5976SOL    HW118827   3.217   3.870   4.968
 5976SOL    HW218828   3.112   3.772   4.890
 5977SOL     OW18829   2.139   4.836   1.167
 5977SOL    HW118830   2.053   4.786   1.155
 5977SOL    HW218831   2.131   4.898   1.244
 5978SOL     OW18832   5.011   5.848   3.464
 5978SOL    HW118833   5.018   5.823   3.368
 5978SOL    HW218834   5.005   5.947   3.472
 5979SOL     OW18835   6.389   0.052   2.733
 5979SOL    HW118836   6.394   0.143   2.775
 5979SOL    HW218837   6.304   0.044   2.681
 5980SOL     OW18838   3.859   3.514   0.334
 5980SOL    HW118839   3.943   3.518   0.280
 5980SOL    HW218840   3.858   3.588   0.401
 5981SOL     OW18841   6.230   0.970   2.225
 5981SOL    HW118842   6.175   1.010   2.297
 5981SOL    HW218843   6.214   1.020   2.139
 5982SOL     OW18844   6.542   2.480   1.158
 5982SOL    HW118845   6.636   2.462   1.185
 5982SOL    HW218846   6.489   2.509   1.237
 5983SOL     OW18847   1.513   1.042   4.509
 5983SOL    HW118848   1.601   1.022   4.466
 5983SOL    HW218849   1.452   0.964   4.497
 5984SOL     OW18850   6.549   6.838   5.028
 5984SOL    HW118851   6.516   6.747   5.002
 5984SOL    HW218852   6.607   6.875   4.956
 5985SOL     OW18853   6.506   3.324   4.172
 5985SOL    HW118854   6.490   3.411   4.217
 5985SOL    HW218855   6.578   3.274   4.220
 5986SOL     OW18856   3.292   3.455   4.303
 5986SOL    HW118857   3.355   3.471   4.226
 5986SOL    HW218858   3.343   3.462   4.389
 5987SOL     OW18859   4.482   0.793   5.108
 5987SOL    HW118860   4.527   0.797   5.197
 5987SOL    HW218861   4.434   0.706   5.098
 5988SOL     OW18862   5.180   6.907   5.690
 5988SOL    HW118863   5.201   6.952   5.777
 5988SOL    HW218864   5.183   6.975   5.616
 5989SOL     OW18865   2.966   5.842   0.603
 5989SOL    HW118866   2.967   5.743   0.594
 5989SOL    HW218867   3.053   5.880   0.569
 5990SOL     OW18868   3.898   4.376   0.802
 5990SOL    HW118869   3.890   4.400   0.899
 5990SOL    HW218870   3.937   4.453   0.752
 5991SOL     OW18871   3.885   5.310   5.854
 5991SOL    HW118872   3.970   5.330   5.903
 5991SOL    HW218873   3.824   5.389   5.860
 5992SOL     OW18874   3.306   0.791   3.160
 5992SOL    HW118875   3.206   0.794   3.164
 5992SOL    HW218876   3.339   0.857   3.092
 5993SOL     OW18877   3.687   5.948   5.776
 5993SOL    HW118878   3.765   5.985   5.826
 5993SOL    HW218879   3.611   5.933   5.840
 5994SOL     OW18880   6.579   2.242   2.181
 5994SOL    HW118881   6.619   2.281   2.264
 5994SOL    HW218882   6.509   2.304   2.145
 5995SOL     OW18883   5.720   5.139   2.538
 5995SOL    HW118884   5.799   5.151   2.479
 5995SOL    HW218885   5.742   5.074   2.611
 5996SOL     OW18886   1.065   5.986   0.691
 5996SOL    HW118887   1.096   5.898   0.656
 5996SOL    HW218888   1.037   5.976   0.786
 5997SOL     OW18889   1.133   6.089   2.908
 5997SOL    HW118890   1.102   5.995   2.922
 5997SOL    HW218891   1.094   6.148   2.979
 5998SOL     OW18892   6.444   2.151   1.868
 5998SOL    HW118893   6.360   2.140   1.921
 5998SOL    HW218894   6.479   2.061   1.841
 5999SOL     OW18895   1.718   1.434   2.459
 5999SOL    HW118896   1.680   1.500   2.395
 5999SOL    HW218897   1.672   1.346   2.448
 6000SOL     OW18898   3.943   6.929   1.812
 6000SOL    HW118899   3.861   6.886   1.773
 6000SOL    HW218900   3.962   7.014   1.764
 6001SOL     OW18901   0.060   3.814   6.098
 6001SOL    HW118902   7.009   3.883   6.101
 6001SOL    HW218903   0.042   3.751   6.022
 6002SOL     OW18904   6.586   0.387   1.223
 6002SOL    HW118905   6.646   0.407   1.300
 6002SOL    HW218906   6.628   0.418   1.138
 6003SOL     OW18907   0.387   2.148   4.021
 6003SOL    HW118908   0.303   2.098   4.044
 6003SOL    HW218909   0.385   2.237   4.067
 6004SOL     OW18910   0.312   4.545   3.296
 6004SOL    HW118911   0.349   4.497   3.376
 6004SOL    HW218912   0.341   4.641   3.299
 6005SOL     OW18913   4.912   5.327   4.595
 6005SOL    HW118914   4.845   5.367   4.533
 6005SOL    HW218915   4.907   5.227   4.589
 6006SOL     OW18916   2.313   0.855   6.656
 6006SOL    HW118917   2.317   0.905   6.743
 6006SOL    HW218918   2.397   0.872   6.605
 6007SOL     OW18919   5.063   3.672   5.026
 6007SOL    HW118920   5.069   3.747   5.092
 6007SOL    HW218921   4.968   3.644   5.017
 6008SOL     OW18922   1.916   4.999   5.491
 6008SOL    HW118923   1.838   5.004   5.427
 6008SOL    HW218924   1.961   4.910   5.480
 6009SOL     OW18925   4.103   0.892   4.520
 6009SOL    HW118926   4.039   0.968   4.532
 6009SOL    HW218927   4.149   0.872   4.607
 6010SOL     OW18928   1.439   3.789   3.418
 6010SOL    HW118929   1.371   3.717   3.409
 6010SOL    HW218930   1.400   3.866   3.469
 6011SOL     OW18931   4.758   2.901   2.876
 6011SOL    HW118932   4.835   2.964   2.879
 6011SOL    HW218933   4.738   2.868   2.968
 6012SOL     OW18934   5.474   0.969   0.209
 6012SOL    HW118935   5.428   1.005   0.290
 6012SOL    HW218936   5.538   0.897   0.236
 6013SOL     OW18937   6.064   2.817   2.467
 6013SOL    HW118938   6.042   2.898   2.521
 6013SOL    HW218939   6.057   2.839   2.369
 6014SOL     OW18940   4.220   2.932   0.562
 6014SOL    HW118941   4.228   2.861   0.492
 6014SOL    HW218942   4.311   2.956   0.595
 6015SOL     OW18943   5.795   2.274   4.976
 6015SOL    HW118944   5.883   2.238   5.005
 6015SOL    HW218945   5.807   2.335   4.897
 6016SOL     OW18946   6.916   1.501   6.276
 6016SOL    HW118947   6.980   1.546   6.339
 6016SOL    HW218948   6.947   1.407   6.258
 6017SOL     OW18949   0.134   4.577   2.917
 6017SOL    HW118950   0.043   4.609   2.943
 6017SOL    HW218951   0.145   4.482   2.944
 6018SOL     OW18952   3.233   1.091   6.927
 6018SOL    HW118953   3.248   1.058   6.834
 6018SOL    HW218954   3.251   1.018   6.992
 6019SOL     OW18955   6.441   1.878   4.172
 6019SOL    HW118956   6.539   1.897   4.163
 6019SOL    HW218957   6.408   1.838   4.087
 6020SOL     OW18958   2.090   5.083   1.735
 6020SOL    HW118959   2.040   5.139   1.670
 6020SOL    HW218960   2.186   5.078   1.709
 6021SOL     OW18961   4.210   1.218   2.130
 6021SOL    HW118962   4.236   1.258   2.217
 6021SOL    HW218963   4.248   1.126   2.122
 6022SOL     OW18964   4.772   1.723   5.006
 6022SOL    HW118965   4.786   1.755   4.913
 6022SOL    HW218966   4.722   1.792   5.059
 6023SOL     OW18967   5.751   1.163   2.139
 6023SOL    HW118968   5.832   1.194   2.188
 6023SOL    HW218969   5.748   1.204   2.048
 6024SOL     OW18970   0.538   4.455   3.043
 6024SOL    HW118971   0.490   4.535   3.006
 6024SOL    HW218972   0.560   4.472   3.140
 6025SOL     OW18973   3.686   1.581   2.547
 6025SOL    HW118974   3.693   1.678   2.524
 6025SOL    HW218975   3.765   1.554   2.603
 6026SOL     OW18976   6.954   4.266   4.679
 6026SOL    HW118977   0.010   4.322   4.652
 6026SOL    HW218978   6.871   4.322   4.679
 6027SOL     OW18979   1.167   3.530   6.282
 6027SOL    HW118980   1.128   3.501   6.194
 6027SOL    HW218981   1.116   3.489   6.357
 6028SOL     OW18982   0.798   4.333   0.419
 6028SOL    HW118983   0.814   4.288   0.507
 6028SOL    HW218984   0.835   4.276   0.345
 6029SOL     OW18985   2.141   6.544   4.854
 6029SOL    HW118986   2.209   6.473   4.837
 6029SOL    HW218987   2.187   6.632   4.864
 6030SOL     OW18988   4.138   6.573   2.876
 6030SOL    HW118989   4.181   6.494   2.831
 6030SOL    HW218990   4.204   6.616   2.937
 6031SOL     OW18991   3.868   5.049   3.200
 6031SOL    HW118992   3.847   5.008   3.289
 6031SOL    HW218993   3.828   4.994   3.127
 6032SOL     OW18994   2.162   4.015   3.240
 6032SOL    HW118995   2.160   3.921   3.275
 6032SOL    HW218996   2.168   4.013   3.141
 6033SOL     OW18997   3.108   1.605   2.172
 6033SOL    HW118998   3.174   1.568   2.107
 6033SOL    HW218999   3.022   1.624   2.125
 6034SOL     OW19000   1.582   5.680   4.479
 6034SOL    HW119001   1.681   5.684   4.466
 6034SOL    HW219002   1.561   5.641   4.569
 6035SOL     OW19003   0.278   0.537   2.748
 6035SOL    HW119004   0.210   0.467   2.729
 6035SOL    HW219005   0.295   0.590   2.665
 6036SOL     OW19006   6.388   6.383   3.980
 6036SOL    HW119007   6.477   6.337   3.980
 6036SOL    HW219008   6.321   6.326   4.027
 6037SOL     OW19009   4.145   5.094   5.838
 6037SOL    HW119010   4.243   5.079   5.829
 6037SOL    HW219011   4.104   5.101   5.747
 6038SOL     OW19012   1.232   2.838   6.314
 6038SOL    HW119013   1.288   2.756   6.307
 6038SOL    HW219014   1.283   2.917   6.280
 6039SOL     OW19015   3.254   2.928   2.726
 6039SOL    HW119016   3.237   3.012   2.675
 6039SOL    HW219017   3.221   2.850   2.673
 6040SOL     OW19018   0.516   2.117   6.566
 6040SOL    HW119019   0.515   2.023   6.531
 6040SOL    HW219020   0.585   2.124   6.638
 6041SOL     OW19021   2.179   0.396   5.030
 6041SOL    HW119022   2.152   0.464   5.099
 6041SOL    HW219023   2.236   0.440   4.961
 6042SOL     OW19024   5.195   5.748   2.361
 6042SOL    HW119025   5.242   5.835   2.343
 6042SOL    HW219026   5.178   5.701   2.275
 6043SOL     OW19027   0.859   4.534   5.298
 6043SOL    HW119028   0.925   4.465   5.270
 6043SOL    HW219029   0.862   4.545   5.398
 6044SOL     OW19030   1.614   2.020   1.380
 6044SOL    HW119031   1.708   1.985   1.377
 6044SOL    HW219032   1.615   2.120   1.376
 6045SOL     OW19033   6.478   5.273   0.697
 6045SOL    HW119034   6.526   5.216   0.630
 6045SOL    HW219035   6.380   5.256   0.691
 6046SOL     OW19036   3.125   1.843   0.199
 6046SOL    HW119037   3.104   1.941   0.194
 6046SOL    HW219038   3.222   1.829   0.180
 6047SOL     OW19039   6.092   2.370   2.088
 6047SOL    HW119040   6.163   2.356   2.157
 6047SOL    HW219041   6.075   2.284   2.039
 6048SOL     OW19042   4.483   6.431   3.976
 6048SOL    HW119043   4.550   6.400   3.909
 6048SOL    HW219044   4.529   6.447   4.064
 6049SOL     OW19045   6.124   3.394   5.776
 6049SOL    HW119046   6.061   3.410   5.853
 6049SOL    HW219047   6.088   3.320   5.719
 6050SOL     OW19048   2.925   4.908   5.314
 6050SOL    HW119049   2.919   4.983   5.248
 6050SOL    HW219050   2.846   4.847   5.302
 6051SOL     OW19051   2.093   1.630   4.442
 6051SOL    HW119052   2.143   1.546   4.464
 6051SOL    HW219053   2.108   1.654   4.346
 6052SOL     OW19054   6.199   6.549   0.427
 6052SOL    HW119055   6.142   6.548   0.509
 6052SOL    HW219056   6.144   6.517   0.349
 6053SOL     OW19057   3.148   0.977   6.197
 6053SOL    HW119058   3.142   1.053   6.131
 6053SOL    HW219059   3.173   0.893   6.149
 6054SOL     OW19060   2.645   3.907   0.568
 6054SOL    HW119061   2.719   3.925   0.502
 6054SOL    HW219062   2.682   3.857   0.646
 6055SOL     OW19063   5.225   1.322   5.903
 6055SOL    HW119064   5.284   1.390   5.948
 6055SOL    HW219065   5.129   1.345   5.918
 6056SOL     OW19066   5.100   3.042   4.566
 6056SOL    HW119067   5.079   2.981   4.642
 6056SOL    HW219068   5.020   3.098   4.544
 6057SOL     OW19069   5.344   2.909   4.772
 6057SOL    HW119070   5.341   3.009   4.766
 6057SOL    HW219071   5.251   2.873   4.778
 6058SOL     OW19072   5.053   2.865   1.613
 6058SOL    HW119073   5.062   2.821   1.703
 6058SOL    HW219074   5.009   2.954   1.624
 6059SOL     OW19075   4.882   5.523   4.852
 6059SOL    HW119076   4.953   5.454   4.866
 6059SOL    HW219077   4.801   5.480   4.813
 6060SOL     OW19078   3.111   4.244   6.424
 6060SOL    HW119079   3.208   4.241   6.447
 6060SOL    HW219080   3.057   4.224   6.505
 6061SOL     OW19081   3.993   2.044   1.367
 6061SOL    HW119082   4.017   2.111   1.437
 6061SOL    HW219083   4.076   2.008   1.325
 6062SOL     OW19084   1.453   1.513   5.070
 6062SOL    HW119085   1.517   1.438   5.054
 6062SOL    HW219086   1.486   1.595   5.021
 6063SOL     OW19087   3.414   1.343   6.491
 6063SOL    HW119088   3.325   1.331   6.446
 6063SOL    HW219089   3.405   1.406   6.568
 6064SOL     OW19090   2.521   6.073   1.689
 6064SOL    HW119091   2.561   6.007   1.753
 6064SOL    HW219092   2.586   6.092   1.616
 6065SOL     OW19093   5.816   7.007   2.164
 6065SOL    HW119094   5.811   6.940   2.238
 6065SOL    HW219095   5.905   7.002   2.120
 6066SOL     OW19096   4.530   1.885   6.573
 6066SOL    HW119097   4.577   1.972   6.567
 6066SOL    HW219098   4.502   1.867   6.667
 6067SOL     OW19099   5.302   1.537   6.036
 6067SOL    HW119100   5.389   1.525   6.083
 6067SOL    HW219101   5.227   1.530   6.102
 6068SOL     OW19102   5.605   2.546   4.698
 6068SOL    HW119103   5.656   2.463   4.720
 6068SOL    HW219104   5.667   2.625   4.700
 6069SOL     OW19105   6.965   3.404   5.129
 6069SOL    HW119106   6.922   3.343   5.062
 6069SOL    HW219107   6.894   3.454   5.179
 6070SOL     OW19108   2.738   2.164   6.737
 6070SOL    HW119109   2.821   2.128   6.781
 6070SOL    HW219110   2.762   2.242   6.680
 6071SOL     OW19111   5.897   4.917   4.482
 6071SOL    HW119112   5.866   4.911   4.577
 6071SOL    HW219113   5.997   4.909   4.479
 6072SOL     OW19114   0.062   0.387   2.398
 6072SOL    HW119115   0.058   0.477   2.356
 6072SOL    HW219116   7.020   0.325   2.352
 6073SOL     OW19117   6.265   4.186   0.427
 6073SOL    HW119118   6.310   4.262   0.381
 6073SOL    HW219119   6.326   4.147   0.496
 6074SOL     OW19120   1.139   6.463   4.362
 6074SOL    HW119121   1.171   6.506   4.447
 6074SOL    HW219122   1.109   6.534   4.298
 6075SOL     OW19123   6.987   2.161   6.910
 6075SOL    HW119124   0.014   2.080   6.942
 6075SOL    HW219125   6.893   2.135   6.886
 6076SOL     OW19126   2.274   5.945   4.295
 6076SOL    HW119127   2.203   5.909   4.234
 6076SOL    HW219128   2.317   5.869   4.343
 6077SOL     OW19129   4.954   5.842   2.087
 6077SOL    HW119130   5.016   5.874   2.015
 6077SOL    HW219131   4.863   5.827   2.048
 6078SOL     OW19132   3.988   4.799   1.751
 6078SOL    HW119133   4.050   4.764   1.680
 6078SOL    HW219134   3.895   4.803   1.716
 6079SOL     OW19135   3.210   2.821   6.103
 6079SOL    HW119136   3.152   2.888   6.057
 6079SOL    HW219137   3.162   2.785   6.184
 6080SOL     OW19138   6.881   0.881   1.676
 6080SOL    HW119139   6.816   0.905   1.604
 6080SOL    HW219140   6.888   0.956   1.742
 6081SOL     OW19141   6.179   3.058   5.123
 6081SOL    HW119142   6.262   3.101   5.160
 6081SOL    HW219143   6.145   2.992   5.190
 6082SOL     OW19144   2.458   1.742   3.270
 6082SOL    HW119145   2.419   1.650   3.261
 6082SOL    HW219146   2.558   1.735   3.271
 6083SOL     OW19147   0.442   5.212   6.549
 6083SOL    HW119148   0.516   5.264   6.591
 6083SOL    HW219149   0.469   5.183   6.457
 6084SOL     OW19150   0.067   5.583   3.533
 6084SOL    HW119151   7.012   5.519   3.542
 6084SOL    HW219152   0.153   5.532   3.533
 6085SOL     OW19153   0.396   4.098   0.510
 6085SOL    HW119154   0.380   4.049   0.596
 6085SOL    HW219155   0.482   4.068   0.469
 6086SOL     OW19156   2.902   1.323   5.235
 6086SOL    HW119157   2.913   1.419   5.260
 6086SOL    HW219158   2.964   1.301   5.160
 6087SOL     OW19159   4.375   5.634   0.291
 6087SOL    HW119160   4.427   5.550   0.307
 6087SOL    HW219161   4.295   5.614   0.235
 6088SOL     OW19162   5.759   6.450   4.876
 6088SOL    HW119163   5.671   6.493   4.854
 6088SOL    HW219164   5.747   6.351   4.882
 6089SOL     OW19165   6.935   3.240   1.243
 6089SOL    HW119166   6.859   3.305   1.255
 6089SOL    HW219167   6.968   3.211   1.333
 6090SOL     OW19168   2.002   6.551   5.534
 6090SOL    HW119169   1.995   6.628   5.470
 6090SOL    HW219170   1.969   6.580   5.624
 6091SOL     OW19171   2.190   1.804   2.121
 6091SOL    HW119172   2.151   1.878   2.066
 6091SOL    HW219173   2.116   1.749   2.161
 6092SOL     OW19174   3.088   0.562   3.309
 6092SOL    HW119175   3.183   0.590   3.296
 6092SOL    HW219176   3.067   0.560   3.407
 6093SOL     OW19177   0.766   2.939   2.806
 6093SOL    HW119178   0.817   3.006   2.753
 6093SOL    HW219179   0.716   2.878   2.744
 6094SOL     OW19180   4.248   0.999   1.550
 6094SOL    HW119181   4.191   1.047   1.484
 6094SOL    HW219182   4.205   0.913   1.576
 6095SOL     OW19183   4.229   3.918   6.970
 6095SOL    HW119184   4.317   3.953   6.938
 6095SOL    HW219185   4.244   3.853   0.022
 6096SOL     OW19186   5.975   0.490   4.345
 6096SOL    HW119187   6.030   0.569   4.318
 6096SOL    HW219188   5.902   0.520   4.408
 6097SOL     OW19189   1.698   0.254   2.323
 6097SOL    HW119190   1.659   0.320   2.259
 6097SOL    HW219191   1.782   0.216   2.285
 6098SOL     OW19192   1.444   2.364   6.668
 6098SOL    HW119193   1.444   2.271   6.631
 6098SOL    HW219194   1.353   2.388   6.700
 6099SOL     OW19195   0.251   6.206   0.586
 6099SOL    HW119196   0.182   6.173   0.522
 6099SOL    HW219197   0.336   6.224   0.536
 6100SOL     OW19198   4.810   3.313   0.323
 6100SOL    HW119199   4.870   3.246   0.366
 6100SOL    HW219200   4.845   3.405   0.339
 6101SOL     OW19201   6.396   1.966   5.033
 6101SOL    HW119202   6.358   1.885   5.078
 6101SOL    HW219203   6.339   1.989   4.954
 6102SOL     OW19204   3.800   0.548   3.637
 6102SOL    HW119205   3.703   0.571   3.651
 6102SOL    HW219206   3.823   0.467   3.690
 6103SOL     OW19207   0.635   2.473   2.311
 6103SOL    HW119208   0.734   2.486   2.304
 6103SOL    HW219209   0.597   2.537   2.378
 6104SOL     OW19210   6.212   1.632   5.605
 6104SOL    HW119211   6.147   1.706   5.619
 6104SOL    HW219212   6.236   1.591   5.693
 6105SOL     OW19213   1.809   0.665   5.469
 6105SOL    HW119214   1.854   0.628   5.550
 6105SOL    HW219215   1.874   0.719   5.415
 6106SOL     OW19216   1.477   3.879   5.866
 6106SOL    HW119217   1.577   3.883   5.868
 6106SOL    HW219218   1.442   3.895   5.958
 6107SOL     OW19219   2.752   4.920   4.174
 6107SOL    HW119220   2.852   4.923   4.185
 6107SOL    HW219221   2.713   5.005   4.210
 6108SOL     OW19222   0.860   2.819   2.049
 6108SOL    HW119223   0.792   2.746   2.049
 6108SOL    HW219224   0.821   2.900   2.004
 6109SOL     OW19225   4.888   3.028   6.144
 6109SOL    HW119226   4.877   2.939   6.100
 6109SOL    HW219227   4.808   3.084   6.126
 6110SOL     OW19228   3.578   2.629   7.002
 6110SOL    HW119229   3.551   2.539   0.015
 6110SOL    HW219230   3.644   2.671   0.042
 6111SOL     OW19231   2.361   4.266   2.099
 6111SOL    HW119232   2.344   4.272   2.197
 6111SOL    HW219233   2.379   4.170   2.075
 6112SOL     OW19234   3.536   0.638   3.603
 6112SOL    HW119235   3.518   0.589   3.518
 6112SOL    HW219236   3.514   0.735   3.591
 6113SOL     OW19237   0.787   0.957   5.954
 6113SOL    HW119238   0.832   0.870   5.972
 6113SOL    HW219239   0.798   1.018   6.032
 6114SOL     OW19240   5.062   5.004   0.889
 6114SOL    HW119241   5.042   5.031   0.983
 6114SOL    HW219242   4.980   5.017   0.832
 6115SOL     OW19243   5.589   6.655   3.241
 6115SOL    HW119244   5.621   6.611   3.324
 6115SOL    HW219245   5.625   6.748   3.236
 6116SOL     OW19246   2.697   1.064   0.205
 6116SOL    HW119247   2.746   1.141   0.246
 6116SOL    HW219248   2.725   1.054   0.109
 6117SOL     OW19249   6.760   0.598   6.130
 6117SOL    HW119250   6.756   0.641   6.220
 6117SOL    HW219251   6.795   0.663   6.063
 6118SOL     OW19252   6.670   0.706   1.355
 6118SOL    HW119253   6.647   0.701   1.258
 6118SOL    HW219254   6.732   0.632   1.379
 6119SOL     OW19255   0.361   3.551   4.979
 6119SOL    HW119256   0.320   3.633   5.019
 6119SOL    HW219257   0.456   3.543   5.011
 6120SOL     OW19258   4.025   6.986   3.849
 6120SOL    HW119259   4.098   0.031   3.855
 6120SOL    HW219260   3.941   0.002   3.889
 6121SOL     OW19261   0.069   3.151   4.657
 6121SOL    HW119262   7.004   3.107   4.680
 6121SOL    HW219263   0.090   3.220   4.726
 6122SOL     OW19264   3.708   6.880   1.698
 6122SOL    HW119265   3.634   6.941   1.673
 6122SOL    HW219266   3.766   6.864   1.618
 6123SOL     OW19267   6.862   0.236   6.595
 6123SOL    HW119268   6.958   0.224   6.622
 6123SOL    HW219269   6.804   0.176   6.650
 6124SOL     OW19270   2.007   1.138   6.794
 6124SOL    HW119271   2.095   1.157   6.751
 6124SOL    HW219272   1.998   1.193   6.877
 6125SOL     OW19273   2.951   5.526   0.048
 6125SOL    HW119274   3.017   5.601   0.042
 6125SOL    HW219275   2.999   5.442   0.076
 6126SOL     OW19276   6.879   6.584   3.840
 6126SOL    HW119277   6.872   6.505   3.901
 6126SOL    HW219278   6.792   6.599   3.794
 6127SOL     OW19279   2.875   0.218   2.388
 6127SOL    HW119280   2.912   0.203   2.480
 6127SOL    HW219281   2.780   0.188   2.385
 6128SOL     OW19282   6.158   3.718   0.465
 6128SOL    HW119283   6.147   3.645   0.533
 6128SOL    HW219284   6.152   3.679   0.373
 6129SOL     OW19285   6.339   3.867   3.188
 6129SOL    HW119286   6.307   3.959   3.211
 6129SOL    HW219287   6.427   3.874   3.140
 6130SOL     OW19288   6.181   1.842   4.260
 6130SOL    HW119289   6.265   1.885   4.229
 6130SOL    HW219290   6.123   1.820   4.181
 6131SOL     OW19291   6.696   1.585   5.004
 6131SOL    HW119292   6.774   1.533   5.039
 6131SOL    HW219293   6.693   1.578   4.904
 6132SOL     OW19294   5.040   1.269   0.430
 6132SOL    HW119295   5.062   1.244   0.524
 6132SOL    HW219296   5.086   1.355   0.406
 6133SOL     OW19297   0.897   2.357   2.607
 6133SOL    HW119298   0.934   2.264   2.614
 6133SOL    HW219299   0.907   2.403   2.695
 6134SOL     OW19300   4.128   4.483   6.900
 6134SOL    HW119301   4.102   4.404   6.956
 6134SOL    HW219302   4.195   4.538   6.950
 6135SOL     OW19303   0.255   0.061   1.663
 6135SOL    HW119304   0.198   0.132   1.702
 6135SOL    HW219305   0.216   0.029   1.577
 6136SOL     OW19306   1.050   2.624   1.850
 6136SOL    HW119307   1.079   2.550   1.790
 6136SOL    HW219308   1.046   2.590   1.944
 6137SOL     OW19309   5.677   2.072   4.205
 6137SOL    HW119310   5.677   1.973   4.218
 6137SOL    HW219311   5.708   2.116   4.289
 6138SOL     OW19312   4.297   6.262   2.038
 6138SOL    HW119313   4.282   6.336   2.104
 6138SOL    HW219314   4.357   6.295   1.965
 6139SOL     OW19315   2.139   2.305   5.695
 6139SOL    HW119316   2.128   2.337   5.601
 6139SOL    HW219317   2.051   2.310   5.742
 6140SOL     OW19318   0.170   6.003   1.866
 6140SOL    HW119319   0.122   5.964   1.787
 6140SOL    HW219320   0.269   5.998   1.851
 6141SOL     OW19321   5.902   5.934   6.166
 6141SOL    HW119322   5.994   5.953   6.200
 6141SOL    HW219323   5.858   6.020   6.140
 6142SOL     OW19324   6.835   5.152   0.794
 6142SOL    HW119325   6.814   5.225   0.728
 6142SOL    HW219326   6.768   5.079   0.785
 6143SOL     OW19327   6.297   5.086   0.506
 6143SOL    HW119328   6.288   4.987   0.504
 6143SOL    HW219329   6.238   5.124   0.577
 6144SOL     OW19330   6.050   4.844   2.544
 6144SOL    HW119331   6.063   4.836   2.642
 6144SOL    HW219332   6.138   4.862   2.500
 6145SOL     OW19333   4.749   5.432   4.432
 6145SOL    HW119334   4.783   5.515   4.476
 6145SOL    HW219335   4.685   5.457   4.360
 6146SOL     OW19336   3.728   0.907   3.331
 6146SOL    HW119337   3.675   0.978   3.286
 6146SOL    HW219338   3.753   0.937   3.423
 6147SOL     OW19339   1.485   3.979   3.958
 6147SOL    HW119340   1.497   3.885   3.989
 6147SOL    HW219341   1.560   4.004   3.896
 6148SOL     OW19342   0.109   6.880   4.861
 6148SOL    HW119343   0.180   6.930   4.910
 6148SOL    HW219344   0.135   6.870   4.765
 6149SOL     OW19345   3.461   5.170   2.004
 6149SOL    HW119346   3.501   5.222   1.929
 6149SOL    HW219347   3.463   5.225   2.088
 6150SOL     OW19348   3.999   4.785   6.468
 6150SOL    HW119349   3.899   4.791   6.478
 6150SOL    HW219350   4.037   4.730   6.542
 6151SOL     OW19351   6.140   3.763   5.238
 6151SOL    HW119352   6.216   3.819   5.269
 6151SOL    HW219353   6.174   3.686   5.184
 6152SOL     OW19354   5.932   5.739   5.256
 6152SOL    HW119355   5.900   5.747   5.350
 6152SOL    HW219356   5.951   5.643   5.236
 6153SOL     OW19357   4.632   3.533   1.700
 6153SOL    HW119358   4.551   3.482   1.727
 6153SOL    HW219359   4.610   3.631   1.697
 6154SOL     OW19360   5.882   1.487   2.796
 6154SOL    HW119361   5.836   1.567   2.758
 6154SOL    HW219362   5.848   1.470   2.888
 6155SOL     OW19363   1.895   2.062   4.720
 6155SOL    HW119364   1.956   1.983   4.715
 6155SOL    HW219365   1.816   2.047   4.661
 6156SOL     OW19366   4.763   4.784   2.536
 6156SOL    HW119367   4.833   4.747   2.597
 6156SOL    HW219368   4.673   4.757   2.569
 6157SOL     OW19369   1.320   1.636   4.565
 6157SOL    HW119370   1.311   1.722   4.515
 6157SOL    HW219371   1.335   1.561   4.501
 6158SOL     OW19372   3.999   0.886   5.675
 6158SOL    HW119373   4.055   0.809   5.704
 6158SOL    HW219374   4.020   0.909   5.580
 6159SOL     OW19375   4.789   2.388   1.561
 6159SOL    HW119376   4.698   2.367   1.595
 6159SOL    HW219377   4.801   2.488   1.556
 6160SOL     OW19378   4.758   6.671   6.712
 6160SOL    HW119379   4.712   6.610   6.647
 6160SOL    HW219380   4.815   6.618   6.774
 6161SOL     OW19381   6.264   1.739   5.139
 6161SOL    HW119382   6.350   1.689   5.152
 6161SOL    HW219383   6.217   1.747   5.227
 6162SOL     OW19384   1.070   6.078   3.387
 6162SOL    HW119385   0.982   6.054   3.346
 6162SOL    HW219386   1.071   6.176   3.408
 6163SOL     OW19387   5.437   6.127   1.500
 6163SOL    HW119388   5.437   6.092   1.406
 6163SOL    HW219389   5.474   6.057   1.561
 6164SOL     OW19390   2.854   2.967   1.419
 6164SOL    HW119391   2.885   2.875   1.441
 6164SOL    HW219392   2.919   3.010   1.356
 6165SOL     OW19393   4.707   0.144   6.638
 6165SOL    HW119394   4.760   0.134   6.554
 6165SOL    HW219395   4.685   0.054   6.675
 6166SOL     OW19396   4.024   0.633   6.174
 6166SOL    HW119397   4.107   0.677   6.142
 6166SOL    HW219398   4.000   0.668   6.265
 6167SOL     OW19399   1.063   4.107   2.726
 6167SOL    HW119400   1.141   4.161   2.759
 6167SOL    HW219401   1.044   4.033   2.789
 6168SOL     OW19402   0.688   3.375   1.243
 6168SOL    HW119403   0.602   3.412   1.276
 6168SOL    HW219404   0.718   3.426   1.162
 6169SOL     OW19405   1.588   3.148   1.547
 6169SOL    HW119406   1.675   3.151   1.596
 6169SOL    HW219407   1.519   3.102   1.603
 6170SOL     OW19408   0.980   3.971   5.527
 6170SOL    HW119409   0.975   3.912   5.447
 6170SOL    HW219410   0.916   4.047   5.516
 6171SOL     OW19411   0.632   2.558   0.406
 6171SOL    HW119412   0.713   2.605   0.440
 6171SOL    HW219413   0.659   2.477   0.354
 6172SOL     OW19414   1.415   3.180   2.520
 6172SOL    HW119415   1.438   3.257   2.579
 6172SOL    HW219416   1.322   3.150   2.540
 6173SOL     OW19417   6.551   5.055   2.817
 6173SOL    HW119418   6.490   5.109   2.875
 6173SOL    HW219419   6.586   5.113   2.743
 6174SOL     OW19420   5.423   5.808   3.738
 6174SOL    HW119421   5.427   5.883   3.805
 6174SOL    HW219422   5.329   5.773   3.733
 6175SOL     OW19423   4.179   0.265   4.011
 6175SOL    HW119424   4.115   0.340   4.001
 6175SOL    HW219425   4.250   0.290   4.077
 6176SOL     OW19426   5.428   4.004   5.890
 6176SOL    HW119427   5.369   4.054   5.953
 6176SOL    HW219428   5.507   3.967   5.939
 6177SOL     OW19429   5.794   1.812   1.900
 6177SOL    HW119430   5.838   1.837   1.815
 6177SOL    HW219431   5.823   1.720   1.927
 6178SOL     OW19432   5.186   4.561   2.084
 6178SOL    HW119433   5.200   4.544   2.182
 6178SOL    HW219434   5.269   4.602   2.046
 6179SOL     OW19435   6.866   4.682   2.907
 6179SOL    HW119436   6.845   4.672   3.004
 6179SOL    HW219437   6.849   4.777   2.879
 6180SOL     OW19438   2.433   4.857   1.222
 6180SOL    HW119439   2.418   4.953   1.196
 6180SOL    HW219440   2.349   4.805   1.206
 6181SOL     OW19441   5.206   6.724   6.095
 6181SOL    HW119442   5.277   6.777   6.049
 6181SOL    HW219443   5.156   6.784   6.158
 6182SOL     OW19444   4.324   3.166   6.470
 6182SOL    HW119445   4.340   3.130   6.378
 6182SOL    HW219446   4.339   3.265   6.470
 6183SOL     OW19447   1.574   2.458   2.747
 6183SOL    HW119448   1.582   2.538   2.688
 6183SOL    HW219449   1.655   2.401   2.737
 6184SOL     OW19450   3.137   6.599   6.293
 6184SOL    HW119451   3.159   6.626   6.387
 6184SOL    HW219452   3.129   6.499   6.288
 6185SOL     OW19453   0.556   3.873   6.107
 6185SOL    HW119454   0.578   3.969   6.125
 6185SOL    HW219455   0.512   3.833   6.187
 6186SOL     OW19456   5.952   0.985   0.879
 6186SOL    HW119457   5.908   1.074   0.892
 6186SOL    HW219458   5.975   0.946   0.968
 6187SOL     OW19459   4.726   2.775   4.008
 6187SOL    HW119460   4.755   2.870   3.997
 6187SOL    HW219461   4.734   2.748   4.104
 6188SOL     OW19462   1.565   1.607   6.201
 6188SOL    HW119463   1.528   1.540   6.137
 6188SOL    HW219464   1.494   1.635   6.265
 6189SOL     OW19465   4.118   4.741   3.076
 6189SOL    HW119466   4.108   4.809   3.148
 6189SOL    HW219467   4.203   4.690   3.089
 6190SOL     OW19468   6.985   3.839   5.159
 6190SOL    HW119469   6.994   3.938   5.165
 6190SOL    HW219470   6.964   3.813   5.065
 6191SOL     OW19471   3.024   2.969   5.990
 6191SOL    HW119472   2.982   2.967   5.900
 6191SOL    HW219473   3.007   3.057   6.034
 6192SOL     OW19474   2.749   2.155   6.349
 6192SOL    HW119475   2.727   2.059   6.332
 6192SOL    HW219476   2.795   2.163   6.438
 6193SOL     OW19477   4.429   6.002   1.452
 6193SOL    HW119478   4.409   5.913   1.411
 6193SOL    HW219479   4.462   6.064   1.380
 6194SOL     OW19480   6.613   0.215   6.476
 6194SOL    HW119481   6.710   0.215   6.498
 6194SOL    HW219482   6.590   0.134   6.422
 6195SOL     OW19483   5.117   6.126   3.869
 6195SOL    HW119484   5.212   6.095   3.868
 6195SOL    HW219485   5.107   6.202   3.933
 6196SOL     OW19486   4.856   3.818   2.603
 6196SOL    HW119487   4.918   3.883   2.561
 6196SOL    HW219488   4.867   3.728   2.561
 6197SOL     OW19489   2.360   5.280   1.725
 6197SOL    HW119490   2.332   5.293   1.820
 6197SOL    HW219491   2.294   5.324   1.665
 6198SOL     OW19492   4.371   6.699   1.153
 6198SOL    HW119493   4.312   6.694   1.073
 6198SOL    HW219494   4.400   6.793   1.168
 6199SOL     OW19495   0.635   1.061   0.301
 6199SOL    HW119496   0.582   0.978   0.323
 6199SOL    HW219497   0.584   1.117   0.236
 6200SOL     OW19498   0.794   2.006   5.112
 6200SOL    HW119499   0.778   1.908   5.123
 6200SOL    HW219500   0.857   2.021   5.036
 6201SOL     OW19501   0.612   3.500   5.044
 6201SOL    HW119502   0.683   3.443   5.002
 6201SOL    HW219503   0.616   3.491   5.143
 6202SOL     OW19504   5.466   1.201   2.099
 6202SOL    HW119505   5.469   1.286   2.046
 6202SOL    HW219506   5.547   1.195   2.158
 6203SOL     OW19507   5.724   5.798   1.896
 6203SOL    HW119508   5.698   5.885   1.937
 6203SOL    HW219509   5.745   5.811   1.800
 6204SOL     OW19510   0.905   5.687   5.034
 6204SOL    HW119511   0.844   5.764   5.012
 6204SOL    HW219512   0.868   5.603   4.996
 6205SOL     OW19513   6.247   4.897   1.053
 6205SOL    HW119514   6.310   4.910   1.129
 6205SOL    HW219515   6.184   4.822   1.073
 6206SOL     OW19516   5.917   1.327   2.264
 6206SOL    HW119517   5.842   1.393   2.254
 6206SOL    HW219518   6.000   1.365   2.223
 6207SOL     OW19519   2.384   6.558   5.255
 6207SOL    HW119520   2.395   6.653   5.285
 6207SOL    HW219521   2.381   6.498   5.335
 6208SOL     OW19522   3.484   2.373   5.394
 6208SOL    HW119523   3.561   2.311   5.407
 6208SOL    HW219524   3.512   2.466   5.418
 6209SOL     OW19525   3.311   5.486   0.117
 6209SOL    HW119526   3.395   5.461   0.165
 6209SOL    HW219527   3.324   5.575   0.072
 6210SOL     OW19528   4.876   3.834   3.083
 6210SOL    HW119529   4.938   3.755   3.078
 6210SOL    HW219530   4.834   3.849   2.993
 6211SOL     OW19531   3.292   6.770   5.701
 6211SOL    HW119532   3.336   6.736   5.617
 6211SOL    HW219533   3.210   6.822   5.676
 6212SOL     OW19534   2.429   5.004   4.202
 6212SOL    HW119535   2.517   4.957   4.198
 6212SOL    HW219536   2.436   5.092   4.155
 6213SOL     OW19537   4.335   6.603   7.016
 6213SOL    HW119538   4.348   6.558   6.928
 6213SOL    HW219539   4.415   6.659   0.015
 6214SOL     OW19540   5.663   6.119   5.418
 6214SOL    HW119541   5.602   6.195   5.396
 6214SOL    HW219542   5.619   6.032   5.394
 6215SOL     OW19543   3.212   2.649   6.960
 6215SOL    HW119544   3.151   2.690   6.893
 6215SOL    HW219545   3.198   2.550   6.962
 6216SOL     OW19546   6.232   2.014   2.289
 6216SOL    HW119547   6.133   2.002   2.287
 6216SOL    HW219548   6.262   2.059   2.205
 6217SOL     OW19549   0.787   4.282   3.011
 6217SOL    HW119550   0.876   4.308   3.050
 6217SOL    HW219551   0.727   4.362   3.011
 6218SOL     OW19552   3.699   0.028   0.122
 6218SOL    HW119553   3.680   6.985   0.048
 6218SOL    HW219554   3.737   0.112   0.083
 6219SOL     OW19555   1.403   1.080   4.995
 6219SOL    HW119556   1.320   1.114   4.950
 6219SOL    HW219557   1.389   0.985   5.022
 6220SOL     OW19558   3.266   1.457   5.561
 6220SOL    HW119559   3.187   1.510   5.532
 6220SOL    HW219560   3.304   1.497   5.645
 6221SOL     OW19561   6.398   6.889   0.281
 6221SOL    HW119562   6.381   6.982   0.249
 6221SOL    HW219563   6.478   6.888   0.341
 6222SOL     OW19564   0.682   0.377   2.447
 6222SOL    HW119565   0.743   0.444   2.491
 6222SOL    HW219566   0.737   0.314   2.392
 6223SOL     OW19567   1.687   5.438   3.303
 6223SOL    HW119568   1.656   5.390   3.385
 6223SOL    HW219569   1.784   5.460   3.312
 6224SOL     OW19570   3.712   1.182   5.884
 6224SOL    HW119571   3.687   1.274   5.914
 6224SOL    HW219572   3.770   1.187   5.803
 6225SOL     OW19573   4.056   2.693   6.596
 6225SOL    HW119574   4.111   2.777   6.596
 6225SOL    HW219575   4.115   2.615   6.576
 6226SOL     OW19576   1.283   1.500   4.135
 6226SOL    HW119577   1.356   1.552   4.090
 6226SOL    HW219578   1.255   1.424   4.076
 6227SOL     OW19579   3.341   5.068   5.323
 6227SOL    HW119580   3.418   5.131   5.335
 6227SOL    HW219581   3.280   5.075   5.402
 6228SOL     OW19582   0.459   2.440   2.738
 6228SOL    HW119583   0.469   2.350   2.695
 6228SOL    HW219584   0.530   2.450   2.808
 6229SOL     OW19585   0.715   3.094   4.909
 6229SOL    HW119586   0.732   3.189   4.935
 6229SOL    HW219587   0.799   3.041   4.918
 6230SOL     OW19588   1.031   2.327   3.434
 6230SOL    HW119589   0.987   2.348   3.347
 6230SOL    HW219590   1.130   2.322   3.421
 6231SOL     OW19591   5.703   5.406   0.205
 6231SOL    HW119592   5.686   5.319   0.158
 6231SOL    HW219593   5.781   5.452   0.163
 6232SOL     OW19594   6.387   1.145   0.544
 6232SOL    HW119595   6.468   1.191   0.507
 6232SOL    HW219596   6.308   1.165   0.485
 6233SOL     OW19597   6.279   2.951   1.887
 6233SOL    HW119598   6.294   2.942   1.789
 6233SOL    HW219599   6.182   2.971   1.904
 6234SOL     OW19600   6.998   7.009   5.232
 6234SOL    HW119601   6.994   0.083   5.207
 6234SOL    HW219602   6.908   6.967   5.219
 6235SOL     OW19603   0.219   0.580   1.731
 6235SOL    HW119604   0.292   0.515   1.711
 6235SOL    HW219605   0.184   0.563   1.823
 6236SOL     OW19606   6.808   5.022   0.459
 6236SOL    HW119607   6.806   4.939   0.513
 6236SOL    HW219608   6.735   5.083   0.488
 6237SOL     OW19609   3.493   0.298   6.853
 6237SOL    HW119610   3.587   0.270   6.831
 6237SOL    HW219611   3.490   0.332   6.948
 6238SOL     OW19612   4.640   6.654   3.421
 6238SOL    HW119613   4.699   6.705   3.358
 6238SOL    HW219614   4.648   6.693   3.512
 6239SOL     OW19615   4.025   0.783   1.066
 6239SOL    HW119616   4.088   0.744   0.999
 6239SOL    HW219617   3.941   0.813   1.019
 6240SOL     OW19618   3.494   3.809   5.456
 6240SOL    HW119619   3.512   3.715   5.483
 6240SOL    HW219620   3.529   3.826   5.364
 6241SOL     OW19621   4.136   0.594   3.363
 6241SOL    HW119622   4.124   0.637   3.452
 6241SOL    HW219623   4.213   0.530   3.367
 6242SOL     OW19624   3.024   0.541   3.033
 6242SOL    HW119625   3.041   0.546   3.132
 6242SOL    HW219626   3.001   0.632   2.999
 6243SOL     OW19627   6.621   0.208   5.911
 6243SOL    HW119628   6.608   0.116   5.872
 6243SOL    HW219629   6.612   0.276   5.839
 6244SOL     OW19630   5.239   3.576   3.500
 6244SOL    HW119631   5.259   3.638   3.425
 6244SOL    HW219632   5.266   3.618   3.586
 6245SOL     OW19633   0.834   4.359   2.255
 6245SOL    HW119634   0.815   4.271   2.299
 6245SOL    HW219635   0.884   4.343   2.170
 6246SOL     OW19636   0.744   0.987   4.880
 6246SOL    HW119637   0.790   0.917   4.935
 6246SOL    HW219638   0.803   1.012   4.803
 6247SOL     OW19639   1.600   6.443   3.541
 6247SOL    HW119640   1.669   6.509   3.571
 6247SOL    HW219641   1.596   6.441   3.441
 6248SOL     OW19642   3.307   4.057   0.223
 6248SOL    HW119643   3.212   4.084   0.208
 6248SOL    HW219644   3.368   4.128   0.186
 6249SOL     OW19645   6.882   2.583   0.680
 6249SOL    HW119646   6.800   2.545   0.638
 6249SOL    HW219647   6.859   2.667   0.729
 6250SOL     OW19648   6.715   6.811   0.791
 6250SOL    HW119649   6.743   6.719   0.816
 6250SOL    HW219650   6.686   6.861   0.873
 6251SOL     OW19651   3.593   6.027   4.663
 6251SOL    HW119652   3.547   6.068   4.585
 6251SOL    HW219653   3.684   5.996   4.636
 6252SOL     OW19654   2.519   4.499   0.139
 6252SOL    HW119655   2.443   4.564   0.139
 6252SOL    HW219656   2.576   4.514   0.219
 6253SOL     OW19657   2.379   5.344   4.584
 6253SOL    HW119658   2.316   5.302   4.650
 6253SOL    HW219659   2.331   5.358   4.498
 6254SOL     OW19660   6.755   0.183   0.679
 6254SOL    HW119661   6.702   0.177   0.764
 6254SOL    HW219662   6.796   0.094   0.659
 6255SOL     OW19663   2.459   1.790   0.524
 6255SOL    HW119664   2.396   1.766   0.597
 6255SOL    HW219665   2.410   1.795   0.437
 6256SOL     OW19666   4.243   4.970   2.613
 6256SOL    HW119667   4.307   4.894   2.602
 6256SOL    HW219668   4.181   4.951   2.689
 6257SOL     OW19669   3.804   2.916   0.352
 6257SOL    HW119670   3.901   2.907   0.374
 6257SOL    HW219671   3.788   3.002   0.303
 6258SOL     OW19672   3.511   6.723   4.650
 6258SOL    HW119673   3.573   6.801   4.652
 6258SOL    HW219674   3.551   6.647   4.702
 6259SOL     OW19675   1.913   0.823   6.506
 6259SOL    HW119676   2.013   0.831   6.496
 6259SOL    HW219677   1.869   0.843   6.418
 6260SOL     OW19678   3.366   0.296   0.641
 6260SOL    HW119679   3.384   0.198   0.636
 6260SOL    HW219680   3.413   0.334   0.721
 6261SOL     OW19681   4.471   6.494   0.708
 6261SOL    HW119682   4.548   6.507   0.770
 6261SOL    HW219683   4.505   6.469   0.617
 6262SOL     OW19684   1.780   5.839   2.205
 6262SOL    HW119685   1.715   5.908   2.174
 6262SOL    HW219686   1.753   5.807   2.296
 6263SOL     OW19687   0.935   6.478   5.334
 6263SOL    HW119688   0.952   6.432   5.247
 6263SOL    HW219689   0.839   6.507   5.338
 6264SOL     OW19690   1.567   0.209   1.647
 6264SOL    HW119691   1.591   0.133   1.708
 6264SOL    HW219692   1.540   0.173   1.558
 6265SOL     OW19693   4.513   3.290   1.082
 6265SOL    HW119694   4.470   3.379   1.098
 6265SOL    HW219695   4.505   3.266   0.986
 6266SOL     OW19696   4.360   6.673   2.990
 6266SOL    HW119697   4.426   6.608   3.027
 6266SOL    HW219698   4.408   6.743   2.937
 6267SOL     OW19699   1.572   6.942   4.483
 6267SOL    HW119700   1.533   0.010   4.467
 6267SOL    HW219701   1.639   6.948   4.558
 6268SOL     OW19702   2.886   0.867   1.746
 6268SOL    HW119703   2.925   0.800   1.809
 6268SOL    HW219704   2.870   0.953   1.795
 6269SOL     OW19705   5.826   0.081   1.709
 6269SOL    HW119706   5.770   0.124   1.638
 6269SOL    HW219707   5.859   0.151   1.773
 6270SOL     OW19708   0.715   6.963   6.921
 6270SOL    HW119709   0.690   6.963   7.018
 6270SOL    HW219710   0.784   6.892   6.905
 6271SOL     OW19711   6.582   2.532   6.447
 6271SOL    HW119712   6.613   2.563   6.537
 6271SOL    HW219713   6.529   2.605   6.404
 6272SOL     OW19714   0.832   1.410   0.405
 6272SOL    HW119715   0.860   1.504   0.389
 6272SOL    HW219716   0.901   1.348   0.367
 6273SOL     OW19717   0.378   5.320   3.062
 6273SOL    HW119718   0.358   5.380   2.986
 6273SOL    HW219719   0.294   5.297   3.111
 6274SOL     OW19720   2.977   0.187   4.564
 6274SOL    HW119721   3.021   0.258   4.618
 6274SOL    HW219722   2.955   0.109   4.623
 6275SOL     OW19723   2.580   5.974   0.519
 6275SOL    HW119724   2.494   5.975   0.572
 6275SOL    HW219725   2.598   5.881   0.488
 6276SOL     OW19726   3.435   5.528   3.457
 6276SOL    HW119727   3.401   5.622   3.452
 6276SOL    HW219728   3.529   5.528   3.490
 6277SOL     OW19729   4.865   2.050   0.969
 6277SOL    HW119730   4.802   1.982   1.008
 6277SOL    HW219731   4.812   2.128   0.935
 6278SOL     OW19732   4.168   0.775   5.079
 6278SOL    HW119733   4.130   0.742   4.993
 6278SOL    HW219734   4.133   0.867   5.097
 6279SOL     OW19735   3.966   6.126   0.696
 6279SOL    HW119736   3.946   6.031   0.671
 6279SOL    HW219737   4.060   6.131   0.731
 6280SOL     OW19738   6.781   1.350   6.543
 6280SOL    HW119739   6.832   1.431   6.570
 6280SOL    HW219740   6.827   1.305   6.466
 6281SOL     OW19741   6.631   4.410   4.060
 6281SOL    HW119742   6.646   4.448   3.969
 6281SOL    HW219743   6.590   4.319   4.052
 6282SOL     OW19744   5.909   2.947   4.911
 6282SOL    HW119745   5.943   2.979   4.823
 6282SOL    HW219746   5.813   2.974   4.922
 6283SOL     OW19747   1.119   4.068   3.985
 6283SOL    HW119748   1.040   4.127   3.969
 6283SOL    HW219749   1.133   4.057   4.084
 6284SOL     OW19750   1.474   5.525   6.561
 6284SOL    HW119751   1.534   5.571   6.494
 6284SOL    HW219752   1.477   5.426   6.546
 6285SOL     OW19753   1.495   3.283   3.564
 6285SOL    HW119754   1.571   3.268   3.627
 6285SOL    HW219755   1.504   3.220   3.486
 6286SOL     OW19756   0.111   3.575   4.308
 6286SOL    HW119757   0.117   3.635   4.229
 6286SOL    HW219758   0.023   3.586   4.353
 6287SOL     OW19759   4.070   5.043   5.418
 6287SOL    HW119760   4.011   4.970   5.382
 6287SOL    HW219761   4.015   5.106   5.474
 6288SOL     OW19762   5.243   4.530   1.570
 6288SOL    HW119763   5.210   4.501   1.660
 6288SOL    HW219764   5.211   4.623   1.551
 6289SOL     OW19765   2.560   4.571   6.507
 6289SOL    HW119766   2.498   4.547   6.581
 6289SOL    HW219767   2.510   4.571   6.420
 6290SOL     OW19768   5.941   5.239   6.451
 6290SOL    HW119769   5.868   5.171   6.438
 6290SOL    HW219770   5.900   5.328   6.471
 6291SOL     OW19771   3.642   3.682   3.416
 6291SOL    HW119772   3.720   3.688   3.479
 6291SOL    HW219773   3.635   3.590   3.380
 6292SOL     OW19774   2.617   1.933   4.942
 6292SOL    HW119775   2.574   1.980   4.865
 6292SOL    HW219776   2.642   1.999   5.012
 6293SOL     OW19777   4.572   1.679   0.478
 6293SOL    HW119778   4.518   1.646   0.555
 6293SOL    HW219779   4.559   1.619   0.399
 6294SOL     OW19780   4.417   7.016   3.190
 6294SOL    HW119781   4.373   0.070   3.238
 6294SOL    HW219782   4.351   6.974   3.127
 6295SOL     OW19783   5.314   4.841   4.792
 6295SOL    HW119784   5.275   4.774   4.854
 6295SOL    HW219785   5.374   4.903   4.843
 6296SOL     OW19786   0.295   4.444   5.500
 6296SOL    HW119787   0.383   4.437   5.547
 6296SOL    HW219788   0.231   4.377   5.538
 6297SOL     OW19789   5.842   0.161   5.722
 6297SOL    HW119790   5.846   0.198   5.815
 6297SOL    HW219791   5.919   0.196   5.669
 6298SOL     OW19792   6.529   3.924   6.425
 6298SOL    HW119793   6.609   3.970   6.387
 6298SOL    HW219794   6.448   3.982   6.412
 6299SOL     OW19795   6.113   2.811   1.566
 6299SOL    HW119796   6.185   2.866   1.524
 6299SOL    HW219797   6.024   2.854   1.549
 6300SOL     OW19798   5.606   0.370   6.300
 6300SOL    HW119799   5.575   0.398   6.391
 6300SOL    HW219800   5.698   0.331   6.307
 6301SOL     OW19801   3.405   6.429   6.291
 6301SOL    HW119802   3.440   6.520   6.272
 6301SOL    HW219803   3.364   6.391   6.208
 6302SOL     OW19804   2.162   1.358   5.572
 6302SOL    HW119805   2.098   1.429   5.601
 6302SOL    HW219806   2.217   1.392   5.495
 6303SOL     OW19807   0.539   6.494   5.999
 6303SOL    HW119808   0.562   6.437   6.078
 6303SOL    HW219809   0.472   6.563   6.026
 6304SOL     OW19810   3.988   1.484   3.469
 6304SOL    HW119811   3.929   1.429   3.528
 6304SOL    HW219812   3.935   1.516   3.390
 6305SOL     OW19813   6.180   6.069   0.386
 6305SOL    HW119814   6.232   5.984   0.392
 6305SOL    HW219815   6.241   6.147   0.401
 6306SOL     OW19816   0.205   3.710   4.070
 6306SOL    HW119817   0.255   3.777   4.124
 6306SOL    HW219818   0.143   3.757   4.007
 6307SOL     OW19819   3.179   3.002   4.033
 6307SOL    HW119820   3.149   3.084   4.081
 6307SOL    HW219821   3.255   2.959   4.082
 6308SOL     OW19822   0.982   2.223   5.753
 6308SOL    HW119823   1.050   2.218   5.827
 6308SOL    HW219824   1.017   2.175   5.673
 6309SOL     OW19825   0.067   0.381   3.900
 6309SOL    HW119826   7.011   0.332   3.941
 6309SOL    HW219827   0.038   0.424   3.815
 6310SOL     OW19828   2.326   6.357   2.795
 6310SOL    HW119829   2.270   6.430   2.835
 6310SOL    HW219830   2.420   6.390   2.782
 6311SOL     OW19831   4.756   1.762   6.246
 6311SOL    HW119832   4.750   1.665   6.222
 6311SOL    HW219833   4.833   1.803   6.197
 6312SOL     OW19834   1.156   6.583   6.429
 6312SOL    HW119835   1.179   6.663   6.484
 6312SOL    HW219836   1.068   6.598   6.384
 6313SOL     OW19837   6.135   6.709   2.875
 6313SOL    HW119838   6.197   6.764   2.931
 6313SOL    HW219839   6.124   6.618   2.916
 6314SOL     OW19840   3.133   0.582   2.372
 6314SOL    HW119841   3.183   0.571   2.458
 6314SOL    HW219842   3.115   0.492   2.332
 6315SOL     OW19843   2.365   1.429   4.673
 6315SOL    HW119844   2.283   1.449   4.726
 6315SOL    HW219845   2.340   1.416   4.576
 6316SOL     OW19846   4.862   1.908   5.291
 6316SOL    HW119847   4.849   1.809   5.303
 6316SOL    HW219848   4.806   1.957   5.358
 6317SOL     OW19849   4.925   3.606   2.378
 6317SOL    HW119850   4.938   3.508   2.368
 6317SOL    HW219851   4.895   3.646   2.291
 6318SOL     OW19852   4.632   6.917   6.717
 6318SOL    HW119853   4.578   6.904   6.633
 6318SOL    HW219854   4.687   6.835   6.735
 6319SOL     OW19855   0.048   2.276   5.055
 6319SOL    HW119856   0.073   2.310   5.145
 6319SOL    HW219857   0.106   2.198   5.032
 6320SOL     OW19858   7.001   6.760   4.474
 6320SOL    HW119859   6.905   6.784   4.463
 6320SOL    HW219860   0.014   6.724   4.387
 6321SOL     OW19861   4.685   3.020   0.521
 6321SOL    HW119862   4.729   2.977   0.443
 6321SOL    HW219863   4.628   3.096   0.490
 6322SOL     OW19864   3.447   1.767   0.521
 6322SOL    HW119865   3.353   1.777   0.554
 6322SOL    HW219866   3.509   1.764   0.599
 6323SOL     OW19867   1.290   1.744   1.491
 6323SOL    HW119868   1.305   1.830   1.540
 6323SOL    HW219869   1.377   1.694   1.485
 6324SOL     OW19870   4.218   1.918   0.769
 6324SOL    HW119871   4.123   1.939   0.744
 6324SOL    HW219872   4.270   1.894   0.688
 6325SOL     OW19873   2.180   2.878   3.205
 6325SOL    HW119874   2.176   2.949   3.275
 6325SOL    HW219875   2.205   2.790   3.247
 6326SOL     OW19876   5.356   5.463   6.136
 6326SOL    HW119877   5.321   5.371   6.156
 6326SOL    HW219878   5.334   5.486   6.041
 6327SOL     OW19879   0.214   1.518   3.874
 6327SOL    HW119880   0.216   1.555   3.781
 6327SOL    HW219881   0.121   1.490   3.896
 6328SOL     OW19882   4.192   3.588   6.823
 6328SOL    HW119883   4.153   3.627   6.907
 6328SOL    HW219884   4.118   3.567   6.759
 6329SOL     OW19885   1.110   3.353   5.276
 6329SOL    HW119886   1.179   3.364   5.348
 6329SOL    HW219887   1.020   3.343   5.318
 6330SOL     OW19888   5.777   6.652   1.756
 6330SOL    HW119889   5.715   6.727   1.776
 6330SOL    HW219890   5.802   6.654   1.659
 6331SOL     OW19891   6.480   3.446   4.580
 6331SOL    HW119892   6.562   3.499   4.601
 6331SOL    HW219893   6.506   3.352   4.559
 6332SOL     OW19894   0.758   2.851   1.160
 6332SOL    HW119895   0.749   2.827   1.257
 6332SOL    HW219896   0.851   2.882   1.142
 6333SOL     OW19897   4.671   0.108   5.921
 6333SOL    HW119898   4.743   0.047   5.952
 6333SOL    HW219899   4.698   0.153   5.836
 6334SOL     OW19900   3.025   1.255   2.022
 6334SOL    HW119901   2.984   1.344   2.042
 6334SOL    HW219902   3.105   1.240   2.080
 6335SOL     OW19903   4.804   0.790   7.019
 6335SOL    HW119904   4.786   0.726   0.072
 6335SOL    HW219905   4.885   0.758   6.968
 6336SOL     OW19906   0.312   3.503   6.133
 6336SOL    HW119907   0.300   3.427   6.198
 6336SOL    HW219908   0.396   3.488   6.080
 6337SOL     OW19909   3.961   5.608   4.782
 6337SOL    HW119910   3.918   5.603   4.872
 6337SOL    HW219911   3.904   5.559   4.715
 6338SOL     OW19912   3.309   1.998   4.514
 6338SOL    HW119913   3.297   2.039   4.604
 6338SOL    HW219914   3.292   1.899   4.520
 6339SOL     OW19915   1.035   3.726   3.687
 6339SOL    HW119916   1.050   3.737   3.589
 6339SOL    HW219917   0.994   3.809   3.724
 6340SOL     OW19918   2.135   3.728   1.174
 6340SOL    HW119919   2.048   3.767   1.205
 6340SOL    HW219920   2.130   3.709   1.076
 6341SOL     OW19921   0.598   3.788   3.591
 6341SOL    HW119922   0.664   3.862   3.584
 6341SOL    HW219923   0.527   3.799   3.521
 6342SOL     OW19924   3.626   1.544   0.816
 6342SOL    HW119925   3.668   1.488   0.888
 6342SOL    HW219926   3.668   1.521   0.728
 6343SOL     OW19927   4.348   6.953   6.823
 6343SOL    HW119928   4.282   6.896   6.872
 6343SOL    HW219929   4.402   7.005   6.889
 6344SOL     OW19930   5.822   2.148   3.771
 6344SOL    HW119931   5.890   2.084   3.734
 6344SOL    HW219932   5.734   2.102   3.778
 6345SOL     OW19933   4.613   2.753   1.752
 6345SOL    HW119934   4.535   2.752   1.689
 6345SOL    HW219935   4.617   2.841   1.798
 6346SOL     OW19936   6.970   4.928   4.711
 6346SOL    HW119937   6.875   4.921   4.741
 6346SOL    HW219938   0.008   4.912   4.789
 6347SOL     OW19939   1.893   1.465   1.134
 6347SOL    HW119940   1.871   1.385   1.079
 6347SOL    HW219941   1.811   1.520   1.149
 6348SOL     OW19942   1.075   2.731   5.792
 6348SOL    HW119943   0.981   2.749   5.819
 6348SOL    HW219944   1.080   2.642   5.746
 6349SOL     OW19945   1.484   0.823   0.876
 6349SOL    HW119946   1.430   0.821   0.792
 6349SOL    HW219947   1.459   0.746   0.934
 6350SOL     OW19948   1.010   5.120   3.272
 6350SOL    HW119949   1.095   5.068   3.271
 6350SOL    HW219950   0.932   5.059   3.285
 6351SOL     OW19951   6.515   3.607   3.508
 6351SOL    HW119952   6.504   3.544   3.585
 6351SOL    HW219953   6.573   3.565   3.438
 6352SOL     OW19954   2.318   0.363   4.529
 6352SOL    HW119955   2.367   0.431   4.473
 6352SOL    HW219956   2.372   0.280   4.536
 6353SOL     OW19957   2.220   6.143   6.980
 6353SOL    HW119958   2.279   6.066   6.956
 6353SOL    HW219959   2.275   6.217   7.018
 6354SOL     OW19960   3.758   6.024   3.386
 6354SOL    HW119961   3.726   6.117   3.404
 6354SOL    HW219962   3.839   6.027   3.328
 6355SOL     OW19963   2.826   5.777   7.011
 6355SOL    HW119964   2.804   5.690   0.033
 6355SOL    HW219965   2.871   5.759   6.923
 6356SOL     OW19966   5.478   5.194   0.370
 6356SOL    HW119967   5.404   5.138   0.405
 6356SOL    HW219968   5.460   5.290   0.392
 6357SOL     OW19969   6.223   2.785   2.097
 6357SOL    HW119970   6.253   2.842   2.020
 6357SOL    HW219971   6.130   2.810   2.123
 6358SOL     OW19972   0.263   1.931   6.689
 6358SOL    HW119973   0.239   1.874   6.610
 6358SOL    HW219974   0.349   1.979   6.670
 6359SOL     OW19975   6.302   6.348   0.685
 6359SOL    HW119976   6.211   6.389   0.675
 6359SOL    HW219977   6.358   6.407   0.743
 6360SOL     OW19978   0.608   3.781   4.141
 6360SOL    HW119979   0.585   3.826   4.054
 6360SOL    HW219980   0.534   3.794   4.206
 6361SOL     OW19981   0.740   0.902   0.990
 6361SOL    HW119982   0.792   0.823   0.960
 6361SOL    HW219983   0.660   0.872   1.041
 6362SOL     OW19984   1.755   6.008   6.769
 6362SOL    HW119985   1.853   6.026   6.762
 6362SOL    HW219986   1.733   5.921   6.725
 6363SOL     OW19987   3.119   5.219   4.563
 6363SOL    HW119988   3.138   5.124   4.589
 6363SOL    HW219989   3.035   5.222   4.509
 6364SOL     OW19990   2.867   2.742   5.367
 6364SOL    HW119991   2.786   2.699   5.405
 6364SOL    HW219992   2.848   2.773   5.274
 6365SOL     OW19993   5.739   6.368   4.551
 6365SOL    HW119994   5.808   6.297   4.562
 6365SOL    HW219995   5.782   6.458   4.559
 6366SOL     OW19996   0.493   6.113   4.920
 6366SOL    HW119997   0.541   6.098   4.834
 6366SOL    HW219998   0.433   6.035   4.938
 6367SOL     OW19999   3.129   1.991   2.694
 6367SOL    HW120000   3.162   1.977   2.601
 6367SOL    HW220001   3.041   1.945   2.706
 6368SOL     OW20002   4.170   4.825   4.366
 6368SOL    HW120003   4.079   4.854   4.338
 6368SOL    HW220004   4.173   4.815   4.465
 6369SOL     OW20005   1.785   0.241   4.422
 6369SOL    HW120006   1.849   0.165   4.407
 6369SOL    HW220007   1.743   0.267   4.335
 6370SOL     OW20008   5.634   4.101   3.620
 6370SOL    HW120009   5.548   4.099   3.670
 6370SOL    HW220010   5.687   4.019   3.642
 6371SOL     OW20011   5.306   4.142   2.117
 6371SOL    HW120012   5.265   4.221   2.163
 6371SOL    HW220013   5.348   4.082   2.185
 6372SOL     OW20014   1.178   1.702   2.201
 6372SOL    HW120015   1.118   1.658   2.267
 6372SOL    HW220016   1.225   1.779   2.245
 6373SOL     OW20017   5.620   4.453   2.376
 6373SOL    HW120018   5.629   4.392   2.297
 6373SOL    HW220019   5.681   4.422   2.449
 6374SOL     OW20020   5.000   3.472   0.906
 6374SOL    HW120021   4.901   3.476   0.903
 6374SOL    HW220022   5.029   3.382   0.941
 6375SOL     OW20023   0.608   2.137   1.451
 6375SOL    HW120024   0.612   2.197   1.371
 6375SOL    HW220025   0.558   2.053   1.428
 6376SOL     OW20026   3.908   1.513   5.912
 6376SOL    HW120027   3.965   1.520   5.994
 6376SOL    HW220028   3.906   1.418   5.880
 6377SOL     OW20029   0.004   1.393   5.420
 6377SOL    HW120030   0.026   1.344   5.505
 6377SOL    HW220031   0.040   1.486   5.425
 6378SOL     OW20032   5.191   5.379   3.208
 6378SOL    HW120033   5.273   5.418   3.167
 6378SOL    HW220034   5.195   5.279   3.203
 6379SOL     OW20035   0.521   5.210   5.609
 6379SOL    HW120036   0.481   5.269   5.680
 6379SOL    HW220037   0.536   5.119   5.647
 6380SOL     OW20038   6.891   2.559   4.390
 6380SOL    HW120039   6.914   2.620   4.314
 6380SOL    HW220040   6.822   2.493   4.361
 6381SOL     OW20041   4.193   2.531   0.363
 6381SOL    HW120042   4.289   2.506   0.375
 6381SOL    HW220043   4.142   2.506   0.445
 6382SOL     OW20044   3.258   1.590   0.999
 6382SOL    HW120045   3.192   1.539   1.054
 6382SOL    HW220046   3.217   1.674   0.966
 6383SOL     OW20047   1.960   2.835   2.313
 6383SOL    HW120048   1.941   2.738   2.330
 6383SOL    HW220049   2.022   2.843   2.235
 6384SOL     OW20050   6.016   3.264   2.096
 6384SOL    HW120051   6.102   3.286   2.142
 6384SOL    HW220052   5.942   3.263   2.163
 6385SOL     OW20053   6.579   4.137   1.906
 6385SOL    HW120054   6.563   4.052   1.957
 6385SOL    HW220055   6.668   4.133   1.862
 6386SOL     OW20056   1.767   3.728   6.757
 6386SOL    HW120057   1.792   3.742   6.853
 6386SOL    HW220058   1.783   3.812   6.706
 6387SOL     OW20059   6.166   1.214   0.390
 6387SOL    HW120060   6.122   1.126   0.370
 6387SOL    HW220061   6.108   1.265   0.454
 6388SOL     OW20062   5.998   5.374   2.173
 6388SOL    HW120063   5.938   5.408   2.100
 6388SOL    HW220064   6.041   5.451   2.220
 6389SOL     OW20065   0.948   0.113   1.170
 6389SOL    HW120066   0.943   0.208   1.202
 6389SOL    HW220067   0.873   0.060   1.209
 6390SOL     OW20068   6.398   0.009   5.887
 6390SOL    HW120069   6.338   0.019   5.808
 6390SOL    HW220070   6.464   6.957   5.870
 6391SOL     OW20071   1.343   1.013   5.890
 6391SOL    HW120072   1.354   1.008   5.989
 6391SOL    HW220073   1.246   1.008   5.867
 6392SOL     OW20074   2.987   5.940   3.539
 6392SOL    HW120075   2.993   5.980   3.631
 6392SOL    HW220076   2.991   6.014   3.471
 6393SOL     OW20077   6.068   5.902   1.673
 6393SOL    HW120078   6.079   6.002   1.675
 6393SOL    HW220079   6.112   5.862   1.753
 6394SOL     OW20080   2.034   5.222   1.009
 6394SOL    HW120081   2.080   5.294   0.958
 6394SOL    HW220082   2.099   5.148   1.028
 6395SOL     OW20083   6.952   3.001   1.856
 6395SOL    HW120084   6.899   3.060   1.917
 6395SOL    HW220085   6.890   2.954   1.794
 6396SOL     OW20086   6.447   4.085   5.779
 6396SOL    HW120087   6.417   4.173   5.815
 6396SOL    HW220088   6.539   4.094   5.740
 6397SOL     OW20089   6.454   1.524   2.380
 6397SOL    HW120090   6.524   1.452   2.372
 6397SOL    HW220091   6.494   1.612   2.350
 6398SOL     OW20092   2.098   6.842   2.051
 6398SOL    HW120093   2.104   6.743   2.034
 6398SOL    HW220094   2.189   6.883   2.039
 6399SOL     OW20095   1.549   0.236   6.658
 6399SOL    HW120096   1.489   0.182   6.718
 6399SOL    HW220097   1.507   0.244   6.567
 6400SOL     OW20098   2.032   4.978   2.416
 6400SOL    HW120099   1.967   5.005   2.487
 6400SOL    HW220100   1.988   4.980   2.327
 6401SOL     OW20101   5.444   5.064   3.143
 6401SOL    HW120102   5.454   5.142   3.081
 6401SOL    HW220103   5.509   4.992   3.118
 6402SOL     OW20104   2.093   2.918   3.892
 6402SOL    HW120105   2.063   2.823   3.889
 6402SOL    HW220106   2.085   2.953   3.985
 6403SOL     OW20107   6.255   6.092   6.419
 6403SOL    HW120108   6.348   6.101   6.455
 6403SOL    HW220109   6.245   6.150   6.338
 6404SOL     OW20110   3.873   1.541   2.749
 6404SOL    HW120111   3.871   1.640   2.735
 6404SOL    HW220112   3.967   1.509   2.743
 6405SOL     OW20113   4.408   1.121   4.447
 6405SOL    HW120114   4.331   1.117   4.384
 6405SOL    HW220115   4.472   1.046   4.427
 6406SOL     OW20116   1.619   3.189   1.875
 6406SOL    HW120117   1.542   3.222   1.819
 6406SOL    HW220118   1.699   3.175   1.817
 6407SOL     OW20119   2.224   0.053   3.444
 6407SOL    HW120120   2.223   6.976   3.457
 6407SOL    HW220121   2.246   0.073   3.348
 6408SOL     OW20122   5.757   0.489   0.558
 6408SOL    HW120123   5.856   0.481   0.563
 6408SOL    HW220124   5.718   0.495   0.650
 6409SOL     OW20125   6.841   4.940   2.795
 6409SOL    HW120126   6.854   4.937   2.696
 6409SOL    HW220127   6.849   5.035   2.826
 6410SOL     OW20128   2.005   1.208   6.383
 6410SOL    HW120129   2.034   1.273   6.453
 6410SOL    HW220130   2.052   1.121   6.396
 6411SOL     OW20131   1.182   3.005   2.260
 6411SOL    HW120132   1.178   3.042   2.167
 6411SOL    HW220133   1.159   2.907   2.257
 6412SOL     OW20134   2.467   0.564   6.813
 6412SOL    HW120135   2.413   0.636   6.770
 6412SOL    HW220136   2.553   0.553   6.764
 6413SOL     OW20137   3.698   4.929   4.495
 6413SOL    HW120138   3.720   4.852   4.554
 6413SOL    HW220139   3.599   4.937   4.485
 6414SOL     OW20140   6.164   0.004   7.003
 6414SOL    HW120141   6.196   0.037   6.915
 6414SOL    HW220142   6.225   0.035   0.054
 6415SOL     OW20143   1.769   3.350   4.277
 6415SOL    HW120144   1.768   3.287   4.355
 6415SOL    HW220145   1.677   3.388   4.263
 6416SOL     OW20146   2.461   6.878   6.380
 6416SOL    HW120147   2.428   6.807   6.443
 6416SOL    HW220148   2.555   6.858   6.354
 6417SOL     OW20149   4.848   2.822   0.659
 6417SOL    HW120150   4.842   2.830   0.758
 6417SOL    HW220151   4.787   2.890   0.616
 6418SOL     OW20152   5.223   4.363   2.943
 6418SOL    HW120153   5.302   4.310   2.971
 6418SOL    HW220154   5.237   4.459   2.968
 6419SOL     OW20155   1.378   5.124   4.129
 6419SOL    HW120156   1.375   5.155   4.034
 6419SOL    HW220157   1.297   5.070   4.150
 6420SOL     OW20158   2.004   1.356   3.857
 6420SOL    HW120159   1.965   1.403   3.777
 6420SOL    HW220160   2.071   1.288   3.826
 6421SOL     OW20161   4.282   0.857   1.134
 6421SOL    HW120162   4.326   0.830   1.220
 6421SOL    HW220163   4.185   0.835   1.139
 6422SOL     OW20164   6.763   1.836   5.071
 6422SOL    HW120165   6.720   1.747   5.054
 6422SOL    HW220166   6.726   1.904   5.008
 6423SOL     OW20167   4.594   5.868   4.580
 6423SOL    HW120168   4.656   5.792   4.561
 6423SOL    HW220169   4.618   5.946   4.523
 6424SOL     OW20170   1.582   3.930   4.980
 6424SOL    HW120171   1.529   3.983   5.046
 6424SOL    HW220172   1.649   3.990   4.936
 6425SOL     OW20173   0.046   5.591   3.019
 6425SOL    HW120174   0.110   5.666   3.003
 6425SOL    HW220175   6.978   5.616   2.983
 6426SOL     OW20176   5.682   5.317   3.764
 6426SOL    HW120177   5.752   5.248   3.783
 6426SOL    HW220178   5.711   5.406   3.799
 6427SOL     OW20179   2.902   3.689   3.399
 6427SOL    HW120180   2.916   3.684   3.498
 6427SOL    HW220181   2.915   3.784   3.368
 6428SOL     OW20182   5.208   3.509   0.333
 6428SOL    HW120183   5.196   3.424   0.281
 6428SOL    HW220184   5.275   3.495   0.405
 6429SOL     OW20185   0.649   0.703   6.154
 6429SOL    HW120186   0.741   0.738   6.173
 6429SOL    HW220187   0.647   0.604   6.168
 6430SOL     OW20188   6.718   0.638   4.682
 6430SOL    HW120189   6.718   0.539   4.666
 6430SOL    HW220190   6.627   0.667   4.711
 6431SOL     OW20191   4.631   5.575   2.896
 6431SOL    HW120192   4.681   5.661   2.910
 6431SOL    HW220193   4.668   5.527   2.817
 6432SOL     OW20194   3.698   4.364   6.072
 6432SOL    HW120195   3.783   4.386   6.119
 6432SOL    HW220196   3.678   4.435   6.004
 6433SOL     OW20197   3.399   4.899   0.187
 6433SOL    HW120198   3.312   4.935   0.219
 6433SOL    HW220199   3.383   4.830   0.116
 6434SOL     OW20200   2.685   6.914   6.125
 6434SOL    HW120201   2.717   6.867   6.207
 6434SOL    HW220202   2.654   6.846   6.058
 6435SOL     OW20203   6.104   0.155   0.997
 6435SOL    HW120204   6.064   0.242   0.966
 6435SOL    HW220205   6.202   0.156   0.981
 6436SOL     OW20206   1.211   3.609   3.386
 6436SOL    HW120207   1.205   3.513   3.414
 6436SOL    HW220208   1.133   3.631   3.327
 6437SOL     OW20209   1.483   2.715   6.692
 6437SOL    HW120210   1.531   2.687   6.609
 6437SOL    HW220211   1.384   2.712   6.676
 6438SOL     OW20212   0.768   4.881   6.149
 6438SOL    HW120213   0.696   4.811   6.144
 6438SOL    HW220214   0.812   4.888   6.059
 6439SOL     OW20215   5.304   1.006   2.761
 6439SOL    HW120216   5.325   0.921   2.712
 6439SOL    HW220217   5.263   0.985   2.849
 6440SOL     OW20218   2.823   0.383   6.124
 6440SOL    HW120219   2.922   0.390   6.118
 6440SOL    HW220220   2.788   0.335   6.043
 6441SOL     OW20221   0.732   0.910   1.590
 6441SOL    HW120222   0.785   0.839   1.635
 6441SOL    HW220223   0.676   0.869   1.517
 6442SOL     OW20224   2.866   1.652   4.733
 6442SOL    HW120225   2.946   1.643   4.674
 6442SOL    HW220226   2.789   1.602   4.694
 6443SOL     OW20227   3.575   2.248   6.043
 6443SOL    HW120228   3.571   2.196   6.128
 6443SOL    HW220229   3.483   2.261   6.007
 6444SOL     OW20230   6.175   2.448   4.487
 6444SOL    HW120231   6.132   2.500   4.560
 6444SOL    HW220232   6.198   2.356   4.521
 6445SOL     OW20233   3.932   3.397   3.379
 6445SOL    HW120234   3.837   3.368   3.369
 6445SOL    HW220235   3.978   3.341   3.448
 6446SOL     OW20236   0.141   2.226   0.180
 6446SOL    HW120237   0.220   2.167   0.167
 6446SOL    HW220238   0.075   2.182   0.241
 6447SOL     OW20239   6.131   4.429   1.561
 6447SOL    HW120240   6.047   4.437   1.508
 6447SOL    HW220241   6.210   4.434   1.500
 6448SOL     OW20242   5.169   4.806   1.495
 6448SOL    HW120243   5.079   4.769   1.519
 6448SOL    HW220244   5.192   4.880   1.558
 6449SOL     OW20245   2.912   5.254   1.843
 6449SOL    HW120246   2.816   5.227   1.834
 6449SOL    HW220247   2.965   5.177   1.880
 6450SOL     OW20248   0.833   4.129   0.241
 6450SOL    HW120249   0.737   4.117   0.218
 6450SOL    HW220250   0.866   4.048   0.290
 6451SOL     OW20251   2.772   1.321   5.984
 6451SOL    HW120252   2.845   1.264   5.948
 6451SOL    HW220253   2.685   1.271   5.980
 6452SOL     OW20254   4.792   4.277   2.459
 6452SOL    HW120255   4.723   4.327   2.407
 6452SOL    HW220256   4.832   4.206   2.400
 6453SOL     OW20257   2.313   0.177   1.577
 6453SOL    HW120258   2.305   0.274   1.555
 6453SOL    HW220259   2.228   0.130   1.552
 6454SOL     OW20260   0.659   1.530   2.851
 6454SOL    HW120261   0.581   1.508   2.793
 6454SOL    HW220262   0.650   1.483   2.939
 6455SOL     OW20263   6.559   2.989   3.519
 6455SOL    HW120264   6.618   2.977   3.599
 6455SOL    HW220265   6.603   3.053   3.455
 6456SOL     OW20266   1.599   0.823   2.781
 6456SOL    HW120267   1.677   0.884   2.762
 6456SOL    HW220268   1.587   0.760   2.705
 6457SOL     OW20269   5.185   6.525   1.264
 6457SOL    HW120270   5.089   6.541   1.290
 6457SOL    HW220271   5.228   6.465   1.332
 6458SOL     OW20272   1.611   5.122   4.784
 6458SOL    HW120273   1.637   5.062   4.707
 6458SOL    HW220274   1.693   5.167   4.818
 6459SOL     OW20275   6.264   2.725   2.638
 6459SOL    HW120276   6.173   2.747   2.603
 6459SOL    HW220277   6.314   2.671   2.570
 6460SOL     OW20278   5.641   5.760   5.772
 6460SOL    HW120279   5.681   5.843   5.810
 6460SOL    HW220280   5.550   5.746   5.810
 6461SOL     OW20281   2.708   4.243   0.234
 6461SOL    HW120282   2.713   4.253   0.334
 6461SOL    HW220283   2.756   4.320   0.191
 6462SOL     OW20284   0.530   3.069   4.390
 6462SOL    HW120285   0.440   3.052   4.430
 6462SOL    HW220286   0.560   2.988   4.339
 6463SOL     OW20287   5.173   6.607   0.724
 6463SOL    HW120288   5.151   6.691   0.675
 6463SOL    HW220289   5.224   6.628   0.807
 6464SOL     OW20290   1.648   5.951   5.118
 6464SOL    HW120291   1.687   6.043   5.111
 6464SOL    HW220292   1.658   5.918   5.212
 6465SOL     OW20293   6.760   3.101   2.695
 6465SOL    HW120294   6.787   3.026   2.635
 6465SOL    HW220295   6.786   3.079   2.789
 6466SOL     OW20296   6.483   1.817   7.003
 6466SOL    HW120297   6.457   1.890   6.940
 6466SOL    HW220298   6.413   1.806   0.051
 6467SOL     OW20299   3.874   0.286   1.028
 6467SOL    HW120300   3.930   0.287   0.945
 6467SOL    HW220301   3.932   0.272   1.108
 6468SOL     OW20302   3.356   6.510   1.764
 6468SOL    HW120303   3.452   6.506   1.736
 6468SOL    HW220304   3.333   6.430   1.819
 6469SOL     OW20305   3.803   2.106   3.747
 6469SOL    HW120306   3.705   2.098   3.728
 6469SOL    HW220307   3.817   2.119   3.845
 6470SOL     OW20308   5.819   2.645   0.714
 6470SOL    HW120309   5.751   2.661   0.643
 6470SOL    HW220310   5.781   2.585   0.784
 6471SOL     OW20311   0.895   6.359   5.704
 6471SOL    HW120312   0.977   6.410   5.733
 6471SOL    HW220313   0.860   6.306   5.781
 6472SOL     OW20314   6.535   5.621   2.705
 6472SOL    HW120315   6.466   5.651   2.639
 6472SOL    HW220316   6.579   5.701   2.746
 6473SOL     OW20317   1.710   1.651   5.604
 6473SOL    HW120318   1.659   1.656   5.518
 6473SOL    HW220319   1.796   1.602   5.589
 6474SOL     OW20320   3.721   5.521   5.854
 6474SOL    HW120321   3.717   5.566   5.943
 6474SOL    HW220322   3.636   5.540   5.804
 6475SOL     OW20323   5.938   4.286   3.916
 6475SOL    HW120324   5.903   4.295   3.823
 6475SOL    HW220325   6.010   4.353   3.931
 6476SOL     OW20326   4.499   3.115   6.677
 6476SOL    HW120327   4.502   3.015   6.683
 6476SOL    HW220328   4.473   3.142   6.584
 6477SOL     OW20329   5.888   5.310   1.106
 6477SOL    HW120330   5.853   5.341   1.194
 6477SOL    HW220331   5.926   5.218   1.115
 6478SOL     OW20332   3.453   6.831   2.532
 6478SOL    HW120333   3.527   6.768   2.554
 6478SOL    HW220334   3.466   6.916   2.582
 6479SOL     OW20335   3.579   5.230   4.681
 6479SOL    HW120336   3.608   5.210   4.587
 6479SOL    HW220337   3.533   5.319   4.684
 6480SOL     OW20338   2.000   1.375   6.580
 6480SOL    HW120339   1.942   1.456   6.586
 6480SOL    HW220340   2.055   1.367   6.663
 6481SOL     OW20341   3.383   2.661   1.705
 6481SOL    HW120342   3.381   2.563   1.687
 6481SOL    HW220343   3.422   2.708   1.626
 6482SOL     OW20344   6.438   2.395   6.886
 6482SOL    HW120345   6.347   2.375   6.922
 6482SOL    HW220346   6.442   2.490   6.856
 6483SOL     OW20347   0.472   6.504   3.891
 6483SOL    HW120348   0.374   6.502   3.872
 6483SOL    HW220349   0.489   6.474   3.985
 6484SOL     OW20350   3.266   0.934   2.503
 6484SOL    HW120351   3.259   0.845   2.549
 6484SOL    HW220352   3.199   0.997   2.543
 6485SOL     OW20353   1.927   5.791   3.747
 6485SOL    HW120354   2.000   5.762   3.808
 6485SOL    HW220355   1.967   5.836   3.667
 6486SOL     OW20356   0.804   5.522   2.377
 6486SOL    HW120357   0.752   5.453   2.428
 6486SOL    HW220358   0.765   5.532   2.285
 6487SOL     OW20359   1.131   6.494   5.739
 6487SOL    HW120360   1.176   6.570   5.786
 6487SOL    HW220361   1.179   6.409   5.762
 6488SOL     OW20362   4.034   5.872   4.701
 6488SOL    HW120363   4.132   5.890   4.708
 6488SOL    HW220364   4.015   5.780   4.734
 6489SOL     OW20365   3.248   3.170   6.358
 6489SOL    HW120366   3.286   3.220   6.280
 6489SOL    HW220367   3.153   3.196   6.372
 6490SOL     OW20368   2.752   1.036   6.349
 6490SOL    HW120369   2.849   1.019   6.367
 6490SOL    HW220370   2.729   1.129   6.378
 6491SOL     OW20371   3.087   0.789   1.568
 6491SOL    HW120372   3.020   0.816   1.637
 6491SOL    HW220373   3.113   0.694   1.582
 6492SOL     OW20374   3.814   3.530   4.822
 6492SOL    HW120375   3.879   3.482   4.763
 6492SOL    HW220376   3.748   3.579   4.766
 6493SOL     OW20377   0.999   4.356   6.216
 6493SOL    HW120378   1.093   4.328   6.234
 6493SOL    HW220379   0.991   4.390   6.123
 6494SOL     OW20380   6.938   6.487   2.713
 6494SOL    HW120381   7.009   6.501   2.645
 6494SOL    HW220382   6.909   6.575   2.750
 6495SOL     OW20383   6.709   1.036   4.432
 6495SOL    HW120384   6.711   1.090   4.348
 6495SOL    HW220385   6.667   0.947   4.413
 6496SOL     OW20386   5.936   0.277   1.862
 6496SOL    HW120387   5.891   0.258   1.950
 6496SOL    HW220388   5.887   0.349   1.814
 6497SOL     OW20389   1.337   0.627   1.322
 6497SOL    HW120390   1.336   0.530   1.345
 6497SOL    HW220391   1.244   0.664   1.329
 6498SOL     OW20392   0.775   3.824   4.526
 6498SOL    HW120393   0.845   3.761   4.492
 6498SOL    HW220394   0.690   3.810   4.474
 6499SOL     OW20395   5.723   3.925   4.775
 6499SOL    HW120396   5.796   3.986   4.745
 6499SOL    HW220397   5.676   3.965   4.855
 6500SOL     OW20398   0.270   3.970   2.695
 6500SOL    HW120399   0.329   3.930   2.764
 6500SOL    HW220400   0.324   4.026   2.632
 6501SOL     OW20401   0.364   0.847   0.751
 6501SOL    HW120402   0.332   0.941   0.754
 6501SOL    HW220403   0.289   0.785   0.776
 6502SOL     OW20404   0.265   3.515   1.728
 6502SOL    HW120405   0.241   3.489   1.822
 6502SOL    HW220406   0.322   3.596   1.729
 6503SOL     OW20407   5.611   0.958   3.854
 6503SOL    HW120408   5.657   1.005   3.929
 6503SOL    HW220409   5.638   0.999   3.767
 6504SOL     OW20410   3.527   6.217   6.405
 6504SOL    HW120411   3.484   6.301   6.373
 6504SOL    HW220412   3.487   6.190   6.492
 6505SOL     OW20413   4.810   6.045   5.828
 6505SOL    HW120414   4.724   5.996   5.838
 6505SOL    HW220415   4.801   6.114   5.756
 6506SOL     OW20416   7.018   2.544   3.616
 6506SOL    HW120417   6.935   2.489   3.611
 6506SOL    HW220418   6.997   2.637   3.585
 6507SOL     OW20419   2.695   5.860   5.753
 6507SOL    HW120420   2.642   5.784   5.790
 6507SOL    HW220421   2.645   5.903   5.677
 6508SOL     OW20422   1.837   0.354   2.877
 6508SOL    HW120423   1.852   0.306   2.964
 6508SOL    HW220424   1.877   0.301   2.802
 6509SOL     OW20425   4.831   1.788   4.746
 6509SOL    HW120426   4.874   1.878   4.737
 6509SOL    HW220427   4.828   1.743   4.657
 6510SOL     OW20428   5.223   5.156   6.718
 6510SOL    HW120429   5.307   5.133   6.766
 6510SOL    HW220430   5.222   5.255   6.700
 6511SOL     OW20431   4.874   1.420   5.254
 6511SOL    HW120432   4.962   1.393   5.215
 6511SOL    HW220433   4.829   1.340   5.294
 6512SOL     OW20434   3.253   6.661   2.624
 6512SOL    HW120435   3.213   6.606   2.551
 6512SOL    HW220436   3.314   6.730   2.583
 6513SOL     OW20437   1.558   5.973   3.774
 6513SOL    HW120438   1.652   6.006   3.782
 6513SOL    HW220439   1.500   6.046   3.738
 6514SOL     OW20440   5.976   1.412   4.501
 6514SOL    HW120441   5.956   1.328   4.551
 6514SOL    HW220442   5.995   1.390   4.405
 6515SOL     OW20443   1.585   3.458   2.974
 6515SOL    HW120444   1.656   3.393   2.948
 6515SOL    HW220445   1.514   3.410   3.025
 6516SOL     OW20446   6.669   2.792   1.342
 6516SOL    HW120447   6.734   2.718   1.323
 6516SOL    HW220448   6.707   2.878   1.310
 6517SOL     OW20449   6.981   1.785   1.225
 6517SOL    HW120450   6.939   1.732   1.151
 6517SOL    HW220451   7.014   1.872   1.189
 6518SOL     OW20452   0.397   0.686   2.013
 6518SOL    HW120453   0.425   0.732   2.097
 6518SOL    HW220454   0.478   0.663   1.958
 6519SOL     OW20455   0.363   1.952   2.812
 6519SOL    HW120456   0.462   1.953   2.825
 6519SOL    HW220457   0.338   1.870   2.761
 6520SOL     OW20458   0.446   5.652   6.784
 6520SOL    HW120459   0.425   5.561   6.819
 6520SOL    HW220460   0.394   5.669   6.700
 6521SOL     OW20461   2.045   2.638   4.211
 6521SOL    HW120462   1.962   2.584   4.193
 6521SOL    HW220463   2.019   2.728   4.247
 6522SOL     OW20464   2.472   4.512   4.812
 6522SOL    HW120465   2.466   4.590   4.749
 6522SOL    HW220466   2.481   4.428   4.759
 6523SOL     OW20467   3.722   0.500   6.501
 6523SOL    HW120468   3.740   0.599   6.505
 6523SOL    HW220469   3.628   0.483   6.532
 6524SOL     OW20470   3.010   2.742   1.510
 6524SOL    HW120471   3.032   2.685   1.431
 6524SOL    HW220472   2.965   2.687   1.580
 6525SOL     OW20473   2.008   4.880   2.990
 6525SOL    HW120474   1.945   4.817   3.036
 6525SOL    HW220475   1.991   4.878   2.891
 6526SOL     OW20476   0.838   0.353   1.258
 6526SOL    HW120477   0.779   0.294   1.313
 6526SOL    HW220478   0.905   0.397   1.318
 6527SOL     OW20479   6.747   1.903   0.040
 6527SOL    HW120480   6.739   1.965   6.984
 6527SOL    HW220481   6.666   1.844   0.045
 6528SOL     OW20482   6.509   1.671   5.253
 6528SOL    HW120483   6.584   1.606   5.245
 6528SOL    HW220484   6.501   1.702   5.347
 6529SOL     OW20485   1.208   0.061   2.481
 6529SOL    HW120486   1.249   6.992   2.488
 6529SOL    HW220487   1.231   0.114   2.562
 6530SOL     OW20488   0.332   1.703   0.939
 6530SOL    HW120489   0.272   1.781   0.922
 6530SOL    HW220490   0.355   1.698   1.036
 6531SOL     OW20491   4.897   3.303   4.930
 6531SOL    HW120492   4.984   3.286   4.978
 6531SOL    HW220493   4.858   3.389   4.963
 6532SOL     OW20494   1.570   1.415   1.295
 6532SOL    HW120495   1.543   1.345   1.229
 6532SOL    HW220496   1.599   1.497   1.246
 6533SOL     OW20497   4.167   5.809   0.367
 6533SOL    HW120498   4.214   5.896   0.379
 6533SOL    HW220499   4.230   5.741   0.330
 6534SOL     OW20500   5.220   5.007   1.664
 6534SOL    HW120501   5.163   5.083   1.636
 6534SOL    HW220502   5.239   5.013   1.762
 6535SOL     OW20503   6.156   4.595   4.286
 6535SOL    HW120504   6.133   4.639   4.199
 6535SOL    HW220505   6.239   4.635   4.324
 6536SOL     OW20506   0.334   1.639   4.988
 6536SOL    HW120507   0.247   1.591   4.985
 6536SOL    HW220508   0.342   1.700   4.909
 6537SOL     OW20509   6.661   4.497   5.350
 6537SOL    HW120510   6.591   4.515   5.419
 6537SOL    HW220511   6.751   4.521   5.387
 6538SOL     OW20512   1.594   3.459   6.150
 6538SOL    HW120513   1.520   3.397   6.124
 6538SOL    HW220514   1.681   3.411   6.143
 6539SOL     OW20515   5.297   0.218   6.732
 6539SOL    HW120516   5.225   0.202   6.800
 6539SOL    HW220517   5.325   0.314   6.735
 6540SOL     OW20518   3.623   2.912   6.217
 6540SOL    HW120519   3.656   2.818   6.210
 6540SOL    HW220520   3.534   2.912   6.263
 6541SOL     OW20521   5.393   1.954   5.710
 6541SOL    HW120522   5.367   2.038   5.663
 6541SOL    HW220523   5.318   1.888   5.703
 6542SOL     OW20524   1.053   3.221   3.900
 6542SOL    HW120525   0.985   3.260   3.963
 6542SOL    HW220526   1.021   3.132   3.867
 6543SOL     OW20527   4.169   2.412   5.805
 6543SOL    HW120528   4.095   2.470   5.772
 6543SOL    HW220529   4.250   2.468   5.822
 6544SOL     OW20530   1.343   6.660   3.342
 6544SOL    HW120531   1.269   6.727   3.347
 6544SOL    HW220532   1.309   6.575   3.301
 6545SOL     OW20533   4.379   0.673   0.181
 6545SOL    HW120534   4.461   0.650   0.128
 6545SOL    HW220535   4.324   0.739   0.130
 6546SOL     OW20536   3.006   4.137   6.204
 6546SOL    HW120537   3.015   4.221   6.151
 6546SOL    HW220538   3.044   4.151   6.296
 6547SOL     OW20539   4.891   0.524   6.647
 6547SOL    HW120540   4.899   0.433   6.687
 6547SOL    HW220541   4.823   0.577   6.698
 6548SOL     OW20542   1.106   3.092   0.590
 6548SOL    HW120543   1.167   3.150   0.535
 6548SOL    HW220544   1.011   3.114   0.569
 6549SOL     OW20545   4.324   0.496   2.221
 6549SOL    HW120546   4.273   0.514   2.137
 6549SOL    HW220547   4.266   0.444   2.284
 6550SOL     OW20548   0.438   7.021   4.174
 6550SOL    HW120549   0.469   6.984   4.086
 6550SOL    HW220550   0.510   0.055   4.214
 6551SOL     OW20551   2.070   3.646   1.840
 6551SOL    HW120552   2.039   3.587   1.765
 6551SOL    HW220553   2.134   3.596   1.898
 6552SOL     OW20554   2.187   6.580   0.174
 6552SOL    HW120555   2.103   6.632   0.191
 6552SOL    HW220556   2.208   6.524   0.254
 6553SOL     OW20557   0.659   2.558   3.181
 6553SOL    HW120558   0.581   2.496   3.177
 6553SOL    HW220559   0.643   2.628   3.250
 6554SOL     OW20560   1.469   0.164   4.445
 6554SOL    HW120561   1.481   0.211   4.358
 6554SOL    HW220562   1.479   0.229   4.520
 6555SOL     OW20563   5.752   2.090   3.049
 6555SOL    HW120564   5.830   2.153   3.058
 6555SOL    HW220565   5.693   2.097   3.129
 6556SOL     OW20566   6.005   3.805   3.263
 6556SOL    HW120567   5.994   3.711   3.297
 6556SOL    HW220568   6.055   3.803   3.177
 6557SOL     OW20569   2.594   0.755   3.387
 6557SOL    HW120570   2.539   0.838   3.391
 6557SOL    HW220571   2.691   0.779   3.379
 6558SOL     OW20572   6.069   5.527   6.714
 6558SOL    HW120573   6.010   5.588   6.662
 6558SOL    HW220574   6.013   5.465   6.769
 6559SOL     OW20575   0.133   4.512   6.729
 6559SOL    HW120576   0.132   4.570   6.648
 6559SOL    HW220577   0.088   4.425   6.709
 6560SOL     OW20578   3.930   4.584   1.522
 6560SOL    HW120579   3.924   4.586   1.422
 6560SOL    HW220580   3.865   4.648   1.561
 6561SOL     OW20581   3.288   4.174   1.300
 6561SOL    HW120582   3.309   4.118   1.220
 6561SOL    HW220583   3.189   4.171   1.317
 6562SOL     OW20584   5.330   2.170   1.085
 6562SOL    HW120585   5.388   2.148   1.163
 6562SOL    HW220586   5.286   2.258   1.099
 6563SOL     OW20587   5.253   6.100   6.090
 6563SOL    HW120588   5.302   6.184   6.067
 6563SOL    HW220589   5.318   6.026   6.104
 6564SOL     OW20590   6.527   3.874   2.047
 6564SOL    HW120591   6.431   3.847   2.039
 6564SOL    HW220592   6.585   3.793   2.037
 6565SOL     OW20593   6.308   0.530   3.117
 6565SOL    HW120594   6.399   0.541   3.078
 6565SOL    HW220595   6.282   0.433   3.113
 6566SOL     OW20596   3.729   6.554   3.077
 6566SOL    HW120597   3.646   6.525   3.125
 6566SOL    HW220598   3.738   6.503   2.991
 6567SOL     OW20599   4.856   0.680   2.113
 6567SOL    HW120600   4.953   0.684   2.088
 6567SOL    HW220601   4.801   0.717   2.038
 6568SOL     OW20602   3.661   1.805   3.566
 6568SOL    HW120603   3.614   1.887   3.534
 6568SOL    HW220604   3.713   1.765   3.490
 6569SOL     OW20605   2.751   3.161   0.061
 6569SOL    HW120606   2.840   3.205   0.079
 6569SOL    HW220607   2.742   3.080   0.120
 6570SOL     OW20608   3.585   1.061   2.134
 6570SOL    HW120609   3.675   1.076   2.175
 6570SOL    HW220610   3.595   1.005   2.052
 6571SOL     OW20611   3.027   4.898   2.464
 6571SOL    HW120612   2.961   4.871   2.534
 6571SOL    HW220613   2.998   4.862   2.375
 6572SOL     OW20614   0.027   4.282   3.814
 6572SOL    HW120615   0.091   4.206   3.820
 6572SOL    HW220616   7.021   4.310   3.906
 6573SOL     OW20617   0.614   2.159   2.328
 6573SOL    HW120618   0.688   2.106   2.287
 6573SOL    HW220619   0.619   2.254   2.297
 6574SOL     OW20620   2.589   5.879   2.966
 6574SOL    HW120621   2.554   5.786   2.956
 6574SOL    HW220622   2.609   5.917   2.876
 6575SOL     OW20623   0.965   0.040   3.925
 6575SOL    HW120624   0.929   6.969   3.919
 6575SOL    HW220625   1.065   0.037   3.926
 6576SOL     OW20626   3.119   6.251   0.552
 6576SOL    HW120627   3.146   6.159   0.579
 6576SOL    HW220628   3.034   6.276   0.599
 6577SOL     OW20629   1.132   1.802   3.430
 6577SOL    HW120630   1.184   1.817   3.346
 6577SOL    HW220631   1.131   1.886   3.485
 6578SOL     OW20632   0.839   6.002   1.979
 6578SOL    HW120633   0.876   5.991   2.071
 6578SOL    HW220634   0.896   6.067   1.928
 6579SOL     OW20635   6.455   2.498   3.549
 6579SOL    HW120636   6.510   2.438   3.607
 6579SOL    HW220637   6.358   2.481   3.568
 6580SOL     OW20638   0.638   2.040   0.618
 6580SOL    HW120639   0.605   2.135   0.619
 6580SOL    HW220640   0.730   2.038   0.577
 6581SOL     OW20641   2.540   0.551   0.738
 6581SOL    HW120642   2.620   0.601   0.770
 6581SOL    HW220643   2.463   0.614   0.727
 6582SOL     OW20644   0.266   0.984   3.420
 6582SOL    HW120645   0.248   0.987   3.322
 6582SOL    HW220646   0.196   1.034   3.469
 6583SOL     OW20647   4.711   6.509   5.444
 6583SOL    HW120648   4.740   6.456   5.365
 6583SOL    HW220649   4.676   6.447   5.515
 6584SOL     OW20650   4.244   1.713   6.918
 6584SOL    HW120651   4.226   1.696   7.015
 6584SOL    HW220652   4.213   1.634   6.865
 6585SOL     OW20653   6.237   5.781   0.366
 6585SOL    HW120654   6.233   5.753   0.271
 6585SOL    HW220655   6.324   5.752   0.407
 6586SOL     OW20656   6.352   1.520   5.834
 6586SOL    HW120657   6.372   1.498   5.930
 6586SOL    HW220658   6.317   1.438   5.788
 6587SOL     OW20659   1.206   4.736   6.565
 6587SOL    HW120660   1.185   4.832   6.579
 6587SOL    HW220661   1.143   4.679   6.618
 6588SOL     OW20662   0.714   2.735   1.429
 6588SOL    HW120663   0.732   2.643   1.462
 6588SOL    HW220664   0.755   2.801   1.492
 6589SOL     OW20665   4.568   0.338   1.766
 6589SOL    HW120666   4.660   0.368   1.740
 6589SOL    HW220667   4.528   0.404   1.829
 6590SOL     OW20668   0.194   1.161   6.255
 6590SOL    HW120669   0.280   1.181   6.302
 6590SOL    HW220670   0.194   1.067   6.223
 6591SOL     OW20671   5.120   5.714   3.695
 6591SOL    HW120672   5.112   5.615   3.682
 6591SOL    HW220673   5.110   5.760   3.606
 6592SOL     OW20674   5.641   6.402   2.960
 6592SOL    HW120675   5.688   6.376   3.044
 6592SOL    HW220676   5.564   6.462   2.981
 6593SOL     OW20677   2.545   2.407   2.523
 6593SOL    HW120678   2.641   2.403   2.550
 6593SOL    HW220679   2.538   2.398   2.424
 6594SOL     OW20680   3.538   1.297   4.975
 6594SOL    HW120681   3.627   1.267   4.941
 6594SOL    HW220682   3.513   1.384   4.931
 6595SOL     OW20683   0.884   4.103   6.238
 6595SOL    HW120684   0.920   4.196   6.251
 6595SOL    HW220685   0.940   4.055   6.170
 6596SOL     OW20686   3.478   0.317   4.475
 6596SOL    HW120687   3.443   0.345   4.386
 6596SOL    HW220688   3.432   0.233   4.504
 6597SOL     OW20689   1.609   4.996   1.889
 6597SOL    HW120690   1.697   5.018   1.848
 6597SOL    HW220691   1.618   4.915   1.947
 6598SOL     OW20692   1.902   4.692   3.627
 6598SOL    HW120693   1.900   4.728   3.534
 6598SOL    HW220694   1.969   4.743   3.681
 6599SOL     OW20695   4.324   6.372   6.357
 6599SOL    HW120696   4.291   6.292   6.407
 6599SOL    HW220697   4.421   6.360   6.335
 6600SOL     OW20698   3.663   6.464   5.119
 6600SOL    HW120699   3.730   6.518   5.171
 6600SOL    HW220700   3.603   6.525   5.068
 6601SOL     OW20701   0.769   2.408   4.447
 6601SOL    HW120702   0.790   2.394   4.351
 6601SOL    HW220703   0.673   2.436   4.456
 6602SOL     OW20704   1.675   0.512   1.202
 6602SOL    HW120705   1.757   0.456   1.191
 6602SOL    HW220706   1.621   0.478   1.279
 6603SOL     OW20707   0.946   2.967   3.794
 6603SOL    HW120708   0.994   2.924   3.871
 6603SOL    HW220709   0.934   2.900   3.721
 6604SOL     OW20710   1.517   6.701   1.447
 6604SOL    HW120711   1.602   6.711   1.395
 6604SOL    HW220712   1.514   6.770   1.520
 6605SOL     OW20713   5.448   5.221   2.209
 6605SOL    HW120714   5.435   5.143   2.148
 6605SOL    HW220715   5.465   5.188   2.302
 6606SOL     OW20716   6.743   5.599   2.187
 6606SOL    HW120717   6.826   5.564   2.142
 6606SOL    HW220718   6.755   5.696   2.207
 6607SOL     OW20719   1.339   4.596   3.368
 6607SOL    HW120720   1.240   4.596   3.384
 6607SOL    HW220721   1.375   4.689   3.380
 6608SOL     OW20722   0.120   6.402   6.796
 6608SOL    HW120723   0.165   6.325   6.842
 6608SOL    HW220724   0.022   6.400   6.817
 6609SOL     OW20725   5.637   0.583   6.906
 6609SOL    HW120726   5.664   0.488   6.891
 6609SOL    HW220727   5.546   0.598   6.867
 6610SOL     OW20728   2.606   6.474   7.020
 6610SOL    HW120729   2.573   6.479   6.926
 6610SOL    HW220730   2.688   6.418   0.001
 6611SOL     OW20731   4.740   2.844   3.217
 6611SOL    HW120732   4.720   2.837   3.315
 6611SOL    HW220733   4.824   2.897   3.204
 6612SOL     OW20734   6.564   2.250   6.482
 6612SOL    HW120735   6.595   2.230   6.389
 6612SOL    HW220736   6.576   2.347   6.501
 6613SOL     OW20737   6.632   6.601   5.383
 6613SOL    HW120738   6.655   6.593   5.286
 6613SOL    HW220739   6.669   6.523   5.433
 6614SOL     OW20740   4.302   6.254   6.916
 6614SOL    HW120741   4.356   6.338   6.902
 6614SOL    HW220742   4.352   6.176   6.878
 6615SOL     OW20743   1.199   5.893   1.366
 6615SOL    HW120744   1.218   5.821   1.432
 6615SOL    HW220745   1.240   5.870   1.278
 6616SOL     OW20746   4.387   0.345   6.898
 6616SOL    HW120747   4.468   0.315   6.849
 6616SOL    HW220748   4.410   0.423   6.956
 6617SOL     OW20749   4.439   5.749   3.581
 6617SOL    HW120750   4.356   5.802   3.564
 6617SOL    HW220751   4.460   5.752   3.679
 6618SOL     OW20752   2.115   1.783   2.702
 6618SOL    HW120753   2.132   1.712   2.633
 6618SOL    HW220754   2.016   1.799   2.709
 6619SOL     OW20755   5.548   6.952   4.397
 6619SOL    HW120756   5.570   0.016   4.352
 6619SOL    HW220757   5.535   6.968   4.495
 6620SOL     OW20758   2.124   3.256   5.373
 6620SOL    HW120759   2.218   3.221   5.368
 6620SOL    HW220760   2.106   3.288   5.466
 6621SOL     OW20761   3.669   3.256   5.756
 6621SOL    HW120762   3.704   3.183   5.698
 6621SOL    HW220763   3.737   3.282   5.824
 6622SOL     OW20764   5.750   6.072   2.320
 6622SOL    HW120765   5.754   6.163   2.363
 6622SOL    HW220766   5.655   6.048   2.303
 6623SOL     OW20767   3.903   3.063   5.190
 6623SOL    HW120768   3.804   3.064   5.175
 6623SOL    HW220769   3.940   2.976   5.158
 6624SOL     OW20770   0.575   4.474   5.560
 6624SOL    HW120771   0.647   4.539   5.537
 6624SOL    HW220772   0.612   4.401   5.617
 6625SOL     OW20773   5.323   2.082   5.245
 6625SOL    HW120774   5.275   2.000   5.278
 6625SOL    HW220775   5.269   2.163   5.267
 6626SOL     OW20776   2.888   6.924   5.638
 6626SOL    HW120777   2.979   6.947   5.604
 6626SOL    HW220778   2.882   6.946   5.735
 6627SOL     OW20779   1.804   6.615   3.650
 6627SOL    HW120780   1.757   6.596   3.736
 6627SOL    HW220781   1.848   6.705   3.655
 6628SOL     OW20782   5.888   5.184   4.438
 6628SOL    HW120783   5.892   5.084   4.433
 6628SOL    HW220784   5.853   5.212   4.527
 6629SOL     OW20785   4.527   5.841   6.352
 6629SOL    HW120786   4.581   5.901   6.411
 6629SOL    HW220787   4.579   5.818   6.270
 6630SOL     OW20788   3.692   1.752   1.414
 6630SOL    HW120789   3.711   1.741   1.317
 6630SOL    HW220790   3.594   1.748   1.430
 6631SOL     OW20791   2.024   6.046   3.941
 6631SOL    HW120792   2.096   6.000   3.889
 6631SOL    HW220793   1.972   6.106   3.880
 6632SOL     OW20794   0.782   0.635   0.912
 6632SOL    HW120795   0.861   0.615   0.971
 6632SOL    HW220796   0.747   0.549   0.874
 6633SOL     OW20797   2.034   5.221   6.184
 6633SOL    HW120798   2.041   5.211   6.085
 6633SOL    HW220799   2.002   5.135   6.223
 6634SOL     OW20800   5.571   1.614   5.566
 6634SOL    HW120801   5.477   1.591   5.541
 6634SOL    HW220802   5.609   1.542   5.625
 6635SOL     OW20803   4.875   4.490   3.811
 6635SOL    HW120804   4.862   4.427   3.887
 6635SOL    HW220805   4.797   4.553   3.806
 6636SOL     OW20806   4.924   1.495   0.142
 6636SOL    HW120807   4.846   1.546   0.176
 6636SOL    HW220808   4.980   1.553   0.084
 6637SOL     OW20809   1.626   6.677   6.922
 6637SOL    HW120810   1.556   6.744   6.897
 6637SOL    HW220811   1.592   6.585   6.907
 6638SOL     OW20812   2.972   3.640   3.115
 6638SOL    HW120813   2.960   3.684   3.204
 6638SOL    HW220814   2.957   3.707   3.043
 6639SOL     OW20815   4.450   4.410   0.217
 6639SOL    HW120816   4.548   4.394   0.212
 6639SOL    HW220817   4.401   4.334   0.175
 6640SOL     OW20818   6.547   2.029   5.362
 6640SOL    HW120819   6.554   1.981   5.275
 6640SOL    HW220820   6.565   1.965   5.437
 6641SOL     OW20821   3.355   1.449   6.722
 6641SOL    HW120822   3.280   1.385   6.740
 6641SOL    HW220823   3.418   1.449   6.800
 6642SOL     OW20824   2.544   5.968   6.317
 6642SOL    HW120825   2.531   5.911   6.235
 6642SOL    HW220826   2.540   5.910   6.398
 6643SOL     OW20827   5.460   5.920   6.837
 6643SOL    HW120828   5.421   5.833   6.868
 6643SOL    HW220829   5.391   5.992   6.848
 6644SOL     OW20830   2.319   5.858   1.504
 6644SOL    HW120831   2.225   5.891   1.489
 6644SOL    HW220832   2.316   5.763   1.536
 6645SOL     OW20833   5.344   3.829   0.987
 6645SOL    HW120834   5.266   3.859   0.933
 6645SOL    HW220835   5.327   3.737   1.022
 6646SOL     OW20836   4.720   1.428   5.003
 6646SOL    HW120837   4.787   1.354   4.992
 6646SOL    HW220838   4.768   1.514   5.020
 6647SOL     OW20839   4.502   6.883   0.119
 6647SOL    HW120840   4.484   6.969   0.072
 6647SOL    HW220841   4.484   6.893   0.216
 6648SOL     OW20842   3.461   6.781   4.362
 6648SOL    HW120843   3.507   6.692   4.352
 6648SOL    HW220844   3.421   6.788   4.453
 6649SOL     OW20845   6.044   1.595   5.983
 6649SOL    HW120846   6.018   1.555   5.895
 6649SOL    HW220847   6.038   1.695   5.978
 6650SOL     OW20848   4.191   1.467   5.406
 6650SOL    HW120849   4.143   1.506   5.328
 6650SOL    HW220850   4.128   1.460   5.484
 6651SOL     OW20851   1.529   0.823   5.852
 6651SOL    HW120852   1.589   0.820   5.932
 6651SOL    HW220853   1.464   0.898   5.861
 6652SOL     OW20854   0.270   4.576   6.972
 6652SOL    HW120855   0.256   4.675   6.983
 6652SOL    HW220856   0.234   4.548   6.883
 6653SOL     OW20857   4.077   3.259   1.284
 6653SOL    HW120858   4.130   3.281   1.365
 6653SOL    HW220859   4.129   3.197   1.225
 6654SOL     OW20860   1.511   5.389   1.590
 6654SOL    HW120861   1.548   5.342   1.671
 6654SOL    HW220862   1.441   5.333   1.547
 6655SOL     OW20863   7.002   6.660   3.071
 6655SOL    HW120864   0.059   6.636   3.016
 6655SOL    HW220865   6.934   6.587   3.065
 6656SOL     OW20866   5.926   2.128   2.416
 6656SOL    HW120867   5.902   2.222   2.392
 6656SOL    HW220868   5.930   2.072   2.333
 6657SOL     OW20869   6.209   3.862   4.806
 6657SOL    HW120870   6.276   3.796   4.841
 6657SOL    HW220871   6.145   3.886   4.879
 6658SOL     OW20872   5.397   0.833   5.149
 6658SOL    HW120873   5.315   0.779   5.172
 6658SOL    HW220874   5.383   0.928   5.176
 6659SOL     OW20875   2.011   2.968   1.615
 6659SOL    HW120876   2.070   2.898   1.656
 6659SOL    HW220877   2.061   3.017   1.544
 6660SOL     OW20878   1.535   5.038   1.621
 6660SOL    HW120879   1.626   5.036   1.578
 6660SOL    HW220880   1.545   5.049   1.720
 6661SOL     OW20881   2.282   0.383   5.427
 6661SOL    HW120882   2.349   0.358   5.357
 6661SOL    HW220883   2.327   0.435   5.500
 6662SOL     OW20884   1.520   0.946   0.482
 6662SOL    HW120885   1.463   0.976   0.558
 6662SOL    HW220886   1.614   0.934   0.513
 6663SOL     OW20887   6.735   6.555   4.682
 6663SOL    HW120888   6.820   6.568   4.731
 6663SOL    HW220889   6.753   6.551   4.583
 6664SOL     OW20890   1.961   6.991   0.521
 6664SOL    HW120891   2.041   6.988   0.461
 6664SOL    HW220892   1.936   0.064   0.539
 6665SOL     OW20893   1.583   6.518   4.586
 6665SOL    HW120894   1.554   6.435   4.634
 6665SOL    HW220895   1.511   6.588   4.594
 6666SOL     OW20896   6.802   6.016   5.659
 6666SOL    HW120897   6.709   6.042   5.632
 6666SOL    HW220898   6.817   6.039   5.755
 6667SOL     OW20899   0.021   6.670   5.451
 6667SOL    HW120900   6.996   6.594   5.406
 6667SOL    HW220901   6.981   6.747   5.463
 6668SOL     OW20902   6.568   5.810   1.010
 6668SOL    HW120903   6.557   5.909   1.020
 6668SOL    HW220904   6.548   5.766   1.097
 6669SOL     OW20905   2.739   2.107   1.953
 6669SOL    HW120906   2.811   2.156   2.002
 6669SOL    HW220907   2.659   2.165   1.943
 6670SOL     OW20908   3.068   1.174   5.432
 6670SOL    HW120909   2.992   1.163   5.368
 6670SOL    HW220910   3.113   1.262   5.415
 6671SOL     OW20911   4.414   6.978   0.372
 6671SOL    HW120912   4.318   6.977   0.344
 6671SOL    HW220913   4.421   6.948   0.467
 6672SOL     OW20914   6.692   1.748   0.436
 6672SOL    HW120915   6.654   1.703   0.517
 6672SOL    HW220916   6.791   1.735   0.435
 6673SOL     OW20917   4.848   4.323   4.050
 6673SOL    HW120918   4.780   4.332   4.123
 6673SOL    HW220919   4.872   4.226   4.038
 6674SOL     OW20920   0.055   4.123   0.281
 6674SOL    HW120921   0.043   4.217   0.312
 6674SOL    HW220922   6.993   4.091   0.238
 6675SOL     OW20923   6.015   3.053   0.151
 6675SOL    HW120924   5.957   2.996   0.208
 6675SOL    HW220925   5.959   3.106   0.087
 6676SOL     OW20926   0.320   3.827   5.065
 6676SOL    HW120927   0.285   3.910   5.109
 6676SOL    HW220928   0.400   3.851   5.009
 6677SOL     OW20929   0.750   1.458   6.511
 6677SOL    HW120930   0.726   1.463   6.414
 6677SOL    HW220931   0.686   1.515   6.564
 6678SOL     OW20932   3.085   3.967   0.642
 6678SOL    HW120933   3.025   3.963   0.562
 6678SOL    HW220934   3.167   4.022   0.620
 6679SOL     OW20935   3.686   0.402   3.959
 6679SOL    HW120936   3.642   0.320   3.997
 6679SOL    HW220937   3.751   0.374   3.888
 6680SOL     OW20938   4.474   6.927   6.511
 6680SOL    HW120939   4.391   6.882   6.479
 6680SOL    HW220940   4.450   7.010   6.561
 6681SOL     OW20941   4.537   5.964   0.576
 6681SOL    HW120942   4.547   5.864   0.584
 6681SOL    HW220943   4.445   5.986   0.547
 6682SOL     OW20944   2.121   4.934   0.152
 6682SOL    HW120945   2.179   5.014   0.135
 6682SOL    HW220946   2.172   4.868   0.208
 6683SOL     OW20947   5.928   3.204   5.486
 6683SOL    HW120948   6.028   3.208   5.478
 6683SOL    HW220949   5.894   3.129   5.428
 6684SOL     OW20950   3.867   6.317   2.596
 6684SOL    HW120951   3.905   6.226   2.579
 6684SOL    HW220952   3.793   6.335   2.531
 6685SOL     OW20953   4.379   3.442   6.561
 6685SOL    HW120954   4.373   3.537   6.591
 6685SOL    HW220955   4.469   3.426   6.519
 6686SOL     OW20956   5.280   5.833   4.141
 6686SOL    HW120957   5.181   5.819   4.147
 6686SOL    HW220958   5.314   5.788   4.058
 6687SOL     OW20959   0.860   3.161   2.191
 6687SOL    HW120960   0.852   3.141   2.093
 6687SOL    HW220961   0.772   3.144   2.236
 6688SOL     OW20962   4.945   4.700   1.574
 6688SOL    HW120963   4.902   4.612   1.556
 6688SOL    HW220964   4.889   4.751   1.640
 6689SOL     OW20965   4.641   3.928   5.709
 6689SOL    HW120966   4.668   3.843   5.754
 6689SOL    HW220967   4.598   3.907   5.621
 6690SOL     OW20968   0.811   0.058   0.416
 6690SOL    HW120969   0.833   0.106   0.500
 6690SOL    HW220970   0.713   0.036   0.414
 6691SOL     OW20971   2.015   0.083   2.452
 6691SOL    HW120972   1.986   0.033   2.370
 6691SOL    HW220973   2.003   0.025   2.533
 6692SOL     OW20974   3.980   3.860   3.480
 6692SOL    HW120975   4.043   3.916   3.532
 6692SOL    HW220976   3.929   3.800   3.542
 6693SOL     OW20977   4.323   2.217   5.462
 6693SOL    HW120978   4.324   2.145   5.393
 6693SOL    HW220979   4.241   2.208   5.519
 6694SOL     OW20980   3.838   5.838   1.408
 6694SOL    HW120981   3.897   5.783   1.468
 6694SOL    HW220982   3.883   5.925   1.389
 6695SOL     OW20983   2.754   2.493   6.470
 6695SOL    HW120984   2.661   2.496   6.509
 6695SOL    HW220985   2.750   2.454   6.378
 6696SOL     OW20986   3.855   2.987   4.318
 6696SOL    HW120987   3.790   3.008   4.391
 6696SOL    HW220988   3.929   2.931   4.354
 6697SOL     OW20989   4.756   1.561   2.843
 6697SOL    HW120990   4.826   1.625   2.876
 6697SOL    HW220991   4.739   1.577   2.746
 6698SOL     OW20992   3.115   2.712   0.906
 6698SOL    HW120993   3.051   2.735   0.980
 6698SOL    HW220994   3.138   2.615   0.910
 6699SOL     OW20995   2.407   6.245   5.388
 6699SOL    HW120996   2.358   6.298   5.457
 6699SOL    HW220997   2.502   6.278   5.383
 6700SOL     OW20998   0.368   1.457   1.317
 6700SOL    HW120999   0.276   1.442   1.281
 6700SOL    HW221000   0.413   1.530   1.265
 6701SOL     OW21001   5.736   5.124   1.931
 6701SOL    HW121002   5.836   5.117   1.931
 6701SOL    HW221003   5.702   5.117   1.837
 6702SOL     OW21004   1.821   2.267   1.122
 6702SOL    HW121005   1.837   2.327   1.200
 6702SOL    HW221006   1.722   2.258   1.107
 6703SOL     OW21007   6.591   0.194   0.969
 6703SOL    HW121008   6.575   0.099   0.944
 6703SOL    HW221009   6.678   0.202   1.017
 6704SOL     OW21010   4.151   2.266   2.866
 6704SOL    HW121011   4.066   2.243   2.913
 6704SOL    HW221012   4.149   2.229   2.773
 6705SOL     OW21013   6.221   3.195   0.735
 6705SOL    HW121014   6.143   3.191   0.798
 6705SOL    HW221015   6.204   3.136   0.657
 6706SOL     OW21016   0.757   5.653   1.175
 6706SOL    HW121017   0.779   5.575   1.115
 6706SOL    HW221018   0.695   5.715   1.128
 6707SOL     OW21019   5.857   6.794   3.447
 6707SOL    HW121020   5.935   6.734   3.433
 6707SOL    HW221021   5.820   6.823   3.359
 6708SOL     OW21022   5.626   5.488   0.722
 6708SOL    HW121023   5.625   5.415   0.791
 6708SOL    HW221024   5.642   5.448   0.632
 6709SOL     OW21025   1.353   6.206   3.135
 6709SOL    HW121026   1.317   6.300   3.141
 6709SOL    HW221027   1.387   6.190   3.042
 6710SOL     OW21028   3.619   0.745   5.998
 6710SOL    HW121029   3.553   0.819   5.984
 6710SOL    HW221030   3.642   0.739   6.095
 6711SOL     OW21031   5.513   6.863   5.661
 6711SOL    HW121032   5.550   6.949   5.696
 6711SOL    HW221033   5.429   6.881   5.610
 6712SOL     OW21034   5.532   3.437   0.819
 6712SOL    HW121035   5.629   3.421   0.837
 6712SOL    HW221036   5.495   3.362   0.764
 6713SOL     OW21037   1.843   0.806   3.015
 6713SOL    HW121038   1.769   0.852   3.065
 6713SOL    HW221039   1.811   0.780   2.924
 6714SOL     OW21040   6.337   1.428   6.734
 6714SOL    HW121041   6.320   1.402   6.639
 6714SOL    HW221042   6.361   1.526   6.738
 6715SOL     OW21043   1.370   0.484   0.826
 6715SOL    HW121044   1.426   0.524   0.754
 6715SOL    HW221045   1.393   0.527   0.913
 6716SOL     OW21046   0.172   5.622   1.821
 6716SOL    HW121047   0.260   5.649   1.782
 6716SOL    HW221048   0.121   5.569   1.753
 6717SOL     OW21049   2.682   2.831   6.348
 6717SOL    HW121050   2.715   2.806   6.439
 6717SOL    HW221051   2.733   2.910   6.315
 6718SOL     OW21052   4.963   6.955   0.821
 6718SOL    HW121053   4.906   6.873   0.817
 6718SOL    HW221054   4.972   6.995   0.730
 6719SOL     OW21055   3.048   6.493   6.898
 6719SOL    HW121056   2.988   6.549   6.840
 6719SOL    HW221057   3.142   6.497   6.861
 6720SOL     OW21058   2.065   0.397   3.331
 6720SOL    HW121059   2.133   0.353   3.390
 6720SOL    HW221060   2.065   0.496   3.347
 6721SOL     OW21061   0.035   6.449   0.209
 6721SOL    HW121062   6.984   6.395   0.168
 6721SOL    HW221063   0.004   6.543   0.222
 6722SOL     OW21064   6.293   2.539   0.799
 6722SOL    HW121065   6.228   2.520   0.872
 6722SOL    HW221066   6.382   2.499   0.821
 6723SOL     OW21067   1.357   0.141   4.773
 6723SOL    HW121068   1.457   0.134   4.764
 6723SOL    HW221069   1.315   0.114   4.686
 6724SOL     OW21070   2.227   3.490   6.288
 6724SOL    HW121071   2.227   3.391   6.297
 6724SOL    HW221072   2.321   3.523   6.282
 6725SOL     OW21073   6.489   2.807   2.031
 6725SOL    HW121074   6.441   2.866   1.966
 6725SOL    HW221075   6.432   2.729   2.054
 6726SOL     OW21076   1.076   3.041   4.401
 6726SOL    HW121077   1.037   2.949   4.409
 6726SOL    HW221078   1.139   3.056   4.477
 6727SOL     OW21079   0.113   4.993   5.690
 6727SOL    HW121080   0.156   5.039   5.768
 6727SOL    HW221081   0.095   4.898   5.713
 6728SOL     OW21082   4.099   2.175   2.596
 6728SOL    HW121083   4.091   2.252   2.533
 6728SOL    HW221084   4.154   2.103   2.555
 6729SOL     OW21085   6.883   0.492   0.803
 6729SOL    HW121086   6.938   0.422   0.756
 6729SOL    HW221087   6.889   0.578   0.752
 6730SOL     OW21088   1.590   6.907   1.615
 6730SOL    HW121089   1.669   6.926   1.674
 6730SOL    HW221090   1.509   6.951   1.652
 6731SOL     OW21091   1.149   6.761   1.428
 6731SOL    HW121092   1.230   6.702   1.425
 6731SOL    HW221093   1.177   6.855   1.444
 6732SOL     OW21094   6.169   4.094   4.355
 6732SOL    HW121095   6.214   4.101   4.266
 6732SOL    HW221096   6.079   4.051   4.343
 6733SOL     OW21097   3.552   5.611   6.565
 6733SOL    HW121098   3.620   5.680   6.540
 6733SOL    HW221099   3.461   5.653   6.566
 6734SOL     OW21100   6.182   2.194   4.606
 6734SOL    HW121101   6.166   2.184   4.704
 6734SOL    HW221102   6.216   2.108   4.568
 6735SOL     OW21103   6.554   3.887   4.649
 6735SOL    HW121104   6.487   3.922   4.583
 6735SOL    HW221105   6.631   3.951   4.654
 6736SOL     OW21106   2.696   3.089   6.797
 6736SOL    HW121107   2.671   3.115   6.704
 6736SOL    HW221108   2.691   3.169   6.856
 6737SOL     OW21109   1.726   3.377   1.023
 6737SOL    HW121110   1.649   3.350   1.081
 6737SOL    HW221111   1.693   3.398   0.931
 6738SOL     OW21112   1.489   5.825   3.435
 6738SOL    HW121113   1.471   5.814   3.533
 6738SOL    HW221114   1.416   5.880   3.394
 6739SOL     OW21115   4.826   6.260   4.072
 6739SOL    HW121116   4.923   6.282   4.059
 6739SOL    HW221117   4.773   6.298   3.997
 6740SOL     OW21118   6.783   6.935   5.799
 6740SOL    HW121119   6.808   6.945   5.703
 6740SOL    HW221120   6.816   7.013   5.851
 6741SOL     OW21121   3.650   2.606   5.579
 6741SOL    HW121122   3.560   2.581   5.617
 6741SOL    HW221123   3.680   2.691   5.621
 6742SOL     OW21124   5.897   5.346   2.892
 6742SOL    HW121125   5.930   5.361   2.985
 6742SOL    HW221126   5.930   5.419   2.832
 6743SOL     OW21127   3.847   4.535   6.278
 6743SOL    HW121128   3.922   4.600   6.289
 6743SOL    HW221129   3.855   4.464   6.348
 6744SOL     OW21130   6.293   4.333   5.611
 6744SOL    HW121131   6.291   4.240   5.573
 6744SOL    HW221132   6.205   4.377   5.595
 6745SOL     OW21133   0.344   6.871   3.493
 6745SOL    HW121134   0.294   6.875   3.580
 6745SOL    HW221135   0.364   6.964   3.462
 6746SOL     OW21136   0.818   1.139   4.064
 6746SOL    HW121137   0.821   1.221   4.007
 6746SOL    HW221138   0.848   1.061   4.010
 6747SOL     OW21139   5.576   1.520   5.995
 6747SOL    HW121140   5.660   1.511   6.049
 6747SOL    HW221141   5.554   1.617   5.983
 6748SOL     OW21142   3.581   1.741   2.847
 6748SOL    HW121143   3.610   1.832   2.819
 6748SOL    HW221144   3.615   1.722   2.939
 6749SOL     OW21145   3.709   4.012   0.773
 6749SOL    HW121146   3.694   3.977   0.866
 6749SOL    HW221147   3.642   4.083   0.753
 6750SOL     OW21148   3.531   2.020   4.282
 6750SOL    HW121149   3.462   2.092   4.284
 6750SOL    HW221150   3.493   1.937   4.323
 6751SOL     OW21151   5.529   0.327   2.758
 6751SOL    HW121152   5.500   0.310   2.853
 6751SOL    HW221153   5.540   0.240   2.710
 6752SOL     OW21154   2.026   6.930   3.205
 6752SOL    HW121155   1.960   6.984   3.258
 6752SOL    HW221156   2.109   6.984   3.192
 6753SOL     OW21157   3.102   1.114   5.755
 6753SOL    HW121158   3.052   1.030   5.775
 6753SOL    HW221159   3.192   1.092   5.716
 6754SOL     OW21160   0.151   1.047   0.953
 6754SOL    HW121161   0.144   0.980   1.026
 6754SOL    HW221162   0.164   1.138   0.993
 6755SOL     OW21163   4.305   1.615   2.211
 6755SOL    HW121164   4.360   1.545   2.165
 6755SOL    HW221165   4.281   1.687   2.145
 6756SOL     OW21166   3.964   6.072   4.896
 6756SOL    HW121167   3.987   5.999   4.832
 6756SOL    HW221168   3.919   6.033   4.977
 6757SOL     OW21169   3.098   2.485   0.457
 6757SOL    HW121170   3.056   2.561   0.408
 6757SOL    HW221171   3.034   2.451   0.526
 6758SOL     OW21172   5.823   2.144   1.582
 6758SOL    HW121173   5.866   2.113   1.497
 6758SOL    HW221174   5.833   2.074   1.652
 6759SOL     OW21175   1.665   3.586   3.450
 6759SOL    HW121176   1.622   3.522   3.514
 6759SOL    HW221177   1.594   3.637   3.402
 6760SOL     OW21178   6.837   3.814   2.838
 6760SOL    HW121179   6.807   3.825   2.743
 6760SOL    HW221180   6.876   3.723   2.850
 6761SOL     OW21181   6.966   2.129   5.660
 6761SOL    HW121182   6.904   2.207   5.650
 6761SOL    HW221183   6.923   2.060   5.718
 6762SOL     OW21184   0.896   4.455   4.628
 6762SOL    HW121185   0.852   4.545   4.621
 6762SOL    HW221186   0.986   4.459   4.585
 6763SOL     OW21187   6.250   5.600   3.508
 6763SOL    HW121188   6.341   5.572   3.477
 6763SOL    HW221189   6.253   5.622   3.605
 6764SOL     OW21190   1.631   5.380   1.192
 6764SOL    HW121191   1.671   5.290   1.177
 6764SOL    HW221192   1.681   5.449   1.139
 6765SOL     OW21193   5.504   4.980   3.787
 6765SOL    HW121194   5.602   5.002   3.794
 6765SOL    HW221195   5.492   4.881   3.782
 6766SOL     OW21196   5.157   6.647   5.688
 6766SOL    HW121197   5.114   6.609   5.606
 6766SOL    HW221198   5.165   6.746   5.679
 6767SOL     OW21199   1.847   1.258   0.950
 6767SOL    HW121200   1.904   1.302   0.880
 6767SOL    HW221201   1.807   1.175   0.911
 6768SOL     OW21202   1.311   6.553   4.847
 6768SOL    HW121203   1.376   6.628   4.831
 6768SOL    HW221204   1.347   6.493   4.919
 6769SOL     OW21205   2.688   0.488   6.658
 6769SOL    HW121206   2.743   0.542   6.721
 6769SOL    HW221207   2.702   0.520   6.564
 6770SOL     OW21208   6.580   1.463   2.939
 6770SOL    HW121209   6.547   1.374   2.908
 6770SOL    HW221210   6.547   1.534   2.876
 6771SOL     OW21211   4.410   1.703   3.460
 6771SOL    HW121212   4.354   1.754   3.526
 6771SOL    HW221213   4.403   1.605   3.479
 6772SOL     OW21214   4.475   2.242   2.565
 6772SOL    HW121215   4.422   2.177   2.619
 6772SOL    HW221216   4.553   2.274   2.619
 6773SOL     OW21217   6.412   5.884   2.160
 6773SOL    HW121218   6.488   5.827   2.129
 6773SOL    HW221219   6.339   5.826   2.195
 6774SOL     OW21220   0.960   3.806   5.317
 6774SOL    HW121221   1.002   3.760   5.238
 6774SOL    HW221222   0.860   3.801   5.309
 6775SOL     OW21223   2.665   2.283   2.198
 6775SOL    HW121224   2.613   2.322   2.122
 6775SOL    HW221225   2.763   2.288   2.179
 6776SOL     OW21226   5.124   4.200   0.189
 6776SOL    HW121227   5.073   4.159   0.113
 6776SOL    HW221228   5.216   4.161   0.192
 6777SOL     OW21229   5.130   4.711   0.840
 6777SOL    HW121230   5.155   4.805   0.818
 6777SOL    HW221231   5.213   4.657   0.856
 6778SOL     OW21232   5.649   5.384   2.102
 6778SOL    HW121233   5.578   5.314   2.104
 6778SOL    HW221234   5.732   5.349   2.146
 6779SOL     OW21235   5.683   5.860   6.447
 6779SOL    HW121236   5.672   5.803   6.365
 6779SOL    HW221237   5.608   5.926   6.453
 6780SOL     OW21238   1.471   2.454   2.293
 6780SOL    HW121239   1.513   2.367   2.267
 6780SOL    HW221240   1.529   2.530   2.265
 6781SOL     OW21241   6.992   2.241   4.009
 6781SOL    HW121242   6.899   2.246   4.046
 6781SOL    HW221243   0.028   2.308   4.057
 6782SOL     OW21244   0.342   0.914   2.724
 6782SOL    HW121245   0.387   0.901   2.635
 6782SOL    HW221246   0.245   0.891   2.717
 6783SOL     OW21247   6.507   1.317   5.312
 6783SOL    HW121248   6.518   1.316   5.213
 6783SOL    HW221249   6.416   1.349   5.335
 6784SOL     OW21250   1.549   3.175   0.676
 6784SOL    HW121251   1.464   3.184   0.728
 6784SOL    HW221252   1.626   3.163   0.739
 6785SOL     OW21253   5.956   5.441   4.553
 6785SOL    HW121254   5.869   5.406   4.521
 6785SOL    HW221255   5.983   5.520   4.498
 6786SOL     OW21256   1.554   2.383   0.028
 6786SOL    HW121257   1.521   2.464   0.076
 6786SOL    HW221258   1.602   2.411   6.967
 6787SOL     OW21259   2.154   3.028   6.947
 6787SOL    HW121260   2.236   3.065   6.903
 6787SOL    HW221261   2.130   2.940   6.905
 6788SOL     OW21262   0.918   4.305   1.645
 6788SOL    HW121263   0.960   4.392   1.622
 6788SOL    HW221264   0.984   4.231   1.631
 6789SOL     OW21265   0.153   5.123   2.651
 6789SOL    HW121266   0.164   5.217   2.619
 6789SOL    HW221267   0.216   5.063   2.601
 6790SOL     OW21268   0.225   3.696   1.054
 6790SOL    HW121269   0.271   3.690   1.142
 6790SOL    HW221270   0.146   3.635   1.053
 6791SOL     OW21271   3.706   1.832   1.909
 6791SOL    HW121272   3.768   1.754   1.894
 6791SOL    HW221273   3.728   1.905   1.844
 6792SOL     OW21274   6.073   6.860   5.101
 6792SOL    HW121275   6.015   6.910   5.165
 6792SOL    HW221276   6.016   6.809   5.037
 6793SOL     OW21277   1.862   1.943   0.712
 6793SOL    HW121278   1.880   1.962   0.809
 6793SOL    HW221279   1.789   2.002   0.679
 6794SOL     OW21280   4.448   0.838   5.386
 6794SOL    HW121281   4.480   0.874   5.474
 6794SOL    HW221282   4.424   0.914   5.326
 6795SOL     OW21283   2.335   6.315   0.444
 6795SOL    HW121284   2.402   6.383   0.414
 6795SOL    HW221285   2.332   6.313   0.543
 6796SOL     OW21286   6.471   0.294   2.847
 6796SOL    HW121287   6.492   0.384   2.808
 6796SOL    HW221288   6.542   0.270   2.914
 6797SOL     OW21289   6.590   1.894   1.863
 6797SOL    HW121290   6.619   1.895   1.767
 6797SOL    HW221291   6.658   1.939   1.920
 6798SOL     OW21292   5.273   6.943   2.153
 6798SOL    HW121293   5.318   6.868   2.201
 6798SOL    HW221294   5.290   0.007   2.201
 6799SOL     OW21295   6.909   6.955   1.946
 6799SOL    HW121296   6.844   6.952   1.870
 6799SOL    HW221297   6.868   6.910   2.026
 6800SOL     OW21298   2.023   3.558   2.135
 6800SOL    HW121299   2.085   3.527   2.063
 6800SOL    HW221300   2.050   3.518   2.222
 6801SOL     OW21301   0.666   7.018   2.737
 6801SOL    HW121302   0.620   0.050   2.666
 6801SOL    HW221303   0.763   0.021   2.741
 6802SOL     OW21304   2.851   6.083   1.552
 6802SOL    HW121305   2.828   6.162   1.496
 6802SOL    HW221306   2.917   6.109   1.622
 6803SOL     OW21307   4.718   2.833   5.278
 6803SOL    HW121308   4.812   2.799   5.285
 6803SOL    HW221309   4.718   2.929   5.251
 6804SOL     OW21310   3.415   4.938   3.993
 6804SOL    HW121311   3.407   4.962   3.896
 6804SOL    HW221312   3.493   4.986   4.033
 6805SOL     OW21313   0.545   4.699   6.675
 6805SOL    HW121314   0.466   4.709   6.614
 6805SOL    HW221315   0.627   4.735   6.630
 6806SOL     OW21316   6.274   0.580   3.458
 6806SOL    HW121317   6.252   0.607   3.364
 6806SOL    HW221318   6.198   0.529   3.497
 6807SOL     OW21319   3.392   3.534   1.456
 6807SOL    HW121320   3.342   3.519   1.540
 6807SOL    HW221321   3.490   3.541   1.476
 6808SOL     OW21322   0.214   2.156   5.687
 6808SOL    HW121323   0.121   2.136   5.657
 6808SOL    HW221324   0.217   2.152   5.787
 6809SOL     OW21325   0.775   3.143   1.455
 6809SOL    HW121326   0.827   3.162   1.372
 6809SOL    HW221327   0.838   3.123   1.530
 6810SOL     OW21328   1.849   0.960   2.742
 6810SOL    HW121329   1.871   1.053   2.773
 6810SOL    HW221330   1.932   0.915   2.711
 6811SOL     OW21331   5.845   3.586   1.478
 6811SOL    HW121332   5.916   3.600   1.547
 6811SOL    HW221333   5.885   3.596   1.387
 6812SOL     OW21334   3.262   3.445   4.689
 6812SOL    HW121335   3.348   3.469   4.645
 6812SOL    HW221336   3.195   3.419   4.619
 6813SOL     OW21337   5.074   2.737   2.918
 6813SOL    HW121338   5.084   2.788   2.833
 6813SOL    HW221339   5.032   2.648   2.900
 6814SOL     OW21340   3.571   1.543   6.162
 6814SOL    HW121341   3.624   1.540   6.077
 6814SOL    HW221342   3.564   1.450   6.200
 6815SOL     OW21343   3.271   6.430   0.778
 6815SOL    HW121344   3.345   6.414   0.843
 6815SOL    HW221345   3.200   6.485   0.823
 6816SOL     OW21346   6.893   6.930   6.470
 6816SOL    HW121347   6.944   7.003   6.424
 6816SOL    HW221348   6.900   6.941   6.569
 6817SOL     OW21349   2.415   2.628   3.079
 6817SOL    HW121350   2.408   2.648   3.177
 6817SOL    HW221351   2.409   2.529   3.065
 6818SOL     OW21352   2.552   6.324   2.111
 6818SOL    HW121353   2.506   6.309   2.024
 6818SOL    HW221354   2.647   6.293   2.105
 6819SOL     OW21355   4.672   1.643   3.340
 6819SOL    HW121356   4.591   1.696   3.367
 6819SOL    HW221357   4.665   1.551   3.376
 6820SOL     OW21358   2.023   5.743   2.130
 6820SOL    HW121359   2.032   5.646   2.153
 6820SOL    HW221360   1.927   5.769   2.134
 6821SOL     OW21361   3.849   1.974   4.993
 6821SOL    HW121362   3.939   2.014   5.009
 6821SOL    HW221363   3.821   1.992   4.898
 6822SOL     OW21364   5.251   2.606   5.774
 6822SOL    HW121365   5.261   2.678   5.705
 6822SOL    HW221366   5.167   2.621   5.826
 6823SOL     OW21367   4.494   3.524   5.652
 6823SOL    HW121368   4.584   3.568   5.651
 6823SOL    HW221369   4.463   3.511   5.558
 6824SOL     OW21370   1.324   2.313   0.736
 6824SOL    HW121371   1.297   2.272   0.649
 6824SOL    HW221372   1.254   2.295   0.805
 6825SOL     OW21373   4.781   6.620   1.133
 6825SOL    HW121374   4.842   6.645   1.058
 6825SOL    HW221375   4.829   6.631   1.220
 6826SOL     OW21376   1.891   3.090   3.061
 6826SOL    HW121377   1.879   3.173   3.006
 6826SOL    HW221378   1.803   3.042   3.069
 6827SOL     OW21379   4.371   5.366   6.846
 6827SOL    HW121380   4.302   5.304   6.883
 6827SOL    HW221381   4.412   5.325   6.764
 6828SOL     OW21382   3.101   1.604   1.678
 6828SOL    HW121383   3.128   1.646   1.764
 6828SOL    HW221384   3.168   1.533   1.653
 6829SOL     OW21385   5.174   6.183   5.338
 6829SOL    HW121386   5.120   6.226   5.409
 6829SOL    HW221387   5.155   6.227   5.250
 6830SOL     OW21388   5.175   1.064   3.724
 6830SOL    HW121389   5.207   1.073   3.818
 6830SOL    HW221390   5.126   1.147   3.697
 6831SOL     OW21391   1.479   0.412   6.971
 6831SOL    HW121392   1.433   0.326   6.990
 6831SOL    HW221393   1.459   0.440   6.877
 6832SOL     OW21394   2.566   3.961   0.984
 6832SOL    HW121395   2.470   3.981   0.968
 6832SOL    HW221396   2.599   3.896   0.915
 6833SOL     OW21397   3.162   4.493   6.376
 6833SOL    HW121398   3.259   4.472   6.377
 6833SOL    HW221399   3.109   4.410   6.359
 6834SOL     OW21400   4.147   6.490   1.159
 6834SOL    HW121401   4.088   6.503   1.079
 6834SOL    HW221402   4.208   6.568   1.169
 6835SOL     OW21403   3.807   0.865   4.521
 6835SOL    HW121404   3.772   0.895   4.433
 6835SOL    HW221405   3.861   0.938   4.563
 6836SOL     OW21406   2.346   4.716   0.478
 6836SOL    HW121407   2.425   4.758   0.523
 6836SOL    HW221408   2.358   4.617   0.474
 6837SOL     OW21409   0.825   2.027   2.205
 6837SOL    HW121410   0.858   2.054   2.114
 6837SOL    HW221411   0.902   2.024   2.269
 6838SOL     OW21412   3.402   6.361   6.832
 6838SOL    HW121413   3.445   6.297   6.768
 6838SOL    HW221414   3.400   6.320   6.923
 6839SOL     OW21415   5.846   1.036   6.616
 6839SOL    HW121416   5.860   1.003   6.709
 6839SOL    HW221417   5.831   0.958   6.555
 6840SOL     OW21418   3.395   0.949   4.826
 6840SOL    HW121419   3.346   1.032   4.852
 6840SOL    HW221420   3.342   0.869   4.853
 6841SOL     OW21421   4.392   4.250   6.836
 6841SOL    HW121422   4.393   4.338   6.884
 6841SOL    HW221423   4.429   4.262   6.744
 6842SOL     OW21424   2.904   4.221   0.667
 6842SOL    HW121425   2.826   4.173   0.707
 6842SOL    HW221426   2.989   4.184   0.706
 6843SOL     OW21427   6.035   6.504   1.173
 6843SOL    HW121428   5.943   6.482   1.141
 6843SOL    HW221429   6.091   6.534   1.095
 6844SOL     OW21430   5.191   0.409   3.898
 6844SOL    HW121431   5.282   0.421   3.938
 6844SOL    HW221432   5.184   0.318   3.858
 6845SOL     OW21433   6.507   4.200   2.975
 6845SOL    HW121434   6.431   4.179   2.914
 6845SOL    HW221435   6.477   4.189   3.070
 6846SOL     OW21436   3.408   2.855   7.006
 6846SOL    HW121437   3.315   2.820   6.995
 6846SOL    HW221438   3.473   2.779   6.997
 6847SOL     OW21439   0.236   3.431   4.048
 6847SOL    HW121440   0.229   3.523   4.087
 6847SOL    HW221441   0.318   3.385   4.084
 6848SOL     OW21442   5.002   5.882   3.897
 6848SOL    HW121443   5.045   5.971   3.883
 6848SOL    HW221444   5.030   5.820   3.823
 6849SOL     OW21445   4.171   5.013   5.168
 6849SOL    HW121446   4.087   5.043   5.123
 6849SOL    HW221447   4.163   5.028   5.267
 6850SOL     OW21448   5.705   4.216   2.226
 6850SOL    HW121449   5.753   4.129   2.243
 6850SOL    HW221450   5.673   4.218   2.131
 6851SOL     OW21451   0.757   2.048   2.715
 6851SOL    HW121452   0.749   1.951   2.689
 6851SOL    HW221453   0.852   2.076   2.707
 6852SOL     OW21454   2.479   4.502   1.067
 6852SOL    HW121455   2.544   4.474   0.996
 6852SOL    HW221456   2.530   4.540   1.145
 6853SOL     OW21457   5.886   4.808   0.194
 6853SOL    HW121458   5.892   4.872   0.117
 6853SOL    HW221459   5.974   4.760   0.203
 6854SOL     OW21460   4.096   1.066   6.370
 6854SOL    HW121461   4.017   1.005   6.364
 6854SOL    HW221462   4.066   1.159   6.388
 6855SOL     OW21463   4.351   6.080   4.103
 6855SOL    HW121464   4.253   6.061   4.113
 6855SOL    HW221465   4.386   6.032   4.023
 6856SOL     OW21466   6.431   2.738   4.977
 6856SOL    HW121467   6.381   2.669   5.030
 6856SOL    HW221468   6.428   2.825   5.027
 6857SOL     OW21469   3.073   2.045   6.449
 6857SOL    HW121470   3.023   2.043   6.535
 6857SOL    HW221471   3.034   2.116   6.390
 6858SOL     OW21472   4.133   3.685   3.022
 6858SOL    HW121473   4.194   3.759   3.049
 6858SOL    HW221474   4.069   3.666   3.096
 6859SOL     OW21475   0.946   1.602   0.908
 6859SOL    HW121476   0.908   1.661   0.978
 6859SOL    HW221477   0.874   1.574   0.845
 6860SOL     OW21478   6.826   5.096   1.096
 6860SOL    HW121479   6.832   4.996   1.094
 6860SOL    HW221480   6.836   5.131   1.002
 6861SOL     OW21481   3.973   4.924   0.453
 6861SOL    HW121482   3.999   4.933   0.549
 6861SOL    HW221483   4.044   4.966   0.396
 6862SOL     OW21484   1.533   5.094   6.250
 6862SOL    HW121485   1.466   5.104   6.176
 6862SOL    HW221486   1.543   4.997   6.273
 6863SOL     OW21487   5.426   6.621   5.667
 6863SOL    HW121488   5.475   6.708   5.662
 6863SOL    HW221489   5.328   6.637   5.655
 6864SOL     OW21490   2.501   5.065   4.622
 6864SOL    HW121491   2.573   5.055   4.554
 6864SOL    HW221492   2.440   5.140   4.596
 6865SOL     OW21493   1.164   6.282   4.076
 6865SOL    HW121494   1.216   6.290   3.992
 6865SOL    HW221495   1.227   6.277   4.154
 6866SOL     OW21496   5.800   4.985   3.844
 6866SOL    HW121497   5.793   5.057   3.913
 6866SOL    HW221498   5.804   4.896   3.889
 6867SOL     OW21499   2.431   4.404   1.891
 6867SOL    HW121500   2.403   4.341   1.964
 6867SOL    HW221501   2.436   4.355   1.804
 6868SOL     OW21502   1.736   5.533   6.743
 6868SOL    HW121503   1.733   5.474   6.662
 6868SOL    HW221504   1.717   5.479   6.825
 6869SOL     OW21505   5.317   0.758   6.372
 6869SOL    HW121506   5.308   0.845   6.421
 6869SOL    HW221507   5.236   0.702   6.390
 6870SOL     OW21508   0.458   4.554   1.918
 6870SOL    HW121509   0.526   4.601   1.861
 6870SOL    HW221510   0.502   4.522   2.002
 6871SOL     OW21511   6.233   4.241   3.110
 6871SOL    HW121512   6.190   4.236   3.020
 6871SOL    HW221513   6.208   4.160   3.163
 6872SOL     OW21514   0.467   2.313   1.017
 6872SOL    HW121515   0.405   2.263   0.957
 6872SOL    HW221516   0.413   2.365   1.084
 6873SOL     OW21517   6.616   3.758   4.349
 6873SOL    HW121518   6.632   3.856   4.356
 6873SOL    HW221519   6.695   3.714   4.306
 6874SOL     OW21520   6.661   5.197   2.589
 6874SOL    HW121521   6.577   5.222   2.541
 6874SOL    HW221522   6.712   5.129   2.535
 6875SOL     OW21523   2.299   2.540   2.605
 6875SOL    HW121524   2.377   2.478   2.599
 6875SOL    HW221525   2.319   2.613   2.670
 6876SOL     OW21526   4.132   0.408   3.678
 6876SOL    HW121527   4.198   0.481   3.692
 6876SOL    HW221528   4.157   0.354   3.597
 6877SOL     OW21529   2.581   3.761   1.241
 6877SOL    HW121530   2.624   3.792   1.325
 6877SOL    HW221531   2.649   3.759   1.167
 6878SOL     OW21532   3.957   1.011   4.176
 6878SOL    HW121533   4.006   0.971   4.098
 6878SOL    HW221534   3.873   0.959   4.192
 6879SOL     OW21535   0.965   2.932   0.851
 6879SOL    HW121536   0.988   2.839   0.820
 6879SOL    HW221537   0.949   2.931   0.949
 6880SOL     OW21538   2.510   5.511   5.125
 6880SOL    HW121539   2.422   5.464   5.133
 6880SOL    HW221540   2.580   5.459   5.175
 6881SOL     OW21541   1.578   4.868   0.862
 6881SOL    HW121542   1.613   4.810   0.936
 6881SOL    HW221543   1.553   4.811   0.783
 6882SOL     OW21544   2.901   0.657   0.359
 6882SOL    HW121545   2.965   0.627   0.430
 6882SOL    HW221546   2.866   0.748   0.381
 6883SOL     OW21547   4.863   1.774   6.828
 6883SOL    HW121548   4.873   1.826   6.743
 6883SOL    HW221549   4.819   1.687   6.810
 6884SOL     OW21550   1.295   4.072   3.760
 6884SOL    HW121551   1.374   4.011   3.765
 6884SOL    HW221552   1.239   4.062   3.842
 6885SOL     OW21553   4.558   4.406   4.459
 6885SOL    HW121554   4.624   4.476   4.486
 6885SOL    HW221555   4.553   4.335   4.530
 6886SOL     OW21556   6.913   0.830   3.960
 6886SOL    HW121557   6.992   0.845   4.020
 6886SOL    HW221558   6.844   0.776   4.008
 6887SOL     OW21559   5.191   5.749   6.164
 6887SOL    HW121560   5.266   5.815   6.162
 6887SOL    HW221561   5.205   5.685   6.240
 6888SOL     OW21562   5.388   5.570   6.417
 6888SOL    HW121563   5.459   5.525   6.472
 6888SOL    HW221564   5.391   5.535   6.324
 6889SOL     OW21565   1.483   2.862   5.647
 6889SOL    HW121566   1.472   2.881   5.745
 6889SOL    HW221567   1.494   2.763   5.634
 6890SOL     OW21568   3.817   6.539   2.059
 6890SOL    HW121569   3.864   6.618   2.018
 6890SOL    HW221570   3.864   6.512   2.143
 6891SOL     OW21571   1.724   4.178   2.696
 6891SOL    HW121572   1.753   4.257   2.751
 6891SOL    HW221573   1.700   4.210   2.604
 6892SOL     OW21574   3.797   2.145   3.424
 6892SOL    HW121575   3.836   2.115   3.511
 6892SOL    HW221576   3.863   2.204   3.376
 6893SOL     OW21577   4.700   4.637   0.305
 6893SOL    HW121578   4.778   4.672   0.357
 6893SOL    HW221579   4.728   4.556   0.254
 6894SOL     OW21580   5.998   5.165   0.373
 6894SOL    HW121581   6.016   5.126   0.463
 6894SOL    HW221582   5.997   5.265   0.379
 6895SOL     OW21583   2.742   4.985   1.404
 6895SOL    HW121584   2.691   4.920   1.460
 6895SOL    HW221585   2.728   5.078   1.439
 6896SOL     OW21586   2.507   0.603   3.969
 6896SOL    HW121587   2.525   0.622   3.873
 6896SOL    HW221588   2.421   0.646   3.997
 6897SOL     OW21589   4.972   3.517   5.269
 6897SOL    HW121590   5.015   3.456   5.202
 6897SOL    HW221591   4.873   3.522   5.250
 6898SOL     OW21592   4.292   1.690   1.537
 6898SOL    HW121593   4.349   1.751   1.592
 6898SOL    HW221594   4.281   1.603   1.584
 6899SOL     OW21595   4.527   6.200   1.876
 6899SOL    HW121596   4.595   6.273   1.889
 6899SOL    HW221597   4.512   6.186   1.779
 6900SOL     OW21598   6.418   5.607   4.919
 6900SOL    HW121599   6.408   5.585   4.822
 6900SOL    HW221600   6.343   5.565   4.971
 6901SOL     OW21601   6.278   6.185   6.142
 6901SOL    HW121602   6.235   6.114   6.087
 6901SOL    HW221603   6.269   6.274   6.097
 6902SOL     OW21604   6.819   6.302   0.136
 6902SOL    HW121605   6.764   6.333   0.214
 6902SOL    HW221606   6.788   6.211   0.108
 6903SOL     OW21607   2.894   5.156   5.534
 6903SOL    HW121608   2.815   5.109   5.494
 6903SOL    HW221609   2.978   5.111   5.506
 6904SOL     OW21610   6.786   0.570   4.329
 6904SOL    HW121611   6.748   0.555   4.421
 6904SOL    HW221612   6.726   0.527   4.261
 6905SOL     OW21613   5.852   5.989   6.615
 6905SOL    HW121614   5.787   6.061   6.636
 6905SOL    HW221615   5.830   5.948   6.527
 6906SOL     OW21616   4.421   1.435   4.412
 6906SOL    HW121617   4.465   1.462   4.326
 6906SOL    HW221618   4.470   1.357   4.451
 6907SOL     OW21619   5.734   2.876   1.784
 6907SOL    HW121620   5.768   2.848   1.874
 6907SOL    HW221621   5.776   2.963   1.758
 6908SOL     OW21622   1.436   5.413   0.034
 6908SOL    HW121623   1.389   5.326   0.016
 6908SOL    HW221624   1.492   5.438   6.977
 6909SOL     OW21625   5.090   4.352   1.409
 6909SOL    HW121626   5.155   4.408   1.460
 6909SOL    HW221627   5.001   4.353   1.454
 6910SOL     OW21628   0.908   2.782   3.409
 6910SOL    HW121629   0.825   2.773   3.354
 6910SOL    HW221630   0.982   2.729   3.367
 6911SOL     OW21631   4.361   6.763   4.289
 6911SOL    HW121632   4.414   6.817   4.354
 6911SOL    HW221633   4.354   6.812   4.202
 6912SOL     OW21634   3.417   3.557   6.394
 6912SOL    HW121635   3.449   3.475   6.443
 6912SOL    HW221636   3.462   3.562   6.305
 6913SOL     OW21637   5.499   6.080   3.552
 6913SOL    HW121638   5.525   6.005   3.492
 6913SOL    HW221639   5.401   6.074   3.572
 6914SOL     OW21640   6.007   4.251   3.550
 6914SOL    HW121641   6.098   4.289   3.538
 6914SOL    HW221642   6.011   4.152   3.544
 6915SOL     OW21643   6.025   3.031   1.901
 6915SOL    HW121644   6.012   3.063   1.807
 6915SOL    HW221645   5.972   3.089   1.963
 6916SOL     OW21646   5.466   1.775   6.883
 6916SOL    HW121647   5.419   1.688   6.869
 6916SOL    HW221648   5.398   1.847   6.900
 6917SOL     OW21649   3.218   6.973   1.905
 6917SOL    HW121650   3.308   6.931   1.894
 6917SOL    HW221651   3.228   0.047   1.929
 6918SOL     OW21652   0.401   2.782   4.872
 6918SOL    HW121653   0.369   2.690   4.851
 6918SOL    HW221654   0.323   2.844   4.879
 6919SOL     OW21655   5.653   5.759   3.575
 6919SOL    HW121656   5.618   5.741   3.484
 6919SOL    HW221657   5.577   5.767   3.639
 6920SOL     OW21658   4.269   6.186   5.913
 6920SOL    HW121659   4.172   6.203   5.933
 6920SOL    HW221660   4.290   6.219   5.821
 6921SOL     OW21661   5.024   5.769   4.147
 6921SOL    HW121662   4.931   5.749   4.178
 6921SOL    HW221663   5.021   5.812   4.057
 6922SOL     OW21664   1.530   6.305   4.805
 6922SOL    HW121665   1.520   6.206   4.814
 6922SOL    HW221666   1.486   6.350   4.882
 6923SOL     OW21667   4.957   5.466   2.974
 6923SOL    HW121668   5.022   5.447   3.047
 6923SOL    HW221669   4.865   5.477   3.013
 6924SOL     OW21670   1.814   4.323   6.308
 6924SOL    HW121671   1.738   4.261   6.329
 6924SOL    HW221672   1.882   4.318   6.381
 6925SOL     OW21673   4.895   6.186   3.716
 6925SOL    HW121674   4.983   6.153   3.747
 6925SOL    HW221675   4.834   6.109   3.699
 6926SOL     OW21676   2.920   2.387   0.640
 6926SOL    HW121677   2.952   2.329   0.715
 6926SOL    HW221678   2.847   2.340   0.590
 6927SOL     OW21679   3.858   3.019   5.820
 6927SOL    HW121680   3.889   3.004   5.726
 6927SOL    HW221681   3.925   3.075   5.869
 6928SOL     OW21682   5.631   5.928   1.078
 6928SOL    HW121683   5.657   5.837   1.046
 6928SOL    HW221684   5.611   5.987   1.000
 6929SOL     OW21685   5.088   5.837   1.527
 6929SOL    HW121686   5.103   5.852   1.429
 6929SOL    HW221687   4.994   5.804   1.542
 6930SOL     OW21688   0.950   0.785   1.800
 6930SOL    HW121689   0.962   0.688   1.823
 6930SOL    HW221690   0.864   0.818   1.840
 6931SOL     OW21691   1.985   0.813   2.396
 6931SOL    HW121692   2.061   0.795   2.333
 6931SOL    HW221693   2.020   0.848   2.482
 6932SOL     OW21694   4.148   6.823   6.979
 6932SOL    HW121695   4.222   6.763   7.009
 6932SOL    HW221696   4.073   6.768   6.944
 6933SOL     OW21697   3.552   5.707   5.408
 6933SOL    HW121698   3.555   5.609   5.390
 6933SOL    HW221699   3.463   5.743   5.381
 6934SOL     OW21700   4.522   3.947   6.446
 6934SOL    HW121701   4.462   4.009   6.497
 6934SOL    HW221702   4.467   3.876   6.402
 6935SOL     OW21703   4.724   5.718   2.469
 6935SOL    HW121704   4.627   5.740   2.480
 6935SOL    HW221705   4.779   5.777   2.528
 6936SOL     OW21706   6.066   1.927   3.265
 6936SOL    HW121707   6.147   1.891   3.219
 6936SOL    HW221708   6.090   2.007   3.319
 6937SOL     OW21709   6.366   6.418   0.082
 6937SOL    HW121710   6.432   6.365   0.029
 6937SOL    HW221711   6.405   6.507   0.104
 6938SOL     OW21712   6.306   2.514   5.162
 6938SOL    HW121713   6.360   2.431   5.176
 6938SOL    HW221714   6.245   2.527   5.241
 6939SOL     OW21715   0.656   5.067   2.312
 6939SOL    HW121716   0.697   5.017   2.388
 6939SOL    HW221717   0.557   5.057   2.315
 6940SOL     OW21718   3.521   0.303   6.099
 6940SOL    HW121719   3.565   0.262   6.019
 6940SOL    HW221720   3.585   0.304   6.175
 6941SOL     OW21721   3.009   4.082   1.813
 6941SOL    HW121722   2.998   4.181   1.810
 6941SOL    HW221723   3.098   4.060   1.854
 6942SOL     OW21724   6.048   6.912   1.649
 6942SOL    HW121725   6.052   6.938   1.553
 6942SOL    HW221726   5.968   6.955   1.691
 6943SOL     OW21727   3.122   5.644   0.294
 6943SOL    HW121728   3.161   5.569   0.241
 6943SOL    HW221729   3.192   5.714   0.309
 6944SOL     OW21730   0.665   4.495   6.339
 6944SOL    HW121731   0.603   4.489   6.418
 6944SOL    HW221732   0.759   4.504   6.371
 6945SOL     OW21733   6.165   1.400   0.143
 6945SOL    HW121734   6.206   1.317   0.181
 6945SOL    HW221735   6.072   1.411   0.178
 6946SOL     OW21736   4.161   6.700   0.918
 6946SOL    HW121737   4.089   6.638   0.888
 6946SOL    HW221738   4.121   6.787   0.947
 6947SOL     OW21739   3.728   5.801   6.495
 6947SOL    HW121740   3.647   5.854   6.470
 6947SOL    HW221741   3.800   5.862   6.527
 6948SOL     OW21742   1.030   0.007   0.251
 6948SOL    HW121743   1.059   0.098   0.219
 6948SOL    HW221744   0.935   0.012   0.282
 6949SOL     OW21745   3.882   0.474   3.380
 6949SOL    HW121746   3.845   0.477   3.473
 6949SOL    HW221747   3.975   0.511   3.380
 6950SOL     OW21748   1.095   1.898   4.969
 6950SOL    HW121749   1.129   1.839   4.895
 6950SOL    HW221750   1.138   1.872   5.055
 6951SOL     OW21751   6.141   5.170   5.744
 6951SOL    HW121752   6.223   5.159   5.689
 6951SOL    HW221753   6.132   5.266   5.772
 6952SOL     OW21754   0.539   6.277   3.068
 6952SOL    HW121755   0.554   6.308   3.162
 6952SOL    HW221756   0.598   6.329   3.006
 6953SOL     OW21757   3.857   6.576   1.375
 6953SOL    HW121758   3.876   6.652   1.437
 6953SOL    HW221759   3.847   6.610   1.282
 6954SOL     OW21760   6.842   3.875   2.552
 6954SOL    HW121761   6.880   3.964   2.577
 6954SOL    HW221762   6.813   3.877   2.456
 6955SOL     OW21763   5.787   0.279   2.097
 6955SOL    HW121764   5.788   0.180   2.083
 6955SOL    HW221765   5.693   0.309   2.113
 6956SOL     OW21766   5.802   5.957   3.442
 6956SOL    HW121767   5.793   5.877   3.502
 6956SOL    HW221768   5.715   5.976   3.397
 6957SOL     OW21769   6.301   5.557   0.922
 6957SOL    HW121770   6.260   5.593   0.838
 6957SOL    HW221771   6.237   5.570   0.998
 6958SOL     OW21772   3.956   3.430   4.634
 6958SOL    HW121773   3.901   3.412   4.553
 6958SOL    HW221774   4.036   3.483   4.609
 6959SOL     OW21775   1.923   3.374   3.331
 6959SOL    HW121776   1.899   3.330   3.418
 6959SOL    HW221777   2.014   3.344   3.303
 6960SOL     OW21778   1.496   4.559   1.330
 6960SOL    HW121779   1.507   4.470   1.374
 6960SOL    HW221780   1.519   4.631   1.395
 6961SOL     OW21781   5.401   0.907   4.108
 6961SOL    HW121782   5.367   0.814   4.095
 6961SOL    HW221783   5.501   0.905   4.110
 6962SOL     OW21784   4.948   6.219   1.828
 6962SOL    HW121785   4.931   6.137   1.774
 6962SOL    HW221786   4.862   6.261   1.855
 6963SOL     OW21787   5.043   5.937   1.157
 6963SOL    HW121788   5.085   6.028   1.154
 6963SOL    HW221789   5.054   5.892   1.068
 6964SOL     OW21790   3.626   1.030   5.616
 6964SOL    HW121791   3.623   0.961   5.689
 6964SOL    HW221792   3.706   1.089   5.630
 6965SOL     OW21793   1.738   1.024   0.141
 6965SOL    HW121794   1.707   0.933   0.168
 6965SOL    HW221795   1.688   1.093   0.194
 6966SOL     OW21796   1.162   2.251   2.891
 6966SOL    HW121797   1.220   2.279   2.815
 6966SOL    HW221798   1.201   2.169   2.934
 6967SOL     OW21799   2.683   1.167   5.697
 6967SOL    HW121800   2.704   1.261   5.726
 6967SOL    HW221801   2.698   1.105   5.774
 6968SOL     OW21802   3.619   0.525   3.240
 6968SOL    HW121803   3.706   0.548   3.284
 6968SOL    HW221804   3.635   0.506   3.143
 6969SOL     OW21805   3.021   2.256   1.663
 6969SOL    HW121806   2.978   2.308   1.738
 6969SOL    HW221807   3.111   2.225   1.692
 6970SOL     OW21808   4.241   4.496   5.501
 6970SOL    HW121809   4.280   4.453   5.582
 6970SOL    HW221810   4.154   4.538   5.524
 6971SOL     OW21811   6.629   4.526   1.061
 6971SOL    HW121812   6.718   4.509   1.019
 6971SOL    HW221813   6.599   4.445   1.111
 6972SOL     OW21814   5.471   4.643   2.775
 6972SOL    HW121815   5.556   4.590   2.780
 6972SOL    HW221816   5.488   4.736   2.807
 6973SOL     OW21817   1.173   3.103   3.463
 6973SOL    HW121818   1.185   3.197   3.494
 6973SOL    HW221819   1.150   3.102   3.366
 6974SOL     OW21820   3.000   3.809   2.740
 6974SOL    HW121821   2.961   3.803   2.649
 6974SOL    HW221822   3.066   3.735   2.754
 6975SOL     OW21823   1.336   6.302   6.091
 6975SOL    HW121824   1.279   6.358   6.151
 6975SOL    HW221825   1.406   6.256   6.146
 6976SOL     OW21826   5.735   5.221   5.392
 6976SOL    HW121827   5.648   5.245   5.436
 6976SOL    HW221828   5.781   5.151   5.447
 6977SOL     OW21829   3.870   2.929   1.495
 6977SOL    HW121830   3.880   2.844   1.547
 6977SOL    HW221831   3.838   3.001   1.556
 6978SOL     OW21832   5.883   1.694   2.314
 6978SOL    HW121833   5.820   1.746   2.373
 6978SOL    HW221834   5.965   1.671   2.365
 6979SOL     OW21835   0.778   4.186   1.850
 6979SOL    HW121836   0.762   4.249   1.926
 6979SOL    HW221837   0.837   4.230   1.782
 6980SOL     OW21838   2.173   1.676   4.187
 6980SOL    HW121839   2.083   1.646   4.155
 6980SOL    HW221840   2.198   1.762   4.142
 6981SOL     OW21841   3.857   3.321   5.976
 6981SOL    HW121842   3.943   3.291   5.937
 6981SOL    HW221843   3.826   3.256   6.046
 6982SOL     OW21844   0.955   1.191   4.830
 6982SOL    HW121845   1.052   1.168   4.824
 6982SOL    HW221846   0.943   1.267   4.895
 6983SOL     OW21847   4.031   1.986   3.659
 6983SOL    HW121848   3.956   2.029   3.710
 6983SOL    HW221849   4.114   2.042   3.670
 6984SOL     OW21850   1.733   1.436   3.454
 6984SOL    HW121851   1.743   1.471   3.360
 6984SOL    HW221852   1.642   1.459   3.488
 6985SOL     OW21853   5.980   5.055   1.076
 6985SOL    HW121854   6.060   4.996   1.090
 6985SOL    HW221855   5.940   5.036   0.987
 6986SOL     OW21856   2.283   0.035   6.314
 6986SOL    HW121857   2.360   7.009   6.354
 6986SOL    HW221858   2.316   0.112   6.259
 6987SOL     OW21859   5.918   1.325   6.294
 6987SOL    HW121860   5.874   1.271   6.221
 6987SOL    HW221861   6.003   1.280   6.320
 6988SOL     OW21862   1.261   6.783   6.614
 6988SOL    HW121863   1.327   6.708   6.604
 6988SOL    HW221864   1.308   6.864   6.648
 6989SOL     OW21865   1.044   4.181   3.322
 6989SOL    HW121866   1.028   4.224   3.411
 6989SOL    HW221867   1.033   4.248   3.249
 6990SOL     OW21868   4.820   2.955   1.415
 6990SOL    HW121869   4.844   2.981   1.509
 6990SOL    HW221870   4.746   2.888   1.417
 6991SOL     OW21871   4.548   4.387   3.517
 6991SOL    HW121872   4.583   4.336   3.438
 6991SOL    HW221873   4.596   4.359   3.599
 6992SOL     OW21874   5.642   6.806   6.389
 6992SOL    HW121875   5.709   6.761   6.447
 6992SOL    HW221876   5.559   6.825   6.441
 6993SOL     OW21877   6.276   0.251   3.039
 6993SOL    HW121878   6.359   0.252   2.983
 6993SOL    HW221879   6.211   0.185   3.000
 6994SOL     OW21880   0.445   2.442   4.124
 6994SOL    HW121881   0.425   2.531   4.164
 6994SOL    HW221882   0.450   2.373   4.196
 6995SOL     OW21883   0.362   4.801   6.261
 6995SOL    HW121884   0.331   4.816   6.355
 6995SOL    HW221885   0.287   4.765   6.206
 6996SOL     OW21886   1.747   0.103   6.819
 6996SOL    HW121887   1.704   0.162   6.750
 6996SOL    HW221888   1.791   0.160   6.888
 6997SOL     OW21889   0.371   5.663   5.647
 6997SOL    HW121890   0.341   5.605   5.572
 6997SOL    HW221891   0.353   5.759   5.624
 6998SOL     OW21892   1.951   0.565   1.480
 6998SOL    HW121893   1.906   0.504   1.416
 6998SOL    HW221894   1.905   0.654   1.479
 6999SOL     OW21895   2.473   2.147   6.658
 6999SOL    HW121896   2.572   2.146   6.674
 6999SOL    HW221897   2.452   2.212   6.585
 7000SOL     OW21898   5.315   6.602   1.781
 7000SOL    HW121899   5.382   6.536   1.746
 7000SOL    HW221900   5.329   6.690   1.737
 7001SOL     OW21901   2.267   3.186   6.065
 7001SOL    HW121902   2.256   3.087   6.059
 7001SOL    HW221903   2.182   3.230   6.039
 7002SOL     OW21904   1.398   5.475   3.868
 7002SOL    HW121905   1.390   5.395   3.808
 7002SOL    HW221906   1.397   5.559   3.814
 7003SOL     OW21907   4.267   5.716   0.951
 7003SOL    HW121908   4.259   5.792   1.015
 7003SOL    HW221909   4.216   5.737   0.868
 7004SOL     OW21910   0.773   5.442   1.862
 7004SOL    HW121911   0.712   5.521   1.866
 7004SOL    HW221912   0.737   5.377   1.794
 7005SOL     OW21913   0.798   6.734   0.437
 7005SOL    HW121914   0.886   6.752   0.480
 7005SOL    HW221915   0.734   6.807   0.461
 7006SOL     OW21916   4.618   4.895   3.921
 7006SOL    HW121917   4.643   4.950   3.841
 7006SOL    HW221918   4.541   4.938   3.968
 7007SOL     OW21919   4.524   0.735   4.585
 7007SOL    HW121920   4.534   0.691   4.674
 7007SOL    HW221921   4.595   0.701   4.523
 7008SOL     OW21922   0.317   4.431   4.284
 7008SOL    HW121923   0.398   4.418   4.228
 7008SOL    HW221924   0.272   4.517   4.259
 7009SOL     OW21925   4.593   6.163   2.927
 7009SOL    HW121926   4.651   6.232   2.971
 7009SOL    HW221927   4.649   6.102   2.872
 7010SOL     OW21928   5.460   4.128   3.869
 7010SOL    HW121929   5.487   4.184   3.947
 7010SOL    HW221930   5.485   4.033   3.887
 7011SOL     OW21931   3.381   6.155   6.637
 7011SOL    HW121932   3.291   6.116   6.614
 7011SOL    HW221933   3.440   6.083   6.674
 7012SOL     OW21934   0.804   1.637   1.495
 7012SOL    HW121935   0.789   1.717   1.436
 7012SOL    HW221936   0.734   1.635   1.566
 7013SOL     OW21937   1.021   6.790   0.134
 7013SOL    HW121938   0.997   6.797   0.037
 7013SOL    HW221939   1.029   6.882   0.173
 7014SOL     OW21940   4.472   3.213   0.804
 7014SOL    HW121941   4.477   3.137   0.739
 7014SOL    HW221942   4.419   3.288   0.764
 7015SOL     OW21943   6.198   4.178   1.047
 7015SOL    HW121944   6.224   4.095   0.998
 7015SOL    HW221945   6.156   4.155   1.134
 7016SOL     OW21946   3.364   5.125   1.419
 7016SOL    HW121947   3.287   5.132   1.482
 7016SOL    HW221948   3.439   5.075   1.462
 7017SOL     OW21949   2.602   5.024   3.357
 7017SOL    HW121950   2.632   5.104   3.305
 7017SOL    HW221951   2.503   5.016   3.351
 7018SOL     OW21952   5.518   3.455   4.492
 7018SOL    HW121953   5.534   3.359   4.514
 7018SOL    HW221954   5.589   3.511   4.534
 7019SOL     OW21955   3.587   4.522   0.228
 7019SOL    HW121956   3.557   4.528   0.133
 7019SOL    HW221957   3.682   4.493   0.232
 7020SOL     OW21958   6.675   4.172   5.612
 7020SOL    HW121959   6.671   4.268   5.584
 7020SOL    HW221960   6.767   4.137   5.599
 7021SOL     OW21961   1.755   2.297   5.064
 7021SOL    HW121962   1.676   2.334   5.113
 7021SOL    HW221963   1.825   2.269   5.130
 7022SOL     OW21964   4.655   6.439   6.577
 7022SOL    HW121965   4.615   6.391   6.499
 7022SOL    HW221966   4.755   6.436   6.571
 7023SOL     OW21967   1.540   2.340   3.494
 7023SOL    HW121968   1.591   2.419   3.461
 7023SOL    HW221969   1.603   2.275   3.537
 7024SOL     OW21970   3.100   3.733   5.218
 7024SOL    HW121971   3.188   3.781   5.219
 7024SOL    HW221972   3.051   3.755   5.134
 7025SOL     OW21973   3.389   0.606   0.545
 7025SOL    HW121974   3.371   0.538   0.616
 7025SOL    HW221975   3.343   0.692   0.569
 7026SOL     OW21976   3.323   2.102   2.144
 7026SOL    HW121977   3.373   2.110   2.058
 7026SOL    HW221978   3.337   2.010   2.182
 7027SOL     OW21979   2.171   5.350   3.861
 7027SOL    HW121980   2.095   5.414   3.850
 7027SOL    HW221981   2.150   5.285   3.933
 7028SOL     OW21982   2.826   1.436   3.181
 7028SOL    HW121983   2.775   1.521   3.167
 7028SOL    HW221984   2.849   1.427   3.277
 7029SOL     OW21985   4.581   4.656   5.266
 7029SOL    HW121986   4.578   4.756   5.261
 7029SOL    HW221987   4.667   4.627   5.309
 7030SOL     OW21988   1.109   0.975   5.041
 7030SOL    HW121989   1.031   1.026   5.076
 7030SOL    HW221990   1.123   0.997   4.944
 7031SOL     OW21991   3.809   5.867   6.156
 7031SOL    HW121992   3.883   5.823   6.207
 7031SOL    HW221993   3.795   5.960   6.191
 7032SOL     OW21994   4.313   1.742   3.849
 7032SOL    HW121995   4.229   1.713   3.802
 7032SOL    HW221996   4.348   1.825   3.806
 7033SOL     OW21997   1.899   2.351   3.551
 7033SOL    HW121998   1.909   2.334   3.453
 7033SOL    HW221999   1.982   2.322   3.598
 7034SOL     OW22000   0.224   1.002   3.093
 7034SOL    HW122001   0.277   1.058   3.030
 7034SOL    HW222002   0.169   1.062   3.152
 7035SOL     OW22003   1.499   6.713   0.676
 7035SOL    HW122004   1.553   6.780   0.624
 7035SOL    HW222005   1.560   6.647   0.719
 7036SOL     OW22006   0.073   0.853   2.715
 7036SOL    HW122007   0.024   0.925   2.667
 7036SOL    HW222008   0.050   0.855   2.813
 7037SOL     OW22009   1.484   1.739   6.842
 7037SOL    HW122010   1.387   1.748   6.866
 7037SOL    HW222011   1.506   1.642   6.830
 7038SOL     OW22012   2.144   3.859   5.159
 7038SOL    HW122013   2.204   3.801   5.215
 7038SOL    HW222014   2.196   3.938   5.126
 7039SOL     OW22015   1.091   5.636   3.038
 7039SOL    HW122016   1.106   5.680   3.127
 7039SOL    HW222017   1.128   5.543   3.041
 7040SOL     OW22018   5.199   2.381   5.609
 7040SOL    HW122019   5.099   2.372   5.607
 7040SOL    HW222020   5.224   2.458   5.667
 7041SOL     OW22021   6.655   1.225   2.012
 7041SOL    HW122022   6.651   1.177   2.099
 7041SOL    HW222023   6.594   1.180   1.947
 7042SOL     OW22024   4.147   5.689   5.175
 7042SOL    HW122025   4.048   5.696   5.185
 7042SOL    HW222026   4.189   5.779   5.190
 7043SOL     OW22027   2.272   4.940   3.054
 7043SOL    HW122028   2.174   4.921   3.053
 7043SOL    HW222029   2.294   4.999   3.131
 7044SOL     OW22030   5.919   5.135   4.815
 7044SOL    HW122031   5.847   5.167   4.754
 7044SOL    HW222032   5.893   5.152   4.910
 7045SOL     OW22033   4.918   5.064   2.794
 7045SOL    HW122034   5.013   5.052   2.765
 7045SOL    HW222035   4.894   4.991   2.858
 7046SOL     OW22036   3.033   1.677   3.636
 7046SOL    HW122037   2.957   1.738   3.659
 7046SOL    HW222038   2.999   1.599   3.584
 7047SOL     OW22039   6.640   0.764   2.545
 7047SOL    HW122040   6.551   0.741   2.504
 7047SOL    HW222041   6.709   0.700   2.513
 7048SOL     OW22042   5.918   6.765   4.006
 7048SOL    HW122043   5.902   6.706   4.085
 7048SOL    HW222044   5.923   6.709   3.923
 7049SOL     OW22045   3.752   1.809   1.036
 7049SOL    HW122046   3.806   1.744   1.089
 7049SOL    HW222047   3.655   1.785   1.041
 7050SOL     OW22048   4.075   3.648   1.480
 7050SOL    HW122049   4.055   3.738   1.519
 7050SOL    HW222050   4.014   3.631   1.402
 7051SOL     OW22051   6.544   0.134   1.298
 7051SOL    HW122052   6.526   0.118   1.395
 7051SOL    HW222053   6.523   0.229   1.276
 7052SOL     OW22054   6.252   1.415   3.323
 7052SOL    HW122055   6.252   1.479   3.247
 7052SOL    HW222056   6.324   1.439   3.388
 7053SOL     OW22057   1.933   3.168   4.869
 7053SOL    HW122058   2.000   3.194   4.939
 7053SOL    HW222059   1.965   3.200   4.779
 7054SOL     OW22060   6.897   6.935   0.640
 7054SOL    HW122061   6.916   6.884   0.556
 7054SOL    HW222062   6.821   6.891   0.689
 7055SOL     OW22063   2.829   0.072   6.720
 7055SOL    HW122064   2.738   0.034   6.707
 7055SOL    HW222065   2.823   0.153   6.778
 7056SOL     OW22066   6.598   5.281   1.455
 7056SOL    HW122067   6.617   5.374   1.424
 7056SOL    HW222068   6.506   5.277   1.493
 7057SOL     OW22069   2.767   5.018   3.704
 7057SOL    HW122070   2.694   5.079   3.674
 7057SOL    HW222071   2.743   4.923   3.684
 7058SOL     OW22072   5.531   2.834   6.063
 7058SOL    HW122073   5.610   2.798   6.113
 7058SOL    HW222074   5.530   2.798   5.970
 7059SOL     OW22075   0.789   1.771   4.002
 7059SOL    HW122076   0.804   1.870   4.010
 7059SOL    HW222077   0.874   1.723   4.022
 7060SOL     OW22078   3.347   0.228   1.957
 7060SOL    HW122079   3.312   0.316   1.925
 7060SOL    HW222080   3.353   0.228   2.056
 7061SOL     OW22081   0.342   3.314   3.611
 7061SOL    HW122082   0.333   3.226   3.658
 7061SOL    HW222083   0.259   3.368   3.626
 7062SOL     OW22084   3.241   2.201   5.307
 7062SOL    HW122085   3.305   2.264   5.351
 7062SOL    HW222086   3.185   2.250   5.241
 7063SOL     OW22087   1.655   6.641   1.945
 7063SOL    HW122088   1.577   6.636   2.008
 7063SOL    HW222089   1.652   6.727   1.895
 7064SOL     OW22090   4.040   1.885   0.166
 7064SOL    HW122091   4.044   1.800   0.219
 7064SOL    HW222092   3.972   1.875   0.093
 7065SOL     OW22093   4.133   3.608   5.958
 7065SOL    HW122094   4.148   3.540   5.886
 7065SOL    HW222095   4.096   3.562   6.039
 7066SOL     OW22096   3.620   6.912   6.205
 7066SOL    HW122097   3.695   6.978   6.209
 7066SOL    HW222098   3.643   6.839   6.141
 7067SOL     OW22099   1.479   3.495   5.609
 7067SOL    HW122100   1.573   3.507   5.577
 7067SOL    HW222101   1.438   3.584   5.627
 7068SOL     OW22102   6.317   4.393   4.688
 7068SOL    HW122103   6.357   4.484   4.682
 7068SOL    HW222104   6.298   4.359   4.596
 7069SOL     OW22105   5.440   2.203   4.728
 7069SOL    HW122106   5.508   2.246   4.668
 7069SOL    HW222107   5.349   2.222   4.692
 7070SOL     OW22108   0.964   7.007   4.773
 7070SOL    HW122109   0.937   6.921   4.817
 7070SOL    HW222110   1.016   6.987   4.691
 7071SOL     OW22111   4.010   6.190   6.032
 7071SOL    HW122112   4.025   6.280   6.074
 7071SOL    HW222113   3.938   6.142   6.082
 7072SOL     OW22114   2.009   5.800   0.132
 7072SOL    HW122115   1.972   5.872   0.073
 7072SOL    HW222116   1.999   5.826   0.228
 7073SOL     OW22117   5.277   6.789   3.669
 7073SOL    HW122118   5.309   6.882   3.654
 7073SOL    HW222119   5.182   6.791   3.700
 7074SOL     OW22120   6.347   2.959   1.603
 7074SOL    HW122121   6.292   3.035   1.568
 7074SOL    HW222122   6.440   2.990   1.620
 7075SOL     OW22123   1.845   4.055   4.853
 7075SOL    HW122124   1.939   4.023   4.862
 7075SOL    HW222125   1.824   4.074   4.757
 7076SOL     OW22126   5.364   3.085   0.409
 7076SOL    HW122127   5.426   3.027   0.461
 7076SOL    HW222128   5.276   3.038   0.397
 7077SOL     OW22129   1.999   4.285   3.838
 7077SOL    HW122130   2.001   4.370   3.890
 7077SOL    HW222131   1.956   4.213   3.893
 7078SOL     OW22132   6.799   6.185   1.978
 7078SOL    HW122133   6.782   6.112   1.912
 7078SOL    HW222134   6.803   6.273   1.931
 7079SOL     OW22135   0.866   0.219   4.143
 7079SOL    HW122136   0.878   0.135   4.090
 7079SOL    HW222137   0.942   0.282   4.123
 7080SOL     OW22138   3.288   1.458   4.445
 7080SOL    HW122139   3.366   1.467   4.383
 7080SOL    HW222140   3.219   1.399   4.402
 7081SOL     OW22141   1.855   5.893   0.413
 7081SOL    HW122142   1.890   5.804   0.441
 7081SOL    HW222143   1.922   5.964   0.436
 7082SOL     OW22144   6.386   4.828   0.043
 7082SOL    HW122145   6.469   4.843   0.097
 7082SOL    HW222146   6.410   4.826   6.968
 7083SOL     OW22147   1.441   1.249   2.256
 7083SOL    HW122148   1.347   1.258   2.221
 7083SOL    HW222149   1.504   1.289   2.190
 7084SOL     OW22150   0.894   5.358   5.583
 7084SOL    HW122151   0.968   5.404   5.533
 7084SOL    HW222152   0.811   5.360   5.528
 7085SOL     OW22153   0.625   1.850   2.000
 7085SOL    HW122154   0.570   1.767   2.007
 7085SOL    HW222155   0.712   1.836   2.048
 7086SOL     OW22156   5.997   1.016   5.648
 7086SOL    HW122157   6.063   1.060   5.587
 7086SOL    HW222158   6.043   0.988   5.732
 7087SOL     OW22159   6.039   4.277   2.845
 7087SOL    HW122160   6.027   4.350   2.778
 7087SOL    HW222161   6.005   4.308   2.934
 7088SOL     OW22162   5.134   2.598   4.292
 7088SOL    HW122163   5.067   2.549   4.236
 7088SOL    HW222164   5.111   2.587   4.389
 7089SOL     OW22165   2.285   2.762   4.498
 7089SOL    HW122166   2.274   2.732   4.593
 7089SOL    HW222167   2.365   2.717   4.458
 7090SOL     OW22168   2.445   1.105   0.126
 7090SOL    HW122169   2.424   1.201   0.144
 7090SOL    HW222170   2.535   1.082   0.163
 7091SOL     OW22171   0.677   1.548   0.809
 7091SOL    HW122172   0.622   1.622   0.772
 7091SOL    HW222173   0.664   1.465   0.754
 7092SOL     OW22174   4.419   3.157   5.662
 7092SOL    HW122175   4.328   3.149   5.702
 7092SOL    HW222176   4.416   3.221   5.585
 7093SOL     OW22177   3.584   4.077   2.273
 7093SOL    HW122178   3.627   3.989   2.291
 7093SOL    HW222179   3.603   4.139   2.349
 7094SOL     OW22180   0.522   6.334   5.557
 7094SOL    HW122181   0.453   6.363   5.623
 7094SOL    HW222182   0.504   6.378   5.469
 7095SOL     OW22183   2.691   4.348   6.052
 7095SOL    HW122184   2.596   4.325   6.073
 7095SOL    HW222185   2.745   4.264   6.043
 7096SOL     OW22186   6.631   0.221   2.004
 7096SOL    HW122187   6.599   0.284   2.074
 7096SOL    HW222188   6.568   0.143   1.999
 7097SOL     OW22189   4.798   0.493   1.658
 7097SOL    HW122190   4.841   0.582   1.671
 7097SOL    HW222191   4.849   0.423   1.708
 7098SOL     OW22192   1.939   5.464   5.478
 7098SOL    HW122193   1.858   5.483   5.422
 7098SOL    HW222194   1.924   5.381   5.531
 7099SOL     OW22195   3.779   1.725   5.088
 7099SOL    HW122196   3.809   1.817   5.062
 7099SOL    HW222197   3.705   1.731   5.155
 7100SOL     OW22198   6.419   3.468   0.095
 7100SOL    HW122199   6.427   3.428   0.187
 7100SOL    HW222200   6.333   3.439   0.054
 7101SOL     OW22201   2.566   1.522   5.229
 7101SOL    HW122202   2.522   1.492   5.144
 7101SOL    HW222203   2.623   1.448   5.265
 7102SOL     OW22204   5.641   0.076   0.916
 7102SOL    HW122205   5.565   0.012   0.922
 7102SOL    HW222206   5.669   0.104   1.008
 7103SOL     OW22207   5.683   5.642   2.152
 7103SOL    HW122208   5.670   5.547   2.124
 7103SOL    HW222209   5.726   5.693   2.078
 7104SOL     OW22210   6.554   3.825   3.008
 7104SOL    HW122211   6.613   3.864   2.937
 7104SOL    HW222212   6.542   3.727   2.990
 7105SOL     OW22213   2.884   3.150   5.234
 7105SOL    HW122214   2.886   3.249   5.242
 7105SOL    HW222215   2.793   3.116   5.260
 7106SOL     OW22216   3.484   3.074   1.936
 7106SOL    HW122217   3.485   3.128   1.851
 7106SOL    HW222218   3.480   3.135   2.014
 7107SOL     OW22219   4.817   0.203   0.694
 7107SOL    HW122220   4.768   0.116   0.689
 7107SOL    HW222221   4.775   0.268   0.630
 7108SOL     OW22222   3.228   5.518   2.400
 7108SOL    HW122223   3.242   5.466   2.484
 7108SOL    HW222224   3.131   5.516   2.376
 7109SOL     OW22225   1.863   0.294   5.868
 7109SOL    HW122226   1.835   0.244   5.950
 7109SOL    HW222227   1.911   0.232   5.806
 7110SOL     OW22228   3.168   6.003   4.473
 7110SOL    HW122229   3.225   5.970   4.548
 7110SOL    HW222230   3.132   5.925   4.422
 7111SOL     OW22231   0.989   2.531   4.897
 7111SOL    HW122232   0.927   2.608   4.882
 7111SOL    HW222233   1.032   2.540   4.988
 7112SOL     OW22234   1.810   4.938   4.380
 7112SOL    HW122235   1.875   4.886   4.436
 7112SOL    HW222236   1.804   5.032   4.413
 7113SOL     OW22237   3.637   3.999   5.004
 7113SOL    HW122238   3.650   3.982   4.906
 7113SOL    HW222239   3.673   3.923   5.057
 7114SOL     OW22240   4.905   5.585   0.750
 7114SOL    HW122241   4.891   5.558   0.845
 7114SOL    HW222242   4.999   5.564   0.724
 7115SOL     OW22243   4.066   2.981   0.284
 7115SOL    HW122244   4.163   2.976   0.307
 7115SOL    HW222245   4.051   3.052   0.215
 7116SOL     OW22246   5.279   4.351   3.247
 7116SOL    HW122247   5.357   4.293   3.226
 7116SOL    HW222248   5.213   4.300   3.303
 7117SOL     OW22249   0.093   6.472   4.963
 7117SOL    HW122250   0.172   6.427   5.005
 7117SOL    HW222251   0.123   6.556   4.917
 7118SOL     OW22252   3.316   4.756   6.289
 7118SOL    HW122253   3.271   4.668   6.302
 7118SOL    HW222254   3.390   4.746   6.223
 7119SOL     OW22255   5.478   0.870   4.389
 7119SOL    HW122256   5.514   0.857   4.297
 7119SOL    HW222257   5.532   0.939   4.437
 7120SOL     OW22258   3.460   2.071   1.899
 7120SOL    HW122259   3.476   2.013   1.819
 7120SOL    HW222260   3.541   2.127   1.916
 7121SOL     OW22261   0.851   6.828   3.909
 7121SOL    HW122262   0.902   6.747   3.937
 7121SOL    HW222263   0.768   6.800   3.860
 7122SOL     OW22264   1.244   0.829   5.603
 7122SOL    HW122265   1.187   0.845   5.684
 7122SOL    HW222266   1.264   0.916   5.558
 7123SOL     OW22267   1.644   5.193   3.931
 7123SOL    HW122268   1.590   5.276   3.941
 7123SOL    HW222269   1.612   5.142   3.851
 7124SOL     OW22270   6.965   2.457   1.475
 7124SOL    HW122271   0.018   2.515   1.504
 7124SOL    HW222272   6.991   2.361   1.485
 7125SOL     OW22273   1.133   0.195   0.457
 7125SOL    HW122274   1.213   0.244   0.491
 7125SOL    HW222275   1.161   0.129   0.387
 7126SOL     OW22276   3.174   4.961   0.598
 7126SOL    HW122277   3.187   5.056   0.571
 7126SOL    HW222278   3.100   4.921   0.544
 7127SOL     OW22279   2.943   5.777   6.765
 7127SOL    HW122280   2.919   5.800   6.671
 7127SOL    HW222281   3.007   5.700   6.765
 7128SOL     OW22282   3.204   3.904   6.678
 7128SOL    HW122283   3.113   3.938   6.655
 7128SOL    HW222284   3.215   3.904   6.778
 7129SOL     OW22285   2.230   1.007   0.700
 7129SOL    HW122286   2.263   0.919   0.667
 7129SOL    HW222287   2.264   1.023   0.793
 7130SOL     OW22288   3.299   6.418   4.347
 7130SOL    HW122289   3.230   6.363   4.301
 7130SOL    HW222290   3.385   6.414   4.296
 7131SOL     OW22291   2.927   1.138   1.264
 7131SOL    HW122292   2.959   1.047   1.288
 7131SOL    HW222293   2.920   1.194   1.346
 7132SOL     OW22294   4.237   3.949   0.299
 7132SOL    HW122295   4.185   3.864   0.311
 7132SOL    HW222296   4.177   4.027   0.316
 7133SOL     OW22297   3.843   4.539   5.361
 7133SOL    HW122298   3.866   4.452   5.404
 7133SOL    HW222299   3.749   4.536   5.327
 7134SOL     OW22300   4.468   0.093   1.857
 7134SOL    HW122301   4.493   0.175   1.805
 7134SOL    HW222302   4.516   0.094   1.945
 7135SOL     OW22303   1.992   2.349   3.278
 7135SOL    HW122304   2.074   2.392   3.316
 7135SOL    HW222305   1.995   2.353   3.178
 7136SOL     OW22306   3.309   1.416   0.490
 7136SOL    HW122307   3.401   1.414   0.452
 7136SOL    HW222308   3.269   1.507   0.477
 7137SOL     OW22309   3.160   1.634   0.389
 7137SOL    HW122310   3.108   1.681   0.318
 7137SOL    HW222311   3.159   1.689   0.473
 7138SOL     OW22312   1.897   1.962   0.984
 7138SOL    HW122313   1.905   1.863   0.986
 7138SOL    HW222314   1.860   1.994   1.072
 7139SOL     OW22315   4.998   5.146   2.073
 7139SOL    HW122316   4.956   5.138   2.164
 7139SOL    HW222317   4.942   5.097   2.006
 7140SOL     OW22318   6.173   3.971   0.697
 7140SOL    HW122319   6.198   3.884   0.654
 7140SOL    HW222320   6.248   4.001   0.755
 7141SOL     OW22321   3.510   6.737   1.162
 7141SOL    HW122322   3.438   6.685   1.208
 7141SOL    HW222323   3.470   6.799   1.095
 7142SOL     OW22324   3.939   6.837   3.615
 7142SOL    HW122325   3.987   6.822   3.529
 7142SOL    HW222326   3.991   6.899   3.673
 7143SOL     OW22327   2.244   3.466   0.125
 7143SOL    HW122328   2.211   3.531   0.057
 7143SOL    HW222329   2.190   3.382   0.120
 7144SOL     OW22330   1.721   1.188   3.310
 7144SOL    HW122331   1.812   1.147   3.320
 7144SOL    HW222332   1.711   1.262   3.377
 7145SOL     OW22333   3.745   0.753   6.543
 7145SOL    HW122334   3.692   0.778   6.462
 7145SOL    HW222335   3.694   0.780   6.625
 7146SOL     OW22336   1.629   0.715   6.212
 7146SOL    HW122337   1.651   0.784   6.143
 7146SOL    HW222338   1.695   0.640   6.207
 7147SOL     OW22339   7.021   6.026   2.839
 7147SOL    HW122340   6.922   6.036   2.848
 7147SOL    HW222341   0.041   6.117   2.835
 7148SOL     OW22342   6.495   6.048   1.741
 7148SOL    HW122343   6.413   6.058   1.797
 7148SOL    HW222344   6.516   6.135   1.696
 7149SOL     OW22345   0.291   5.248   3.878
 7149SOL    HW122346   0.337   5.334   3.855
 7149SOL    HW222347   0.230   5.263   3.956
 7150SOL     OW22348   3.532   3.079   0.593
 7150SOL    HW122349   3.468   3.139   0.544
 7150SOL    HW222350   3.488   2.991   0.612
 7151SOL     OW22351   3.186   6.865   1.341
 7151SOL    HW122352   3.107   6.908   1.297
 7151SOL    HW222353   3.213   6.784   1.288
 7152SOL     OW22354   6.714   0.323   6.166
 7152SOL    HW122355   6.726   0.422   6.161
 7152SOL    HW222356   6.694   0.287   6.074
 7153SOL     OW22357   3.799   5.080   1.694
 7153SOL    HW122358   3.885   5.128   1.676
 7153SOL    HW222359   3.816   5.004   1.757
 7154SOL     OW22360   4.876   6.117   3.203
 7154SOL    HW122361   4.841   6.024   3.195
 7154SOL    HW222362   4.943   6.133   3.130
 7155SOL     OW22363   3.016   3.645   1.604
 7155SOL    HW122364   2.990   3.684   1.693
 7155SOL    HW222365   2.934   3.632   1.548
 7156SOL     OW22366   5.657   3.905   2.635
 7156SOL    HW122367   5.738   3.907   2.578
 7156SOL    HW222368   5.612   3.816   2.627
 7157SOL     OW22369   0.025   5.105   1.913
 7157SOL    HW122370   0.024   5.061   2.003
 7157SOL    HW222371   6.999   5.047   1.847
 7158SOL     OW22372   1.192   0.304   3.725
 7158SOL    HW122373   1.121   0.375   3.730
 7158SOL    HW222374   1.175   0.246   3.645
 7159SOL     OW22375   1.565   4.932   4.079
 7159SOL    HW122376   1.652   4.970   4.049
 7159SOL    HW222377   1.502   5.006   4.103
 7160SOL     OW22378   6.283   6.872   3.031
 7160SOL    HW122379   6.220   6.870   3.109
 7160SOL    HW222380   6.376   6.886   3.065
 7161SOL     OW22381   3.290   3.965   3.024
 7161SOL    HW122382   3.305   3.877   3.071
 7161SOL    HW222383   3.312   3.954   2.927
 7162SOL     OW22384   1.396   5.131   6.014
 7162SOL    HW122385   1.452   5.099   5.937
 7162SOL    HW222386   1.381   5.229   6.005
 7163SOL     OW22387   2.738   0.514   2.149
 7163SOL    HW122388   2.771   0.568   2.227
 7163SOL    HW222389   2.638   0.507   2.153
 7164SOL     OW22390   2.837   0.623   4.907
 7164SOL    HW122391   2.903   0.549   4.915
 7164SOL    HW222392   2.809   0.653   4.999
 7165SOL     OW22393   5.670   6.378   1.525
 7165SOL    HW122394   5.643   6.426   1.441
 7165SOL    HW222395   5.669   6.280   1.509
 7166SOL     OW22396   5.718   1.555   0.409
 7166SOL    HW122397   5.624   1.545   0.377
 7166SOL    HW222398   5.734   1.649   0.438
 7167SOL     OW22399   4.877   3.081   4.777
 7167SOL    HW122400   4.842   3.005   4.831
 7167SOL    HW222401   4.861   3.167   4.825
 7168SOL     OW22402   2.772   2.110   2.998
 7168SOL    HW122403   2.734   2.121   2.906
 7168SOL    HW222404   2.872   2.119   2.993
 7169SOL     OW22405   6.787   4.267   5.293
 7169SOL    HW122406   6.729   4.343   5.322
 7169SOL    HW222407   6.735   4.204   5.237
 7170SOL     OW22408   4.833   0.200   2.563
 7170SOL    HW122409   4.764   0.157   2.621
 7170SOL    HW222410   4.924   0.163   2.586
 7171SOL     OW22411   5.770   4.038   0.628
 7171SOL    HW122412   5.836   3.978   0.583
 7171SOL    HW222413   5.771   4.128   0.584
 7172SOL     OW22414   1.592   0.305   4.911
 7172SOL    HW122415   1.530   0.359   4.854
 7172SOL    HW222416   1.642   0.366   4.972
 7173SOL     OW22417   6.482   4.820   6.813
 7173SOL    HW122418   6.471   4.818   6.714
 7173SOL    HW222419   6.547   4.893   6.838
 7174SOL     OW22420   0.055   4.372   0.435
 7174SOL    HW122421   0.077   4.340   0.528
 7174SOL    HW222422   7.016   4.451   0.441
 7175SOL     OW22423   6.353   2.803   5.436
 7175SOL    HW122424   6.382   2.818   5.531
 7175SOL    HW222425   6.354   2.705   5.416
 7176SOL     OW22426   6.908   1.685   3.452
 7176SOL    HW122427   6.887   1.783   3.452
 7176SOL    HW222428   7.007   1.672   3.461
 7177SOL     OW22429   1.504   4.851   5.110
 7177SOL    HW122430   1.549   4.787   5.048
 7177SOL    HW222431   1.420   4.810   5.144
 7178SOL     OW22432   6.819   1.661   5.889
 7178SOL    HW122433   6.850   1.567   5.905
 7178SOL    HW222434   6.857   1.694   5.802
 7179SOL     OW22435   1.365   3.717   4.502
 7179SOL    HW122436   1.411   3.628   4.507
 7179SOL    HW222437   1.429   3.789   4.530
 7180SOL     OW22438   1.879   3.902   0.240
 7180SOL    HW122439   1.900   3.835   0.169
 7180SOL    HW222440   1.818   3.972   0.203
 7181SOL     OW22441   2.540   0.227   0.462
 7181SOL    HW122442   2.472   0.209   0.392
 7181SOL    HW222443   2.523   0.167   0.541
 7182SOL     OW22444   0.427   3.794   3.839
 7182SOL    HW122445   0.361   3.719   3.848
 7182SOL    HW222446   0.485   3.778   3.759
 7183SOL     OW22447   1.892   5.528   1.796
 7183SOL    HW122448   1.876   5.627   1.798
 7183SOL    HW222449   1.813   5.482   1.755
 7184SOL     OW22450   6.875   1.259   3.892
 7184SOL    HW122451   6.842   1.198   3.820
 7184SOL    HW222452   6.938   1.210   3.952
 7185SOL     OW22453   5.660   1.417   5.761
 7185SOL    HW122454   5.655   1.318   5.769
 7185SOL    HW222455   5.623   1.459   5.843
 7186SOL     OW22456   6.435   1.707   1.455
 7186SOL    HW122457   6.338   1.730   1.451
 7186SOL    HW222458   6.454   1.631   1.393
 7187SOL     OW22459   2.869   3.803   5.062
 7187SOL    HW122460   2.823   3.794   4.974
 7187SOL    HW222461   2.829   3.879   5.113
 7188SOL     OW22462   4.618   5.857   0.049
 7188SOL    HW122463   4.650   5.936   7.019
 7188SOL    HW222464   4.617   5.777   7.013
 7189SOL     OW22465   6.969   2.122   6.064
 7189SOL    HW122466   6.934   2.185   6.133
 7189SOL    HW222467   6.894   2.093   6.003
 7190SOL     OW22468   6.301   5.657   1.383
 7190SOL    HW122469   6.354   5.603   1.319
 7190SOL    HW222470   6.359   5.727   1.425
 7191SOL     OW22471   1.609   4.786   2.721
 7191SOL    HW122472   1.515   4.763   2.746
 7191SOL    HW222473   1.617   4.885   2.710
 7192SOL     OW22474   1.857   4.091   6.060
 7192SOL    HW122475   1.840   4.187   6.082
 7192SOL    HW222476   1.840   4.076   5.962
 7193SOL     OW22477   1.814   2.428   2.090
 7193SOL    HW122478   1.867   2.439   2.006
 7193SOL    HW222479   1.867   2.375   2.156
 7194SOL     OW22480   1.757   3.037   6.656
 7194SOL    HW122481   1.762   3.031   6.755
 7194SOL    HW222482   1.734   2.948   6.617
 7195SOL     OW22483   6.750   4.036   0.600
 7195SOL    HW122484   6.687   4.072   0.668
 7195SOL    HW222485   6.843   4.035   0.638
 7196SOL     OW22486   2.354   3.649   1.646
 7196SOL    HW122487   2.360   3.741   1.684
 7196SOL    HW222488   2.362   3.582   1.719
 7197SOL     OW22489   1.113   3.437   6.000
 7197SOL    HW122490   1.066   3.390   5.926
 7197SOL    HW222491   1.116   3.535   5.980
 7198SOL     OW22492   0.220   1.003   0.305
 7198SOL    HW122493   0.224   1.100   0.284
 7198SOL    HW222494   0.268   0.951   0.234
 7199SOL     OW22495   0.455   0.191   2.633
 7199SOL    HW122496   0.486   0.255   2.703
 7199SOL    HW222497   0.375   0.141   2.666
 7200SOL     OW22498   2.306   2.714   6.675
 7200SOL    HW122499   2.254   2.715   6.761
 7200SOL    HW222500   2.313   2.807   6.639
 7201SOL     OW22501   0.797   6.009   3.652
 7201SOL    HW122502   0.715   6.063   3.673
 7201SOL    HW222503   0.826   5.959   3.734
 7202SOL     OW22504   4.484   0.102   6.994
 7202SOL    HW122505   4.429   0.179   6.962
 7202SOL    HW222506   4.573   0.135   0.002
 7203SOL     OW22507   6.927   1.192   1.082
 7203SOL    HW122508   6.864   1.192   1.160
 7203SOL    HW222509   6.958   1.099   1.064
 7204SOL     OW22510   0.198   1.031   5.899
 7204SOL    HW122511   0.273   0.992   5.846
 7204SOL    HW222512   0.174   0.969   5.974
 7205SOL     OW22513   1.513   4.552   5.643
 7205SOL    HW122514   1.430   4.538   5.588
 7205SOL    HW222515   1.491   4.606   5.724
 7206SOL     OW22516   1.131   0.770   2.157
 7206SOL    HW122517   1.196   0.777   2.232
 7206SOL    HW222518   1.100   0.675   2.148
 7207SOL     OW22519   4.053   0.532   3.967
 7207SOL    HW122520   4.091   0.604   3.910
 7207SOL    HW222521   3.985   0.571   4.029
 7208SOL     OW22522   4.756   0.018   3.677
 7208SOL    HW122523   4.818   6.999   3.744
 7208SOL    HW222524   4.797   0.103   3.642
 7209SOL     OW22525   2.675   3.173   1.445
 7209SOL    HW122526   2.635   3.211   1.528
 7209SOL    HW222527   2.737   3.098   1.469
 7210SOL     OW22528   3.802   1.609   3.292
 7210SOL    HW122529   3.744   1.552   3.350
 7210SOL    HW222530   3.791   1.580   3.196
 7211SOL     OW22531   1.744   6.210   5.124
 7211SOL    HW122532   1.697   6.263   5.053
 7211SOL    HW222533   1.772   6.270   5.198
 7212SOL     OW22534   0.868   6.643   5.634
 7212SOL    HW122535   0.859   6.554   5.587
 7212SOL    HW222536   0.958   6.680   5.616
 7213SOL     OW22537   3.847   6.734   6.982
 7213SOL    HW122538   3.857   6.652   6.926
 7213SOL    HW222539   3.765   6.784   6.954
 7214SOL     OW22540   6.330   0.436   5.042
 7214SOL    HW122541   6.232   0.439   5.061
 7214SOL    HW222542   6.347   0.381   4.961
 7215SOL     OW22543   6.556   2.694   3.812
 7215SOL    HW122544   6.492   2.673   3.739
 7215SOL    HW222545   6.512   2.681   3.901
 7216SOL     OW22546   2.972   0.325   1.699
 7216SOL    HW122547   2.910   0.354   1.626
 7216SOL    HW222548   2.996   0.229   1.685
 7217SOL     OW22549   1.926   3.560   3.101
 7217SOL    HW122550   1.887   3.493   3.038
 7217SOL    HW222551   1.935   3.519   3.192
 7218SOL     OW22552   6.051   2.939   4.184
 7218SOL    HW122553   5.964   2.917   4.141
 7218SOL    HW222554   6.038   3.015   4.248
 7219SOL     OW22555   3.947   1.079   2.845
 7219SOL    HW122556   3.954   1.091   2.944
 7219SOL    HW222557   3.901   1.158   2.805
 7220SOL     OW22558   6.550   3.955   4.073
 7220SOL    HW122559   6.586   3.956   4.167
 7220SOL    HW222560   6.451   3.940   4.075
 7221SOL     OW22561   3.781   5.927   5.044
 7221SOL    HW122562   3.768   5.997   5.114
 7221SOL    HW222563   3.700   5.923   4.985
 7222SOL     OW22564   6.209   6.403   3.493
 7222SOL    HW122565   6.298   6.395   3.539
 7222SOL    HW222566   6.221   6.383   3.395
 7223SOL     OW22567   2.934   1.543   0.940
 7223SOL    HW122568   2.864   1.473   0.956
 7223SOL    HW222569   2.932   1.570   0.844
 7224SOL     OW22570   5.280   2.481   3.907
 7224SOL    HW122571   5.237   2.413   3.966
 7224SOL    HW222572   5.224   2.564   3.907
 7225SOL     OW22573   1.209   5.975   0.354
 7225SOL    HW122574   1.125   5.934   0.391
 7225SOL    HW222575   1.278   5.904   0.342
 7226SOL     OW22576   5.677   0.204   1.457
 7226SOL    HW122577   5.624   0.221   1.540
 7226SOL    HW222578   5.732   0.285   1.435
 7227SOL     OW22579   2.468   2.076   1.098
 7227SOL    HW122580   2.548   2.087   1.158
 7227SOL    HW222581   2.477   1.990   1.047
 7228SOL     OW22582   1.293   1.334   2.660
 7228SOL    HW122583   1.346   1.251   2.677
 7228SOL    HW222584   1.196   1.310   2.655
 7229SOL     OW22585   1.408   5.824   5.958
 7229SOL    HW122586   1.370   5.849   6.047
 7229SOL    HW222587   1.476   5.892   5.930
 7230SOL     OW22588   3.784   5.484   4.607
 7230SOL    HW122589   3.702   5.535   4.581
 7230SOL    HW222590   3.816   5.432   4.528
 7231SOL     OW22591   3.673   0.284   6.338
 7231SOL    HW122592   3.595   0.250   6.390
 7231SOL    HW222593   3.722   0.353   6.392
 7232SOL     OW22594   4.841   5.868   2.670
 7232SOL    HW122595   4.833   5.835   2.764
 7232SOL    HW222596   4.932   5.905   2.656
 7233SOL     OW22597   1.593   1.760   4.376
 7233SOL    HW122598   1.679   1.719   4.407
 7233SOL    HW222599   1.519   1.695   4.390
 7234SOL     OW22600   6.163   2.981   2.901
 7234SOL    HW122601   6.178   2.889   2.939
 7234SOL    HW222602   6.248   3.015   2.862
 7235SOL     OW22603   7.012   4.668   2.453
 7235SOL    HW122604   6.953   4.736   2.410
 7235SOL    HW222605   0.017   4.700   2.543
 7236SOL     OW22606   2.729   1.876   2.101
 7236SOL    HW122607   2.781   1.897   2.183
 7236SOL    HW222608   2.715   1.960   2.048
 7237SOL     OW22609   4.657   0.362   4.914
 7237SOL    HW122610   4.691   0.268   4.921
 7237SOL    HW222611   4.594   0.368   4.836
 7238SOL     OW22612   4.205   2.328   6.777
 7238SOL    HW122613   4.244   2.335   6.869
 7238SOL    HW222614   4.189   2.232   6.755
 7239SOL     OW22615   0.509   1.832   1.516
 7239SOL    HW122616   0.453   1.754   1.547
 7239SOL    HW222617   0.472   1.866   1.429
 7240SOL     OW22618   0.639   1.141   5.795
 7240SOL    HW122619   0.701   1.086   5.852
 7240SOL    HW222620   0.684   1.228   5.772
 7241SOL     OW22621   2.601   0.541   1.055
 7241SOL    HW122622   2.504   0.518   1.065
 7241SOL    HW222623   2.655   0.457   1.062
 7242SOL     OW22624   6.478   5.637   6.670
 7242SOL    HW122625   6.417   5.559   6.684
 7242SOL    HW222626   6.451   5.685   6.586
 7243SOL     OW22627   6.449   4.194   6.880
 7243SOL    HW122628   6.397   4.280   6.889
 7243SOL    HW222629   6.459   4.172   6.783
 7244SOL     OW22630   6.558   0.999   1.810
 7244SOL    HW122631   6.585   0.964   1.721
 7244SOL    HW222632   6.505   1.083   1.798
 7245SOL     OW22633   1.569   2.892   4.793
 7245SOL    HW122634   1.511   2.812   4.811
 7245SOL    HW222635   1.545   2.965   4.857
 7246SOL     OW22636   1.031   0.524   3.790
 7246SOL    HW122637   0.933   0.521   3.811
 7246SOL    HW222638   1.059   0.618   3.771
 7247SOL     OW22639   2.187   1.804   4.847
 7247SOL    HW122640   2.154   1.810   4.753
 7247SOL    HW222641   2.113   1.773   4.907
 7248SOL     OW22642   2.904   1.413   2.933
 7248SOL    HW122643   2.875   1.416   3.029
 7248SOL    HW222644   2.972   1.341   2.920
 7249SOL     OW22645   5.229   5.071   1.923
 7249SOL    HW122646   5.293   5.033   1.990
 7249SOL    HW222647   5.154   5.116   1.971
 7250SOL     OW22648   5.796   6.182   6.057
 7250SOL    HW122649   5.783   6.213   5.963
 7250SOL    HW222650   5.706   6.166   6.099
 7251SOL     OW22651   0.397   6.758   5.568
 7251SOL    HW122652   0.352   6.837   5.528
 7251SOL    HW222653   0.470   6.788   5.630
 7252SOL     OW22654   3.697   3.250   2.103
 7252SOL    HW122655   3.688   3.150   2.109
 7252SOL    HW222656   3.623   3.293   2.154
 7253SOL     OW22657   1.864   6.281   0.157
 7253SOL    HW122658   1.860   6.320   0.249
 7253SOL    HW222659   1.893   6.351   0.092
 7254SOL     OW22660   5.136   4.870   4.603
 7254SOL    HW122661   5.208   4.852   4.670
 7254SOL    HW222662   5.088   4.784   4.582
 7255SOL     OW22663   4.092   3.715   0.350
 7255SOL    HW122664   4.104   3.714   0.450
 7255SOL    HW222665   4.002   3.754   0.328
 7256SOL     OW22666   3.031   6.163   4.672
 7256SOL    HW122667   3.041   6.105   4.591
 7256SOL    HW222668   3.012   6.257   4.643
 7257SOL     OW22669   6.431   1.522   3.492
 7257SOL    HW122670   6.515   1.543   3.443
 7257SOL    HW222671   6.401   1.603   3.543
 7258SOL     OW22672   4.876   1.319   2.877
 7258SOL    HW122673   4.833   1.409   2.885
 7258SOL    HW222674   4.845   1.276   2.792
 7259SOL     OW22675   1.736   3.682   1.335
 7259SOL    HW122676   1.794   3.658   1.257
 7259SOL    HW222677   1.694   3.599   1.372
 7260SOL     OW22678   4.847   1.609   1.396
 7260SOL    HW122679   4.933   1.659   1.387
 7260SOL    HW222680   4.866   1.511   1.401
 7261SOL     OW22681   1.566   4.027   1.869
 7261SOL    HW122682   1.597   3.962   1.938
 7261SOL    HW222683   1.503   4.092   1.910
 7262SOL     OW22684   5.296   2.617   6.200
 7262SOL    HW122685   5.229   2.654   6.136
 7262SOL    HW222686   5.264   2.633   6.294
 7263SOL     OW22687   0.993   6.495   6.845
 7263SOL    HW122688   0.985   6.435   6.765
 7263SOL    HW222689   1.087   6.529   6.851
 7264SOL     OW22690   4.906   1.884   6.584
 7264SOL    HW122691   4.968   1.938   6.526
 7264SOL    HW222692   4.813   1.920   6.574
 7265SOL     OW22693   5.507   5.344   5.805
 7265SOL    HW122694   5.599   5.382   5.799
 7265SOL    HW222695   5.509   5.247   5.781
 7266SOL     OW22696   5.440   0.647   2.195
 7266SOL    HW122697   5.509   0.710   2.229
 7266SOL    HW222698   5.380   0.618   2.270
 7267SOL     OW22699   6.457   6.574   5.034
 7267SOL    HW122700   6.551   6.544   5.045
 7267SOL    HW222701   6.395   6.511   5.081
 7268SOL     OW22702   6.524   5.361   3.986
 7268SOL    HW122703   6.430   5.390   4.004
 7268SOL    HW222704   6.587   5.412   4.044
 7269SOL     OW22705   0.762   6.072   6.394
 7269SOL    HW122706   0.802   5.982   6.376
 7269SOL    HW222707   0.809   6.141   6.339
 7270SOL     OW22708   0.827   3.342   4.942
 7270SOL    HW122709   0.917   3.346   4.986
 7270SOL    HW222710   0.838   3.348   4.842
 7271SOL     OW22711   0.843   5.657   4.272
 7271SOL    HW122712   0.913   5.727   4.279
 7271SOL    HW222713   0.762   5.684   4.325
 7272SOL     OW22714   6.183   5.219   2.038
 7272SOL    HW122715   6.114   5.162   1.994
 7272SOL    HW222716   6.138   5.287   2.097
 7273SOL     OW22717   6.040   4.727   1.089
 7273SOL    HW122718   6.022   4.642   1.039
 7273SOL    HW222719   5.969   4.740   1.158
 7274SOL     OW22720   0.191   5.235   6.450
 7274SOL    HW122721   0.138   5.313   6.481
 7274SOL    HW222722   0.283   5.239   6.490
 7275SOL     OW22723   0.576   6.260   2.654
 7275SOL    HW122724   0.651   6.195   2.666
 7275SOL    HW222725   0.608   6.340   2.604
 7276SOL     OW22726   4.763   1.058   3.139
 7276SOL    HW122727   4.861   1.057   3.159
 7276SOL    HW222728   4.749   1.049   3.040
 7277SOL     OW22729   4.864   0.907   4.203
 7277SOL    HW122730   4.907   0.993   4.231
 7277SOL    HW222731   4.829   0.859   4.284
 7278SOL     OW22732   3.648   2.331   1.521
 7278SOL    HW122733   3.718   2.306   1.588
 7278SOL    HW222734   3.565   2.359   1.568
 7279SOL     OW22735   4.216   4.369   5.795
 7279SOL    HW122736   4.142   4.301   5.788
 7279SOL    HW222737   4.178   4.461   5.785
 7280SOL     OW22738   0.640   1.894   3.711
 7280SOL    HW122739   0.631   1.801   3.746
 7280SOL    HW222740   0.560   1.917   3.656
 7281SOL     OW22741   2.212   1.604   0.047
 7281SOL    HW122742   2.276   1.663   7.020
 7281SOL    HW222743   2.120   1.643   0.041
 7282SOL     OW22744   5.954   5.208   2.385
 7282SOL    HW122745   6.003   5.283   2.430
 7282SOL    HW222746   5.949   5.227   2.287
 7283SOL     OW22747   5.079   0.515   2.589
 7283SOL    HW122748   5.164   0.467   2.567
 7283SOL    HW222749   5.096   0.613   2.592
 7284SOL     OW22750   0.120   2.442   5.987
 7284SOL    HW122751   0.193   2.375   5.971
 7284SOL    HW222752   0.099   2.489   5.901
 7285SOL     OW22753   5.786   3.149   2.518
 7285SOL    HW122754   5.703   3.136   2.572
 7285SOL    HW222755   5.865   3.122   2.571
 7286SOL     OW22756   2.389   0.769   0.688
 7286SOL    HW122757   2.403   0.821   0.773
 7286SOL    HW222758   2.437   0.816   0.613
 7287SOL     OW22759   0.822   2.753   5.833
 7287SOL    HW122760   0.777   2.829   5.882
 7287SOL    HW222761   0.808   2.764   5.735
 7288SOL     OW22762   1.818   1.337   1.635
 7288SOL    HW122763   1.828   1.395   1.555
 7288SOL    HW222764   1.746   1.269   1.619
 7289SOL     OW22765   5.452   2.196   4.038
 7289SOL    HW122766   5.356   2.172   4.051
 7289SOL    HW222767   5.507   2.150   4.108
 7290SOL     OW22768   3.806   1.218   4.909
 7290SOL    HW122769   3.887   1.166   4.935
 7290SOL    HW222770   3.798   1.221   4.810
 7291SOL     OW22771   1.695   6.388   0.392
 7291SOL    HW122772   1.607   6.434   0.404
 7291SOL    HW222773   1.682   6.305   0.338
 7292SOL     OW22774   3.504   1.428   3.705
 7292SOL    HW122775   3.438   1.362   3.669
 7292SOL    HW222776   3.485   1.445   3.802
 7293SOL     OW22777   1.494   2.157   4.555
 7293SOL    HW122778   1.528   2.251   4.568
 7293SOL    HW222779   1.404   2.160   4.512
 7294SOL     OW22780   2.702   4.984   6.691
 7294SOL    HW122781   2.628   5.027   6.742
 7294SOL    HW222782   2.760   5.054   6.649
 7295SOL     OW22783   5.681   3.229   1.743
 7295SOL    HW122784   5.665   3.305   1.680
 7295SOL    HW222785   5.637   3.247   1.830
 7296SOL     OW22786   3.378   5.960   2.250
 7296SOL    HW122787   3.401   5.921   2.339
 7296SOL    HW222788   3.461   5.992   2.205
 7297SOL     OW22789   4.217   0.096   1.335
 7297SOL    HW122790   4.280   0.077   1.259
 7297SOL    HW222791   4.222   0.021   1.401
 7298SOL     OW22792   5.245   5.199   6.187
 7298SOL    HW122793   5.182   5.213   6.264
 7298SOL    HW222794   5.192   5.181   6.104
 7299SOL     OW22795   0.936   2.293   1.115
 7299SOL    HW122796   1.030   2.272   1.090
 7299SOL    HW222797   0.932   2.319   1.212
 7300SOL     OW22798   0.435   6.800   2.189
 7300SOL    HW122799   0.406   6.714   2.148
 7300SOL    HW222800   0.356   6.847   2.228
 7301SOL     OW22801   5.981   1.385   4.217
 7301SOL    HW122802   6.030   1.298   4.203
 7301SOL    HW222803   5.888   1.376   4.182
 7302SOL     OW22804   1.121   2.581   5.158
 7302SOL    HW122805   1.099   2.621   5.247
 7302SOL    HW222806   1.213   2.609   5.131
 7303SOL     OW22807   3.864   1.225   0.136
 7303SOL    HW122808   3.825   1.184   0.218
 7303SOL    HW222809   3.802   1.211   0.059
 7304SOL     OW22810   3.301   5.618   2.152
 7304SOL    HW122811   3.262   5.709   2.140
 7304SOL    HW222812   3.264   5.577   2.235
 7305SOL     OW22813   4.989   0.449   0.325
 7305SOL    HW122814   4.921   0.402   0.381
 7305SOL    HW222815   5.065   0.479   0.384
 7306SOL     OW22816   4.678   1.595   0.892
 7306SOL    HW122817   4.623   1.589   0.808
 7306SOL    HW222818   4.667   1.512   0.946
 7307SOL     OW22819   2.862   6.583   2.807
 7307SOL    HW122820   2.805   6.649   2.856
 7307SOL    HW222821   2.958   6.611   2.813
 7308SOL     OW22822   6.745   3.115   5.455
 7308SOL    HW122823   6.686   3.150   5.529
 7308SOL    HW222824   6.723   3.019   5.438
 7309SOL     OW22825   3.810   4.954   0.815
 7309SOL    HW122826   3.899   4.976   0.773
 7309SOL    HW222827   3.758   4.895   0.753
 7310SOL     OW22828   2.132   3.825   0.635
 7310SOL    HW122829   2.203   3.886   0.600
 7310SOL    HW222830   2.059   3.815   0.568
 7311SOL     OW22831   1.864   1.935   1.293
 7311SOL    HW122832   1.873   1.837   1.310
 7311SOL    HW222833   1.950   1.980   1.318
 7312SOL     OW22834   1.051   3.697   4.866
 7312SOL    HW122835   1.129   3.755   4.840
 7312SOL    HW222836   1.062   3.668   4.961
 7313SOL     OW22837   1.974   1.042   0.554
 7313SOL    HW122838   2.057   1.060   0.605
 7313SOL    HW222839   1.924   1.127   0.539
 7314SOL     OW22840   0.093   5.189   6.206
 7314SOL    HW122841   0.144   5.206   6.291
 7314SOL    HW222842   0.117   5.099   6.170
 7315SOL     OW22843   6.466   6.533   2.321
 7315SOL    HW122844   6.505   6.591   2.393
 7315SOL    HW222845   6.382   6.490   2.354
 7316SOL     OW22846   3.714   3.497   6.755
 7316SOL    HW122847   3.638   3.519   6.816
 7316SOL    HW222848   3.690   3.417   6.699
 7317SOL     OW22849   5.187   1.275   2.945
 7317SOL    HW122850   5.133   1.256   2.863
 7317SOL    HW222851   5.127   1.274   3.025
 7318SOL     OW22852   2.024   0.454   2.176
 7318SOL    HW122853   2.077   0.386   2.227
 7318SOL    HW222854   1.999   0.530   2.237
 7319SOL     OW22855   6.890   3.288   6.632
 7319SOL    HW122856   6.940   3.232   6.698
 7319SOL    HW222857   6.792   3.267   6.637
 7320SOL     OW22858   0.620   3.735   3.046
 7320SOL    HW122859   0.615   3.639   3.074
 7320SOL    HW222860   0.676   3.786   3.110
 7321SOL     OW22861   1.813   0.632   6.007
 7321SOL    HW122862   1.764   0.546   6.008
 7321SOL    HW222863   1.911   0.616   6.023
 7322SOL     OW22864   6.851   2.995   3.234
 7322SOL    HW122865   6.852   2.995   3.134
 7322SOL    HW222866   6.921   2.933   3.267
 7323SOL     OW22867   1.838   2.727   1.509
 7323SOL    HW122868   1.852   2.703   1.413
 7323SOL    HW222869   1.889   2.810   1.532
 7324SOL     OW22870   5.087   5.937   1.861
 7324SOL    HW122871   5.013   5.900   1.806
 7324SOL    HW222872   5.100   6.034   1.839
 7325SOL     OW22873   2.778   0.351   7.001
 7325SOL    HW122874   2.820   0.388   0.061
 7325SOL    HW222875   2.764   0.424   6.934
 7326SOL     OW22876   2.708   6.078   6.059
 7326SOL    HW122877   2.650   6.101   5.981
 7326SOL    HW222878   2.669   5.998   6.106
 7327SOL     OW22879   6.177   1.341   6.015
 7327SOL    HW122880   6.128   1.428   6.013
 7327SOL    HW222881   6.270   1.355   6.048
 7328SOL     OW22882   3.333   0.722   5.735
 7328SOL    HW122883   3.415   0.682   5.693
 7328SOL    HW222884   3.290   0.655   5.795
 7329SOL     OW22885   6.939   4.038   1.255
 7329SOL    HW122886   6.998   3.977   1.307
 7329SOL    HW222887   6.882   4.091   1.318
 7330SOL     OW22888   2.105   2.712   6.873
 7330SOL    HW122889   2.131   2.621   6.906
 7330SOL    HW222890   2.029   2.747   6.927
 7331SOL     OW22891   4.904   6.245   1.504
 7331SOL    HW122892   4.999   6.274   1.494
 7331SOL    HW222893   4.858   6.252   1.416
 7332SOL     OW22894   3.377   6.110   0.192
 7332SOL    HW122895   3.294   6.075   0.149
 7332SOL    HW222896   3.372   6.210   0.197
 7333SOL     OW22897   6.791   3.160   2.025
 7333SOL    HW122898   6.696   3.185   2.005
 7333SOL    HW222899   6.846   3.243   2.035
 7334SOL     OW22900   2.500   5.818   6.520
 7334SOL    HW122901   2.407   5.790   6.495
 7334SOL    HW222902   2.500   5.853   6.613
 7335SOL     OW22903   1.595   2.628   3.472
 7335SOL    HW122904   1.509   2.648   3.425
 7335SOL    HW222905   1.592   2.667   3.564
 7336SOL     OW22906   1.454   6.441   2.579
 7336SOL    HW122907   1.408   6.489   2.654
 7336SOL    HW222908   1.451   6.342   2.595
 7337SOL     OW22909   0.926   3.201   1.039
 7337SOL    HW122910   0.893   3.291   1.064
 7337SOL    HW222911   1.000   3.210   0.972
 7338SOL     OW22912   5.157   2.047   1.780
 7338SOL    HW122913   5.239   2.088   1.820
 7338SOL    HW222914   5.128   2.102   1.701
 7339SOL     OW22915   6.133   0.324   4.168
 7339SOL    HW122916   6.046   0.364   4.198
 7339SOL    HW222917   6.180   0.388   4.107
 7340SOL     OW22918   3.233   1.188   0.358
 7340SOL    HW122919   3.273   1.103   0.393
 7340SOL    HW222920   3.282   1.266   0.395
 7341SOL     OW22921   0.602   4.239   5.698
 7341SOL    HW122922   0.641   4.192   5.777
 7341SOL    HW222923   0.503   4.225   5.698
 7342SOL     OW22924   0.308   1.268   6.783
 7342SOL    HW122925   0.264   1.356   6.799
 7342SOL    HW222926   0.309   1.216   6.868
 7343SOL     OW22927   6.074   4.050   1.272
 7343SOL    HW122928   5.990   4.100   1.253
 7343SOL    HW222929   6.075   3.966   1.218
 7344SOL     OW22930   1.186   1.402   6.068
 7344SOL    HW122931   1.151   1.332   6.005
 7344SOL    HW222932   1.269   1.442   6.029
 7345SOL     OW22933   4.804   5.240   5.000
 7345SOL    HW122934   4.765   5.320   4.953
 7345SOL    HW222935   4.840   5.268   5.089
 7346SOL     OW22936   4.451   4.830   1.886
 7346SOL    HW122937   4.400   4.744   1.888
 7346SOL    HW222938   4.410   4.895   1.950
 7347SOL     OW22939   6.905   2.558   0.197
 7347SOL    HW122940   6.844   2.554   0.275
 7347SOL    HW222941   7.000   2.550   0.228
 7348SOL     OW22942   1.901   3.916   4.588
 7348SOL    HW122943   1.884   3.819   4.567
 7348SOL    HW222944   1.994   3.926   4.623
 7349SOL     OW22945   4.663   1.576   1.689
 7349SOL    HW122946   4.709   1.630   1.618
 7349SOL    HW222947   4.565   1.573   1.669
 7350SOL     OW22948   2.285   3.288   5.760
 7350SOL    HW122949   2.383   3.270   5.761
 7350SOL    HW222950   2.235   3.204   5.783
 7351SOL     OW22951   5.763   6.488   5.250
 7351SOL    HW122952   5.761   6.551   5.327
 7351SOL    HW222953   5.840   6.509   5.190
 7352SOL     OW22954   2.354   1.504   3.166
 7352SOL    HW122955   2.260   1.486   3.194
 7352SOL    HW222956   2.362   1.494   3.067
 7353SOL     OW22957   0.905   0.180   6.484
 7353SOL    HW122958   0.832   0.178   6.415
 7353SOL    HW222959   0.865   0.175   6.575
 7354SOL     OW22960   0.804   2.262   5.203
 7354SOL    HW122961   0.748   2.317   5.141
 7354SOL    HW222962   0.799   2.166   5.177
 7355SOL     OW22963   1.344   0.977   0.680
 7355SOL    HW122964   1.273   0.908   0.664
 7355SOL    HW222965   1.307   1.049   0.738
 7356SOL     OW22966   3.573   3.852   6.056
 7356SOL    HW122967   3.669   3.882   6.055
 7356SOL    HW222968   3.556   3.793   5.978
 7357SOL     OW22969   3.568   6.696   1.457
 7357SOL    HW122970   3.503   6.759   1.499
 7357SOL    HW222971   3.574   6.715   1.359
 7358SOL     OW22972   5.969   3.541   3.008
 7358SOL    HW122973   5.995   3.472   3.075
 7358SOL    HW222974   6.025   3.623   3.023
 7359SOL     OW22975   3.448   1.788   6.146
 7359SOL    HW122976   3.370   1.810   6.204
 7359SOL    HW222977   3.476   1.693   6.161
 7360SOL     OW22978   2.943   3.713   5.447
 7360SOL    HW122979   2.964   3.804   5.483
 7360SOL    HW222980   2.997   3.697   5.364
 7361SOL     OW22981   4.279   0.227   2.004
 7361SOL    HW122982   4.342   0.183   1.940
 7361SOL    HW222983   4.313   0.217   2.097
 7362SOL     OW22984   1.659   4.559   5.321
 7362SOL    HW122985   1.719   4.578   5.244
 7362SOL    HW222986   1.704   4.495   5.384
 7363SOL     OW22987   4.685   1.943   1.731
 7363SOL    HW122988   4.766   1.935   1.789
 7363SOL    HW222989   4.622   2.010   1.771
 7364SOL     OW22990   4.625   0.831   1.167
 7364SOL    HW122991   4.539   0.798   1.205
 7364SOL    HW222992   4.701   0.791   1.218
 7365SOL     OW22993   0.452   5.504   1.608
 7365SOL    HW122994   0.391   5.440   1.561
 7365SOL    HW222995   0.527   5.529   1.546
 7366SOL     OW22996   2.783   6.049   6.939
 7366SOL    HW122997   2.794   5.951   6.953
 7366SOL    HW222998   2.689   6.076   6.959
 7367SOL     OW22999   4.998   2.873   1.173
 7367SOL    HW123000   4.983   2.801   1.241
 7367SOL    HW223001   5.014   2.960   1.220
 7368SOL     OW23002   3.540   2.894   2.710
 7368SOL    HW123003   3.444   2.898   2.740
 7368SOL    HW223004   3.598   2.875   2.789
 7369SOL     OW23005   3.554   2.165   0.239
 7369SOL    HW123006   3.619   2.238   0.261
 7369SOL    HW223007   3.541   2.160   0.140
 7370SOL     OW23008   2.424   0.580   4.380
 7370SOL    HW123009   2.519   0.610   4.385
 7370SOL    HW223010   2.363   0.659   4.391
 7371SOL     OW23011   2.486   6.657   3.500
 7371SOL    HW123012   2.557   6.589   3.479
 7371SOL    HW223013   2.438   6.631   3.583
 7372SOL     OW23014   4.714   1.399   4.515
 7372SOL    HW123015   4.769   1.479   4.492
 7372SOL    HW223016   4.771   1.317   4.515
 7373SOL     OW23017   5.980   1.442   3.610
 7373SOL    HW123018   6.025   1.399   3.689
 7373SOL    HW223019   6.017   1.403   3.526
 7374SOL     OW23020   2.387   1.734   5.035
 7374SOL    HW123021   2.319   1.757   4.965
 7374SOL    HW223022   2.461   1.801   5.034
 7375SOL     OW23023   2.293   2.149   2.831
 7375SOL    HW123024   2.330   2.230   2.876
 7375SOL    HW223025   2.239   2.096   2.896
 7376SOL     OW23026   2.651   1.966   0.580
 7376SOL    HW123027   2.586   1.890   0.585
 7376SOL    HW223028   2.715   1.960   0.656
 7377SOL     OW23029   5.590   4.556   0.817
 7377SOL    HW123030   5.606   4.457   0.812
 7377SOL    HW223031   5.676   4.603   0.832
 7378SOL     OW23032   0.529   0.930   6.282
 7378SOL    HW123033   0.502   0.998   6.213
 7378SOL    HW223034   0.556   0.845   6.236
 7379SOL     OW23035   3.052   1.619   2.934
 7379SOL    HW123036   2.991   1.540   2.932
 7379SOL    HW223037   3.087   1.636   2.842
 7380SOL     OW23038   0.030   4.608   3.927
 7380SOL    HW123039   6.982   4.538   3.936
 7380SOL    HW223040   0.024   4.670   4.005
 7381SOL     OW23041   3.920   3.640   1.246
 7381SOL    HW123042   3.824   3.643   1.272
 7381SOL    HW223043   3.937   3.560   1.188
 7382SOL     OW23044   0.656   6.809   5.649
 7382SOL    HW123045   0.684   6.882   5.712
 7382SOL    HW223046   0.735   6.753   5.626
 7383SOL     OW23047   1.976   6.815   0.747
 7383SOL    HW123048   1.967   6.875   0.667
 7383SOL    HW223049   2.025   6.732   0.720
 7384SOL     OW23050   6.347   6.663   2.706
 7384SOL    HW123051   6.379   6.734   2.643
 7384SOL    HW223052   6.262   6.692   2.750
 7385SOL     OW23053   3.669   6.135   2.282
 7385SOL    HW123054   3.637   6.189   2.204
 7385SOL    HW223055   3.740   6.071   2.252
 7386SOL     OW23056   0.259   2.452   6.854
 7386SOL    HW123057   0.168   2.431   6.891
 7386SOL    HW223058   0.291   2.374   6.801
 7387SOL     OW23059   6.234   6.496   5.198
 7387SOL    HW123060   6.226   6.399   5.220
 7387SOL    HW223061   6.163   6.522   5.133
 7388SOL     OW23062   1.074   5.800   2.483
 7388SOL    HW123063   1.162   5.753   2.494
 7388SOL    HW223064   1.083   5.895   2.513
 7389SOL     OW23065   5.982   3.874   6.677
 7389SOL    HW123066   6.010   3.945   6.613
 7389SOL    HW223067   5.987   3.910   6.770
 7390SOL     OW23068   1.059   1.978   0.903
 7390SOL    HW123069   1.086   1.924   0.983
 7390SOL    HW223070   1.103   1.940   0.822
 7391SOL     OW23071   4.115   3.429   3.803
 7391SOL    HW123072   4.112   3.465   3.710
 7391SOL    HW223073   4.059   3.486   3.863
 7392SOL     OW23074   2.924   6.894   6.557
 7392SOL    HW123075   2.879   6.956   6.622
 7392SOL    HW223076   2.943   6.807   6.602
 7393SOL     OW23077   5.993   4.487   2.655
 7393SOL    HW123078   5.916   4.536   2.613
 7393SOL    HW223079   6.060   4.464   2.586
 7394SOL     OW23080   2.251   2.516   5.910
 7394SOL    HW123081   2.305   2.484   5.988
 7394SOL    HW223082   2.230   2.438   5.851
 7395SOL     OW23083   1.577   2.969   1.307
 7395SOL    HW123084   1.574   2.899   1.379
 7395SOL    HW223085   1.534   3.053   1.340
 7396SOL     OW23086   1.532   6.406   1.530
 7396SOL    HW123087   1.632   6.400   1.523
 7396SOL    HW223088   1.502   6.492   1.488
 7397SOL     OW23089   4.209   5.648   4.922
 7397SOL    HW123090   4.173   5.652   5.015
 7397SOL    HW223091   4.134   5.633   4.857
 7398SOL     OW23092   2.180   4.872   4.221
 7398SOL    HW123093   2.121   4.859   4.141
 7398SOL    HW223094   2.275   4.864   4.194
 7399SOL     OW23095   0.464   3.140   4.777
 7399SOL    HW123096   0.430   3.067   4.717
 7399SOL    HW223097   0.547   3.108   4.824
 7400SOL     OW23098   4.210   2.639   6.143
 7400SOL    HW123099   4.171   2.703   6.210
 7400SOL    HW223100   4.136   2.589   6.098
 7401SOL     OW23101   1.425   2.415   4.232
 7401SOL    HW123102   1.486   2.401   4.154
 7401SOL    HW223103   1.479   2.423   4.316
 7402SOL     OW23104   3.085   5.755   6.288
 7402SOL    HW123105   3.098   5.829   6.221
 7402SOL    HW223106   3.160   5.690   6.281
 7403SOL     OW23107   1.769   3.413   2.439
 7403SOL    HW123108   1.712   3.354   2.381
 7403SOL    HW223109   1.724   3.502   2.449
 7404SOL     OW23110   2.641   5.108   1.834
 7404SOL    HW123111   2.548   5.124   1.866
 7404SOL    HW223112   2.671   5.017   1.863
 7405SOL     OW23113   3.767   5.167   5.263
 7405SOL    HW123114   3.685   5.161   5.207
 7405SOL    HW223115   3.742   5.179   5.359
 7406SOL     OW23116   0.292   2.733   3.634
 7406SOL    HW123117   0.223   2.781   3.580
 7406SOL    HW223118   0.268   2.738   3.731
 7407SOL     OW23119   0.629   0.086   5.162
 7407SOL    HW123120   0.692   0.008   5.158
 7407SOL    HW223121   0.584   0.098   5.074
 7408SOL     OW23122   3.077   4.211   0.261
 7408SOL    HW123123   2.998   4.203   0.201
 7408SOL    HW223124   3.117   4.302   0.251
 7409SOL     OW23125   5.140   3.277   0.211
 7409SOL    HW123126   5.071   3.233   0.269
 7409SOL    HW223127   5.177   3.210   0.147
 7410SOL     OW23128   0.667   6.886   0.179
 7410SOL    HW123129   0.713   6.797   0.171
 7410SOL    HW223130   0.627   6.894   0.270
 7411SOL     OW23131   1.902   0.198   6.299
 7411SOL    HW123132   1.883   0.292   6.328
 7411SOL    HW223133   2.001   0.183   6.299
 7412SOL     OW23134   5.275   0.407   1.822
 7412SOL    HW123135   5.300   0.486   1.766
 7412SOL    HW223136   5.357   0.357   1.849
 7413SOL     OW23137   4.826   5.300   4.202
 7413SOL    HW123138   4.827   5.346   4.290
 7413SOL    HW223139   4.733   5.273   4.179
 7414SOL     OW23140   0.964   0.898   3.568
 7414SOL    HW123141   0.984   0.920   3.473
 7414SOL    HW223142   1.030   0.831   3.601
 7415SOL     OW23143   1.389   4.710   3.938
 7415SOL    HW123144   1.446   4.629   3.921
 7415SOL    HW223145   1.448   4.787   3.965
 7416SOL     OW23146   1.789   0.892   2.218
 7416SOL    HW123147   1.857   0.893   2.292
 7416SOL    HW223148   1.805   0.970   2.158
 7417SOL     OW23149   2.146   2.134   0.910
 7417SOL    HW123150   2.217   2.063   0.904
 7417SOL    HW223151   2.056   2.091   0.906
 7418SOL     OW23152   2.658   5.759   0.347
 7418SOL    HW123153   2.750   5.796   0.356
 7418SOL    HW223154   2.663   5.660   0.334
 7419SOL     OW23155   6.632   2.982   4.352
 7419SOL    HW123156   6.564   2.913   4.327
 7419SOL    HW223157   6.587   3.055   4.404
 7420SOL     OW23158   0.710   6.539   1.415
 7420SOL    HW123159   0.738   6.508   1.325
 7420SOL    HW223160   0.661   6.625   1.407
 7421SOL     OW23161   4.126   4.321   1.274
 7421SOL    HW123162   4.097   4.243   1.218
 7421SOL    HW223163   4.129   4.294   1.370
 7422SOL     OW23164   0.184   4.433   2.499
 7422SOL    HW123165   0.096   4.401   2.533
 7422SOL    HW223166   0.257   4.374   2.535
 7423SOL     OW23167   6.405   2.553   5.549
 7423SOL    HW123168   6.394   2.454   5.548
 7423SOL    HW223169   6.496   2.576   5.583
 7424SOL     OW23170   6.764   0.185   5.598
 7424SOL    HW123171   6.741   0.278   5.570
 7424SOL    HW223172   6.863   0.172   5.590
 7425SOL     OW23173   4.378   6.403   0.285
 7425SOL    HW123174   4.308   6.333   0.301
 7425SOL    HW223175   4.352   6.488   0.331
 7426SOL     OW23176   3.006   1.963   5.593
 7426SOL    HW123177   3.096   1.980   5.634
 7426SOL    HW223178   2.983   2.038   5.531
 7427SOL     OW23179   5.008   0.834   3.653
 7427SOL    HW123180   5.022   0.932   3.669
 7427SOL    HW223181   5.073   0.782   3.709
 7428SOL     OW23182   4.925   1.719   5.581
 7428SOL    HW123183   4.883   1.699   5.493
 7428SOL    HW223184   4.860   1.769   5.639
 7429SOL     OW23185   0.315   6.480   4.255
 7429SOL    HW123186   0.412   6.464   4.238
 7429SOL    HW223187   0.271   6.393   4.281
 7430SOL     OW23188   1.026   3.510   0.662
 7430SOL    HW123189   1.124   3.523   0.643
 7430SOL    HW223190   0.972   3.552   0.589
 7431SOL     OW23191   1.698   2.854   3.082
 7431SOL    HW123192   1.735   2.840   3.174
 7431SOL    HW223193   1.657   2.769   3.049
 7432SOL     OW23194   0.837   0.906   2.932
 7432SOL    HW123195   0.913   0.924   2.869
 7432SOL    HW223196   0.752   0.941   2.893
 7433SOL     OW23197   4.208   5.371   6.423
 7433SOL    HW123198   4.112   5.347   6.412
 7433SOL    HW223199   4.263   5.288   6.430
 7434SOL     OW23200   4.924   5.632   5.150
 7434SOL    HW123201   4.842   5.575   5.152
 7434SOL    HW223202   4.899   5.726   5.129
 7435SOL     OW23203   3.956   5.517   1.252
 7435SOL    HW123204   4.013   5.487   1.175
 7435SOL    HW223205   3.867   5.546   1.218
 7436SOL     OW23206   4.309   4.225   6.289
 7436SOL    HW123207   4.359   4.207   6.205
 7436SOL    HW223208   4.301   4.324   6.302
 7437SOL     OW23209   2.131   5.845   6.858
 7437SOL    HW123210   2.189   5.813   6.933
 7437SOL    HW223211   2.064   5.775   6.836
 7438SOL     OW23212   1.182   5.739   0.577
 7438SOL    HW123213   1.158   5.662   0.636
 7438SOL    HW223214   1.160   5.716   0.482
 7439SOL     OW23215   1.782   6.859   5.532
 7439SOL    HW123216   1.880   6.871   5.546
 7439SOL    HW223217   1.731   6.898   5.609
 7440SOL     OW23218   0.092   2.849   4.410
 7440SOL    HW123219   0.023   2.895   4.466
 7440SOL    HW223220   0.096   2.752   4.435
 7441SOL     OW23221   5.028   6.739   4.351
 7441SOL    HW123222   5.078   6.825   4.360
 7441SOL    HW223223   4.989   6.732   4.259
 7442SOL     OW23224   6.600   1.201   6.060
 7442SOL    HW123225   6.693   1.193   6.097
 7442SOL    HW223226   6.596   1.159   5.970
 7443SOL     OW23227   6.437   6.413   1.744
 7443SOL    HW123228   6.357   6.424   1.686
 7443SOL    HW223229   6.408   6.397   1.838
 7444SOL     OW23230   5.783   2.410   6.479
 7444SOL    HW123231   5.820   2.480   6.417
 7444SOL    HW223232   5.701   2.445   6.523
 7445SOL     OW23233   4.032   0.309   1.253
 7445SOL    HW123234   4.064   0.394   1.294
 7445SOL    HW223235   4.107   0.243   1.251
 7446SOL     OW23236   5.709   2.999   0.541
 7446SOL    HW123237   5.712   2.960   0.449
 7446SOL    HW223238   5.643   2.949   0.597
 7447SOL     OW23239   6.024   3.585   7.010
 7447SOL    HW123240   6.073   3.510   6.966
 7447SOL    HW223241   5.952   3.619   6.949
 7448SOL     OW23242   6.755   6.863   5.226
 7448SOL    HW123243   6.818   6.817   5.164
 7448SOL    HW223244   6.663   6.862   5.187
 7449SOL     OW23245   0.591   4.480   2.146
 7449SOL    HW123246   0.580   4.480   2.245
 7449SOL    HW223247   0.688   4.478   2.123
 7450SOL     OW23248   5.458   2.643   5.414
 7450SOL    HW123249   5.388   2.713   5.428
 7450SOL    HW223250   5.548   2.683   5.431
 7451SOL     OW23251   6.697   5.890   2.777
 7451SOL    HW123252   6.727   5.926   2.689
 7451SOL    HW223253   6.599   5.910   2.789
 7452SOL     OW23254   6.185   6.238   4.066
 7452SOL    HW123255   6.088   6.234   4.046
 7452SOL    HW223256   6.199   6.259   4.163
 7453SOL     OW23257   5.472   5.882   5.296
 7453SOL    HW123258   5.441   5.801   5.246
 7453SOL    HW223259   5.490   5.859   5.391
 7454SOL     OW23260   1.407   2.170   1.731
 7454SOL    HW123261   1.307   2.168   1.723
 7454SOL    HW223262   1.440   2.263   1.714
 7455SOL     OW23263   6.468   2.543   1.641
 7455SOL    HW123264   6.400   2.480   1.605
 7455SOL    HW223265   6.451   2.635   1.605
 7456SOL     OW23266   1.590   1.039   4.791
 7456SOL    HW123267   1.523   1.067   4.860
 7456SOL    HW223268   1.541   1.009   4.708
 7457SOL     OW23269   3.570   0.871   5.058
 7457SOL    HW123270   3.511   0.800   5.098
 7457SOL    HW223271   3.637   0.828   4.998
 7458SOL     OW23272   2.088   6.668   5.804
 7458SOL    HW123273   2.096   6.728   5.884
 7458SOL    HW223274   2.011   6.606   5.817
 7459SOL     OW23275   4.963   0.326   2.134
 7459SOL    HW123276   4.895   0.321   2.206
 7459SOL    HW223277   4.973   0.421   2.104
 7460SOL     OW23278   0.713   5.129   0.541
 7460SOL    HW123279   0.649   5.053   0.531
 7460SOL    HW223280   0.738   5.163   0.451
 7461SOL     OW23281   6.267   0.032   6.768
 7461SOL    HW123282   6.246   0.087   6.687
 7461SOL    HW223283   6.363   0.005   6.767
 7462SOL     OW23284   1.667   4.253   2.435
 7462SOL    HW123285   1.740   4.297   2.382
 7462SOL    HW223286   1.620   4.186   2.378
 7463SOL     OW23287   2.794   4.939   1.117
 7463SOL    HW123288   2.760   4.954   1.211
 7463SOL    HW223289   2.742   4.997   1.054
 7464SOL     OW23290   5.738   6.354   6.314
 7464SOL    HW123291   5.786   6.383   6.231
 7464SOL    HW223292   5.776   6.402   6.393
 7465SOL     OW23293   2.846   5.552   6.266
 7465SOL    HW123294   2.884   5.643   6.283
 7465SOL    HW223295   2.883   5.517   6.180
 7466SOL     OW23296   0.362   0.215   4.827
 7466SOL    HW123297   0.311   0.140   4.869
 7466SOL    HW223298   0.344   0.216   4.729
 7467SOL     OW23299   0.617   1.513   0.293
 7467SOL    HW123300   0.698   1.469   0.332
 7467SOL    HW223301   0.558   1.545   0.367
 7468SOL     OW23302   6.001   2.521   3.832
 7468SOL    HW123303   5.961   2.430   3.839
 7468SOL    HW223304   5.938   2.589   3.870
 7469SOL     OW23305   6.658   0.618   0.085
 7469SOL    HW123306   6.605   0.642   0.003
 7469SOL    HW223307   6.611   0.545   0.134
 7470SOL     OW23308   6.191   4.052   3.332
 7470SOL    HW123309   6.100   4.071   3.294
 7470SOL    HW223310   6.181   4.007   3.421
 7471SOL     OW23311   5.272   0.055   5.891
 7471SOL    HW123312   5.301   0.134   5.945
 7471SOL    HW223313   5.311   6.994   5.930
 7472SOL     OW23314   6.077   0.548   5.952
 7472SOL    HW123315   6.136   0.620   5.987
 7472SOL    HW223316   6.133   0.470   5.923
 7473SOL     OW23317   5.821   5.502   4.244
 7473SOL    HW123318   5.729   5.462   4.246
 7473SOL    HW223319   5.889   5.429   4.234
 7474SOL     OW23320   0.345   1.614   5.889
 7474SOL    HW123321   0.317   1.622   5.794
 7474SOL    HW223322   0.338   1.704   5.933
 7475SOL     OW23323   4.767   2.711   2.335
 7475SOL    HW123324   4.678   2.670   2.355
 7475SOL    HW223325   4.771   2.736   2.238
 7476SOL     OW23326   3.693   0.954   3.846
 7476SOL    HW123327   3.679   1.053   3.846
 7476SOL    HW223328   3.706   0.923   3.752
 7477SOL     OW23329   0.351   1.707   5.596
 7477SOL    HW123330   0.255   1.726   5.573
 7477SOL    HW223331   0.388   1.641   5.530
 7478SOL     OW23332   5.941   3.806   4.926
 7478SOL    HW123333   5.950   3.864   5.007
 7478SOL    HW223334   5.858   3.830   4.877
 7479SOL     OW23335   4.254   2.299   2.379
 7479SOL    HW123336   4.294   2.356   2.308
 7479SOL    HW223337   4.311   2.303   2.461
 7480SOL     OW23338   1.920   4.435   2.599
 7480SOL    HW123339   1.888   4.497   2.671
 7480SOL    HW223340   1.841   4.400   2.548
 7481SOL     OW23341   5.469   5.722   0.821
 7481SOL    HW123342   5.494   5.795   0.758
 7481SOL    HW223343   5.505   5.635   0.788
 7482SOL     OW23344   4.590   2.526   2.819
 7482SOL    HW123345   4.597   2.606   2.759
 7482SOL    HW223346   4.639   2.544   2.904
 7483SOL     OW23347   4.955   3.446   4.553
 7483SOL    HW123348   5.055   3.458   4.549
 7483SOL    HW223349   4.916   3.509   4.619
 7484SOL     OW23350   1.090   6.664   4.055
 7484SOL    HW123351   1.073   6.748   4.107
 7484SOL    HW223352   1.182   6.631   4.075
 7485SOL     OW23353   3.714   0.256   4.350
 7485SOL    HW123354   3.709   0.176   4.291
 7485SOL    HW223355   3.632   0.260   4.409
 7486SOL     OW23356   1.582   5.846   0.459
 7486SOL    HW123357   1.678   5.848   0.434
 7486SOL    HW223358   1.574   5.834   0.558
 7487SOL     OW23359   2.363   0.172   2.848
 7487SOL    HW123360   2.393   0.251   2.901
 7487SOL    HW223361   2.414   0.091   2.876
 7488SOL     OW23362   2.578   6.146   4.404
 7488SOL    HW123363   2.613   6.212   4.470
 7488SOL    HW223364   2.595   6.053   4.437
 7489SOL     OW23365   5.955   2.751   6.012
 7489SOL    HW123366   5.896   2.712   5.941
 7489SOL    HW223367   6.048   2.758   5.978
 7490SOL     OW23368   1.204   6.943   3.145
 7490SOL    HW123369   1.270   6.999   3.195
 7490SOL    HW223370   1.155   6.884   3.209
 7491SOL     OW23371   4.144   3.156   6.796
 7491SOL    HW123372   4.146   3.109   6.884
 7491SOL    HW223373   4.233   3.197   6.778
 7492SOL     OW23374   1.486   0.336   3.233
 7492SOL    HW123375   1.574   0.324   3.187
 7492SOL    HW223376   1.436   0.410   3.189
 7493SOL     OW23377   0.492   3.420   6.645
 7493SOL    HW123378   0.431   3.347   6.676
 7493SOL    HW223379   0.448   3.472   6.572
 7494SOL     OW23380   5.511   1.701   2.845
 7494SOL    HW123381   5.474   1.608   2.847
 7494SOL    HW223382   5.609   1.699   2.864
 7495SOL     OW23383   1.672   2.422   6.800
 7495SOL    HW123384   1.745   2.436   6.733
 7495SOL    HW223385   1.587   2.399   6.753
 7496SOL     OW23386   6.836   3.001   3.742
 7496SOL    HW123387   6.757   2.995   3.803
 7496SOL    HW223388   6.920   3.010   3.797
 7497SOL     OW23389   2.520   4.845   0.647
 7497SOL    HW123390   2.608   4.892   0.645
 7497SOL    HW223391   2.503   4.809   0.739
 7498SOL     OW23392   3.368   0.739   5.208
 7498SOL    HW123393   3.375   0.813   5.275
 7498SOL    HW223394   3.285   0.686   5.226
 7499SOL     OW23395   4.520   1.392   3.440
 7499SOL    HW123396   4.429   1.354   3.457
 7499SOL    HW223397   4.545   1.376   3.345
 7500SOL     OW23398   3.329   5.778   3.424
 7500SOL    HW123399   3.361   5.871   3.410
 7500SOL    HW223400   3.284   5.745   3.341
 7501SOL     OW23401   5.124   3.982   4.672
 7501SOL    HW123402   5.051   3.913   4.675
 7501SOL    HW223403   5.083   4.073   4.670
 7502SOL     OW23404   3.225   1.111   4.235
 7502SOL    HW123405   3.233   1.054   4.153
 7502SOL    HW223406   3.304   1.095   4.294
 7503SOL     OW23407   1.767   6.751   1.324
 7503SOL    HW123408   1.793   6.680   1.259
 7503SOL    HW223409   1.850   6.790   1.366
 7504SOL     OW23410   0.667   6.240   3.457
 7504SOL    HW123411   0.635   6.260   3.549
 7504SOL    HW223412   0.621   6.299   3.391
 7505SOL     OW23413   1.870   2.987   5.644
 7505SOL    HW123414   1.855   2.908   5.703
 7505SOL    HW223415   1.792   3.049   5.652
 7506SOL     OW23416   5.775   1.440   3.052
 7506SOL    HW123417   5.824   1.455   3.138
 7506SOL    HW223418   5.682   1.407   3.072
 7507SOL     OW23419   0.236   1.838   2.456
 7507SOL    HW123420   0.331   1.858   2.434
 7507SOL    HW223421   0.180   1.845   2.374
 7508SOL     OW23422   1.343   6.183   1.565
 7508SOL    HW123423   1.395   6.268   1.559
 7508SOL    HW223424   1.406   6.106   1.574
 7509SOL     OW23425   5.952   3.900   0.467
 7509SOL    HW123426   5.969   3.990   0.427
 7509SOL    HW223427   6.038   3.851   0.478
 7510SOL     OW23428   3.425   3.510   5.157
 7510SOL    HW123429   3.455   3.451   5.231
 7510SOL    HW223430   3.326   3.500   5.144
 7511SOL     OW23431   2.539   5.997   3.781
 7511SOL    HW123432   2.544   6.036   3.873
 7511SOL    HW223433   2.594   5.913   3.777
 7512SOL     OW23434   2.585   6.981   6.651
 7512SOL    HW123435   2.506   0.020   6.640
 7512SOL    HW223436   2.572   6.900   6.594
 7513SOL     OW23437   1.479   1.231   1.781
 7513SOL    HW123438   1.521   1.302   1.837
 7513SOL    HW223439   1.394   1.265   1.742
 7514SOL     OW23440   2.678   5.070   2.625
 7514SOL    HW123441   2.754   5.009   2.605
 7514SOL    HW223442   2.709   5.165   2.622
 7515SOL     OW23443   6.696   5.720   4.378
 7515SOL    HW123444   6.766   5.734   4.307
 7515SOL    HW223445   6.725   5.647   4.439
 7516SOL     OW23446   6.334   5.679   5.941
 7516SOL    HW123447   6.397   5.706   5.868
 7516SOL    HW223448   6.240   5.690   5.909
 7517SOL     OW23449   6.940   1.691   0.527
 7517SOL    HW123450   6.961   1.667   0.621
 7517SOL    HW223451   6.949   1.790   0.515
 7518SOL     OW23452   4.897   3.926   4.434
 7518SOL    HW123453   4.863   4.012   4.397
 7518SOL    HW223454   4.899   3.857   4.361
 7519SOL     OW23455   0.903   6.339   4.129
 7519SOL    HW123456   1.000   6.324   4.111
 7519SOL    HW223457   0.888   6.344   4.228
 7520SOL     OW23458   2.205   6.839   2.441
 7520SOL    HW123459   2.134   6.894   2.397
 7520SOL    HW223460   2.272   6.809   2.373
 7521SOL     OW23461   4.638   2.425   5.421
 7521SOL    HW123462   4.582   2.410   5.339
 7521SOL    HW223463   4.628   2.346   5.482
 7522SOL     OW23464   1.631   1.204   5.958
 7522SOL    HW123465   1.666   1.231   6.048
 7522SOL    HW223466   1.689   1.242   5.886
 7523SOL     OW23467   5.372   0.121   6.496
 7523SOL    HW123468   5.347   0.127   6.592
 7523SOL    HW223469   5.453   0.177   6.479
 7524SOL     OW23470   1.068   3.076   4.919
 7524SOL    HW123471   1.147   3.041   4.970
 7524SOL    HW223472   1.065   3.034   4.829
 7525SOL     OW23473   3.502   0.792   6.357
 7525SOL    HW123474   3.425   0.855   6.361
 7525SOL    HW223475   3.470   0.701   6.330
 7526SOL     OW23476   3.192   3.339   1.406
 7526SOL    HW123477   3.159   3.362   1.497
 7526SOL    HW223478   3.290   3.362   1.399
 7527SOL     OW23479   3.049   6.070   3.782
 7527SOL    HW123480   3.081   6.157   3.819
 7527SOL    HW223481   3.065   5.997   3.849
 7528SOL     OW23482   6.012   2.177   0.375
 7528SOL    HW123483   6.019   2.079   0.358
 7528SOL    HW223484   5.955   2.219   0.304
 7529SOL     OW23485   5.664   1.820   4.293
 7529SOL    HW123486   5.693   1.724   4.295
 7529SOL    HW223487   5.591   1.834   4.360
 7530SOL     OW23488   0.151   2.895   2.600
 7530SOL    HW123489   0.234   2.885   2.656
 7530SOL    HW223490   0.129   2.808   2.557
 7531SOL     OW23491   5.760   2.862   4.600
 7531SOL    HW123492   5.732   2.849   4.695
 7531SOL    HW223493   5.728   2.951   4.568
 7532SOL     OW23494   4.125   6.181   0.097
 7532SOL    HW123495   4.147   6.205   0.003
 7532SOL    HW223496   4.092   6.086   0.101
 7533SOL     OW23497   3.420   1.689   1.643
 7533SOL    HW123498   3.482   1.760   1.678
 7533SOL    HW223499   3.337   1.733   1.607
 7534SOL     OW23500   4.790   6.320   5.254
 7534SOL    HW123501   4.724   6.259   5.211
 7534SOL    HW223502   4.879   6.310   5.211
 7535SOL     OW23503   2.080   0.147   4.656
 7535SOL    HW123504   2.146   0.195   4.714
 7535SOL    HW223505   2.004   0.209   4.635
 7536SOL     OW23506   5.545   4.007   4.537
 7536SOL    HW123507   5.612   3.934   4.551
 7536SOL    HW223508   5.491   3.987   4.454
 7537SOL     OW23509   2.175   5.255   2.344
 7537SOL    HW123510   2.130   5.291   2.426
 7537SOL    HW223511   2.230   5.327   2.302
 7538SOL     OW23512   1.888   2.423   1.339
 7538SOL    HW123513   1.942   2.402   1.421
 7538SOL    HW223514   1.913   2.515   1.306
 7539SOL     OW23515   1.518   3.413   4.190
 7539SOL    HW123516   1.521   3.404   4.091
 7539SOL    HW223517   1.425   3.399   4.222
 7540SOL     OW23518   4.247   0.826   4.767
 7540SOL    HW123519   4.291   0.740   4.741
 7540SOL    HW223520   4.294   0.864   4.847
 7541SOL     OW23521   0.625   4.138   4.901
 7541SOL    HW123522   0.539   4.182   4.924
 7541SOL    HW223523   0.689   4.206   4.865
 7542SOL     OW23524   0.961   5.446   6.718
 7542SOL    HW123525   1.052   5.448   6.676
 7542SOL    HW223526   0.902   5.384   6.667
 7543SOL     OW23527   3.719   1.205   5.387
 7543SOL    HW123528   3.764   1.160   5.310
 7543SOL    HW223529   3.699   1.300   5.363
 7544SOL     OW23530   6.002   2.186   3.446
 7544SOL    HW123531   6.079   2.250   3.445
 7544SOL    HW223532   5.916   2.236   3.438
 7545SOL     OW23533   0.955   5.844   6.682
 7545SOL    HW123534   0.975   5.891   6.596
 7545SOL    HW223535   0.857   5.829   6.690
 7546SOL     OW23536   4.254   2.000   1.320
 7546SOL    HW123537   4.263   1.986   1.419
 7546SOL    HW223538   4.337   2.044   1.285
 7547SOL     OW23539   5.400   1.224   0.653
 7547SOL    HW123540   5.377   1.301   0.594
 7547SOL    HW223541   5.397   1.253   0.748
 7548SOL     OW23542   4.256   1.996   0.004
 7548SOL    HW123543   4.168   1.970   0.043
 7548SOL    HW223544   4.244   2.023   6.931
 7549SOL     OW23545   2.939   3.006   6.869
 7549SOL    HW123546   2.982   3.077   6.923
 7549SOL    HW223547   2.846   3.033   6.845
 7550SOL     OW23548   2.604   4.745   4.013
 7550SOL    HW123549   2.667   4.801   4.067
 7550SOL    HW223550   2.557   4.681   4.074
 7551SOL     OW23551   6.114   2.829   5.315
 7551SOL    HW123552   6.204   2.870   5.330
 7551SOL    HW223553   6.121   2.730   5.321
 7552SOL     OW23554   1.415   6.188   3.619
 7552SOL    HW123555   1.367   6.270   3.588
 7552SOL    HW223556   1.495   6.172   3.560
 7553SOL     OW23557   4.200   6.744   5.600
 7553SOL    HW123558   4.240   6.836   5.597
 7553SOL    HW223559   4.127   6.742   5.668
 7554SOL     OW23560   5.311   0.488   6.715
 7554SOL    HW123561   5.308   0.541   6.800
 7554SOL    HW223562   5.263   0.537   6.643
 7555SOL     OW23563   3.399   5.414   6.346
 7555SOL    HW123564   3.480   5.400   6.290
 7555SOL    HW223565   3.426   5.424   6.442
 7556SOL     OW23566   2.393   3.072   0.370
 7556SOL    HW123567   2.307   3.122   0.375
 7556SOL    HW223568   2.450   3.108   0.296
 7557SOL     OW23569   5.452   0.247   6.019
 7557SOL    HW123570   5.509   0.326   5.998
 7557SOL    HW223571   5.510   0.171   6.049
 7558SOL     OW23572   1.888   2.911   4.806
 7558SOL    HW123573   1.927   3.002   4.819
 7558SOL    HW223574   1.789   2.915   4.818
 7559SOL     OW23575   4.553   3.528   0.505
 7559SOL    HW123576   4.557   3.628   0.513
 7559SOL    HW223577   4.548   3.503   0.408
 7560SOL     OW23578   4.799   6.679   0.625
 7560SOL    HW123579   4.815   6.615   0.550
 7560SOL    HW223580   4.764   6.630   0.704
 7561SOL     OW23581   0.441   3.169   6.295
 7561SOL    HW123582   0.415   3.096   6.358
 7561SOL    HW223583   0.374   3.243   6.301
 7562SOL     OW23584   0.617   5.885   5.814
 7562SOL    HW123585   0.542   5.891   5.748
 7562SOL    HW223586   0.638   5.976   5.849
 7563SOL     OW23587   3.009   0.054   1.723
 7563SOL    HW123588   3.076   0.003   1.777
 7563SOL    HW223589   2.918   0.018   1.740
 7564SOL     OW23590   4.322   0.629   3.725
 7564SOL    HW123591   4.270   0.696   3.779
 7564SOL    HW223592   4.408   0.609   3.771
 7565SOL     OW23593   6.012   3.446   6.534
 7565SOL    HW123594   6.013   3.395   6.620
 7565SOL    HW223595   6.037   3.541   6.551
 7566SOL     OW23596   6.102   5.401   2.473
 7566SOL    HW123597   6.096   5.462   2.552
 7566SOL    HW223598   6.160   5.442   2.403
 7567SOL     OW23599   1.851   1.260   5.467
 7567SOL    HW123600   1.873   1.342   5.413
 7567SOL    HW223601   1.936   1.213   5.492
 7568SOL     OW23602   5.538   4.888   2.873
 7568SOL    HW123603   5.570   4.854   2.961
 7568SOL    HW223604   5.614   4.890   2.808
 7569SOL     OW23605   3.331   4.518   6.076
 7569SOL    HW123606   3.417   4.526   6.126
 7569SOL    HW223607   3.342   4.554   5.983
 7570SOL     OW23608   5.403   4.241   4.590
 7570SOL    HW123609   5.446   4.151   4.593
 7570SOL    HW223610   5.464   4.308   4.633
 7571SOL     OW23611   4.696   4.258   3.330
 7571SOL    HW123612   4.740   4.177   3.367
 7571SOL    HW223613   4.684   4.247   3.231
 7572SOL     OW23614   4.814   0.985   2.163
 7572SOL    HW123615   4.867   1.070   2.159
 7572SOL    HW223616   4.823   0.944   2.253
 7573SOL     OW23617   0.365   6.627   4.912
 7573SOL    HW123618   0.386   6.643   5.008
 7573SOL    HW223619   0.449   6.604   4.863
 7574SOL     OW23620   4.913   0.756   5.586
 7574SOL    HW123621   4.861   0.815   5.648
 7574SOL    HW223622   4.895   0.660   5.609
 7575SOL     OW23623   5.638   0.057   6.614
 7575SOL    HW123624   5.736   0.039   6.619
 7575SOL    HW223625   5.602   0.069   6.707
 7576SOL     OW23626   4.989   3.123   0.407
 7576SOL    HW123627   4.993   3.140   0.506
 7576SOL    HW223628   5.017   3.029   0.389
 7577SOL     OW23629   0.543   6.476   6.831
 7577SOL    HW123630   0.616   6.456   6.897
 7577SOL    HW223631   0.487   6.552   6.864
 7578SOL     OW23632   3.336   5.210   2.339
 7578SOL    HW123633   3.389   5.197   2.422
 7578SOL    HW223634   3.376   5.285   2.285
 7579SOL     OW23635   0.102   0.759   1.947
 7579SOL    HW123636   0.119   0.856   1.928
 7579SOL    HW223637   0.189   0.711   1.957
 7580SOL     OW23638   0.701   4.162   4.099
 7580SOL    HW123639   0.773   4.227   4.123
 7580SOL    HW223640   0.671   4.114   4.181
 7581SOL     OW23641   0.421   1.959   1.287
 7581SOL    HW123642   0.343   2.021   1.288
 7581SOL    HW223643   0.491   1.996   1.226
 7582SOL     OW23644   4.028   1.345   2.943
 7582SOL    HW123645   4.104   1.326   2.881
 7582SOL    HW223646   4.032   1.441   2.971
 7583SOL     OW23647   5.106   2.854   2.187
 7583SOL    HW123648   5.034   2.846   2.118
 7583SOL    HW223649   5.129   2.763   2.222
 7584SOL     OW23650   3.054   0.882   3.167
 7584SOL    HW123651   3.059   0.920   3.259
 7584SOL    HW223652   3.019   0.951   3.104
 7585SOL     OW23653   1.865   2.973   6.229
 7585SOL    HW123654   1.935   2.978   6.300
 7585SOL    HW223655   1.888   2.901   6.164
 7586SOL     OW23656   2.321   6.916   3.785
 7586SOL    HW123657   2.351   6.838   3.840
 7586SOL    HW223658   2.320   6.998   3.842
 7587SOL     OW23659   2.058   2.082   6.443
 7587SOL    HW123660   1.959   2.068   6.434
 7587SOL    HW223661   2.080   2.178   6.425
 7588SOL     OW23662   2.010   2.656   3.923
 7588SOL    HW123663   2.084   2.627   3.862
 7588SOL    HW223664   2.039   2.643   4.018
 7589SOL     OW23665   0.147   0.585   2.214
 7589SOL    HW123666   0.222   0.531   2.249
 7589SOL    HW223667   0.175   0.681   2.206
 7590SOL     OW23668   3.999   1.873   6.451
 7590SOL    HW123669   4.052   1.826   6.521
 7590SOL    HW223670   4.054   1.946   6.411
 7591SOL     OW23671   5.585   4.309   0.682
 7591SOL    HW123672   5.679   4.338   0.666
 7591SOL    HW223673   5.537   4.301   0.595
 7592SOL     OW23674   6.235   5.680   4.717
 7592SOL    HW123675   6.178   5.609   4.759
 7592SOL    HW223676   6.177   5.758   4.692
 7593SOL     OW23677   6.494   2.865   0.106
 7593SOL    HW123678   6.586   2.903   0.095
 7593SOL    HW223679   6.472   2.861   0.204
 7594SOL     OW23680   1.575   4.438   2.208
 7594SOL    HW123681   1.558   4.388   2.123
 7594SOL    HW223682   1.673   4.455   2.218
 7595SOL     OW23683   5.990   3.040   5.953
 7595SOL    HW123684   6.024   3.057   5.861
 7595SOL    HW223685   5.980   2.942   5.968
 7596SOL     OW23686   3.527   6.390   4.150
 7596SOL    HW123687   3.460   6.339   4.097
 7596SOL    HW223688   3.620   6.364   4.122
 7597SOL     OW23689   1.876   6.727   2.967
 7597SOL    HW123690   1.842   6.820   2.949
 7597SOL    HW223691   1.969   6.733   3.004
 7598SOL     OW23692   6.959   0.622   3.159
 7598SOL    HW123693   6.938   0.542   3.103
 7598SOL    HW223694   0.016   0.603   3.217
 7599SOL     OW23695   5.440   2.476   2.404
 7599SOL    HW123696   5.396   2.462   2.493
 7599SOL    HW223697   5.489   2.394   2.377
 7600SOL     OW23698   1.148   1.551   3.545
 7600SOL    HW123699   1.135   1.624   3.477
 7600SOL    HW223700   1.126   1.586   3.636
 7601SOL     OW23701   2.579   4.979   2.156
 7601SOL    HW123702   2.655   4.957   2.095
 7601SOL    HW223703   2.513   4.904   2.156
 7602SOL     OW23704   1.472   3.907   6.819
 7602SOL    HW123705   1.471   4.006   6.807
 7602SOL    HW223706   1.481   3.885   6.916
 7603SOL     OW23707   1.997   5.699   6.499
 7603SOL    HW123708   1.958   5.705   6.591
 7603SOL    HW223709   2.068   5.628   6.497
 7604SOL     OW23710   1.642   2.789   4.201
 7604SOL    HW123711   1.628   2.812   4.298
 7604SOL    HW223712   1.581   2.845   4.145
 7605SOL     OW23713   1.222   0.736   0.655
 7605SOL    HW123714   1.226   0.717   0.557
 7605SOL    HW223715   1.134   0.705   0.692
 7606SOL     OW23716   6.050   3.051   4.664
 7606SOL    HW123717   6.028   3.144   4.695
 7606SOL    HW223718   6.071   3.052   4.566
 7607SOL     OW23719   3.389   4.734   0.669
 7607SOL    HW123720   3.295   4.712   0.642
 7607SOL    HW223721   3.388   4.811   0.733
 7608SOL     OW23722   3.970   3.829   1.031
 7608SOL    HW123723   3.963   3.768   1.109
 7608SOL    HW223724   3.932   3.918   1.055
 7609SOL     OW23725   1.743   3.091   4.383
 7609SOL    HW123726   1.730   3.008   4.439
 7609SOL    HW223727   1.745   3.066   4.287
 7610SOL     OW23728   4.186   4.488   6.417
 7610SOL    HW123729   4.286   4.493   6.414
 7610SOL    HW223730   4.147   4.555   6.354
 7611SOL     OW23731   5.343   3.716   1.389
 7611SOL    HW123732   5.337   3.725   1.488
 7611SOL    HW223733   5.366   3.804   1.349
 7612SOL     OW23734   4.912   3.331   2.349
 7612SOL    HW123735   4.860   3.254   2.385
 7612SOL    HW223736   4.892   3.342   2.252
 7613SOL     OW23737   0.593   2.059   1.096
 7613SOL    HW123738   0.655   2.005   1.039
 7613SOL    HW223739   0.557   2.136   1.043
 7614SOL     OW23740   5.463   2.876   0.553
 7614SOL    HW123741   5.480   2.780   0.531
 7614SOL    HW223742   5.376   2.884   0.600
 7615SOL     OW23743   4.301   4.671   0.008
 7615SOL    HW123744   4.385   4.658   0.062
 7615SOL    HW223745   4.311   4.752   6.972
 7616SOL     OW23746   6.607   6.342   4.856
 7616SOL    HW123747   6.627   6.436   4.828
 7616SOL    HW223748   6.625   6.331   4.953
 7617SOL     OW23749   3.517   6.178   3.595
 7617SOL    HW123750   3.576   6.239   3.542
 7617SOL    HW223751   3.424   6.216   3.598
 7618SOL     OW23752   0.268   2.405   6.214
 7618SOL    HW123753   0.344   2.458   6.254
 7618SOL    HW223754   0.214   2.464   6.154
 7619SOL     OW23755   6.500   3.175   4.532
 7619SOL    HW123756   6.410   3.161   4.490
 7619SOL    HW223757   6.498   3.142   4.626
 7620SOL     OW23758   3.956   5.664   1.618
 7620SOL    HW123759   3.907   5.736   1.667
 7620SOL    HW223760   3.971   5.586   1.680
 7621SOL     OW23761   0.026   0.987   0.721
 7621SOL    HW123762   0.055   1.023   0.809
 7621SOL    HW223763   6.977   1.047   0.683
 7622SOL     OW23764   4.321   4.706   6.026
 7622SOL    HW123765   4.271   4.703   5.939
 7622SOL    HW223766   4.408   4.754   6.013
 7623SOL     OW23767   4.768   4.326   6.924
 7623SOL    HW123768   4.752   4.228   6.915
 7623SOL    HW223769   4.862   4.347   6.897
 7624SOL     OW23770   6.692   3.615   4.614
 7624SOL    HW123771   6.750   3.566   4.549
 7624SOL    HW223772   6.649   3.693   4.569
 7625SOL     OW23773   5.204   0.990   0.077
 7625SOL    HW123774   5.294   0.970   0.115
 7625SOL    HW223775   5.138   0.921   0.108
 7626SOL     OW23776   6.422   0.300   5.318
 7626SOL    HW123777   6.350   0.260   5.260
 7626SOL    HW223778   6.462   0.228   5.375
 7627SOL     OW23779   4.171   3.205   0.632
 7627SOL    HW123780   4.162   3.105   0.632
 7627SOL    HW223781   4.205   3.236   0.543
 7628SOL     OW23782   3.334   2.854   2.050
 7628SOL    HW123783   3.396   2.928   2.022
 7628SOL    HW223784   3.383   2.767   2.045
 7629SOL     OW23785   6.997   4.970   3.776
 7629SOL    HW123786   0.037   4.942   3.849
 7629SOL    HW223787   6.988   4.895   3.710
 7630SOL     OW23788   0.672   0.720   0.580
 7630SOL    HW123789   0.679   0.669   0.665
 7630SOL    HW223790   0.737   0.684   0.513
 7631SOL     OW23791   1.078   2.490   5.681
 7631SOL    HW123792   1.017   2.411   5.678
 7631SOL    HW223793   1.162   2.466   5.730
 7632SOL     OW23794   4.909   4.075   0.885
 7632SOL    HW123795   4.951   4.166   0.889
 7632SOL    HW223796   4.841   4.073   0.811
 7633SOL     OW23797   5.254   0.629   1.603
 7633SOL    HW123798   5.178   0.588   1.553
 7633SOL    HW223799   5.227   0.718   1.638
 7634SOL     OW23800   2.260   1.197   2.031
 7634SOL    HW123801   2.275   1.167   1.937
 7634SOL    HW223802   2.280   1.295   2.039
 7635SOL     OW23803   3.338   4.810   5.248
 7635SOL    HW123804   3.342   4.907   5.271
 7635SOL    HW223805   3.242   4.783   5.238
 7636SOL     OW23806   1.223   3.076   4.169
 7636SOL    HW123807   1.241   3.174   4.165
 7636SOL    HW223808   1.149   3.057   4.233
 7637SOL     OW23809   2.801   6.300   2.423
 7637SOL    HW123810   2.805   6.222   2.361
 7637SOL    HW223811   2.779   6.268   2.515
 7638SOL     OW23812   2.000   5.462   2.084
 7638SOL    HW123813   1.989   5.365   2.106
 7638SOL    HW223814   1.948   5.483   2.001
 7639SOL     OW23815   0.538   1.253   1.018
 7639SOL    HW123816   0.504   1.273   0.926
 7639SOL    HW223817   0.587   1.332   1.054
 7640SOL     OW23818   2.616   1.391   5.522
 7640SOL    HW123819   2.709   1.428   5.523
 7640SOL    HW223820   2.618   1.296   5.552
 7641SOL     OW23821   1.135   3.564   2.640
 7641SOL    HW123822   1.104   3.533   2.550
 7641SOL    HW223823   1.131   3.488   2.704
 7642SOL     OW23824   3.423   1.531   2.650
 7642SOL    HW123825   3.362   1.609   2.632
 7642SOL    HW223826   3.517   1.557   2.627
 7643SOL     OW23827   5.405   2.116   3.094
 7643SOL    HW123828   5.433   2.175   3.018
 7643SOL    HW223829   5.479   2.109   3.161
 7644SOL     OW23830   4.630   2.581   2.109
 7644SOL    HW123831   4.705   2.530   2.068
 7644SOL    HW223832   4.556   2.591   2.043
 7645SOL     OW23833   5.125   3.466   5.794
 7645SOL    HW123834   5.175   3.552   5.808
 7645SOL    HW223835   5.083   3.467   5.703
 7646SOL     OW23836   1.380   2.835   4.346
 7646SOL    HW123837   1.347   2.752   4.300
 7646SOL    HW223838   1.355   2.915   4.293
 7647SOL     OW23839   6.812   2.345   3.564
 7647SOL    HW123840   6.850   2.262   3.604
 7647SOL    HW223841   6.721   2.361   3.602
 7648SOL     OW23842   2.523   1.779   2.504
 7648SOL    HW123843   2.512   1.826   2.416
 7648SOL    HW223844   2.499   1.841   2.578
 7649SOL     OW23845   1.567   0.600   3.905
 7649SOL    HW123846   1.590   0.609   3.808
 7649SOL    HW223847   1.616   0.522   3.943
 7650SOL     OW23848   5.689   0.472   0.286
 7650SOL    HW123849   5.722   0.482   0.380
 7650SOL    HW223850   5.737   0.396   0.242
 7651SOL     OW23851   2.067   0.446   4.398
 7651SOL    HW123852   2.149   0.395   4.424
 7651SOL    HW223853   1.988   0.384   4.399
 7652SOL     OW23854   5.502   2.375   4.484
 7652SOL    HW123855   5.469   2.407   4.395
 7652SOL    HW223856   5.493   2.449   4.551
 7653SOL     OW23857   0.512   1.829   0.296
 7653SOL    HW123858   0.607   1.858   0.286
 7653SOL    HW223859   0.509   1.734   0.329
 7654SOL     OW23860   4.852   3.023   4.007
 7654SOL    HW123861   4.828   3.087   4.079
 7654SOL    HW223862   4.951   3.005   4.009
 7655SOL     OW23863   4.160   6.434   3.884
 7655SOL    HW123864   4.164   6.462   3.788
 7655SOL    HW223865   4.244   6.463   3.930
 7656SOL     OW23866   3.951   3.921   6.992
 7656SOL    HW123867   3.901   3.838   6.966
 7656SOL    HW223868   4.049   3.905   6.981
 7657SOL     OW23869   1.272   2.065   3.218
 7657SOL    HW123870   1.272   1.982   3.273
 7657SOL    HW223871   1.268   2.041   3.121
 7658SOL     OW23872   3.014   0.049   0.283
 7658SOL    HW123873   3.098   0.047   0.229
 7658SOL    HW223874   3.012   6.992   0.344
 7659SOL     OW23875   5.055   4.732   6.490
 7659SOL    HW123876   5.088   4.808   6.435
 7659SOL    HW223877   5.002   4.767   6.568
 7660SOL     OW23878   6.748   5.786   3.781
 7660SOL    HW123879   6.726   5.688   3.778
 7660SOL    HW223880   6.691   5.830   3.851
 7661SOL     OW23881   5.768   2.425   5.415
 7661SOL    HW123882   5.847   2.365   5.432
 7661SOL    HW223883   5.706   2.381   5.351
 7662SOL     OW23884   1.246   3.088   4.616
 7662SOL    HW123885   1.220   3.170   4.667
 7662SOL    HW223886   1.345   3.081   4.611
 7663SOL     OW23887   6.206   4.968   6.228
 7663SOL    HW123888   6.178   5.046   6.172
 7663SOL    HW223889   6.183   4.883   6.181
 7664SOL     OW23890   4.190   0.878   1.988
 7664SOL    HW123891   4.115   0.942   1.972
 7664SOL    HW223892   4.268   0.926   2.025
 7665SOL     OW23893   6.289   0.814   5.105
 7665SOL    HW123894   6.388   0.808   5.119
 7665SOL    HW223895   6.247   0.858   5.184
 7666SOL     OW23896   0.419   4.713   2.645
 7666SOL    HW123897   0.324   4.737   2.668
 7666SOL    HW223898   0.466   4.793   2.611
 7667SOL     OW23899   3.989   0.383   2.127
 7667SOL    HW123900   3.991   0.479   2.100
 7667SOL    HW223901   4.011   0.375   2.225
 7668SOL     OW23902   2.654   5.251   0.762
 7668SOL    HW123903   2.656   5.345   0.729
 7668SOL    HW223904   2.742   5.229   0.804
 7669SOL     OW23905   4.623   1.217   5.382
 7669SOL    HW123906   4.712   1.192   5.343
 7669SOL    HW223907   4.565   1.256   5.311
 7670SOL     OW23908   0.576   5.307   0.685
 7670SOL    HW123909   0.615   5.227   0.638
 7670SOL    HW223910   0.638   5.335   0.759
 7671SOL     OW23911   3.833   1.113   2.238
 7671SOL    HW123912   3.844   1.062   2.323
 7671SOL    HW223913   3.860   1.208   2.252
 7672SOL     OW23914   0.493   5.620   2.999
 7672SOL    HW123915   0.500   5.717   3.023
 7672SOL    HW223916   0.584   5.580   2.990
 7673SOL     OW23917   2.171   6.129   1.816
 7673SOL    HW123918   2.135   6.068   1.745
 7673SOL    HW223919   2.143   6.096   1.906
 7674SOL     OW23920   5.315   1.105   3.948
 7674SOL    HW123921   5.350   1.029   4.003
 7674SOL    HW223922   5.390   1.148   3.898
 7675SOL     OW23923   5.870   6.443   3.440
 7675SOL    HW123924   5.913   6.427   3.528
 7675SOL    HW223925   5.772   6.461   3.453
 7676SOL     OW23926   2.850   2.273   0.096
 7676SOL    HW123927   2.773   2.219   0.062
 7676SOL    HW223928   2.815   2.343   0.158
 7677SOL     OW23929   0.334   4.093   1.958
 7677SOL    HW123930   0.265   4.141   2.013
 7677SOL    HW223931   0.410   4.066   2.016
 7678SOL     OW23932   2.473   2.752   5.248
 7678SOL    HW123933   2.395   2.732   5.189
 7678SOL    HW223934   2.493   2.850   5.244
 7679SOL     OW23935   2.772   6.553   5.611
 7679SOL    HW123936   2.763   6.624   5.681
 7679SOL    HW223937   2.735   6.467   5.646
 7680SOL     OW23938   1.473   0.951   1.115
 7680SOL    HW123939   1.458   0.921   1.021
 7680SOL    HW223940   1.562   0.918   1.146
 7681SOL     OW23941   2.929   0.516   0.822
 7681SOL    HW123942   2.871   0.438   0.800
 7681SOL    HW223943   2.876   0.601   0.815
 7682SOL     OW23944   4.052   0.099   2.145
 7682SOL    HW123945   3.966   0.066   2.106
 7682SOL    HW223946   4.094   0.164   2.082
 7683SOL     OW23947   0.083   1.515   4.967
 7683SOL    HW123948   0.041   1.465   5.042
 7683SOL    HW223949   0.073   1.463   4.882
 7684SOL     OW23950   4.396   1.252   0.826
 7684SOL    HW123951   4.332   1.329   0.828
 7684SOL    HW223952   4.385   1.198   0.910
 7685SOL     OW23953   2.615   1.662   5.687
 7685SOL    HW123954   2.523   1.623   5.681
 7685SOL    HW223955   2.670   1.627   5.611
 7686SOL     OW23956   6.664   6.649   3.244
 7686SOL    HW123957   6.686   6.556   3.215
 7686SOL    HW223958   6.745   6.691   3.285
 7687SOL     OW23959   6.258   5.231   4.912
 7687SOL    HW123960   6.263   5.131   4.908
 7687SOL    HW223961   6.347   5.270   4.889
 7688SOL     OW23962   0.356   6.098   5.834
 7688SOL    HW123963   0.453   6.119   5.826
 7688SOL    HW223964   0.345   6.001   5.857
 7689SOL     OW23965   5.872   6.546   2.707
 7689SOL    HW123966   5.892   6.644   2.702
 7689SOL    HW223967   5.781   6.528   2.671
 7690SOL     OW23968   5.839   5.405   6.821
 7690SOL    HW123969   5.839   5.488   6.876
 7690SOL    HW223970   5.747   5.387   6.787
 7691SOL     OW23971   5.389   4.087   3.049
 7691SOL    HW123972   5.300   4.069   3.091
 7691SOL    HW223973   5.433   4.000   3.025
 7692SOL     OW23974   0.348   6.223   2.094
 7692SOL    HW123975   0.405   6.231   2.013
 7692SOL    HW223976   0.390   6.160   2.159
 7693SOL     OW23977   3.176   1.063   1.649
 7693SOL    HW123978   3.133   0.976   1.627
 7693SOL    HW223979   3.179   1.075   1.748
 7694SOL     OW23980   5.481   3.767   3.660
 7694SOL    HW123981   5.395   3.818   3.651
 7694SOL    HW223982   5.540   3.813   3.726
 7695SOL     OW23983   5.076   0.470   1.486
 7695SOL    HW123984   5.116   0.393   1.537
 7695SOL    HW223985   4.981   0.482   1.514
 7696SOL     OW23986   0.050   1.204   6.034
 7696SOL    HW123987   0.092   1.138   5.971
 7696SOL    HW223988   0.093   1.197   6.124
 7697SOL     OW23989   2.694   0.251   3.684
 7697SOL    HW123990   2.752   0.197   3.745
 7697SOL    HW223991   2.626   0.191   3.642
 7698SOL     OW23992   5.847   1.474   3.859
 7698SOL    HW123993   5.857   1.503   3.763
 7698SOL    HW223994   5.931   1.429   3.889
 7699SOL     OW23995   2.570   5.660   5.877
 7699SOL    HW123996   2.588   5.619   5.788
 7699SOL    HW223997   2.514   5.598   5.932
 7700SOL     OW23998   4.343   5.553   3.399
 7700SOL    HW123999   4.396   5.469   3.408
 7700SOL    HW224000   4.385   5.626   3.451
 7701SOL     OW24001   6.738   2.644   6.669
 7701SOL    HW124002   6.814   2.705   6.648
 7701SOL    HW224003   6.773   2.560   6.712
 7702SOL     OW24004   4.633   6.141   5.128
 7702SOL    HW124005   4.664   6.083   5.053
 7702SOL    HW224006   4.549   6.187   5.102
 7703SOL     OW24007   5.974   5.739   6.552
 7703SOL    HW124008   5.957   5.827   6.598
 7703SOL    HW224009   6.026   5.755   6.468
 7704SOL     OW24010   5.877   0.565   3.996
 7704SOL    HW124011   5.940   0.637   3.965
 7704SOL    HW224012   5.787   0.580   3.956
 7705SOL     OW24013   2.301   5.906   0.947
 7705SOL    HW124014   2.358   5.960   1.009
 7705SOL    HW224015   2.223   5.869   0.998
 7706SOL     OW24016   3.460   3.136   3.906
 7706SOL    HW124017   3.458   3.037   3.891
 7706SOL    HW224018   3.379   3.163   3.958
 7707SOL     OW24019   6.844   3.780   5.833
 7707SOL    HW124020   6.846   3.734   5.921
 7707SOL    HW224021   6.750   3.805   5.810
 7708SOL     OW24022   1.105   6.661   5.466
 7708SOL    HW124023   1.056   6.581   5.431
 7708SOL    HW224024   1.190   6.633   5.508
 7709SOL     OW24025   6.909   4.949   1.724
 7709SOL    HW124026   6.809   4.948   1.721
 7709SOL    HW224027   6.944   5.025   1.669
 7710SOL     OW24028   2.205   2.469   0.368
 7710SOL    HW124029   2.208   2.557   0.321
 7710SOL    HW224030   2.177   2.398   0.304
 7711SOL     OW24031   5.959   5.695   6.009
 7711SOL    HW124032   6.023   5.645   6.068
 7711SOL    HW224033   5.951   5.789   6.041
 7712SOL     OW24034   6.236   5.328   0.798
 7712SOL    HW124035   6.287   5.357   0.879
 7712SOL    HW224036   6.189   5.406   0.758
 7713SOL     OW24037   1.404   4.126   0.819
 7713SOL    HW124038   1.465   4.205   0.818
 7713SOL    HW224039   1.459   4.042   0.822
 7714SOL     OW24040   6.902   5.031   5.560
 7714SOL    HW124041   6.996   5.020   5.591
 7714SOL    HW224042   6.895   5.009   5.463
 7715SOL     OW24043   2.923   2.282   6.547
 7715SOL    HW124044   3.001   2.272   6.609
 7715SOL    HW224045   2.886   2.375   6.556
 7716SOL     OW24046   6.776   4.494   0.655
 7716SOL    HW124047   6.710   4.423   0.631
 7716SOL    HW224048   6.820   4.528   0.572
 7717SOL     OW24049   0.938   1.140   5.586
 7717SOL    HW124050   0.850   1.182   5.567
 7717SOL    HW224051   0.924   1.055   5.637
 7718SOL     OW24052   6.777   4.135   3.137
 7718SOL    HW124053   6.706   4.132   3.067
 7718SOL    HW224054   6.737   4.110   3.226
 7719SOL     OW24055   0.389   4.240   5.002
 7719SOL    HW124056   0.339   4.187   5.070
 7719SOL    HW224057   0.428   4.321   5.044
 7720SOL     OW24058   6.253   2.691   6.414
 7720SOL    HW124059   6.317   2.701   6.490
 7720SOL    HW224060   6.298   2.715   6.328
 7721SOL     OW24061   0.659   5.291   2.105
 7721SOL    HW124062   0.662   5.199   2.146
 7721SOL    HW224063   0.576   5.301   2.051
 7722SOL     OW24064   1.699   4.049   3.773
 7722SOL    HW124065   1.732   4.054   3.678
 7722SOL    HW224066   1.776   4.037   3.835
 7723SOL     OW24067   3.905   3.480   0.005
 7723SOL    HW124068   3.901   3.390   6.985
 7723SOL    HW224069   3.842   3.542   6.980
 7724SOL     OW24070   2.969   4.056   0.985
 7724SOL    HW124071   2.993   4.021   1.076
 7724SOL    HW224072   3.036   4.023   0.918
 7725SOL     OW24073   6.258   1.246   2.782
 7725SOL    HW124074   6.191   1.173   2.769
 7725SOL    HW224075   6.344   1.206   2.816
 7726SOL     OW24076   1.892   4.761   6.099
 7726SOL    HW124077   1.957   4.701   6.051
 7726SOL    HW224078   1.819   4.705   6.138
 7727SOL     OW24079   6.986   2.563   2.197
 7727SOL    HW124080   6.926   2.541   2.120
 7727SOL    HW224081   6.955   2.648   2.240
 7728SOL     OW24082   2.209   2.899   5.278
 7728SOL    HW124083   2.269   2.879   5.355
 7728SOL    HW224084   2.259   2.953   5.210
 7729SOL     OW24085   5.990   1.232   1.764
 7729SOL    HW124086   5.967   1.291   1.686
 7729SOL    HW224087   6.069   1.269   1.812
 7730SOL     OW24088   6.607   4.948   5.978
 7730SOL    HW124089   6.518   4.903   5.980
 7730SOL    HW224090   6.617   5.006   6.060
 7731SOL     OW24091   5.878   0.025   0.069
 7731SOL    HW124092   5.844   6.964   0.026
 7731SOL    HW224093   5.974   0.039   0.044
 7732SOL     OW24094   4.147   6.983   0.346
 7732SOL    HW124095   4.078   6.925   0.389
 7732SOL    HW224096   4.121   7.001   0.251
 7733SOL     OW24097   5.212   6.327   2.434
 7733SOL    HW124098   5.165   6.391   2.495
 7733SOL    HW224099   5.190   6.349   2.339
 7734SOL     OW24100   1.713   4.858   4.695
 7734SOL    HW124101   1.703   4.841   4.793
 7734SOL    HW224102   1.636   4.819   4.645
 7735SOL     OW24103   5.127   5.971   6.376
 7735SOL    HW124104   5.068   5.899   6.412
 7735SOL    HW224105   5.076   6.023   6.307
 7736SOL     OW24106   2.347   3.127   6.813
 7736SOL    HW124107   2.345   3.227   6.820
 7736SOL    HW224108   2.422   3.092   6.869
 7737SOL     OW24109   3.491   0.586   2.738
 7737SOL    HW124110   3.578   0.537   2.733
 7737SOL    HW224111   3.507   0.678   2.773
 7738SOL     OW24112   2.999   5.233   0.369
 7738SOL    HW124113   2.962   5.142   0.349
 7738SOL    HW224114   2.925   5.292   0.402
 7739SOL     OW24115   1.074   2.470   1.604
 7739SOL    HW124116   0.983   2.432   1.618
 7739SOL    HW224117   1.093   2.478   1.506
 7740SOL     OW24118   2.859   0.905   3.433
 7740SOL    HW124119   2.843   0.900   3.335
 7740SOL    HW224120   2.953   0.935   3.451
 7741SOL     OW24121   0.236   4.519   5.151
 7741SOL    HW124122   0.301   4.564   5.091
 7741SOL    HW224123   0.283   4.453   5.209
 7742SOL     OW24124   4.373   2.353   2.940
 7742SOL    HW124125   4.390   2.430   2.879
 7742SOL    HW224126   4.283   2.313   2.919
 7743SOL     OW24127   4.500   1.446   6.854
 7743SOL    HW124128   4.535   1.382   6.922
 7743SOL    HW224129   4.576   1.491   6.808
 7744SOL     OW24130   1.243   0.525   3.977
 7744SOL    HW124131   1.177   0.498   3.907
 7744SOL    HW224132   1.318   0.460   3.980
 7745SOL     OW24133   3.615   0.846   0.173
 7745SOL    HW124134   3.606   0.769   0.236
 7745SOL    HW224135   3.560   0.830   0.092
 7746SOL     OW24136   1.069   0.530   0.798
 7746SOL    HW124137   1.168   0.541   0.808
 7746SOL    HW224138   1.050   0.462   0.728
 7747SOL     OW24139   6.363   6.451   1.290
 7747SOL    HW124140   6.328   6.377   1.233
 7747SOL    HW224141   6.287   6.494   1.338
 7748SOL     OW24142   3.327   3.958   4.103
 7748SOL    HW124143   3.243   3.970   4.155
 7748SOL    HW224144   3.319   3.878   4.044
 7749SOL     OW24145   3.332   3.188   4.943
 7749SOL    HW124146   3.392   3.267   4.925
 7749SOL    HW224147   3.270   3.209   5.018
 7750SOL     OW24148   7.004   5.979   0.161
 7750SOL    HW124149   7.010   5.962   0.062
 7750SOL    HW224150   0.000   5.894   0.210
 7751SOL     OW24151   1.209   2.623   2.597
 7751SOL    HW124152   1.113   2.649   2.596
 7751SOL    HW224153   1.252   2.657   2.680
 7752SOL     OW24154   5.531   6.351   5.649
 7752SOL    HW124155   5.451   6.292   5.637
 7752SOL    HW224156   5.501   6.445   5.665
 7753SOL     OW24157   2.078   0.493   3.954
 7753SOL    HW124158   2.020   0.520   3.878
 7753SOL    HW224159   2.160   0.447   3.919
 7754SOL     OW24160   4.905   6.618   2.005
 7754SOL    HW124161   4.961   6.640   1.925
 7754SOL    HW224162   4.945   6.659   2.087
 7755SOL     OW24163   1.274   2.384   5.852
 7755SOL    HW124164   1.287   2.285   5.861
 7755SOL    HW224165   1.358   2.431   5.878
 7756SOL     OW24166   3.479   5.138   2.547
 7756SOL    HW124167   3.488   5.053   2.600
 7756SOL    HW224168   3.554   5.145   2.482
 7757SOL     OW24169   5.452   5.300   4.888
 7757SOL    HW124170   5.435   5.327   4.793
 7757SOL    HW224171   5.542   5.333   4.916
 7758SOL     OW24172   1.219   1.872   0.419
 7758SOL    HW124173   1.274   1.802   0.374
 7758SOL    HW224174   1.157   1.914   0.352
 7759SOL     OW24175   1.116   2.095   5.528
 7759SOL    HW124176   1.067   2.067   5.446
 7759SOL    HW224177   1.168   2.017   5.564
 7760SOL     OW24178   5.788   3.185   2.810
 7760SOL    HW124179   5.804   3.277   2.776
 7760SOL    HW224180   5.831   3.175   2.900
 7761SOL     OW24181   1.278   6.962   6.316
 7761SOL    HW124182   1.357   6.905   6.295
 7761SOL    HW224183   1.230   6.985   6.231
 7762SOL     OW24184   4.553   0.538   3.881
 7762SOL    HW124185   4.603   0.625   3.878
 7762SOL    HW224186   4.535   0.513   3.976
 7763SOL     OW24187   1.387   1.634   0.365
 7763SOL    HW124188   1.429   1.553   0.323
 7763SOL    HW224189   1.457   1.704   0.378
 7764SOL     OW24190   3.678   2.905   3.274
 7764SOL    HW124191   3.765   2.939   3.310
 7764SOL    HW224192   3.616   2.887   3.351
 7765SOL     OW24193   6.155   2.143   3.909
 7765SOL    HW124194   6.093   2.204   3.861
 7765SOL    HW224195   6.173   2.063   3.852
 7766SOL     OW24196   5.486   2.157   6.720
 7766SOL    HW124197   5.501   2.231   6.786
 7766SOL    HW224198   5.388   2.140   6.711
 7767SOL     OW24199   4.163   6.812   3.990
 7767SOL    HW124200   4.101   6.856   3.926
 7767SOL    HW224201   4.232   6.760   3.939
 7768SOL     OW24202   4.292   4.679   2.614
 7768SOL    HW124203   4.227   4.702   2.687
 7768SOL    HW224204   4.245   4.686   2.525
 7769SOL     OW24205   4.852   2.906   2.491
 7769SOL    HW124206   4.827   2.837   2.423
 7769SOL    HW224207   4.838   2.997   2.452
 7770SOL     OW24208   1.347   4.177   1.944
 7770SOL    HW124209   1.323   4.271   1.919
 7770SOL    HW224210   1.273   4.138   1.999
 7771SOL     OW24211   3.169   1.916   5.258
 7771SOL    HW124212   3.218   2.000   5.282
 7771SOL    HW224213   3.109   1.934   5.180
 7772SOL     OW24214   5.465   0.635   2.508
 7772SOL    HW124215   5.408   0.555   2.487
 7772SOL    HW224216   5.530   0.612   2.580
 7773SOL     OW24217   2.972   5.648   4.611
 7773SOL    HW124218   3.038   5.689   4.550
 7773SOL    HW224219   2.903   5.716   4.638
 7774SOL     OW24220   5.510   1.779   5.954
 7774SOL    HW124221   5.507   1.843   6.030
 7774SOL    HW224222   5.458   1.816   5.877
 7775SOL     OW24223   3.997   6.499   2.282
 7775SOL    HW124224   3.964   6.413   2.322
 7775SOL    HW224225   4.097   6.498   2.278
 7776SOL     OW24226   1.948   4.703   0.199
 7776SOL    HW124227   1.994   4.783   0.161
 7776SOL    HW224228   2.007   4.623   0.187
 7777SOL     OW24229   1.178   0.708   4.713
 7777SOL    HW124230   1.102   0.706   4.779
 7777SOL    HW224231   1.249   0.645   4.743
 7778SOL     OW24232   5.083   4.569   0.627
 7778SOL    HW124233   5.161   4.583   0.566
 7778SOL    HW224234   5.075   4.647   0.689
 7779SOL     OW24235   2.888   2.534   1.069
 7779SOL    HW124236   2.876   2.524   1.168
 7779SOL    HW224237   2.980   2.507   1.044
 7780SOL     OW24238   0.673   5.331   5.429
 7780SOL    HW124239   0.640   5.280   5.349
 7780SOL    HW224240   0.632   5.292   5.511
 7781SOL     OW24241   1.213   4.872   0.321
 7781SOL    HW124242   1.260   4.850   0.406
 7781SOL    HW224243   1.206   4.971   0.310
 7782SOL     OW24244   0.188   4.705   4.600
 7782SOL    HW124245   0.274   4.743   4.566
 7782SOL    HW224246   0.170   4.740   4.692
 7783SOL     OW24247   0.965   5.983   4.486
 7783SOL    HW124248   1.005   5.932   4.410
 7783SOL    HW224249   1.012   6.071   4.496
 7784SOL     OW24250   3.050   3.137   1.023
 7784SOL    HW124251   3.083   3.116   1.115
 7784SOL    HW224252   2.950   3.134   1.022
 7785SOL     OW24253   1.599   6.265   3.890
 7785SOL    HW124254   1.604   6.271   3.990
 7785SOL    HW224255   1.507   6.290   3.860
 7786SOL     OW24256   3.222   6.445   6.647
 7786SOL    HW124257   3.230   6.380   6.572
 7786SOL    HW224258   3.286   6.420   6.720
 7787SOL     OW24259   2.476   2.799   6.159
 7787SOL    HW124260   2.522   2.845   6.235
 7787SOL    HW224261   2.541   2.740   6.112
 7788SOL     OW24262   1.991   5.271   1.559
 7788SOL    HW124263   2.070   5.319   1.522
 7788SOL    HW224264   1.917   5.337   1.574
 7789SOL     OW24265   2.361   6.726   6.580
 7789SOL    HW124266   2.304   6.803   6.609
 7789SOL    HW224267   2.304   6.657   6.536
 7790SOL     OW24268   5.184   5.120   3.114
 7790SOL    HW124269   5.171   5.151   3.020
 7790SOL    HW224270   5.277   5.084   3.124
 7791SOL     OW24271   2.521   5.980   3.493
 7791SOL    HW124272   2.575   6.054   3.453
 7791SOL    HW224273   2.508   5.996   3.590
 7792SOL     OW24274   1.646   4.961   5.318
 7792SOL    HW124275   1.678   5.045   5.275
 7792SOL    HW224276   1.587   4.912   5.255
 7793SOL     OW24277   3.285   0.883   0.098
 7793SOL    HW124278   3.291   0.892   0.198
 7793SOL    HW224279   3.268   0.787   0.075
 7794SOL     OW24280   5.873   4.848   3.219
 7794SOL    HW124281   5.949   4.856   3.155
 7794SOL    HW224282   5.896   4.780   3.289
 7795SOL     OW24283   2.372   3.798   5.346
 7795SOL    HW124284   2.390   3.885   5.301
 7795SOL    HW224285   2.410   3.800   5.439
 7796SOL     OW24286   3.592   4.157   3.452
 7796SOL    HW124287   3.679   4.123   3.489
 7796SOL    HW224288   3.604   4.181   3.356
 7797SOL     OW24289   1.336   0.156   2.715
 7797SOL    HW124290   1.346   0.156   2.814
 7797SOL    HW224291   1.408   0.099   2.674
 7798SOL     OW24292   2.061   4.448   5.886
 7798SOL    HW124293   2.094   4.542   5.878
 7798SOL    HW224294   2.126   4.387   5.841
 7799SOL     OW24295   1.304   6.092   2.394
 7799SOL    HW124296   1.269   6.069   2.303
 7799SOL    HW224297   1.227   6.101   2.457
 7800SOL     OW24298   1.168   5.542   0.776
 7800SOL    HW124299   1.115   5.590   0.846
 7800SOL    HW224300   1.255   5.512   0.816
 7801SOL     OW24301   2.380   1.799   1.858
 7801SOL    HW124302   2.354   1.807   1.955
 7801SOL    HW224303   2.308   1.750   1.809
 7802SOL     OW24304   5.814   2.299   0.850
 7802SOL    HW124305   5.715   2.311   0.852
 7802SOL    HW224306   5.854   2.344   0.930
 7803SOL     OW24307   4.444   1.724   6.369
 7803SOL    HW124308   4.442   1.762   6.276
 7803SOL    HW224309   4.480   1.793   6.432
 7804SOL     OW24310   4.782   2.334   4.414
 7804SOL    HW124311   4.843   2.276   4.470
 7804SOL    HW224312   4.837   2.402   4.365
 7805SOL     OW24313   5.152   1.950   1.047
 7805SOL    HW124314   5.102   1.941   0.961
 7805SOL    HW224315   5.197   2.039   1.050
 7806SOL     OW24316   5.833   2.140   6.466
 7806SOL    HW124317   5.801   2.230   6.498
 7806SOL    HW224318   5.764   2.071   6.487
 7807SOL     OW24319   1.012   4.668   5.073
 7807SOL    HW124320   1.028   4.616   4.989
 7807SOL    HW224321   0.946   4.620   5.130
 7808SOL     OW24322   6.569   2.958   3.873
 7808SOL    HW124323   6.587   2.860   3.864
 7808SOL    HW224324   6.481   2.971   3.919
 7809SOL     OW24325   1.997   5.576   3.914
 7809SOL    HW124326   1.909   5.556   3.870
 7809SOL    HW224327   1.985   5.579   4.013
 7810SOL     OW24328   3.538   0.794   4.560
 7810SOL    HW124329   3.519   0.890   4.576
 7810SOL    HW224330   3.634   0.782   4.535
 7811SOL     OW24331   1.128   5.678   2.788
 7811SOL    HW124332   1.195   5.749   2.768
 7811SOL    HW224333   1.098   5.686   2.883
 7812SOL     OW24334   1.280   1.918   4.060
 7812SOL    HW124335   1.292   1.997   4.000
 7812SOL    HW224336   1.369   1.880   4.084
 7813SOL     OW24337   4.474   2.602   6.966
 7813SOL    HW124338   4.491   2.509   6.932
 7813SOL    HW224339   4.376   2.621   6.964
 7814SOL     OW24340   0.091   2.980   3.070
 7814SOL    HW124341   0.046   2.916   3.008
 7814SOL    HW224342   0.107   2.936   3.159
 7815SOL     OW24343   5.026   0.905   5.395
 7815SOL    HW124344   4.979   0.847   5.461
 7815SOL    HW224345   5.091   0.964   5.444
 7816SOL     OW24346   1.443   2.312   6.311
 7816SOL    HW124347   1.386   2.395   6.315
 7816SOL    HW224348   1.444   2.277   6.217
 7817SOL     OW24349   5.610   4.807   3.113
 7817SOL    HW124350   5.555   4.729   3.145
 7817SOL    HW224351   5.691   4.816   3.171
 7818SOL     OW24352   4.510   0.777   2.541
 7818SOL    HW124353   4.461   0.775   2.454
 7818SOL    HW224354   4.563   0.694   2.552
 7819SOL     OW24355   6.680   3.624   2.000
 7819SOL    HW124356   6.743   3.607   2.077
 7819SOL    HW224357   6.695   3.556   1.929
 7820SOL     OW24358   1.869   2.596   5.439
 7820SOL    HW124359   1.787   2.566   5.390
 7820SOL    HW224360   1.896   2.686   5.405
 7821SOL     OW24361   5.604   5.982   0.646
 7821SOL    HW124362   5.664   6.061   0.654
 7821SOL    HW224363   5.524   6.007   0.590
 7822SOL     OW24364   1.059   1.800   6.067
 7822SOL    HW124365   1.124   1.809   5.992
 7822SOL    HW224366   1.105   1.823   6.153
 7823SOL     OW24367   2.688   3.916   5.290
 7823SOL    HW124368   2.680   3.928   5.389
 7823SOL    HW224369   2.606   3.952   5.245
 7824SOL     OW24370   6.071   0.744   3.879
 7824SOL    HW124371   6.038   0.809   3.947
 7824SOL    HW224372   6.046   0.775   3.787
 7825SOL     OW24373   1.552   2.524   1.215
 7825SOL    HW124374   1.474   2.524   1.153
 7825SOL    HW224375   1.528   2.574   1.298
 7826SOL     OW24376   6.190   1.848   1.426
 7826SOL    HW124377   6.250   1.874   1.350
 7826SOL    HW224378   6.189   1.922   1.493
 7827SOL     OW24379   2.045   5.448   0.854
 7827SOL    HW124380   2.123   5.491   0.808
 7827SOL    HW224381   2.014   5.369   0.801
 7828SOL     OW24382   0.604   4.139   6.414
 7828SOL    HW124383   0.524   4.171   6.363
 7828SOL    HW224384   0.673   4.105   6.350
 7829SOL     OW24385   2.785   4.450   1.308
 7829SOL    HW124386   2.757   4.362   1.347
 7829SOL    HW224387   2.704   4.507   1.293
 7830SOL     OW24388   2.550   4.745   5.046
 7830SOL    HW124389   2.521   4.658   5.087
 7830SOL    HW224390   2.649   4.755   5.056
 7831SOL     OW24391   2.163   6.884   1.299
 7831SOL    HW124392   2.241   6.824   1.285
 7831SOL    HW224393   2.110   6.892   1.215
 7832SOL     OW24394   5.833   1.029   3.468
 7832SOL    HW124395   5.766   1.095   3.502
 7832SOL    HW224396   5.788   0.940   3.456
 7833SOL     OW24397   0.823   1.168   6.153
 7833SOL    HW124398   0.848   1.121   6.238
 7833SOL    HW224399   0.786   1.258   6.175
 7834SOL     OW24400   6.941   1.350   3.471
 7834SOL    HW124401   6.914   1.442   3.445
 7834SOL    HW224402   6.860   1.295   3.491
 7835SOL     OW24403   3.430   2.051   5.499
 7835SOL    HW124404   3.361   2.123   5.492
 7835SOL    HW224405   3.508   2.074   5.441
 7836SOL     OW24406   3.265   2.838   5.225
 7836SOL    HW124407   3.186   2.870   5.277
 7836SOL    HW224408   3.277   2.739   5.240
 7837SOL     OW24409   5.551   5.412   6.839
 7837SOL    HW124410   5.532   5.490   6.899
 7837SOL    HW224411   5.520   5.328   6.882
 7838SOL     OW24412   4.159   0.208   0.552
 7838SOL    HW124413   4.137   0.285   0.492
 7838SOL    HW224414   4.175   0.126   0.497
 7839SOL     OW24415   5.918   4.011   5.116
 7839SOL    HW124416   5.926   4.104   5.080
 7839SOL    HW224417   5.832   4.003   5.167
 7840SOL     OW24418   6.245   2.637   3.757
 7840SOL    HW124419   6.147   2.618   3.751
 7840SOL    HW224420   6.264   2.726   3.716
 7841SOL     OW24421   3.491   2.058   6.224
 7841SOL    HW124422   3.495   1.989   6.152
 7841SOL    HW224423   3.566   2.042   6.289
 7842SOL     OW24424   2.445   1.928   2.739
 7842SOL    HW124425   2.458   1.866   2.817
 7842SOL    HW224426   2.390   2.007   2.769
 7843SOL     OW24427   6.984   6.101   3.509
 7843SOL    HW124428   6.902   6.046   3.527
 7843SOL    HW224429   6.973   6.150   3.423
 7844SOL     OW24430   3.776   0.136   3.013
 7844SOL    HW124431   3.741   0.228   2.994
 7844SOL    HW224432   3.700   0.071   3.013
 7845SOL     OW24433   5.761   2.178   2.791
 7845SOL    HW124434   5.736   2.143   2.881
 7845SOL    HW224435   5.853   2.145   2.767
 7846SOL     OW24436   0.737   1.405   2.415
 7846SOL    HW124437   0.816   1.382   2.358
 7846SOL    HW224438   0.675   1.464   2.362
 7847SOL     OW24439   6.836   1.489   3.023
 7847SOL    HW124440   6.741   1.471   2.999
 7847SOL    HW224441   6.871   1.564   2.967
 7848SOL     OW24442   3.415   4.040   0.497
 7848SOL    HW124443   3.397   3.993   0.410
 7848SOL    HW224444   3.338   4.099   0.520
 7849SOL     OW24445   6.642   4.032   4.340
 7849SOL    HW124446   6.714   4.037   4.409
 7849SOL    HW224447   6.644   4.114   4.284
 7850SOL     OW24448   0.433   1.533   4.355
 7850SOL    HW124449   0.522   1.525   4.400
 7850SOL    HW224450   0.446   1.546   4.257
 7851SOL     OW24451   6.428   1.234   1.782
 7851SOL    HW124452   6.455   1.303   1.714
 7851SOL    HW224453   6.346   1.265   1.829
 7852SOL     OW24454   2.845   1.344   6.259
 7852SOL    HW124455   2.922   1.408   6.247
 7852SOL    HW224456   2.824   1.302   6.171
 7853SOL     OW24457   5.101   2.321   2.039
 7853SOL    HW124458   5.061   2.373   2.114
 7853SOL    HW224459   5.182   2.272   2.072
 7854SOL     OW24460   3.474   3.308   6.530
 7854SOL    HW124461   3.419   3.230   6.500
 7854SOL    HW224462   3.489   3.302   6.628
 7855SOL     OW24463   4.841   6.526   4.602
 7855SOL    HW124464   4.928   6.529   4.653
 7855SOL    HW224465   4.844   6.594   4.529
 7856SOL     OW24466   6.646   5.481   5.135
 7856SOL    HW124467   6.579   5.508   5.204
 7856SOL    HW224468   6.614   5.398   5.088
 7857SOL     OW24469   5.203   2.370   6.627
 7857SOL    HW124470   5.298   2.394   6.645
 7857SOL    HW224471   5.142   2.428   6.681
 7858SOL     OW24472   6.382   6.687   4.011
 7858SOL    HW124473   6.362   6.591   3.993
 7858SOL    HW224474   6.405   6.699   4.107
 7859SOL     OW24475   4.105   2.846   6.286
 7859SOL    HW124476   4.038   2.829   6.358
 7859SOL    HW224477   4.065   2.908   6.219
 7860SOL     OW24478   3.661   1.064   3.107
 7860SOL    HW124479   3.636   1.000   3.035
 7860SOL    HW224480   3.642   1.157   3.077
 7861SOL     OW24481   3.725   4.751   1.650
 7861SOL    HW124482   3.677   4.730   1.735
 7861SOL    HW224483   3.671   4.719   1.573
 7862SOL     OW24484   1.792   4.606   1.985
 7862SOL    HW124485   1.732   4.526   1.978
 7862SOL    HW224486   1.855   4.593   2.061
 7863SOL     OW24487   0.143   4.437   4.650
 7863SOL    HW124488   0.215   4.385   4.606
 7863SOL    HW224489   0.152   4.534   4.628
 7864SOL     OW24490   0.677   5.650   5.246
 7864SOL    HW124491   0.649   5.627   5.339
 7864SOL    HW224492   0.702   5.747   5.241
 7865SOL     OW24493   6.550   6.137   3.652
 7865SOL    HW124494   6.593   6.176   3.571
 7865SOL    HW224495   6.500   6.054   3.628
 7866SOL     OW24496   1.454   1.443   6.002
 7866SOL    HW124497   1.466   1.346   5.985
 7866SOL    HW224498   1.467   1.494   5.917
 7867SOL     OW24499   6.073   6.024   3.455
 7867SOL    HW124500   6.131   5.946   3.436
 7867SOL    HW224501   5.977   5.999   3.440
 7868SOL     OW24502   4.540   6.178   1.289
 7868SOL    HW124503   4.638   6.170   1.275
 7868SOL    HW224504   4.513   6.274   1.281
 7869SOL     OW24505   5.573   3.703   0.167
 7869SOL    HW124506   5.520   3.620   0.147
 7869SOL    HW224507   5.570   3.722   0.265
 7870SOL     OW24508   4.399   5.038   4.080
 7870SOL    HW124509   4.458   5.112   4.114
 7870SOL    HW224510   4.312   5.039   4.131
 7871SOL     OW24511   4.618   1.781   2.189
 7871SOL    HW124512   4.687   1.711   2.209
 7871SOL    HW224513   4.566   1.801   2.272
 7872SOL     OW24514   1.701   3.786   3.106
 7872SOL    HW124515   1.738   3.693   3.106
 7872SOL    HW224516   1.724   3.830   3.020
 7873SOL     OW24517   5.882   6.622   6.178
 7873SOL    HW124518   5.933   6.687   6.233
 7873SOL    HW224519   5.945   6.560   6.132
 7874SOL     OW24520   5.380   2.076   0.135
 7874SOL    HW124521   5.441   2.000   0.160
 7874SOL    HW224522   5.343   2.061   0.044
 7875SOL     OW24523   4.219   2.928   6.572
 7875SOL    HW124524   4.206   2.959   6.666
 7875SOL    HW224525   4.256   3.002   6.517
 7876SOL     OW24526   1.540   6.912   3.855
 7876SOL    HW124527   1.505   6.839   3.798
 7876SOL    HW224528   1.632   6.889   3.887
 7877SOL     OW24529   1.261   1.738   2.874
 7877SOL    HW124530   1.189   1.670   2.887
 7877SOL    HW224531   1.347   1.693   2.850
 7878SOL     OW24532   4.867   4.441   4.956
 7878SOL    HW124533   4.780   4.490   4.951
 7878SOL    HW224534   4.854   4.356   5.007
 7879SOL     OW24535   4.107   5.666   3.516
 7879SOL    HW124536   4.187   5.612   3.491
 7879SOL    HW224537   4.069   5.708   3.434
 7880SOL     OW24538   1.863   4.879   0.983
 7880SOL    HW124539   1.887   4.922   0.896
 7880SOL    HW224540   1.854   4.780   0.969
 7881SOL     OW24541   6.605   5.003   4.872
 7881SOL    HW124542   6.639   4.911   4.851
 7881SOL    HW224543   6.505   5.002   4.874
 7882SOL     OW24544   1.213   3.122   1.988
 7882SOL    HW124545   1.158   3.054   1.939
 7882SOL    HW224546   1.308   3.093   1.990
 7883SOL     OW24547   1.012   0.419   0.525
 7883SOL    HW124548   1.053   0.345   0.471
 7883SOL    HW224549   0.937   0.460   0.473
 7884SOL     OW24550   2.157   3.354   4.824
 7884SOL    HW124551   2.218   3.308   4.888
 7884SOL    HW224552   2.145   3.450   4.852
 7885SOL     OW24553   6.302   5.413   1.212
 7885SOL    HW124554   6.327   5.377   1.122
 7885SOL    HW224555   6.209   5.451   1.208
 7886SOL     OW24556   3.803   5.092   0.173
 7886SOL    HW124557   3.749   5.099   0.089
 7886SOL    HW224558   3.769   5.017   0.229
 7887SOL     OW24559   3.210   2.166   5.719
 7887SOL    HW124560   3.112   2.182   5.736
 7887SOL    HW224561   3.250   2.247   5.677
 7888SOL     OW24562   6.527   0.115   5.487
 7888SOL    HW124563   6.623   0.135   5.509
 7888SOL    HW224564   6.522   0.028   5.438
 7889SOL     OW24565   1.601   4.716   1.115
 7889SOL    HW124566   1.536   4.725   1.190
 7889SOL    HW224567   1.627   4.620   1.105
 7890SOL     OW24568   1.872   2.633   2.598
 7890SOL    HW124569   1.929   2.709   2.631
 7890SOL    HW224570   1.783   2.636   2.643
 7891SOL     OW24571   1.843   3.413   4.006
 7891SOL    HW124572   1.940   3.439   3.999
 7891SOL    HW224573   1.819   3.398   4.102
 7892SOL     OW24574   2.024   0.879   3.837
 7892SOL    HW124575   1.999   0.789   3.799
 7892SOL    HW224576   2.123   0.886   3.842
 7893SOL     OW24577   6.913   6.221   2.465
 7893SOL    HW124578   6.821   6.251   2.442
 7893SOL    HW224579   6.935   6.139   2.412
 7894SOL     OW24580   3.464   6.974   1.029
 7894SOL    HW124581   3.550   6.999   0.983
 7894SOL    HW224582   3.465   7.010   1.122
 7895SOL     OW24583   6.262   0.459   5.596
 7895SOL    HW124584   6.330   0.425   5.531
 7895SOL    HW224585   6.306   0.521   5.661
 7896SOL     OW24586   4.704   4.203   0.308
 7896SOL    HW124587   4.738   4.258   0.232
 7896SOL    HW224588   4.739   4.110   0.301
 7897SOL     OW24589   2.447   4.200   0.337
 7897SOL    HW124590   2.545   4.211   0.319
 7897SOL    HW224591   2.408   4.136   0.271
 7898SOL     OW24592   4.625   1.952   3.509
 7898SOL    HW124593   4.713   1.907   3.524
 7898SOL    HW224594   4.627   2.001   3.422
 7899SOL     OW24595   5.698   1.048   1.251
 7899SOL    HW124596   5.716   0.950   1.250
 7899SOL    HW224597   5.749   1.090   1.326
 7900SOL     OW24598   1.096   5.083   1.679
 7900SOL    HW124599   1.015   5.024   1.684
 7900SOL    HW224600   1.151   5.056   1.600
 7901SOL     OW24601   4.745   1.522   6.733
 7901SOL    HW124602   4.791   1.437   6.759
 7901SOL    HW224603   4.711   1.514   6.639
 7902SOL     OW24604   5.100   6.379   1.673
 7902SOL    HW124605   5.148   6.425   1.747
 7902SOL    HW224606   5.039   6.309   1.711
 7903SOL     OW24607   5.829   1.227   0.937
 7903SOL    HW124608   5.840   1.324   0.914
 7903SOL    HW224609   5.758   1.217   1.007
 7904SOL     OW24610   5.671   6.508   3.714
 7904SOL    HW124611   5.755   6.555   3.739
 7904SOL    HW224612   5.616   6.491   3.796
 7905SOL     OW24613   4.516   2.461   0.228
 7905SOL    HW124614   4.522   2.535   0.295
 7905SOL    HW224615   4.449   2.485   0.157
 7906SOL     OW24616   0.169   5.844   0.501
 7906SOL    HW124617   0.215   5.797   0.425
 7906SOL    HW224618   0.118   5.922   0.466
 7907SOL     OW24619   5.219   2.722   3.176
 7907SOL    HW124620   5.158   2.696   3.101
 7907SOL    HW224621   5.192   2.673   3.259
 7908SOL     OW24622   0.645   1.993   5.420
 7908SOL    HW124623   0.565   1.969   5.364
 7908SOL    HW224624   0.646   2.091   5.438
 7909SOL     OW24625   5.517   3.532   4.933
 7909SOL    HW124626   5.593   3.486   4.888
 7909SOL    HW224627   5.431   3.503   4.893
 7910SOL     OW24628   2.846   3.800   5.836
 7910SOL    HW124629   2.892   3.735   5.776
 7910SOL    HW224630   2.910   3.873   5.861
 7911SOL     OW24631   1.700   2.999   6.932
 7911SOL    HW124632   1.751   3.053   6.999
 7911SOL    HW224633   1.610   3.040   6.916
 7912SOL     OW24634   6.879   5.051   0.214
 7912SOL    HW124635   6.851   5.137   0.171
 7912SOL    HW224636   6.832   5.041   0.301
 7913SOL     OW24637   1.635   4.824   1.393
 7913SOL    HW124638   1.580   4.905   1.369
 7913SOL    HW224639   1.708   4.851   1.456
 7914SOL     OW24640   0.079   4.229   6.860
 7914SOL    HW124641   7.020   4.258   6.911
 7914SOL    HW224642   0.056   4.221   6.764
 7915SOL     OW24643   4.906   3.056   2.236
 7915SOL    HW124644   4.948   2.967   2.249
 7915SOL    HW224645   4.864   3.060   2.145
 7916SOL     OW24646   0.575   4.027   5.281
 7916SOL    HW124647   0.536   4.078   5.357
 7916SOL    HW224648   0.640   4.086   5.231
 7917SOL     OW24649   3.737   4.138   4.186
 7917SOL    HW124650   3.767   4.230   4.163
 7917SOL    HW224651   3.653   4.116   4.137
 7918SOL     OW24652   0.214   1.578   6.891
 7918SOL    HW124653   0.179   1.636   6.965
 7918SOL    HW224654   0.230   1.635   6.810
 7919SOL     OW24655   2.103   4.070   2.067
 7919SOL    HW124656   2.083   4.012   1.989
 7919SOL    HW224657   2.116   4.013   2.148
 7920SOL     OW24658   0.329   5.417   1.031
 7920SOL    HW124659   0.407   5.387   1.085
 7920SOL    HW224660   0.338   5.515   1.010
 7921SOL     OW24661   4.668   6.453   0.874
 7921SOL    HW124662   4.684   6.503   0.960
 7921SOL    HW224663   4.664   6.355   0.893
 7922SOL     OW24664   6.690   6.706   6.747
 7922SOL    HW124665   6.680   6.698   6.847
 7922SOL    HW224666   6.719   6.618   6.710
 7923SOL     OW24667   3.240   0.718   2.114
 7923SOL    HW124668   3.207   0.657   2.185
 7923SOL    HW224669   3.274   0.802   2.156
 7924SOL     OW24670   4.156   6.734   1.786
 7924SOL    HW124671   4.225   6.793   1.827
 7924SOL    HW224672   4.076   6.789   1.762
 7925SOL     OW24673   0.781   1.829   6.349
 7925SOL    HW124674   0.834   1.745   6.364
 7925SOL    HW224675   0.775   1.847   6.251
 7926SOL     OW24676   5.267   1.539   5.208
 7926SOL    HW124677   5.342   1.594   5.172
 7926SOL    HW224678   5.180   1.582   5.183
 7927SOL     OW24679   3.935   5.284   3.862
 7927SOL    HW124680   3.921   5.374   3.821
 7927SOL    HW224681   4.004   5.234   3.809
 7928SOL     OW24682   0.919   2.206   4.555
 7928SOL    HW124683   1.001   2.250   4.591
 7928SOL    HW224684   0.866   2.272   4.502
 7929SOL     OW24685   4.094   4.116   5.690
 7929SOL    HW124686   4.020   4.072   5.740
 7929SOL    HW224687   4.181   4.100   5.737
 7930SOL     OW24688   4.457   5.540   4.059
 7930SOL    HW124689   4.359   5.555   4.053
 7930SOL    HW224690   4.483   5.463   3.999
 7931SOL     OW24691   1.149   2.122   6.237
 7931SOL    HW124692   1.235   2.129   6.188
 7931SOL    HW224693   1.105   2.034   6.216
 7932SOL     OW24694   2.150   6.153   6.307
 7932SOL    HW124695   2.228   6.209   6.279
 7932SOL    HW224696   2.176   6.056   6.305
 7933SOL     OW24697   0.505   5.767   0.041
 7933SOL    HW124698   0.603   5.756   0.058
 7933SOL    HW224699   0.482   5.727   6.974
 7934SOL     OW24700   2.348   4.760   0.209
 7934SOL    HW124701   2.432   4.795   0.169
 7934SOL    HW224702   2.354   4.763   0.309
 7935SOL     OW24703   5.507   6.308   0.382
 7935SOL    HW124704   5.484   6.233   0.321
 7935SOL    HW224705   5.424   6.343   0.424
 7936SOL     OW24706   3.865   5.994   2.203
 7936SOL    HW124707   3.934   6.041   2.149
 7936SOL    HW224708   3.869   5.896   2.186
 7937SOL     OW24709   6.455   0.090   3.897
 7937SOL    HW124710   6.472   7.014   3.892
 7937SOL    HW224711   6.395   0.109   3.974
 7938SOL     OW24712   6.103   5.235   5.161
 7938SOL    HW124713   6.172   5.249   5.231
 7938SOL    HW224714   6.146   5.233   5.071
 7939SOL     OW24715   1.361   2.909   5.407
 7939SOL    HW124716   1.263   2.889   5.412
 7939SOL    HW224717   1.397   2.921   5.499
 7940SOL     OW24718   1.851   4.116   1.974
 7940SOL    HW124719   1.908   4.073   2.044
 7940SOL    HW224720   1.791   4.047   1.933
 7941SOL     OW24721   6.300   0.029   0.660
 7941SOL    HW124722   6.221   0.014   0.601
 7941SOL    HW224723   6.306   0.126   0.684
 7942SOL     OW24724   6.756   5.439   2.573
 7942SOL    HW124725   6.671   5.483   2.604
 7942SOL    HW224726   6.748   5.340   2.584
 7943SOL     OW24727   5.470   3.278   0.199
 7943SOL    HW124728   5.547   3.339   0.215
 7943SOL    HW224729   5.438   3.242   0.287
 7944SOL     OW24730   0.506   3.115   1.529
 7944SOL    HW124731   0.601   3.116   1.497
 7944SOL    HW224732   0.484   3.204   1.569
 7945SOL     OW24733   5.797   5.839   1.629
 7945SOL    HW124734   5.759   5.864   1.540
 7945SOL    HW224735   5.894   5.862   1.631
 7946SOL     OW24736   2.220   1.758   5.494
 7946SOL    HW124737   2.272   1.764   5.409
 7946SOL    HW224738   2.192   1.850   5.523
 7947SOL     OW24739   3.719   2.016   6.382
 7947SOL    HW124740   3.788   1.944   6.386
 7947SOL    HW224741   3.751   2.096   6.432
 7948SOL     OW24742   0.931   6.414   0.792
 7948SOL    HW124743   0.997   6.383   0.723
 7948SOL    HW224744   0.980   6.463   0.865
 7949SOL     OW24745   4.942   4.309   4.419
 7949SOL    HW124746   4.937   4.404   4.386
 7949SOL    HW224747   4.881   4.252   4.365
 7950SOL     OW24748   6.067   4.928   4.923
 7950SOL    HW124749   6.010   4.995   4.875
 7950SOL    HW224750   6.009   4.868   4.978
 7951SOL     OW24751   1.843   4.388   1.357
 7951SOL    HW124752   1.828   4.422   1.450
 7951SOL    HW224753   1.849   4.289   1.358
 7952SOL     OW24754   0.728   3.324   6.541
 7952SOL    HW124755   0.648   3.367   6.583
 7952SOL    HW224756   0.710   3.307   6.444
 7953SOL     OW24757   1.993   2.704   3.487
 7953SOL    HW124758   1.954   2.693   3.396
 7953SOL    HW224759   1.919   2.706   3.555
 7954SOL     OW24760   4.669   4.052   5.282
 7954SOL    HW124761   4.572   4.066   5.302
 7954SOL    HW224762   4.693   4.099   5.197
 7955SOL     OW24763   1.491   6.359   6.426
 7955SOL    HW124764   1.403   6.322   6.457
 7955SOL    HW224765   1.563   6.330   6.489
 7956SOL     OW24766   3.443   5.757   2.442
 7956SOL    HW124767   3.471   5.729   2.534
 7956SOL    HW224768   3.365   5.702   2.413
 7957SOL     OW24769   1.036   1.232   1.592
 7957SOL    HW124770   1.047   1.224   1.492
 7957SOL    HW224771   1.095   1.306   1.625
 7958SOL     OW24772   3.441   4.998   4.411
 7958SOL    HW124773   3.435   5.022   4.508
 7958SOL    HW224774   3.364   5.037   4.362
 7959SOL     OW24775   3.998   5.723   0.814
 7959SOL    HW124776   3.971   5.631   0.840
 7959SOL    HW224777   3.963   5.789   0.881
 7960SOL     OW24778   3.913   1.680   0.591
 7960SOL    HW124779   3.923   1.682   0.691
 7960SOL    HW224780   3.858   1.601   0.565
 7961SOL     OW24781   0.460   6.894   1.077
 7961SOL    HW124782   0.401   6.822   1.041
 7961SOL    HW224783   0.517   6.931   1.003
 7962SOL     OW24784   1.968   6.771   0.202
 7962SOL    HW124785   1.885   6.772   0.146
 7962SOL    HW224786   1.948   6.810   0.292
 7963SOL     OW24787   6.848   0.934   3.697
 7963SOL    HW124788   6.869   0.930   3.794
 7963SOL    HW224789   6.856   0.843   3.657
 7964SOL     OW24790   0.428   4.924   3.599
 7964SOL    HW124791   0.466   4.958   3.513
 7964SOL    HW224792   0.343   4.875   3.580
 7965SOL     OW24793   3.496   3.105   0.106
 7965SOL    HW124794   3.587   3.083   0.141
 7965SOL    HW224795   3.452   3.022   0.072
 7966SOL     OW24796   0.868   3.344   5.370
 7966SOL    HW124797   0.819   3.273   5.319
 7966SOL    HW224798   0.810   3.425   5.378
 7967SOL     OW24799   2.576   6.116   4.024
 7967SOL    HW124800   2.500   6.140   4.085
 7967SOL    HW224801   2.647   6.068   4.077
 7968SOL     OW24802   2.385   2.373   2.985
 7968SOL    HW124803   2.449   2.424   2.926
 7968SOL    HW224804   2.436   2.303   3.035
 7969SOL     OW24805   4.434   6.953   1.500
 7969SOL    HW124806   4.497   6.891   1.547
 7969SOL    HW224807   4.358   6.976   1.560
 7970SOL     OW24808   0.738   3.047   3.047
 7970SOL    HW124809   0.763   2.983   2.974
 7970SOL    HW224810   0.794   3.030   3.128
 7971SOL     OW24811   4.457   1.579   0.703
 7971SOL    HW124812   4.414   1.490   0.688
 7971SOL    HW224813   4.410   1.628   0.775
 7972SOL     OW24814   1.460   3.708   1.651
 7972SOL    HW124815   1.390   3.763   1.605
 7972SOL    HW224816   1.543   3.763   1.662
 7973SOL     OW24817   5.163   4.125   3.871
 7973SOL    HW124818   5.212   4.055   3.818
 7973SOL    HW224819   5.206   4.136   3.960
 7974SOL     OW24820   5.912   0.957   5.222
 7974SOL    HW124821   5.831   0.905   5.193
 7974SOL    HW224822   5.883   1.046   5.258
 7975SOL     OW24823   5.828   0.689   2.968
 7975SOL    HW124824   5.918   0.649   2.986
 7975SOL    HW224825   5.797   0.739   3.048
 7976SOL     OW24826   0.816   0.686   6.526
 7976SOL    HW124827   0.734   0.632   6.508
 7976SOL    HW224828   0.870   0.642   6.597
 7977SOL     OW24829   5.021   5.443   1.598
 7977SOL    HW124830   4.999   5.463   1.693
 7977SOL    HW224831   5.027   5.344   1.585
 7978SOL     OW24832   5.606   3.613   6.176
 7978SOL    HW124833   5.532   3.545   6.172
 7978SOL    HW224834   5.607   3.656   6.266
 7979SOL     OW24835   3.193   0.054   5.230
 7979SOL    HW124836   3.266   7.022   5.270
 7979SOL    HW224837   3.230   0.140   5.196
 7980SOL     OW24838   2.613   5.563   6.798
 7980SOL    HW124839   2.604   5.591   6.702
 7980SOL    HW224840   2.581   5.637   6.857
 7981SOL     OW24841   0.449   5.358   1.920
 7981SOL    HW124842   0.368   5.310   1.885
 7981SOL    HW224843   0.436   5.457   1.908
 7982SOL     OW24844   0.392   1.934   0.503
 7982SOL    HW124845   0.475   1.964   0.551
 7982SOL    HW224846   0.415   1.910   0.409
 7983SOL     OW24847   5.630   1.247   2.407
 7983SOL    HW124848   5.659   1.210   2.319
 7983SOL    HW224849   5.531   1.240   2.416
 7984SOL     OW24850   1.798   1.889   1.747
 7984SOL    HW124851   1.753   1.891   1.836
 7984SOL    HW224852   1.782   1.977   1.701
 7985SOL     OW24853   2.311   6.329   3.933
 7985SOL    HW124854   2.281   6.268   3.860
 7985SOL    HW224855   2.270   6.301   4.020
 7986SOL     OW24856   2.818   0.654   6.852
 7986SOL    HW124857   2.836   0.716   6.776
 7986SOL    HW224858   2.898   0.596   6.868
 7987SOL     OW24859   1.162   3.575   7.021
 7987SOL    HW124860   1.144   3.673   7.009
 7987SOL    HW224861   1.154   3.551   0.095
 7988SOL     OW24862   1.705   2.190   3.770
 7988SOL    HW124863   1.716   2.137   3.686
 7988SOL    HW224864   1.747   2.280   3.758
 7989SOL     OW24865   3.400   2.525   5.676
 7989SOL    HW124866   3.349   2.442   5.697
 7989SOL    HW224867   3.380   2.595   5.744
 7990SOL     OW24868   6.847   3.467   3.360
 7990SOL    HW124869   6.798   3.394   3.407
 7990SOL    HW224870   6.812   3.476   3.266
 7991SOL     OW24871   6.500   0.614   4.039
 7991SOL    HW124872   6.548   0.543   4.090
 7991SOL    HW224873   6.522   0.703   4.078
 7992SOL     OW24874   1.158   6.725   1.045
 7992SOL    HW124875   1.226   6.795   1.022
 7992SOL    HW224876   1.145   6.722   1.144
 7993SOL     OW24877   1.419   5.808   6.411
 7993SOL    HW124878   1.509   5.764   6.407
 7993SOL    HW224879   1.419   5.877   6.483
 7994SOL     OW24880   5.078   0.197   2.717
 7994SOL    HW124881   5.020   0.143   2.778
 7994SOL    HW224882   5.116   0.275   2.767
 7995SOL     OW24883   4.353   5.072   3.440
 7995SOL    HW124884   4.419   5.006   3.405
 7995SOL    HW224885   4.260   5.040   3.420
 7996SOL     OW24886   2.500   0.159   4.518
 7996SOL    HW124887   2.545   0.088   4.463
 7996SOL    HW224888   2.564   0.232   4.539
 7997SOL     OW24889   0.330   1.035   1.342
 7997SOL    HW124890   0.270   1.102   1.387
 7997SOL    HW224891   0.424   1.069   1.343
 7998SOL     OW24892   3.467   5.282   0.935
 7998SOL    HW124893   3.535   5.209   0.942
 7998SOL    HW224894   3.409   5.281   1.016
 7999SOL     OW24895   1.547   6.868   6.266
 7999SOL    HW124896   1.587   6.951   6.305
 7999SOL    HW224897   1.606   6.790   6.286
 8000SOL     OW24898   5.560   6.832   0.219
 8000SOL    HW124899   5.605   6.919   0.238
 8000SOL    HW224900   5.585   6.765   0.289
 8001SOL     OW24901   3.401   5.686   0.870
 8001SOL    HW124902   3.457   5.751   0.818
 8001SOL    HW224903   3.342   5.737   0.933
 8002SOL     OW24904   0.790   2.502   5.945
 8002SOL    HW124905   0.793   2.586   5.892
 8002SOL    HW224906   0.715   2.444   5.912
 8003SOL     OW24907   2.821   4.797   2.600
 8003SOL    HW124908   2.784   4.737   2.530
 8003SOL    HW224909   2.782   4.772   2.689
 8004SOL     OW24910   1.911   3.623   3.671
 8004SOL    HW124911   1.991   3.683   3.663
 8004SOL    HW224912   1.856   3.629   3.588
 8005SOL     OW24913   3.573   0.872   2.778
 8005SOL    HW124914   3.544   0.929   2.702
 8005SOL    HW224915   3.506   0.877   2.852
 8006SOL     OW24916   2.618   6.810   6.890
 8006SOL    HW124917   2.666   6.726   6.866
 8006SOL    HW224918   2.599   6.863   6.807
 8007SOL     OW24919   0.291   0.966   3.978
 8007SOL    HW124920   0.372   0.932   3.932
 8007SOL    HW224921   0.280   1.064   3.958
 8008SOL     OW24922   4.514   6.335   5.966
 8008SOL    HW124923   4.579   6.270   6.005
 8008SOL    HW224924   4.421   6.303   5.983
 8009SOL     OW24925   5.942   0.780   2.723
 8009SOL    HW124926   5.872   0.785   2.794
 8009SOL    HW224927   5.960   0.873   2.688
 8010SOL     OW24928   1.165   1.324   0.626
 8010SOL    HW124929   1.094   1.259   0.655
 8010SOL    HW224930   1.123   1.398   0.573
 8011SOL     OW24931   3.412   2.816   0.981
 8011SOL    HW124932   3.424   2.787   1.076
 8011SOL    HW224933   3.322   2.787   0.948
 8012SOL     OW24934   1.880   5.141   1.885
 8012SOL    HW124935   1.895   5.168   1.980
 8012SOL    HW224936   1.968   5.135   1.837
 8013SOL     OW24937   1.257   4.461   3.658
 8013SOL    HW124938   1.338   4.461   3.599
 8013SOL    HW224939   1.285   4.456   3.753
 8014SOL     OW24940   0.648   6.225   5.167
 8014SOL    HW124941   0.633   6.209   5.070
 8014SOL    HW224942   0.707   6.152   5.203
 8015SOL     OW24943   2.831   1.262   0.320
 8015SOL    HW124944   2.907   1.207   0.285
 8015SOL    HW224945   2.865   1.334   0.380
 8016SOL     OW24946   4.886   6.884   6.518
 8016SOL    HW124947   4.803   6.828   6.514
 8016SOL    HW224948   4.945   6.851   6.592
 8017SOL     OW24949   6.854   6.657   0.248
 8017SOL    HW124950   6.875   6.745   0.292
 8017SOL    HW224951   6.803   6.599   0.312
 8018SOL     OW24952   3.323   2.304   5.952
 8018SOL    HW124953   3.272   2.389   5.937
 8018SOL    HW224954   3.272   2.227   5.914
 8019SOL     OW24955   2.269   3.827   6.734
 8019SOL    HW124956   2.279   3.787   6.643
 8019SOL    HW224957   2.174   3.854   6.748
 8020SOL     OW24958   6.363   6.184   1.110
 8020SOL    HW124959   6.291   6.163   1.044
 8020SOL    HW224960   6.354   6.123   1.189
 8021SOL     OW24961   1.494   1.743   1.781
 8021SOL    HW124962   1.528   1.666   1.728
 8021SOL    HW224963   1.480   1.822   1.721
 8022SOL     OW24964   4.411   6.756   2.617
 8022SOL    HW124965   4.324   6.803   2.605
 8022SOL    HW224966   4.460   6.798   2.694
 8023SOL     OW24967   5.932   5.054   3.403
 8023SOL    HW124968   5.846   5.073   3.451
 8023SOL    HW224969   5.912   5.006   3.318
 8024SOL     OW24970   2.879   4.824   0.154
 8024SOL    HW124971   2.921   4.762   0.220
 8024SOL    HW224972   2.855   4.774   0.071
 8025SOL     OW24973   2.351   6.474   6.202
 8025SOL    HW124974   2.275   6.453   6.140
 8025SOL    HW224975   2.379   6.391   6.250
 8026SOL     OW24976   0.907   4.499   6.465
 8026SOL    HW124977   0.877   4.435   6.537
 8026SOL    HW224978   0.965   4.450   6.400
 8027SOL     OW24979   4.170   1.837   5.281
 8027SOL    HW124980   4.141   1.818   5.375
 8027SOL    HW224981   4.253   1.785   5.261
 8028SOL     OW24982   2.841   5.045   4.859
 8028SOL    HW124983   2.773   5.116   4.875
 8028SOL    HW224984   2.820   4.998   4.773
 8029SOL     OW24985   4.845   2.835   0.927
 8029SOL    HW124986   4.782   2.911   0.943
 8029SOL    HW224987   4.900   2.819   1.009
 8030SOL     OW24988   4.314   4.207   0.115
 8030SOL    HW124989   4.284   4.209   0.019
 8030SOL    HW224990   4.293   4.117   0.154
 8031SOL     OW24991   5.028   6.243   3.017
 8031SOL    HW124992   5.000   6.265   2.924
 8031SOL    HW224993   5.128   6.238   3.023
 8032SOL     OW24994   5.226   4.066   6.046
 8032SOL    HW124995   5.161   4.048   5.972
 8032SOL    HW224996   5.180   4.055   6.134
 8033SOL     OW24997   5.112   3.695   6.605
 8033SOL    HW124998   5.058   3.779   6.602
 8033SOL    HW224999   5.090   3.638   6.525
 8034SOL     OW25000   6.455   0.748   4.816
 8034SOL    HW125001   6.421   0.687   4.887
 8034SOL    HW225002   6.522   0.811   4.856
 8035SOL     OW25003   5.345   1.628   4.509
 8035SOL    HW125004   5.422   1.590   4.561
 8035SOL    HW225005   5.260   1.590   4.543
 8036SOL     OW25006   0.558   4.329   2.780
 8036SOL    HW125007   0.597   4.239   2.762
 8036SOL    HW225008   0.541   4.339   2.879
 8037SOL     OW25009   2.311   3.097   1.781
 8037SOL    HW125010   2.270   3.173   1.731
 8037SOL    HW225011   2.286   3.103   1.877
 8038SOL     OW25012   4.712   0.661   3.329
 8038SOL    HW125013   4.683   0.669   3.234
 8038SOL    HW225014   4.647   0.709   3.388
 8039SOL     OW25015   1.064   1.033   4.328
 8039SOL    HW125016   0.969   1.059   4.345
 8039SOL    HW225017   1.074   1.005   4.232
 8040SOL     OW25018   1.392   6.142   0.520
 8040SOL    HW125019   1.334   6.119   0.442
 8040SOL    HW225020   1.337   6.183   0.593
 8041SOL     OW25021   2.838   1.616   2.054
 8041SOL    HW125022   2.827   1.597   1.957
 8041SOL    HW225023   2.805   1.709   2.074
 8042SOL     OW25024   3.687   2.927   4.127
 8042SOL    HW125025   3.726   2.869   4.055
 8042SOL    HW225026   3.761   2.962   4.185
 8043SOL     OW25027   3.833   0.352   1.874
 8043SOL    HW125028   3.875   0.337   1.964
 8043SOL    HW225029   3.773   0.275   1.852
 8044SOL     OW25030   3.926   3.297   0.609
 8044SOL    HW125031   4.009   3.242   0.620
 8044SOL    HW225032   3.944   3.374   0.547
 8045SOL     OW25033   5.240   0.820   1.218
 8045SOL    HW125034   5.244   0.853   1.124
 8045SOL    HW225035   5.185   0.737   1.222
 8046SOL     OW25036   6.679   5.363   0.339
 8046SOL    HW125037   6.589   5.402   0.355
 8046SOL    HW225038   6.750   5.430   0.363
 8047SOL     OW25039   3.945   5.196   4.663
 8047SOL    HW125040   3.965   5.250   4.745
 8047SOL    HW225041   3.866   5.235   4.617
 8048SOL     OW25042   5.804   0.606   5.911
 8048SOL    HW125043   5.902   0.588   5.916
 8048SOL    HW225044   5.772   0.643   5.999
 8049SOL     OW25045   1.183   0.228   0.835
 8049SOL    HW125046   1.188   0.327   0.827
 8049SOL    HW225047   1.260   0.187   0.787
 8050SOL     OW25048   1.401   3.534   2.353
 8050SOL    HW125049   1.457   3.504   2.276
 8050SOL    HW225050   1.368   3.627   2.337
 8051SOL     OW25051   4.815   5.786   2.928
 8051SOL    HW125052   4.892   5.756   2.984
 8051SOL    HW225053   4.763   5.856   2.979
 8052SOL     OW25054   4.451   1.524   2.403
 8052SOL    HW125055   4.513   1.454   2.366
 8052SOL    HW225056   4.389   1.554   2.331
 8053SOL     OW25057   3.091   4.010   3.617
 8053SOL    HW125058   3.183   4.014   3.578
 8053SOL    HW225059   3.029   3.968   3.551
 8054SOL     OW25060   5.218   0.154   4.745
 8054SOL    HW125061   5.314   0.164   4.771
 8054SOL    HW225062   5.164   0.228   4.784
 8055SOL     OW25063   6.662   0.525   5.753
 8055SOL    HW125064   6.746   0.485   5.790
 8055SOL    HW225065   6.614   0.575   5.826
 8056SOL     OW25066   4.324   1.846   4.209
 8056SOL    HW125067   4.245   1.785   4.203
 8056SOL    HW225068   4.333   1.898   4.124
 8057SOL     OW25069   3.245   1.993   2.946
 8057SOL    HW125070   3.210   2.004   2.853
 8057SOL    HW225071   3.186   1.929   2.996
 8058SOL     OW25072   4.668   0.560   2.581
 8058SOL    HW125073   4.718   0.595   2.502
 8058SOL    HW225074   4.734   0.522   2.647
 8059SOL     OW25075   4.559   2.371   4.761
 8059SOL    HW125076   4.540   2.315   4.680
 8059SOL    HW225077   4.491   2.353   4.832
 8060SOL     OW25078   0.520   2.539   4.488
 8060SOL    HW125079   0.452   2.584   4.430
 8060SOL    HW225080   0.479   2.517   4.576
 8061SOL     OW25081   6.881   0.238   1.891
 8061SOL    HW125082   6.791   0.235   1.934
 8061SOL    HW225083   6.923   0.147   1.893
 8062SOL     OW25084   2.926   5.290   4.366
 8062SOL    HW125085   2.982   5.275   4.285
 8062SOL    HW225086   2.883   5.380   4.361
 8063SOL     OW25087   0.837   2.713   0.546
 8063SOL    HW125088   0.925   2.705   0.594
 8063SOL    HW225089   0.851   2.760   0.459
 8064SOL     OW25090   0.089   5.114   0.766
 8064SOL    HW125091   7.013   5.108   0.783
 8064SOL    HW225092   0.127   5.188   0.822
 8065SOL     OW25093   3.765   6.158   4.434
 8065SOL    HW125094   3.793   6.062   4.443
 8065SOL    HW225095   3.840   6.217   4.464
 8066SOL     OW25096   0.830   2.159   6.240
 8066SOL    HW125097   0.819   2.074   6.188
 8066SOL    HW225098   0.889   2.222   6.189
 8067SOL     OW25099   5.067   3.209   1.466
 8067SOL    HW125100   5.045   3.167   1.378
 8067SOL    HW225101   4.997   3.277   1.488
 8068SOL     OW25102   6.037   4.587   0.177
 8068SOL    HW125103   6.137   4.591   0.189
 8068SOL    HW225104   6.016   4.554   0.085
 8069SOL     OW25105   2.131   5.999   1.348
 8069SOL    HW125106   2.182   6.080   1.375
 8069SOL    HW225107   2.033   6.018   1.351
 8070SOL     OW25108   2.690   2.911   0.145
 8070SOL    HW125109   2.664   2.835   0.205
 8070SOL    HW225110   2.786   2.903   0.120
 8071SOL     OW25111   2.825   6.568   4.848
 8071SOL    HW125112   2.805   6.642   4.785
 8071SOL    HW225113   2.915   6.583   4.890
 8072SOL     OW25114   3.352   0.971   6.687
 8072SOL    HW125115   3.415   0.895   6.705
 8072SOL    HW225116   3.333   0.976   6.589
 8073SOL     OW25117   4.132   5.450   5.897
 8073SOL    HW125118   4.193   5.501   5.837
 8073SOL    HW225119   4.183   5.418   5.977
 8074SOL     OW25120   3.012   2.793   0.419
 8074SOL    HW125121   2.915   2.817   0.429
 8074SOL    HW225122   3.057   2.798   0.508
 8075SOL     OW25123   6.522   1.360   0.743
 8075SOL    HW125124   6.489   1.409   0.824
 8075SOL    HW225125   6.514   1.262   0.758
 8076SOL     OW25126   4.926   2.362   5.505
 8076SOL    HW125127   4.830   2.385   5.525
 8076SOL    HW225128   4.928   2.279   5.449
 8077SOL     OW25129   1.348   5.493   2.254
 8077SOL    HW125130   1.314   5.481   2.161
 8077SOL    HW225131   1.278   5.465   2.319
 8078SOL     OW25132   5.493   1.036   0.911
 8078SOL    HW125133   5.521   1.105   0.978
 8078SOL    HW225134   5.525   1.064   0.820
 8079SOL     OW25135   5.058   1.320   3.686
 8079SOL    HW125136   5.043   1.400   3.627
 8079SOL    HW225137   4.972   1.297   3.732
 8080SOL     OW25138   6.928   3.397   0.290
 8080SOL    HW125139   6.925   3.371   0.194
 8080SOL    HW225140   6.891   3.489   0.302
 8081SOL     OW25141   4.875   7.009   4.321
 8081SOL    HW125142   4.967   6.983   4.351
 8081SOL    HW225143   4.819   0.010   4.401
 8082SOL     OW25144   6.056   0.591   1.929
 8082SOL    HW125145   5.988   0.521   1.908
 8082SOL    HW225146   6.010   0.678   1.950
 8083SOL     OW25147   5.438   3.434   2.765
 8083SOL    HW125148   5.512   3.368   2.780
 8083SOL    HW225149   5.395   3.415   2.677
 8084SOL     OW25150   5.099   6.742   7.019
 8084SOL    HW125151   5.177   6.692   0.034
 8084SOL    HW225152   5.111   6.753   6.921
 8085SOL     OW25153   6.089   0.080   2.937
 8085SOL    HW125154   5.995   0.063   2.965
 8085SOL    HW225155   6.134   7.015   2.918
 8086SOL     OW25156   4.845   0.985   3.901
 8086SOL    HW125157   4.826   1.055   3.832
 8086SOL    HW225158   4.915   1.018   3.964
 8087SOL     OW25159   2.607   1.150   0.874
 8087SOL    HW125160   2.562   1.226   0.920
 8087SOL    HW225161   2.664   1.185   0.799
 8088SOL     OW25162   5.870   2.381   1.094
 8088SOL    HW125163   5.845   2.472   1.127
 8088SOL    HW225164   5.833   2.312   1.156
 8089SOL     OW25165   4.829   2.637   0.283
 8089SOL    HW125166   4.790   2.614   0.373
 8089SOL    HW225167   4.803   2.566   0.217
 8090SOL     OW25168   3.904   2.374   6.757
 8090SOL    HW125169   3.900   2.274   6.764
 8090SOL    HW225170   3.998   2.402   6.737
 8091SOL     OW25171   2.351   4.081   6.503
 8091SOL    HW125172   2.251   4.088   6.498
 8091SOL    HW225173   2.387   4.065   6.411
 8092SOL     OW25174   0.733   2.279   4.889
 8092SOL    HW125175   0.669   2.331   4.947
 8092SOL    HW225176   0.813   2.335   4.870
 8093SOL     OW25177   4.873   5.530   1.806
 8093SOL    HW125178   4.861   5.628   1.822
 8093SOL    HW225179   4.937   5.493   1.873
 8094SOL     OW25180   1.354   4.217   4.506
 8094SOL    HW125181   1.378   4.303   4.460
 8094SOL    HW225182   1.329   4.148   4.437
 8095SOL     OW25183   5.933   3.994   4.266
 8095SOL    HW125184   5.912   3.897   4.281
 8095SOL    HW225185   5.979   4.005   4.178
 8096SOL     OW25186   2.957   5.676   3.865
 8096SOL    HW125187   2.966   5.577   3.877
 8096SOL    HW225188   3.004   5.704   3.782
 8097SOL     OW25189   5.311   6.810   3.253
 8097SOL    HW125190   5.285   6.783   3.160
 8097SOL    HW225191   5.240   6.869   3.291
 8098SOL     OW25192   2.082   6.652   3.832
 8098SOL    HW125193   2.169   6.646   3.881
 8098SOL    HW225194   2.047   6.745   3.836
 8099SOL     OW25195   5.398   6.828   4.041
 8099SOL    HW125196   5.448   6.806   3.957
 8099SOL    HW225197   5.413   6.924   4.065
 8100SOL     OW25198   0.104   0.250   6.961
 8100SOL    HW125199   0.077   0.249   6.865
 8100SOL    HW225200   0.064   0.171   7.008
 8101SOL     OW25201   2.145   0.262   3.615
 8101SOL    HW125202   2.181   0.204   3.541
 8101SOL    HW225203   2.079   0.210   3.669
 8102SOL     OW25204   0.785   4.731   4.535
 8102SOL    HW125205   0.726   4.811   4.529
 8102SOL    HW225206   0.872   4.756   4.578
 8103SOL     OW25207   4.570   0.826   0.565
 8103SOL    HW125208   4.656   0.845   0.518
 8103SOL    HW225209   4.525   0.912   0.589
 8104SOL     OW25210   2.368   6.839   6.072
 8104SOL    HW125211   2.393   6.915   6.013
 8104SOL    HW225212   2.382   6.865   6.168
 8105SOL     OW25213   1.770   2.191   3.338
 8105SOL    HW125214   1.699   2.221   3.274
 8105SOL    HW225215   1.858   2.228   3.309
 8106SOL     OW25216   2.995   5.599   3.330
 8106SOL    HW125217   2.980   5.502   3.314
 8106SOL    HW225218   3.066   5.632   3.268
 8107SOL     OW25219   0.843   5.448   4.867
 8107SOL    HW125220   0.861   5.504   4.786
 8107SOL    HW225221   0.877   5.355   4.851
 8108SOL     OW25222   6.028   3.311   4.760
 8108SOL    HW125223   6.098   3.364   4.713
 8108SOL    HW225224   6.050   3.303   4.857
 8109SOL     OW25225   0.878   3.312   4.080
 8109SOL    HW125226   0.852   3.408   4.078
 8109SOL    HW225227   0.919   3.290   4.169
 8110SOL     OW25228   3.615   6.399   0.548
 8110SOL    HW125229   3.587   6.495   0.550
 8110SOL    HW225230   3.537   6.342   0.575
 8111SOL     OW25231   4.251   1.236   5.090
 8111SOL    HW125232   4.270   1.310   5.026
 8111SOL    HW225233   4.307   1.157   5.068
 8112SOL     OW25234   1.847   1.609   4.502
 8112SOL    HW125235   1.938   1.633   4.468
 8112SOL    HW225236   1.827   1.514   4.476
 8113SOL     OW25237   3.153   3.325   0.585
 8113SOL    HW125238   3.234   3.275   0.553
 8113SOL    HW225239   3.079   3.315   0.518
 8114SOL     OW25240   2.314   3.297   1.371
 8114SOL    HW125241   2.355   3.382   1.338
 8114SOL    HW225242   2.315   3.229   1.298
 8115SOL     OW25243   4.162   0.764   1.699
 8115SOL    HW125244   4.063   0.779   1.702
 8115SOL    HW225245   4.201   0.775   1.790
 8116SOL     OW25246   5.239   6.927   5.111
 8116SOL    HW125247   5.271   7.017   5.142
 8116SOL    HW225248   5.160   6.900   5.165
 8117SOL     OW25249   2.737   0.929   4.080
 8117SOL    HW125250   2.680   0.939   3.999
 8117SOL    HW225251   2.691   0.868   4.145
 8118SOL     OW25252   6.482   2.870   5.681
 8118SOL    HW125253   6.472   2.865   5.780
 8118SOL    HW225254   6.569   2.828   5.654
 8119SOL     OW25255   6.566   5.896   5.095
 8119SOL    HW125256   6.543   5.867   5.002
 8119SOL    HW225257   6.519   5.837   5.161
 8120SOL     OW25258   3.538   4.601   6.815
 8120SOL    HW125259   3.499   4.633   6.729
 8120SOL    HW225260   3.544   4.501   6.813
 8121SOL     OW25261   6.914   5.355   2.027
 8121SOL    HW125262   6.940   5.270   1.981
 8121SOL    HW225263   6.996   5.409   2.047
 8122SOL     OW25264   1.462   5.840   3.013
 8122SOL    HW125265   1.409   5.925   3.004
 8122SOL    HW225266   1.460   5.808   3.107
 8123SOL     OW25267   0.091   0.245   6.686
 8123SOL    HW125268   0.133   0.155   6.695
 8123SOL    HW225269   0.162   0.315   6.685
 8124SOL     OW25270   0.031   6.289   1.070
 8124SOL    HW125271   0.101   6.289   1.141
 8124SOL    HW225272   6.989   6.363   1.087
 8125SOL     OW25273   0.775   6.771   3.219
 8125SOL    HW125274   0.774   6.794   3.316
 8125SOL    HW225275   0.804   6.851   3.166
 8126SOL     OW25276   6.277   4.136   1.994
 8126SOL    HW125277   6.377   4.145   2.003
 8126SOL    HW225278   6.252   4.143   1.897
 8127SOL     OW25279   2.814   6.056   0.597
 8127SOL    HW125280   2.728   6.010   0.576
 8127SOL    HW225281   2.884   5.987   0.617
 8128SOL     OW25282   2.782   3.185   0.932
 8128SOL    HW125283   2.728   3.156   1.011
 8128SOL    HW225284   2.721   3.201   0.854
 8129SOL     OW25285   4.097   0.933   5.398
 8129SOL    HW125286   4.139   1.023   5.407
 8129SOL    HW225287   4.166   0.867   5.369
 8130SOL     OW25288   0.319   4.784   6.531
 8130SOL    HW125289   0.294   4.878   6.556
 8130SOL    HW225290   0.238   4.726   6.534
 8131SOL     OW25291   3.355   0.674   0.857
 8131SOL    HW125292   3.306   0.589   0.839
 8131SOL    HW225293   3.421   0.660   0.931
 8132SOL     OW25294   5.685   6.304   6.918
 8132SOL    HW125295   5.668   6.240   6.993
 8132SOL    HW225296   5.671   6.257   6.831
 8133SOL     OW25297   3.475   4.927   1.782
 8133SOL    HW125298   3.544   4.874   1.831
 8133SOL    HW225299   3.507   5.022   1.772
 8134SOL     OW25300   0.697   1.518   4.440
 8134SOL    HW125301   0.771   1.458   4.409
 8134SOL    HW225302   0.715   1.612   4.411
 8135SOL     OW25303   2.266   5.518   1.158
 8135SOL    HW125304   2.248   5.615   1.141
 8135SOL    HW225305   2.180   5.467   1.153
 8136SOL     OW25306   4.931   4.650   2.702
 8136SOL    HW125307   4.972   4.564   2.671
 8136SOL    HW225308   4.960   4.669   2.796
 8137SOL     OW25309   2.602   1.204   4.474
 8137SOL    HW125310   2.576   1.154   4.556
 8137SOL    HW225311   2.532   1.190   4.403
 8138SOL     OW25312   5.661   1.760   0.723
 8138SOL    HW125313   5.675   1.806   0.811
 8138SOL    HW225314   5.598   1.684   0.735
 8139SOL     OW25315   2.132   2.320   3.677
 8139SOL    HW125316   2.076   2.313   3.760
 8139SOL    HW225317   2.183   2.236   3.664
 8140SOL     OW25318   3.930   6.798   0.495
 8140SOL    HW125319   3.948   6.701   0.513
 8140SOL    HW225320   3.843   6.807   0.447
 8141SOL     OW25321   4.311   0.002   5.702
 8141SOL    HW125322   4.220   0.002   5.744
 8141SOL    HW225323   4.370   6.958   5.749
 8142SOL     OW25324   1.608   5.049   0.456
 8142SOL    HW125325   1.652   4.978   0.511
 8142SOL    HW225326   1.607   5.021   0.360
 8143SOL     OW25327   5.511   5.446   0.457
 8143SOL    HW125328   5.428   5.501   0.466
 8143SOL    HW225329   5.554   5.465   0.369
 8144SOL     OW25330   0.554   5.641   6.001
 8144SOL    HW125331   0.457   5.630   6.025
 8144SOL    HW225332   0.564   5.720   5.939
 8145SOL     OW25333   5.253   5.576   0.617
 8145SOL    HW125334   5.330   5.548   0.675
 8145SOL    HW225335   5.281   5.651   0.557
 8146SOL     OW25336   5.658   0.430   5.263
 8146SOL    HW125337   5.729   0.500   5.276
 8146SOL    HW225338   5.570   0.468   5.291
 8147SOL     OW25339   6.353   0.951   1.191
 8147SOL    HW125340   6.300   0.922   1.271
 8147SOL    HW225341   6.380   0.871   1.138
 8148SOL     OW25342   5.069   5.110   0.210
 8148SOL    HW125343   5.148   5.118   0.150
 8148SOL    HW225344   5.098   5.070   0.297
 8149SOL     OW25345   1.630   6.741   3.236
 8149SOL    HW125346   1.538   6.741   3.274
 8149SOL    HW225347   1.639   6.816   3.170
 8150SOL     OW25348   1.159   4.104   0.915
 8150SOL    HW125349   1.247   4.116   0.869
 8150SOL    HW225350   1.175   4.101   1.014
 8151SOL     OW25351   5.659   5.136   3.508
 8151SOL    HW125352   5.657   5.194   3.589
 8151SOL    HW225353   5.586   5.164   3.445
 8152SOL     OW25354   6.256   3.087   3.221
 8152SOL    HW125355   6.343   3.039   3.207
 8152SOL    HW225356   6.274   3.175   3.265
 8153SOL     OW25357   1.240   1.271   3.616
 8153SOL    HW125358   1.299   1.239   3.541
 8153SOL    HW225359   1.197   1.357   3.590
 8154SOL     OW25360   3.787   6.735   2.920
 8154SOL    HW125361   3.802   6.676   2.999
 8154SOL    HW225362   3.727   6.690   2.855
 8155SOL     OW25363   1.473   4.104   2.299
 8155SOL    HW125364   1.391   4.098   2.356
 8155SOL    HW225365   1.470   4.033   2.229
 8156SOL     OW25366   4.619   6.440   0.495
 8156SOL    HW125367   4.587   6.518   0.442
 8156SOL    HW225368   4.599   6.355   0.446
 8157SOL     OW25369   6.520   4.795   6.536
 8157SOL    HW125370   6.595   4.797   6.471
 8157SOL    HW225371   6.437   4.762   6.490
 8158SOL     OW25372   5.292   4.504   0.153
 8158SOL    HW125373   5.322   4.418   0.112
 8158SOL    HW225374   5.372   4.556   0.184
 8159SOL     OW25375   3.169   5.577   4.083
 8159SOL    HW125376   3.192   5.549   3.989
 8159SOL    HW225377   3.251   5.571   4.140
 8160SOL     OW25378   5.143   6.952   3.388
 8160SOL    HW125379   5.060   7.009   3.388
 8160SOL    HW225380   5.119   6.859   3.417
 8161SOL     OW25381   5.619   3.859   6.018
 8161SOL    HW125382   5.699   3.828   5.966
 8161SOL    HW225383   5.590   3.786   6.079
 8162SOL     OW25384   6.738   6.086   6.799
 8162SOL    HW125385   6.713   6.011   6.738
 8162SOL    HW225386   6.726   6.058   6.894
 8163SOL     OW25387   2.237   4.721   5.330
 8163SOL    HW125388   2.234   4.707   5.231
 8163SOL    HW225389   2.223   4.817   5.351
 8164SOL     OW25390   4.544   1.403   0.357
 8164SOL    HW125391   4.500   1.315   0.345
 8164SOL    HW225392   4.623   1.393   0.417
 8165SOL     OW25393   6.519   3.821   5.728
 8165SOL    HW125394   6.495   3.918   5.731
 8165SOL    HW225395   6.483   3.775   5.809
 8166SOL     OW25396   1.320   0.600   3.232
 8166SOL    HW125397   1.272   0.588   3.145
 8166SOL    HW225398   1.259   0.574   3.307
 8167SOL     OW25399   0.216   0.488   3.386
 8167SOL    HW125400   0.299   0.487   3.330
 8167SOL    HW225401   0.217   0.569   3.445
 8168SOL     OW25402   2.780   0.617   1.340
 8168SOL    HW125403   2.837   0.698   1.330
 8168SOL    HW225404   2.812   0.546   1.278
 8169SOL     OW25405   4.938   2.068   0.512
 8169SOL    HW125406   5.024   2.101   0.472
 8169SOL    HW225407   4.958   2.019   0.597
 8170SOL     OW25408   0.667   4.753   1.814
 8170SOL    HW125409   0.629   4.841   1.843
 8170SOL    HW225410   0.731   4.719   1.884
 8171SOL     OW25411   1.830   2.024   6.776
 8171SOL    HW125412   1.774   1.988   6.702
 8171SOL    HW225413   1.925   2.032   6.745
 8172SOL     OW25414   0.025   1.933   1.997
 8172SOL    HW125415   0.051   1.906   1.904
 8172SOL    HW225416   6.948   1.944   2.001
 8173SOL     OW25417   5.680   2.505   2.111
 8173SOL    HW125418   5.605   2.530   2.050
 8173SOL    HW225419   5.663   2.414   2.148
 8174SOL     OW25420   0.243   6.952   2.565
 8174SOL    HW125421   0.226   0.017   2.611
 8174SOL    HW225422   0.236   6.964   2.466
 8175SOL     OW25423   0.025   3.022   4.929
 8175SOL    HW125424   7.004   3.030   5.019
 8175SOL    HW225425   0.097   3.091   4.920
 8176SOL     OW25426   2.581   4.651   1.300
 8176SOL    HW125427   2.575   4.621   1.396
 8176SOL    HW225428   2.522   4.730   1.287
 8177SOL     OW25429   4.936   0.486   3.866
 8177SOL    HW125430   4.938   0.552   3.941
 8177SOL    HW225431   5.027   0.447   3.853
 8178SOL     OW25432   2.798   6.926   0.973
 8178SOL    HW125433   2.851   6.886   0.898
 8178SOL    HW225434   2.762   7.015   0.945
 8179SOL     OW25435   5.262   1.322   4.851
 8179SOL    HW125436   5.320   1.244   4.825
 8179SOL    HW225437   5.211   1.353   4.771
 8180SOL     OW25438   6.268   0.759   6.090
 8180SOL    HW125439   6.363   0.785   6.106
 8180SOL    HW225440   6.212   0.786   6.169
 8181SOL     OW25441   1.286   1.744   0.731
 8181SOL    HW125442   1.262   1.692   0.814
 8181SOL    HW225443   1.237   1.706   0.653
 8182SOL     OW25444   3.023   3.316   5.760
 8182SOL    HW125445   3.035   3.239   5.698
 8182SOL    HW225446   3.100   3.380   5.749
 8183SOL     OW25447   6.898   2.242   4.504
 8183SOL    HW125448   6.856   2.170   4.559
 8183SOL    HW225449   6.830   2.313   4.484
 8184SOL     OW25450   0.548   6.937   0.454
 8184SOL    HW125451   0.472   6.971   0.398
 8184SOL    HW225452   0.544   6.980   0.544
 8185SOL     OW25453   1.642   0.438   0.152
 8185SOL    HW125454   1.580   0.431   0.074
 8185SOL    HW225455   1.713   0.506   0.132
 8186SOL     OW25456   2.702   4.453   5.797
 8186SOL    HW125457   2.698   4.413   5.889
 8186SOL    HW225458   2.705   4.553   5.804
 8187SOL     OW25459   1.864   1.378   5.067
 8187SOL    HW125460   1.931   1.308   5.040
 8187SOL    HW225461   1.772   1.344   5.050
 8188SOL     OW25462   5.066   3.283   3.619
 8188SOL    HW125463   5.056   3.221   3.540
 8188SOL    HW225464   5.028   3.239   3.700
 8189SOL     OW25465   5.186   5.222   2.858
 8189SOL    HW125466   5.130   5.286   2.806
 8189SOL    HW225467   5.235   5.161   2.796
 8190SOL     OW25468   4.889   3.759   4.213
 8190SOL    HW125469   4.968   3.769   4.152
 8190SOL    HW225470   4.843   3.673   4.193
 8191SOL     OW25471   3.577   5.638   2.182
 8191SOL    HW125472   3.645   5.621   2.254
 8191SOL    HW225473   3.502   5.693   2.219
 8192SOL     OW25474   2.245   5.226   1.258
 8192SOL    HW125475   2.332   5.188   1.228
 8192SOL    HW225476   2.255   5.324   1.275
 8193SOL     OW25477   5.964   5.324   5.550
 8193SOL    HW125478   5.871   5.298   5.524
 8193SOL    HW225479   6.016   5.241   5.570
 8194SOL     OW25480   5.170   1.070   1.344
 8194SOL    HW125481   5.126   1.132   1.280
 8194SOL    HW225482   5.207   0.992   1.294
 8195SOL     OW25483   0.568   6.615   3.106
 8195SOL    HW125484   0.530   6.657   3.023
 8195SOL    HW225485   0.637   6.677   3.145
 8196SOL     OW25486   3.977   6.150   6.367
 8196SOL    HW125487   4.007   6.243   6.385
 8196SOL    HW225488   4.049   6.086   6.397
 8197SOL     OW25489   3.583   1.114   0.282
 8197SOL    HW125490   3.495   1.147   0.248
 8197SOL    HW225491   3.601   1.023   0.246
 8198SOL     OW25492   3.371   6.023   2.582
 8198SOL    HW125493   3.393   6.080   2.661
 8198SOL    HW225494   3.456   5.991   2.539
 8199SOL     OW25495   5.775   2.749   6.213
 8199SOL    HW125496   5.859   2.749   6.159
 8199SOL    HW225497   5.790   2.695   6.297
 8200SOL     OW25498   5.775   4.717   1.743
 8200SOL    HW125499   5.839   4.768   1.799
 8200SOL    HW225500   5.824   4.672   1.668
 8201SOL     OW25501   5.663   1.243   4.737
 8201SOL    HW125502   5.759   1.252   4.710
 8201SOL    HW225503   5.636   1.323   4.791
 8202SOL     OW25504   0.503   5.090   3.800
 8202SOL    HW125505   0.472   5.031   3.725
 8202SOL    HW225506   0.425   5.145   3.832
 8203SOL     OW25507   3.120   2.253   6.743
 8203SOL    HW125508   3.200   2.202   6.776
 8203SOL    HW225509   3.102   2.329   6.805
 8204SOL     OW25510   3.941   4.657   6.795
 8204SOL    HW125511   3.974   4.566   6.822
 8204SOL    HW225512   3.872   4.688   6.861
 8205SOL     OW25513   0.566   4.761   0.311
 8205SOL    HW125514   0.609   4.842   0.271
 8205SOL    HW225515   0.526   4.706   0.237
 8206SOL     OW25516   5.105   1.670   6.497
 8206SOL    HW125517   5.134   1.607   6.568
 8206SOL    HW225518   5.020   1.716   6.525
 8207SOL     OW25519   3.087   3.312   4.521
 8207SOL    HW125520   3.056   3.371   4.447
 8207SOL    HW225521   3.099   3.219   4.487
 8208SOL     OW25522   1.059   0.446   1.463
 8208SOL    HW125523   1.052   0.421   1.559
 8208SOL    HW225524   1.144   0.409   1.425
 8209SOL     OW25525   0.377   1.516   5.234
 8209SOL    HW125526   0.381   1.588   5.164
 8209SOL    HW225527   0.310   1.448   5.206
 8210SOL     OW25528   2.221   1.369   0.385
 8210SOL    HW125529   2.268   1.354   0.298
 8210SOL    HW225530   2.173   1.457   0.381
 8211SOL     OW25531   3.948   4.055   1.846
 8211SOL    HW125532   4.001   3.978   1.883
 8211SOL    HW225533   3.868   4.071   1.903
 8212SOL     OW25534   2.185   2.419   2.191
 8212SOL    HW125535   2.113   2.397   2.256
 8212SOL    HW225536   2.219   2.335   2.149
 8213SOL     OW25537   6.779   4.222   1.441
 8213SOL    HW125538   6.781   4.146   1.506
 8213SOL    HW225539   6.824   4.301   1.481
 8214SOL     OW25540   5.776   5.846   3.801
 8214SOL    HW125541   5.740   5.787   3.729
 8214SOL    HW225542   5.868   5.815   3.827
 8215SOL     OW25543   2.962   5.372   6.098
 8215SOL    HW125544   3.050   5.344   6.137
 8215SOL    HW225545   2.978   5.431   6.019
 8216SOL     OW25546   5.170   5.297   3.953
 8216SOL    HW125547   5.259   5.270   3.918
 8216SOL    HW225548   5.164   5.276   4.051
 8217SOL     OW25549   1.311   4.254   0.203
 8217SOL    HW125550   1.305   4.198   0.286
 8217SOL    HW225551   1.407   4.268   0.179
 8218SOL     OW25552   0.509   0.046   6.060
 8218SOL    HW125553   0.525   6.971   6.043
 8218SOL    HW225554   0.435   0.057   6.126
 8219SOL     OW25555   4.506   2.458   0.601
 8219SOL    HW125556   4.456   2.444   0.686
 8219SOL    HW225557   4.585   2.397   0.598
 8220SOL     OW25558   3.474   2.931   3.482
 8220SOL    HW125559   3.417   2.906   3.561
 8220SOL    HW225560   3.416   2.971   3.411
 8221SOL     OW25561   5.593   6.471   3.442
 8221SOL    HW125562   5.566   6.452   3.536
 8221SOL    HW225563   5.543   6.410   3.380
 8222SOL     OW25564   5.897   1.408   1.577
 8222SOL    HW125565   5.813   1.460   1.568
 8222SOL    HW225566   5.975   1.468   1.560
 8223SOL     OW25567   0.731   4.867   5.499
 8223SOL    HW125568   0.660   4.927   5.536
 8223SOL    HW225569   0.803   4.854   5.568
 8224SOL     OW25570   6.181   0.796   2.502
 8224SOL    HW125571   6.214   0.886   2.530
 8224SOL    HW225572   6.189   0.732   2.579
 8225SOL     OW25573   3.408   1.229   0.688
 8225SOL    HW125574   3.371   1.314   0.650
 8225SOL    HW225575   3.488   1.201   0.635
 8226SOL     OW25576   4.115   0.165   0.886
 8226SOL    HW125577   4.128   0.183   0.789
 8226SOL    HW225578   4.173   0.226   0.939
 8227SOL     OW25579   6.884   1.675   2.816
 8227SOL    HW125580   6.965   1.634   2.774
 8227SOL    HW225581   6.802   1.626   2.785
 8228SOL     OW25582   6.791   2.002   5.882
 8228SOL    HW125583   6.703   2.043   5.858
 8228SOL    HW225584   6.784   1.902   5.876
 8229SOL     OW25585   4.451   2.727   0.814
 8229SOL    HW125586   4.380   2.660   0.792
 8229SOL    HW225587   4.458   2.736   0.913
 8230SOL     OW25588   4.068   0.073   5.400
 8230SOL    HW125589   4.111   0.161   5.380
 8230SOL    HW225590   4.138   0.001   5.401
 8231SOL     OW25591   3.023   4.335   1.044
 8231SOL    HW125592   2.990   4.241   1.040
 8231SOL    HW225593   2.954   4.396   1.003
 8232SOL     OW25594   4.910   1.371   1.676
 8232SOL    HW125595   4.982   1.378   1.607
 8232SOL    HW225596   4.949   1.342   1.763
 8233SOL     OW25597   1.676   5.694   6.098
 8233SOL    HW125598   1.714   5.605   6.071
 8233SOL    HW225599   1.705   5.764   6.032
 8234SOL     OW25600   2.680   4.193   6.813
 8234SOL    HW125601   2.610   4.234   6.872
 8234SOL    HW225602   2.642   4.112   6.768
 8235SOL     OW25603   0.486   3.078   0.164
 8235SOL    HW125604   0.523   3.152   0.222
 8235SOL    HW225605   0.398   3.049   0.200
 8236SOL     OW25606   0.895   4.949   0.654
 8236SOL    HW125607   0.876   4.963   0.751
 8236SOL    HW225608   0.850   5.021   0.600
 8237SOL     OW25609   3.928   6.673   4.083
 8237SOL    HW125610   3.932   6.583   4.127
 8237SOL    HW225611   4.021   6.709   4.073
 8238SOL     OW25612   0.396   5.102   6.163
 8238SOL    HW125613   0.386   5.003   6.176
 8238SOL    HW225614   0.442   5.119   6.076
 8239SOL     OW25615   6.425   1.396   6.109
 8239SOL    HW125616   6.507   1.344   6.089
 8239SOL    HW225617   6.443   1.459   6.185
 8240SOL     OW25618   3.517   4.169   2.559
 8240SOL    HW125619   3.504   4.192   2.656
 8240SOL    HW225620   3.575   4.088   2.552
 8241SOL     OW25621   4.042   6.891   5.900
 8241SOL    HW125622   4.097   6.809   5.917
 8241SOL    HW225623   4.077   6.967   5.956
 8242SOL     OW25624   0.375   4.771   5.725
 8242SOL    HW125625   0.349   4.752   5.630
 8242SOL    HW225626   0.332   4.704   5.785
 8243SOL     OW25627   0.151   2.475   0.276
 8243SOL    HW125628   0.150   2.378   0.254
 8243SOL    HW225629   0.175   2.527   0.194
 8244SOL     OW25630   0.388   0.407   4.571
 8244SOL    HW125631   0.476   0.450   4.591
 8244SOL    HW225632   0.315   0.476   4.572
 8245SOL     OW25633   4.167   1.939   2.291
 8245SOL    HW125634   4.181   1.881   2.372
 8245SOL    HW225635   4.255   1.952   2.245
 8246SOL     OW25636   1.164   3.151   5.659
 8246SOL    HW125637   1.074   3.184   5.687
 8246SOL    HW225638   1.234   3.217   5.687
 8247SOL     OW25639   1.891   0.562   2.418
 8247SOL    HW125640   1.791   0.552   2.423
 8247SOL    HW225641   1.917   0.652   2.453
 8248SOL     OW25642   6.421   5.396   4.723
 8248SOL    HW125643   6.350   5.380   4.654
 8248SOL    HW225644   6.490   5.324   4.715
 8249SOL     OW25645   1.809   2.776   5.802
 8249SOL    HW125646   1.710   2.778   5.818
 8249SOL    HW225647   1.834   2.689   5.760
 8250SOL     OW25648   3.261   3.995   1.940
 8250SOL    HW125649   3.292   4.067   2.001
 8250SOL    HW225650   3.213   3.925   1.993
 8251SOL     OW25651   5.260   3.461   4.357
 8251SOL    HW125652   5.270   3.365   4.383
 8251SOL    HW225653   5.348   3.508   4.368
 8252SOL     OW25654   2.957   1.554   4.958
 8252SOL    HW125655   2.927   1.598   4.873
 8252SOL    HW225656   3.031   1.607   4.999
 8253SOL     OW25657   4.026   4.652   5.574
 8253SOL    HW125658   3.975   4.658   5.489
 8253SOL    HW225659   3.976   4.593   5.639
 8254SOL     OW25660   4.546   4.385   5.409
 8254SOL    HW125661   4.639   4.408   5.380
 8254SOL    HW225662   4.550   4.307   5.472
 8255SOL     OW25663   2.030   0.312   5.504
 8255SOL    HW125664   1.963   0.302   5.430
 8255SOL    HW225665   2.122   0.312   5.465
 8256SOL     OW25666   6.818   6.736   2.169
 8256SOL    HW125667   6.729   6.729   2.123
 8256SOL    HW225668   6.814   6.685   2.255
 8257SOL     OW25669   4.990   4.209   3.093
 8257SOL    HW125670   5.059   4.258   3.040
 8257SOL    HW225671   5.034   4.134   3.143
 8258SOL     OW25672   5.536   1.686   1.045
 8258SOL    HW125673   5.614   1.748   1.039
 8258SOL    HW225674   5.567   1.598   1.082
 8259SOL     OW25675   3.838   1.756   4.128
 8259SOL    HW125676   3.832   1.833   4.192
 8259SOL    HW225677   3.819   1.788   4.035
 8260SOL     OW25678   2.272   6.473   1.006
 8260SOL    HW125679   2.185   6.446   0.965
 8260SOL    HW225680   2.312   6.548   0.953
 8261SOL     OW25681   6.324   6.813   2.045
 8261SOL    HW125682   6.238   6.763   2.043
 8261SOL    HW225683   6.396   6.753   2.080
 8262SOL     OW25684   0.721   3.428   0.324
 8262SOL    HW125685   0.744   3.387   0.236
 8262SOL    HW225686   0.645   3.378   0.365
 8263SOL     OW25687   0.469   2.589   6.249
 8263SOL    HW125688   0.478   2.678   6.204
 8263SOL    HW225689   0.468   2.602   6.348
 8264SOL     OW25690   2.359   6.470   2.228
 8264SOL    HW125691   2.405   6.391   2.189
 8264SOL    HW225692   2.379   6.475   2.326
 8265SOL     OW25693   6.699   0.734   0.962
 8265SOL    HW125694   6.602   0.739   0.982
 8265SOL    HW225695   6.735   0.646   0.994
 8266SOL     OW25696   2.436   1.285   3.811
 8266SOL    HW125697   2.359   1.347   3.826
 8266SOL    HW225698   2.472   1.255   3.899
 8267SOL     OW25699   1.919   3.193   1.148
 8267SOL    HW125700   1.992   3.231   1.091
 8267SOL    HW225701   1.832   3.238   1.127
 8268SOL     OW25702   1.834   6.539   5.780
 8268SOL    HW125703   1.863   6.444   5.795
 8268SOL    HW225704   1.744   6.540   5.738
 8269SOL     OW25705   4.236   1.324   2.447
 8269SOL    HW125706   4.220   1.226   2.462
 8269SOL    HW225707   4.332   1.338   2.420
 8270SOL     OW25708   2.930   6.772   5.128
 8270SOL    HW125709   2.834   6.765   5.102
 8270SOL    HW225710   2.987   6.730   5.056
 8271SOL     OW25711   0.349   0.116   3.427
 8271SOL    HW125712   0.360   0.176   3.348
 8271SOL    HW225713   0.363   0.170   3.511
 8272SOL     OW25714   5.857   2.416   2.377
 8272SOL    HW125715   5.826   2.416   2.281
 8272SOL    HW225716   5.948   2.456   2.383
 8273SOL     OW25717   2.276   1.234   6.762
 8273SOL    HW125718   2.317   1.324   6.770
 8273SOL    HW225719   2.335   1.166   6.806
 8274SOL     OW25720   5.212   4.737   4.302
 8274SOL    HW125721   5.209   4.802   4.227
 8274SOL    HW225722   5.289   4.759   4.363
 8275SOL     OW25723   6.304   1.126   5.505
 8275SOL    HW125724   6.272   1.106   5.412
 8275SOL    HW225725   6.303   1.224   5.520
 8276SOL     OW25726   0.738   2.761   3.614
 8276SOL    HW125727   0.653   2.771   3.562
 8276SOL    HW225728   0.816   2.781   3.555
 8277SOL     OW25729   0.204   6.102   6.139
 8277SOL    HW125730   0.241   6.155   6.062
 8277SOL    HW225731   0.149   6.026   6.104
 8278SOL     OW25732   3.342   1.477   5.828
 8278SOL    HW125733   3.268   1.409   5.827
 8278SOL    HW225734   3.304   1.566   5.854
 8279SOL     OW25735   1.399   6.154   4.526
 8279SOL    HW125736   1.438   6.075   4.479
 8279SOL    HW225737   1.419   6.148   4.623
 8280SOL     OW25738   2.071   3.647   0.395
 8280SOL    HW125739   2.098   3.722   0.334
 8280SOL    HW225740   2.142   3.576   0.392
 8281SOL     OW25741   2.952   4.340   1.669
 8281SOL    HW125742   2.917   4.408   1.733
 8281SOL    HW225743   3.047   4.361   1.646
 8282SOL     OW25744   4.691   3.363   0.025
 8282SOL    HW125745   4.766   3.317   0.072
 8282SOL    HW225746   4.680   3.323   6.956
 8283SOL     OW25747   1.910   5.245   5.646
 8283SOL    HW125748   1.833   5.238   5.709
 8283SOL    HW225749   1.920   5.159   5.596
 8284SOL     OW25750   0.838   3.519   1.038
 8284SOL    HW125751   0.924   3.569   1.029
 8284SOL    HW225752   0.785   3.530   0.954
 8285SOL     OW25753   3.022   3.992   4.686
 8285SOL    HW125754   3.066   3.958   4.769
 8285SOL    HW225755   2.957   4.064   4.710
 8286SOL     OW25756   5.946   1.845   6.008
 8286SOL    HW125757   5.885   1.919   5.979
 8286SOL    HW225758   5.988   1.870   6.095
 8287SOL     OW25759   1.416   5.601   4.271
 8287SOL    HW125760   1.468   5.665   4.328
 8287SOL    HW225761   1.461   5.592   4.182
 8288SOL     OW25762   3.079   2.114   1.973
 8288SOL    HW125763   3.163   2.133   2.024
 8288SOL    HW225764   3.010   2.183   1.995
 8289SOL     OW25765   0.738   6.143   0.692
 8289SOL    HW125766   0.794   6.112   0.769
 8289SOL    HW225767   0.734   6.071   0.622
 8290SOL     OW25768   5.433   1.484   1.460
 8290SOL    HW125769   5.348   1.532   1.438
 8290SOL    HW225770   5.462   1.508   1.552
 8291SOL     OW25771   5.058   6.151   4.822
 8291SOL    HW125772   5.078   6.091   4.744
 8291SOL    HW225773   5.113   6.234   4.815
 8292SOL     OW25774   2.764   6.571   6.772
 8292SOL    HW125775   2.716   6.486   6.751
 8292SOL    HW225776   2.823   6.596   6.695
 8293SOL     OW25777   2.798   5.399   0.469
 8293SOL    HW125778   2.720   5.408   0.532
 8293SOL    HW225779   2.870   5.464   0.495
 8294SOL     OW25780   5.614   3.162   5.494
 8294SOL    HW125781   5.673   3.205   5.562
 8294SOL    HW225782   5.523   3.202   5.499
 8295SOL     OW25783   5.062   5.404   1.964
 8295SOL    HW125784   5.140   5.394   1.901
 8295SOL    HW225785   5.043   5.316   2.007
 8296SOL     OW25786   1.584   4.384   6.697
 8296SOL    HW125787   1.604   4.465   6.641
 8296SOL    HW225788   1.572   4.412   6.792
 8297SOL     OW25789   0.102   3.123   2.438
 8297SOL    HW125790   0.088   3.033   2.478
 8297SOL    HW225791   0.180   3.167   2.481
 8298SOL     OW25792   6.270   1.436   1.583
 8298SOL    HW125793   6.250   1.533   1.596
 8298SOL    HW225794   6.369   1.423   1.579
 8299SOL     OW25795   6.728   2.293   2.417
 8299SOL    HW125796   6.824   2.300   2.389
 8299SOL    HW225797   6.723   2.259   2.511
 8300SOL     OW25798   0.427   5.527   4.512
 8300SOL    HW125799   0.471   5.442   4.540
 8300SOL    HW225800   0.402   5.580   4.593
 8301SOL     OW25801   3.499   1.709   1.122
 8301SOL    HW125802   3.529   1.621   1.161
 8301SOL    HW225803   3.407   1.699   1.085
 8302SOL     OW25804   5.912   6.995   6.620
 8302SOL    HW125805   5.956   6.971   6.533
 8302SOL    HW225806   5.863   6.916   6.656
 8303SOL     OW25807   6.031   0.915   3.651
 8303SOL    HW125808   5.961   0.961   3.597
 8303SOL    HW225809   6.105   0.883   3.591
 8304SOL     OW25810   6.789   2.998   1.168
 8304SOL    HW125811   6.783   2.999   1.068
 8304SOL    HW225812   6.807   3.091   1.202
 8305SOL     OW25813   4.655   4.690   4.102
 8305SOL    HW125814   4.568   4.645   4.121
 8305SOL    HW225815   4.640   4.771   4.045
 8306SOL     OW25816   6.008   1.790   5.706
 8306SOL    HW125817   6.007   1.791   5.806
 8306SOL    HW225818   5.914   1.781   5.671
 8307SOL     OW25819   3.451   5.601   1.901
 8307SOL    HW125820   3.437   5.622   1.998
 8307SOL    HW225821   3.366   5.564   1.863
 8308SOL     OW25822   3.221   5.564   1.586
 8308SOL    HW125823   3.318   5.540   1.599
 8308SOL    HW225824   3.166   5.480   1.584
 8309SOL     OW25825   6.530   5.338   3.711
 8309SOL    HW125826   6.443   5.323   3.664
 8309SOL    HW225827   6.524   5.302   3.804
 8310SOL     OW25828   0.081   5.328   0.964
 8310SOL    HW125829   0.167   5.374   0.982
 8310SOL    HW225830   0.006   5.380   1.006
 8311SOL     OW25831   0.957   1.678   4.605
 8311SOL    HW125832   0.872   1.678   4.658
 8311SOL    HW225833   0.937   1.702   4.510
 8312SOL     OW25834   5.207   0.100   6.984
 8312SOL    HW125835   5.251   0.022   0.006
 8312SOL    HW225836   5.188   0.171   0.030
 8313SOL     OW25837   5.552   0.038   0.590
 8313SOL    HW125838   5.628   0.045   0.654
 8313SOL    HW225839   5.472   7.022   0.636
 8314SOL     OW25840   5.175   0.291   0.144
 8314SOL    HW125841   5.254   0.301   0.203
 8314SOL    HW225842   5.091   0.297   0.199
 8315SOL     OW25843   4.262   3.096   1.176
 8315SOL    HW125844   4.215   3.052   1.099
 8315SOL    HW225845   4.340   3.148   1.141
 8316SOL     OW25846   1.505   1.947   1.616
 8316SOL    HW125847   1.475   2.041   1.629
 8316SOL    HW225848   1.569   1.942   1.539
 8317SOL     OW25849   1.745   3.003   2.345
 8317SOL    HW125850   1.819   2.939   2.323
 8317SOL    HW225851   1.735   3.010   2.445
 8318SOL     OW25852   4.528   1.607   5.271
 8318SOL    HW125853   4.514   1.516   5.233
 8318SOL    HW225854   4.497   1.676   5.204
 8319SOL     OW25855   1.968   1.829   0.480
 8319SOL    HW125856   1.944   1.872   0.567
 8319SOL    HW225857   1.980   1.900   0.411
 8320SOL     OW25858   3.069   3.579   2.334
 8320SOL    HW125859   3.107   3.490   2.359
 8320SOL    HW225860   2.979   3.567   2.292
 8321SOL     OW25861   6.917   0.136   6.274
 8321SOL    HW125862   6.836   0.169   6.226
 8321SOL    HW225863   6.980   0.212   6.289
 8322SOL     OW25864   6.094   6.957   1.189
 8322SOL    HW125865   6.021   7.001   1.240
 8322SOL    HW225866   6.144   0.002   1.135
 8323SOL     OW25867   4.953   5.339   2.289
 8323SOL    HW125868   4.911   5.414   2.340
 8323SOL    HW225869   5.048   5.363   2.267
 8324SOL     OW25870   5.569   6.291   1.099
 8324SOL    HW125871   5.525   6.262   1.013
 8324SOL    HW225872   5.596   6.387   1.091
 8325SOL     OW25873   2.693   3.936   5.567
 8325SOL    HW125874   2.792   3.927   5.576
 8325SOL    HW225875   2.656   3.987   5.645
 8326SOL     OW25876   5.034   3.420   5.525
 8326SOL    HW125877   5.127   3.395   5.498
 8326SOL    HW225878   4.988   3.466   5.449
 8327SOL     OW25879   6.002   1.126   6.000
 8327SOL    HW125880   5.912   1.144   6.039
 8327SOL    HW225881   6.060   1.207   6.011
 8328SOL     OW25882   2.783   6.373   6.075
 8328SOL    HW125883   2.747   6.459   6.038
 8328SOL    HW225884   2.712   6.303   6.071
 8329SOL     OW25885   1.376   3.349   6.046
 8329SOL    HW125886   1.408   3.317   5.957
 8329SOL    HW225887   1.277   3.364   6.043
 8330SOL     OW25888   2.463   1.445   6.786
 8330SOL    HW125889   2.448   1.541   6.810
 8330SOL    HW225890   2.550   1.414   6.826
 8331SOL     OW25891   3.153   0.735   1.080
 8331SOL    HW125892   3.084   0.793   1.036
 8331SOL    HW225893   3.241   0.746   1.033
 8332SOL     OW25894   4.555   5.124   2.172
 8332SOL    HW125895   4.487   5.054   2.147
 8332SOL    HW225896   4.510   5.197   2.223
 8333SOL     OW25897   0.110   6.328   6.335
 8333SOL    HW125898   0.178   6.256   6.321
 8333SOL    HW225899   0.081   6.364   6.246
 8334SOL     OW25900   4.102   1.225   3.917
 8334SOL    HW125901   4.179   1.194   3.972
 8334SOL    HW225902   4.071   1.150   3.858
 8335SOL     OW25903   5.315   6.915   0.127
 8335SOL    HW125904   5.377   6.837   0.133
 8335SOL    HW225905   5.338   6.981   0.199
 8336SOL     OW25906   0.032   4.628   3.209
 8336SOL    HW125907   0.112   4.601   3.263
 8336SOL    HW225908   0.056   4.705   3.150
 8337SOL     OW25909   2.590   6.509   2.757
 8337SOL    HW125910   2.594   6.539   2.662
 8337SOL    HW225911   2.678   6.469   2.783
 8338SOL     OW25912   3.946   5.312   2.025
 8338SOL    HW125913   3.881   5.377   1.985
 8338SOL    HW225914   3.897   5.227   2.048
 8339SOL     OW25915   6.293   0.453   1.506
 8339SOL    HW125916   6.287   0.416   1.598
 8339SOL    HW225917   6.327   0.547   1.510
 8340SOL     OW25918   4.772   3.211   1.038
 8340SOL    HW125919   4.736   3.123   1.008
 8340SOL    HW225920   4.698   3.266   1.076
 8341SOL     OW25921   3.007   6.223   0.293
 8341SOL    HW125922   3.050   6.220   0.383
 8341SOL    HW225923   2.926   6.164   0.293
 8342SOL     OW25924   4.123   6.198   1.094
 8342SOL    HW125925   4.147   6.282   1.143
 8342SOL    HW225926   4.052   6.150   1.144
 8343SOL     OW25927   1.724   5.487   5.303
 8343SOL    HW125928   1.698   5.476   5.207
 8343SOL    HW225929   1.676   5.565   5.342
 8344SOL     OW25930   4.667   6.075   4.409
 8344SOL    HW125931   4.762   6.088   4.437
 8344SOL    HW225932   4.652   6.115   4.319
 8345SOL     OW25933   4.642   1.504   2.594
 8345SOL    HW125934   4.590   1.531   2.512
 8345SOL    HW225935   4.614   1.413   2.622
 8346SOL     OW25936   3.224   5.241   0.545
 8346SOL    HW125937   3.153   5.258   0.478
 8346SOL    HW225938   3.225   5.314   0.613
 8347SOL     OW25939   3.342   5.594   4.345
 8347SOL    HW125940   3.406   5.666   4.372
 8347SOL    HW225941   3.291   5.563   4.425
 8348SOL     OW25942   2.308   0.402   1.914
 8348SOL    HW125943   2.241   0.456   1.863
 8348SOL    HW225944   2.277   0.307   1.919
 8349SOL     OW25945   5.871   6.392   1.727
 8349SOL    HW125946   5.802   6.383   1.655
 8349SOL    HW225947   5.861   6.481   1.771
 8350SOL     OW25948   3.655   0.123   5.937
 8350SOL    HW125949   3.708   0.090   6.016
 8350SOL    HW225950   3.619   0.045   5.887
 8351SOL     OW25951   5.151   5.522   4.201
 8351SOL    HW125952   5.087   5.595   4.177
 8351SOL    HW225953   5.103   5.434   4.201
 8352SOL     OW25954   0.886   0.164   3.394
 8352SOL    HW125955   0.837   0.119   3.470
 8352SOL    HW225956   0.846   0.136   3.307
 8353SOL     OW25957   6.706   3.444   1.791
 8353SOL    HW125958   6.792   3.403   1.820
 8353SOL    HW225959   6.675   3.401   1.706
 8354SOL     OW25960   4.239   6.693   5.960
 8354SOL    HW125961   4.327   6.727   5.928
 8354SOL    HW225962   4.239   6.593   5.957
 8355SOL     OW25963   2.461   0.697   6.068
 8355SOL    HW125964   2.367   0.727   6.049
 8355SOL    HW225965   2.511   0.772   6.111
 8356SOL     OW25966   0.683   6.387   0.924
 8356SOL    HW125967   0.769   6.388   0.873
 8356SOL    HW225968   0.702   6.380   1.022
 8357SOL     OW25969   4.186   7.014   4.659
 8357SOL    HW125970   4.154   6.962   4.580
 8357SOL    HW225971   4.135   6.985   4.740
 8358SOL     OW25972   1.365   4.585   5.422
 8358SOL    HW125973   1.315   4.645   5.359
 8358SOL    HW225974   1.463   4.599   5.411
 8359SOL     OW25975   3.149   0.577   5.229
 8359SOL    HW125976   3.098   0.534   5.154
 8359SOL    HW225977   3.086   0.600   5.303
 8360SOL     OW25978   3.683   6.718   0.812
 8360SOL    HW125979   3.720   6.625   0.811
 8360SOL    HW225980   3.589   6.716   0.846
 8361SOL     OW25981   2.873   0.649   2.350
 8361SOL    HW125982   2.970   0.637   2.370
 8361SOL    HW225983   2.861   0.734   2.298
 8362SOL     OW25984   4.009   2.046   0.604
 8362SOL    HW125985   3.916   2.036   0.639
 8362SOL    HW225986   4.008   2.102   0.521
 8363SOL     OW25987   6.825   2.625   6.322
 8363SOL    HW125988   6.892   2.573   6.271
 8363SOL    HW225989   6.765   2.563   6.372
 8364SOL     OW25990   1.421   2.498   3.200
 8364SOL    HW125991   1.434   2.532   3.293
 8364SOL    HW225992   1.327   2.466   3.188
 8365SOL     OW25993   1.724   3.845   2.017
 8365SOL    HW125994   1.773   3.849   2.104
 8365SOL    HW225995   1.752   3.764   1.966
 8366SOL     OW25996   2.084   5.993   2.033
 8366SOL    HW125997   2.079   5.897   2.062
 8366SOL    HW225998   1.991   6.029   2.025
 8367SOL     OW25999   4.119   5.931   4.155
 8367SOL    HW126000   4.168   5.900   4.237
 8367SOL    HW226001   4.092   5.851   4.101
 8368SOL     OW26002   2.269   5.860   6.016
 8368SOL    HW126003   2.210   5.790   6.058
 8368SOL    HW226004   2.333   5.895   6.084
 8369SOL     OW26005   1.707   6.654   6.318
 8369SOL    HW126006   1.763   6.623   6.241
 8369SOL    HW226007   1.731   6.600   6.399
 8370SOL     OW26008   2.928   1.738   5.725
 8370SOL    HW126009   2.933   1.829   5.684
 8370SOL    HW226010   2.897   1.672   5.656
 8371SOL     OW26011   2.029   4.284   1.084
 8371SOL    HW126012   2.041   4.375   1.125
 8371SOL    HW226013   1.999   4.220   1.155
 8372SOL     OW26014   1.103   5.514   2.400
 8372SOL    HW126015   1.004   5.533   2.396
 8372SOL    HW226016   1.153   5.600   2.413
 8373SOL     OW26017   1.698   0.143   3.775
 8373SOL    HW126018   1.738   0.118   3.863
 8373SOL    HW226019   1.608   0.183   3.790
 8374SOL     OW26020   0.254   0.505   5.161
 8374SOL    HW126021   0.333   0.559   5.134
 8374SOL    HW226022   0.222   0.451   5.083
 8375SOL     OW26023   3.478   6.671   5.014
 8375SOL    HW126024   3.546   6.735   4.979
 8375SOL    HW226025   3.395   6.678   4.959
 8376SOL     OW26026   1.413   0.914   4.196
 8376SOL    HW126027   1.364   0.883   4.278
 8376SOL    HW226028   1.426   1.013   4.201
 8377SOL     OW26029   4.612   5.805   0.968
 8377SOL    HW126030   4.530   5.852   0.935
 8377SOL    HW226031   4.689   5.826   0.908
 8378SOL     OW26032   4.244   5.444   2.541
 8378SOL    HW126033   4.271   5.520   2.599
 8378SOL    HW226034   4.222   5.365   2.597
 8379SOL     OW26035   5.731   2.845   1.279
 8379SOL    HW126036   5.657   2.852   1.212
 8379SOL    HW226037   5.699   2.877   1.368
 8380SOL     OW26038   6.863   0.658   2.125
 8380SOL    HW126039   6.807   0.667   2.043
 8380SOL    HW226040   6.960   0.655   2.099
 8381SOL     OW26041   0.158   3.002   5.292
 8381SOL    HW126042   0.217   3.083   5.294
 8381SOL    HW226043   0.074   3.024   5.241
 8382SOL     OW26044   2.845   0.927   2.961
 8382SOL    HW126045   2.783   0.856   2.927
 8382SOL    HW226046   2.796   0.987   3.025
 8383SOL     OW26047   2.426   0.008   5.886
 8383SOL    HW126048   2.508   6.974   5.874
 8383SOL    HW226049   2.425   0.080   5.817
 8384SOL     OW26050   6.424   0.749   1.025
 8384SOL    HW126051   6.422   0.651   1.044
 8384SOL    HW226052   6.396   0.765   0.930
 8385SOL     OW26053   6.088   1.699   1.080
 8385SOL    HW126054   6.179   1.732   1.103
 8385SOL    HW226055   6.085   1.673   0.983
 8386SOL     OW26056   1.798   5.415   2.609
 8386SOL    HW126057   1.725   5.396   2.544
 8386SOL    HW226058   1.867   5.474   2.566
 8387SOL     OW26059   1.745   1.271   2.802
 8387SOL    HW126060   1.688   1.306   2.729
 8387SOL    HW226061   1.688   1.240   2.878
 8388SOL     OW26062   2.524   6.166   0.288
 8388SOL    HW126063   2.454   6.232   0.315
 8388SOL    HW226064   2.522   6.088   0.351
 8389SOL     OW26065   0.421   3.416   2.708
 8389SOL    HW126066   0.520   3.431   2.706
 8389SOL    HW226067   0.384   3.444   2.796
 8390SOL     OW26068   4.260   0.993   6.572
 8390SOL    HW126069   4.211   1.049   6.505
 8390SOL    HW226070   4.300   0.914   6.525
 8391SOL     OW26071   6.354   5.002   0.827
 8391SOL    HW126072   6.269   5.041   0.791
 8391SOL    HW226073   6.336   4.961   0.916
 8392SOL     OW26074   6.300   3.908   4.525
 8392SOL    HW126075   6.236   3.965   4.473
 8392SOL    HW226076   6.278   3.911   4.622
 8393SOL     OW26077   0.355   6.797   3.098
 8393SOL    HW126078   0.408   6.851   3.163
 8393SOL    HW226079   0.331   6.710   3.139
 8394SOL     OW26080   5.953   2.428   1.470
 8394SOL    HW126081   5.986   2.369   1.396
 8394SOL    HW226082   5.931   2.518   1.433
 8395SOL     OW26083   2.640   0.151   5.192
 8395SOL    HW126084   2.604   0.067   5.153
 8395SOL    HW226085   2.738   0.156   5.174
 8396SOL     OW26086   4.750   5.426   2.672
 8396SOL    HW126087   4.849   5.433   2.683
 8396SOL    HW226088   4.727   5.434   2.575
 8397SOL     OW26089   1.541   0.408   2.954
 8397SOL    HW126090   1.504   0.501   2.944
 8397SOL    HW226091   1.641   0.412   2.952
 8398SOL     OW26092   4.260   1.489   6.331
 8398SOL    HW126093   4.297   1.468   6.240
 8398SOL    HW226094   4.307   1.569   6.369
 8399SOL     OW26095   5.851   6.519   6.777
 8399SOL    HW126096   5.939   6.550   6.815
 8399SOL    HW226097   5.816   6.444   6.833
 8400SOL     OW26098   1.913   1.147   4.552
 8400SOL    HW126099   1.914   1.231   4.498
 8400SOL    HW226100   1.908   1.169   4.649
 8401SOL     OW26101   2.145   1.226   5.253
 8401SOL    HW126102   2.175   1.320   5.273
 8401SOL    HW226103   2.222   1.164   5.267
 8402SOL     OW26104   4.603   1.999   6.040
 8402SOL    HW126105   4.613   2.080   6.097
 8402SOL    HW226106   4.684   1.940   6.052
 8403SOL     OW26107   0.298   3.006   4.537
 8403SOL    HW126108   0.245   3.078   4.582
 8403SOL    HW226109   0.236   2.942   4.492
 8404SOL     OW26110   3.730   6.782   5.863
 8404SOL    HW126111   3.823   6.819   5.854
 8404SOL    HW226112   3.664   6.846   5.822
 8405SOL     OW26113   1.723   1.323   5.719
 8405SOL    HW126114   1.776   1.295   5.639
 8405SOL    HW226115   1.780   1.381   5.777
 8406SOL     OW26116   4.618   0.864   0.197
 8406SOL    HW126117   4.624   0.842   0.099
 8406SOL    HW226118   4.710   0.868   0.235
 8407SOL     OW26119   3.445   6.783   3.042
 8407SOL    HW126120   3.439   6.704   2.982
 8407SOL    HW226121   3.499   6.759   3.123
 8408SOL     OW26122   5.842   4.251   1.306
 8408SOL    HW126123   5.829   4.328   1.243
 8408SOL    HW226124   5.753   4.210   1.327
 8409SOL     OW26125   5.472   1.844   2.623
 8409SOL    HW126126   5.430   1.790   2.550
 8409SOL    HW226127   5.486   1.786   2.703
 8410SOL     OW26128   5.558   0.778   1.726
 8410SOL    HW126129   5.541   0.711   1.799
 8410SOL    HW226130   5.480   0.781   1.664
 8411SOL     OW26131   0.979   5.205   0.120
 8411SOL    HW126132   0.941   5.148   0.047
 8411SOL    HW226133   1.006   5.294   0.083
 8412SOL     OW26134   3.413   2.056   1.457
 8412SOL    HW126135   3.313   2.051   1.450
 8412SOL    HW226136   3.449   2.114   1.385
 8413SOL     OW26137   3.972   5.591   6.782
 8413SOL    HW126138   3.896   5.652   6.805
 8413SOL    HW226139   4.000   5.606   6.687
 8414SOL     OW26140   4.080   6.168   3.932
 8414SOL    HW126141   4.003   6.155   3.994
 8414SOL    HW226142   4.111   6.263   3.936
 8415SOL     OW26143   0.092   6.032   3.745
 8415SOL    HW126144   0.037   6.086   3.681
 8415SOL    HW226145   0.070   5.935   3.733
 8416SOL     OW26146   6.300   3.284   2.868
 8416SOL    HW126147   6.269   3.342   2.944
 8416SOL    HW226148   6.367   3.218   2.903
 8417SOL     OW26149   1.145   4.195   5.543
 8417SOL    HW126150   1.205   4.156   5.612
 8417SOL    HW226151   1.055   4.151   5.548
 8418SOL     OW26152   5.627   5.325   0.931
 8418SOL    HW126153   5.715   5.318   0.979
 8418SOL    HW226154   5.557   5.276   0.983
 8419SOL     OW26155   5.548   0.249   1.683
 8419SOL    HW126156   5.512   0.245   1.776
 8419SOL    HW226157   5.524   0.337   1.643
 8420SOL     OW26158   4.516   6.669   0.388
 8420SOL    HW126159   4.552   6.644   0.299
 8420SOL    HW226160   4.420   6.694   0.380
 8421SOL     OW26161   3.145   5.581   6.794
 8421SOL    HW126162   3.171   5.484   6.792
 8421SOL    HW226163   3.163   5.618   6.886
 8422SOL     OW26164   4.282   1.538   1.819
 8422SOL    HW126165   4.301   1.446   1.853
 8422SOL    HW226166   4.338   1.604   1.870
 8423SOL     OW26167   2.703   4.977   5.920
 8423SOL    HW126168   2.626   5.039   5.905
 8423SOL    HW226169   2.785   5.030   5.942
 8424SOL     OW26170   2.135   1.978   2.482
 8424SOL    HW126171   2.112   1.932   2.567
 8424SOL    HW226172   2.212   2.040   2.497
 8425SOL     OW26173   4.506   4.792   6.286
 8425SOL    HW126174   4.558   4.707   6.276
 8425SOL    HW226175   4.409   4.774   6.269
 8426SOL     OW26176   3.700   3.216   3.276
 8426SOL    HW126177   3.742   3.148   3.336
 8426SOL    HW226178   3.686   3.176   3.185
 8427SOL     OW26179   3.757   4.049   4.440
 8427SOL    HW126180   3.755   4.073   4.343
 8427SOL    HW226181   3.697   4.110   4.491
 8428SOL     OW26182   0.580   5.851   1.333
 8428SOL    HW126183   0.544   5.759   1.348
 8428SOL    HW226184   0.626   5.855   1.244
 8429SOL     OW26185   0.924   6.295   4.956
 8429SOL    HW126186   0.828   6.299   4.930
 8429SOL    HW226187   0.969   6.221   4.907
 8430SOL     OW26188   3.848   5.516   3.313
 8430SOL    HW126189   3.795   5.554   3.389
 8430SOL    HW226190   3.901   5.437   3.345
 8431SOL     OW26191   3.346   4.095   0.982
 8431SOL    HW126192   3.399   4.091   0.897
 8431SOL    HW226193   3.331   4.002   1.016
 8432SOL     OW26194   5.758   6.310   5.825
 8432SOL    HW126195   5.796   6.401   5.805
 8432SOL    HW226196   5.672   6.298   5.776
 8433SOL     OW26197   4.789   2.568   0.563
 8433SOL    HW126198   4.702   2.533   0.598
 8433SOL    HW226199   4.804   2.661   0.598
 8434SOL     OW26200   2.680   0.025   4.776
 8434SOL    HW126201   2.716   0.117   4.794
 8434SOL    HW226202   2.592   0.033   4.729
 8435SOL     OW26203   6.275   1.178   1.484
 8435SOL    HW126204   6.242   1.265   1.523
 8435SOL    HW226205   6.352   1.197   1.423
 8436SOL     OW26206   3.247   6.531   3.235
 8436SOL    HW126207   3.165   6.545   3.179
 8436SOL    HW226208   3.228   6.558   3.329
 8437SOL     OW26209   2.293   1.371   4.411
 8437SOL    HW126210   2.244   1.284   4.400
 8437SOL    HW226211   2.334   1.397   4.324
 8438SOL     OW26212   2.350   4.790   2.668
 8438SOL    HW126213   2.421   4.828   2.728
 8438SOL    HW226214   2.298   4.721   2.718
 8439SOL     OW26215   5.931   5.059   2.820
 8439SOL    HW126216   5.915   5.150   2.858
 8439SOL    HW226217   6.028   5.048   2.798
 8440SOL     OW26218   2.379   1.843   3.628
 8440SOL    HW126219   2.391   1.816   3.724
 8440SOL    HW226220   2.465   1.834   3.579
 8441SOL     OW26221   5.713   6.785   7.005
 8441SOL    HW126222   5.755   6.694   7.007
 8441SOL    HW226223   5.636   6.787   0.046
 8442SOL     OW26224   3.642   2.048   5.176
 8442SOL    HW126225   3.720   2.018   5.122
 8442SOL    HW226226   3.567   2.073   5.115
 8443SOL     OW26227   2.543   4.569   3.311
 8443SOL    HW126228   2.530   4.470   3.301
 8443SOL    HW226229   2.492   4.602   3.390
 8444SOL     OW26230   3.220   6.522   4.586
 8444SOL    HW126231   3.248   6.496   4.493
 8444SOL    HW226232   3.129   6.486   4.605
 8445SOL     OW26233   3.204   0.059   1.496
 8445SOL    HW126234   3.118   0.045   1.545
 8445SOL    HW226235   3.213   7.012   1.424
 8446SOL     OW26236   5.018   5.547   6.817
 8446SOL    HW126237   4.940   5.485   6.817
 8446SOL    HW226238   5.004   5.619   6.749
 8447SOL     OW26239   5.126   1.859   2.306
 8447SOL    HW126240   5.076   1.849   2.392
 8447SOL    HW226241   5.219   1.823   2.318
 8448SOL     OW26242   4.554   5.620   4.293
 8448SOL    HW126243   4.497   5.576   4.223
 8448SOL    HW226244   4.495   5.673   4.355
 8449SOL     OW26245   0.114   3.001   3.580
 8449SOL    HW126246   0.056   3.078   3.606
 8449SOL    HW226247   0.155   3.020   3.491
 8450SOL     OW26248   0.563   6.967   0.742
 8450SOL    HW126249   0.616   6.884   0.756
 8450SOL    HW226250   0.604   0.020   0.794
 8451SOL     OW26251   3.691   1.773   0.091
 8451SOL    HW126252   3.636   1.696   0.061
 8451SOL    HW226253   3.754   1.799   0.018
 8452SOL     OW26254   6.273   1.799   3.138
 8452SOL    HW126255   6.314   1.854   3.064
 8452SOL    HW226256   6.233   1.717   3.099
 8453SOL     OW26257   0.563   4.439   6.773
 8453SOL    HW126258   0.476   4.428   6.821
 8453SOL    HW226259   0.584   4.536   6.763
 8454SOL     OW26260   6.893   6.473   1.419
 8454SOL    HW126261   6.900   6.572   1.422
 8454SOL    HW226262   6.809   6.445   1.467
 8455SOL     OW26263   6.610   1.647   1.753
 8455SOL    HW126264   6.633   1.703   1.673
 8455SOL    HW226265   6.583   1.706   1.829
 8456SOL     OW26266   4.051   5.918   3.700
 8456SOL    HW126267   4.136   5.893   3.654
 8456SOL    HW226268   4.019   6.007   3.666
 8457SOL     OW26269   6.993   6.662   4.763
 8457SOL    HW126270   7.011   6.658   4.664
 8457SOL    HW226271   0.015   6.743   4.801
 8458SOL     OW26272   3.131   0.473   0.267
 8458SOL    HW126273   3.123   0.545   0.336
 8458SOL    HW226274   3.040   0.454   0.228
 8459SOL     OW26275   2.874   5.599   2.069
 8459SOL    HW126276   2.881   5.685   2.019
 8459SOL    HW226277   2.778   5.575   2.080
 8460SOL     OW26278   4.061   4.276   5.266
 8460SOL    HW126279   4.132   4.335   5.226
 8460SOL    HW226280   4.097   4.183   5.276
 8461SOL     OW26281   1.111   4.108   4.821
 8461SOL    HW126282   1.097   4.194   4.773
 8461SOL    HW226283   1.165   4.046   4.764
 8462SOL     OW26284   2.469   2.493   6.562
 8462SOL    HW126285   2.413   2.551   6.621
 8462SOL    HW226286   2.417   2.411   6.537
 8463SOL     OW26287   7.022   0.502   1.206
 8463SOL    HW126288   0.005   0.431   1.136
 8463SOL    HW226289   0.091   0.525   1.238
 8464SOL     OW26290   5.918   3.928   3.826
 8464SOL    HW126291   5.965   3.980   3.898
 8464SOL    HW226292   5.934   3.973   3.738
 8465SOL     OW26293   1.203   3.281   0.450
 8465SOL    HW126294   1.148   3.231   0.384
 8465SOL    HW226295   1.299   3.279   0.422
 8466SOL     OW26296   0.727   6.526   4.372
 8466SOL    HW126297   0.632   6.553   4.390
 8466SOL    HW226298   0.773   6.596   4.318
 8467SOL     OW26299   3.355   6.810   6.906
 8467SOL    HW126300   3.290   6.885   6.919
 8467SOL    HW226301   3.347   6.776   6.812
 8468SOL     OW26302   4.061   1.357   6.457
 8468SOL    HW126303   3.981   1.353   6.397
 8468SOL    HW226304   4.130   1.418   6.417
 8469SOL     OW26305   3.370   1.693   6.520
 8469SOL    HW126306   3.455   1.722   6.565
 8469SOL    HW226307   3.339   1.607   6.560
 8470SOL     OW26308   0.812   3.854   6.844
 8470SOL    HW126309   0.726   3.903   6.857
 8470SOL    HW226310   0.858   3.842   6.932
 8471SOL     OW26311   3.117   1.040   3.384
 8471SOL    HW126312   3.152   1.066   3.473
 8471SOL    HW226313   3.136   1.112   3.317
 8472SOL     OW26314   0.138   0.821   4.464
 8472SOL    HW126315   0.170   0.751   4.528
 8472SOL    HW226316   0.122   0.907   4.514
 8473SOL     OW26317   6.394   5.478   6.356
 8473SOL    HW126318   6.448   5.425   6.422
 8473SOL    HW226319   6.302   5.441   6.350
 8474SOL     OW26320   3.112   3.331   2.399
 8474SOL    HW126321   3.051   3.251   2.390
 8474SOL    HW226322   3.158   3.327   2.487
 8475SOL     OW26323   0.415   2.422   3.172
 8475SOL    HW126324   0.380   2.407   3.264
 8475SOL    HW226325   0.421   2.335   3.124
 8476SOL     OW26326   6.369   1.736   1.065
 8476SOL    HW126327   6.397   1.769   0.974
 8476SOL    HW226328   6.365   1.813   1.128
 8477SOL     OW26329   4.339   6.898   1.892
 8477SOL    HW126330   4.347   6.870   1.987
 8477SOL    HW226331   4.397   6.977   1.875
 8478SOL     OW26332   0.910   0.456   6.272
 8478SOL    HW126333   0.925   0.389   6.199
 8478SOL    HW226334   0.923   0.413   6.361
 8479SOL     OW26335   6.301   2.344   1.508
 8479SOL    HW126336   6.275   2.407   1.436
 8479SOL    HW226337   6.228   2.338   1.576
 8480SOL     OW26338   4.596   1.301   0.068
 8480SOL    HW126339   4.596   1.362   0.148
 8480SOL    HW226340   4.685   1.257   0.061
 8481SOL     OW26341   4.964   2.262   3.893
 8481SOL    HW126342   5.020   2.275   3.811
 8481SOL    HW226343   4.878   2.313   3.883
 8482SOL     OW26344   4.452   6.495   2.614
 8482SOL    HW126345   4.437   6.594   2.610
 8482SOL    HW226346   4.364   6.448   2.619
 8483SOL     OW26347   4.064   6.292   1.908
 8483SOL    HW126348   4.057   6.347   1.825
 8483SOL    HW226349   4.151   6.312   1.954
 8484SOL     OW26350   0.785   5.643   2.902
 8484SOL    HW126351   0.848   5.585   2.851
 8484SOL    HW226352   0.721   5.686   2.838
 8485SOL     OW26353   2.977   3.074   0.314
 8485SOL    HW126354   2.927   3.047   0.397
 8485SOL    HW226355   3.058   3.017   0.304
 8486SOL     OW26356   4.706   0.967   2.857
 8486SOL    HW126357   4.651   0.895   2.899
 8486SOL    HW226358   4.743   0.934   2.769
 8487SOL     OW26359   5.481   1.208   6.376
 8487SOL    HW126360   5.560   1.255   6.417
 8487SOL    HW226361   5.442   1.145   6.444
 8488SOL     OW26362   5.697   4.855   5.605
 8488SOL    HW126363   5.694   4.777   5.542
 8488SOL    HW226364   5.674   4.823   5.697
 8489SOL     OW26365   6.629   1.019   0.522
 8489SOL    HW126366   6.532   1.018   0.546
 8489SOL    HW226367   6.656   0.931   0.483
 8490SOL     OW26368   4.088   6.597   4.559
 8490SOL    HW126369   4.182   6.565   4.566
 8490SOL    HW226370   4.088   6.691   4.522
 8491SOL     OW26371   2.429   6.891   0.957
 8491SOL    HW126372   2.375   6.812   0.927
 8491SOL    HW226373   2.515   6.859   0.997
 8492SOL     OW26374   4.466   4.486   6.454
 8492SOL    HW126375   4.564   4.481   6.436
 8492SOL    HW226376   4.439   4.410   6.513
 8493SOL     OW26377   2.700   2.272   6.123
 8493SOL    HW126378   2.697   2.234   6.216
 8493SOL    HW226379   2.744   2.207   6.061
 8494SOL     OW26380   2.867   4.555   1.034
 8494SOL    HW126381   2.834   4.498   1.109
 8494SOL    HW226382   2.922   4.630   1.070
 8495SOL     OW26383   6.416   4.123   1.282
 8495SOL    HW126384   6.427   4.024   1.272
 8495SOL    HW226385   6.324   4.149   1.253
 8496SOL     OW26386   1.005   1.842   2.014
 8496SOL    HW126387   1.060   1.791   2.080
 8496SOL    HW226388   1.029   1.814   1.921
 8497SOL     OW26389   6.289   1.072   3.676
 8497SOL    HW126390   6.300   0.984   3.722
 8497SOL    HW226391   6.224   1.063   3.601
 8498SOL     OW26392   0.357   6.092   2.679
 8498SOL    HW126393   0.379   5.994   2.687
 8498SOL    HW226394   0.442   6.144   2.670
 8499SOL     OW26395   2.575   5.324   6.623
 8499SOL    HW126396   2.614   5.375   6.700
 8499SOL    HW226397   2.620   5.351   6.539
 8500SOL     OW26398   2.441   6.818   5.333
 8500SOL    HW126399   2.535   6.852   5.343
 8500SOL    HW226400   2.398   6.861   5.254
 8501SOL     OW26401   0.341   2.240   6.729
 8501SOL    HW126402   0.405   2.213   6.657
 8501SOL    HW226403   0.247   2.236   6.694
 8502SOL     OW26404   1.504   4.638   1.674
 8502SOL    HW126405   1.600   4.661   1.686
 8502SOL    HW226406   1.449   4.722   1.676
 8503SOL     OW26407   1.498   6.690   3.678
 8503SOL    HW126408   1.398   6.687   3.673
 8503SOL    HW226409   1.536   6.634   3.605
 8504SOL     OW26410   2.647   5.430   3.457
 8504SOL    HW126411   2.600   5.510   3.420
 8504SOL    HW226412   2.677   5.371   3.381
 8505SOL     OW26413   4.908   4.042   4.017
 8505SOL    HW126414   4.885   4.051   3.920
 8505SOL    HW226415   4.969   3.964   4.030
 8506SOL     OW26416   6.529   1.271   0.137
 8506SOL    HW126417   6.590   1.234   0.067
 8506SOL    HW226418   6.447   1.309   0.094
 8507SOL     OW26419   3.660   0.823   5.350
 8507SOL    HW126420   3.692   0.764   5.276
 8507SOL    HW226421   3.622   0.767   5.423
 8508SOL     OW26422   6.615   2.054   4.914
 8508SOL    HW126423   6.541   2.038   4.979
 8508SOL    HW226424   6.683   2.114   4.956
 8509SOL     OW26425   4.850   1.776   3.581
 8509SOL    HW126426   4.929   1.739   3.532
 8509SOL    HW226427   4.822   1.712   3.652
 8510SOL     OW26428   5.442   4.334   3.680
 8510SOL    HW126429   5.534   4.333   3.642
 8510SOL    HW226430   5.436   4.269   3.756
 8511SOL     OW26431   5.906   4.173   1.917
 8511SOL    HW126432   5.974   4.225   1.969
 8511SOL    HW226433   5.850   4.236   1.863
 8512SOL     OW26434   3.370   1.976   1.138
 8512SOL    HW126435   3.388   1.964   1.041
 8512SOL    HW226436   3.411   1.901   1.189
 8513SOL     OW26437   4.886   4.125   1.655
 8513SOL    HW126438   4.918   4.031   1.646
 8513SOL    HW226439   4.865   4.145   1.751
 8514SOL     OW26440   3.085   2.177   3.780
 8514SOL    HW126441   3.047   2.248   3.721
 8514SOL    HW226442   3.081   2.208   3.876
 8515SOL     OW26443   5.656   1.098   6.999
 8515SOL    HW126444   5.741   1.060   6.962
 8515SOL    HW226445   5.617   1.034   0.043
 8516SOL     OW26446   6.542   1.406   1.626
 8516SOL    HW126447   6.557   1.472   1.700
 8516SOL    HW226448   6.571   1.447   1.540
 8517SOL     OW26449   1.669   3.412   6.806
 8517SOL    HW126450   1.712   3.429   6.718
 8517SOL    HW226451   1.570   3.419   6.798
 8518SOL     OW26452   4.811   4.595   6.427
 8518SOL    HW126453   4.754   4.630   6.501
 8518SOL    HW226454   4.896   4.647   6.423
 8519SOL     OW26455   1.082   4.083   1.648
 8519SOL    HW126456   1.045   4.036   1.728
 8519SOL    HW226457   1.068   4.027   1.567
 8520SOL     OW26458   3.415   3.363   0.211
 8520SOL    HW126459   3.323   3.395   0.188
 8520SOL    HW226460   3.440   3.289   0.149
 8521SOL     OW26461   2.405   5.069   5.863
 8521SOL    HW126462   2.320   5.120   5.879
 8521SOL    HW226463   2.385   4.984   5.815
 8522SOL     OW26464   1.437   6.226   0.979
 8522SOL    HW126465   1.457   6.300   1.044
 8522SOL    HW226466   1.379   6.260   0.906
 8523SOL     OW26467   2.064   6.301   6.817
 8523SOL    HW126468   2.067   6.397   6.847
 8523SOL    HW226469   2.125   6.246   6.874
 8524SOL     OW26470   0.464   2.967   5.825
 8524SOL    HW126471   0.472   2.941   5.729
 8524SOL    HW226472   0.489   3.063   5.837
 8525SOL     OW26473   6.001   4.481   1.800
 8525SOL    HW126474   6.034   4.444   1.887
 8525SOL    HW226475   6.072   4.471   1.731
 8526SOL     OW26476   4.440   6.440   6.810
 8526SOL    HW126477   4.529   6.400   6.833
 8526SOL    HW226478   4.450   6.499   6.729
 8527SOL     OW26479   2.485   0.944   6.426
 8527SOL    HW126480   2.583   0.961   6.417
 8527SOL    HW226481   2.451   0.902   6.342
 8528SOL     OW26482   3.600   1.535   6.861
 8528SOL    HW126483   3.680   1.484   6.830
 8528SOL    HW226484   3.575   1.603   6.792
 8529SOL     OW26485   0.922   0.161   0.898
 8529SOL    HW126486   0.887   0.151   0.992
 8529SOL    HW226487   1.022   0.166   0.900
 8530SOL     OW26488   3.491   4.472   5.655
 8530SOL    HW126489   3.525   4.518   5.573
 8530SOL    HW226490   3.443   4.388   5.629
 8531SOL     OW26491   6.440   4.873   2.331
 8531SOL    HW126492   6.527   4.888   2.285
 8531SOL    HW226493   6.455   4.864   2.429
 8532SOL     OW26494   4.127   4.794   4.654
 8532SOL    HW126495   4.186   4.723   4.692
 8532SOL    HW226496   4.038   4.792   4.700
 8533SOL     OW26497   1.784   6.931   7.012
 8533SOL    HW126498   1.783   7.000   6.939
 8533SOL    HW226499   1.767   6.841   6.972
 8534SOL     OW26500   6.340   2.420   4.272
 8534SOL    HW126501   6.278   2.433   4.349
 8534SOL    HW226502   6.289   2.429   4.186
 8535SOL     OW26503   6.197   0.914   3.432
 8535SOL    HW126504   6.262   0.982   3.399
 8535SOL    HW226505   6.169   0.855   3.356
 8536SOL     OW26506   6.965   2.367   4.815
 8536SOL    HW126507   6.903   2.309   4.762
 8536SOL    HW226508   6.968   2.334   4.910
 8537SOL     OW26509   5.308   0.794   3.234
 8537SOL    HW126510   5.210   0.811   3.230
 8537SOL    HW226511   5.352   0.836   3.155
 8538SOL     OW26512   0.567   0.953   6.880
 8538SOL    HW126513   0.600   0.971   6.787
 8538SOL    HW226514   0.509   0.872   6.880
 8539SOL     OW26515   5.505   0.890   3.002
 8539SOL    HW126516   5.559   0.825   3.056
 8539SOL    HW226517   5.538   0.891   2.908
 8540SOL     OW26518   5.037   0.232   6.009
 8540SOL    HW126519   5.086   0.297   6.068
 8540SOL    HW226520   4.939   0.254   6.009
 8541SOL     OW26521   2.642   1.488   4.624
 8541SOL    HW126522   2.599   1.563   4.676
 8541SOL    HW226523   2.574   1.417   4.607
 8542SOL     OW26524   4.109   4.637   0.203
 8542SOL    HW126525   4.098   4.721   0.257
 8542SOL    HW226526   4.161   4.658   0.120
 8543SOL     OW26527   3.010   0.889   0.890
 8543SOL    HW126528   2.968   0.840   0.814
 8543SOL    HW226529   3.041   0.979   0.860
 8544SOL     OW26530   5.486   2.942   4.174
 8544SOL    HW126531   5.493   2.843   4.162
 8544SOL    HW226532   5.539   2.970   4.254
 8545SOL     OW26533   4.799   7.008   5.555
 8545SOL    HW126534   4.897   0.004   5.542
 8545SOL    HW226535   4.767   6.944   5.486
 8546SOL     OW26536   6.971   1.500   3.978
 8546SOL    HW126537   6.931   1.413   3.949
 8546SOL    HW226538   6.906   1.574   3.962
 8547SOL     OW26539   1.761   6.666   6.026
 8547SOL    HW126540   1.817   6.623   5.956
 8547SOL    HW226541   1.685   6.604   6.050
 8548SOL     OW26542   5.888   2.231   5.604
 8548SOL    HW126543   5.958   2.196   5.666
 8548SOL    HW226544   5.797   2.205   5.636
 8549SOL     OW26545   1.618   3.050   3.876
 8549SOL    HW126546   1.643   3.142   3.848
 8549SOL    HW226547   1.689   2.985   3.849
 8550SOL     OW26548   1.543   4.445   6.985
 8550SOL    HW126549   1.627   4.499   6.979
 8550SOL    HW226550   1.534   4.407   0.054
 8551SOL     OW26551   3.348   4.145   6.558
 8551SOL    HW126552   3.307   4.074   6.616
 8551SOL    HW226553   3.438   4.114   6.527
 8552SOL     OW26554   2.197   0.238   4.225
 8552SOL    HW126555   2.276   0.298   4.237
 8552SOL    HW226556   2.113   0.292   4.233
 8553SOL     OW26557   4.439   4.670   0.251
 8553SOL    HW126558   4.428   4.575   0.224
 8553SOL    HW226559   4.533   4.685   0.284
 8554SOL     OW26560   0.965   4.688   0.668
 8554SOL    HW126561   0.902   4.657   0.739
 8554SOL    HW226562   0.946   4.784   0.646
 8555SOL     OW26563   2.015   1.380   2.614
 8555SOL    HW126564   2.030   1.463   2.560
 8555SOL    HW226565   1.920   1.350   2.603
 8556SOL     OW26566   1.363   6.518   5.517
 8556SOL    HW126567   1.325   6.455   5.584
 8556SOL    HW226568   1.358   6.477   5.426
 8557SOL     OW26569   5.827   0.339   2.899
 8557SOL    HW126570   5.895   0.266   2.902
 8557SOL    HW226571   5.749   0.314   2.957
 8558SOL     OW26572   3.369   5.152   3.151
 8558SOL    HW126573   3.412   5.063   3.140
 8558SOL    HW226574   3.270   5.141   3.154
 8559SOL     OW26575   0.050   0.634   2.578
 8559SOL    HW126576   0.123   0.624   2.510
 8559SOL    HW226577   0.066   0.717   2.631
 8560SOL     OW26578   6.508   6.051   2.395
 8560SOL    HW126579   6.520   6.091   2.304
 8560SOL    HW226580   6.566   5.970   2.404
 8561SOL     OW26581   3.182   1.054   1.926
 8561SOL    HW126582   3.135   1.124   1.979
 8561SOL    HW226583   3.169   0.965   1.970
 8562SOL     OW26584   3.146   5.018   5.530
 8562SOL    HW126585   3.081   4.950   5.564
 8562SOL    HW226586   3.187   5.066   5.608
 8563SOL     OW26587   2.152   4.268   6.959
 8563SOL    HW126588   2.205   4.216   6.892
 8563SOL    HW226589   2.057   4.274   6.929
 8564SOL     OW26590   3.079   1.316   4.327
 8564SOL    HW126591   3.133   1.251   4.274
 8564SOL    HW226592   2.988   1.326   4.286
 8565SOL     OW26593   4.497   5.564   0.940
 8565SOL    HW126594   4.566   5.631   0.966
 8565SOL    HW226595   4.408   5.609   0.934
 8566SOL     OW26596   1.548   0.813   1.416
 8566SOL    HW126597   1.503   0.725   1.407
 8566SOL    HW226598   1.479   0.884   1.435
 8567SOL     OW26599   0.241   2.230   2.479
 8567SOL    HW126600   0.269   2.189   2.566
 8567SOL    HW226601   0.307   2.301   2.453
 8568SOL     OW26602   5.484   1.075   6.147
 8568SOL    HW126603   5.477   1.126   6.232
 8568SOL    HW226604   5.399   1.085   6.095
 8569SOL     OW26605   4.953   1.351   5.930
 8569SOL    HW126606   4.900   1.399   5.860
 8569SOL    HW226607   4.897   1.277   5.968
 8570SOL     OW26608   1.239   2.949   5.151
 8570SOL    HW126609   1.286   2.865   5.124
 8570SOL    HW226610   1.245   2.960   5.250
 8571SOL     OW26611   1.438   5.509   5.551
 8571SOL    HW126612   1.459   5.576   5.480
 8571SOL    HW226613   1.437   5.555   5.640
 8572SOL     OW26614   3.257   4.889   6.703
 8572SOL    HW126615   3.265   4.950   6.782
 8572SOL    HW226616   3.176   4.914   6.650
 8573SOL     OW26617   3.590   6.409   5.947
 8573SOL    HW126618   3.624   6.465   6.023
 8573SOL    HW226619   3.497   6.437   5.924
 8574SOL     OW26620   6.844   5.731   5.405
 8574SOL    HW126621   6.838   5.650   5.347
 8574SOL    HW226622   6.864   5.811   5.349
 8575SOL     OW26623   2.622   2.330   5.054
 8575SOL    HW126624   2.700   2.344   5.114
 8575SOL    HW226625   2.548   2.286   5.104
 8576SOL     OW26626   1.708   5.338   6.915
 8576SOL    HW126627   1.656   5.256   6.941
 8576SOL    HW226628   1.785   5.349   6.978
 8577SOL     OW26629   6.936   6.056   3.941
 8577SOL    HW126630   6.862   6.110   3.901
 8577SOL    HW226631   7.000   6.029   3.868
 8578SOL     OW26632   5.640   1.430   4.944
 8578SOL    HW126633   5.547   1.412   4.978
 8578SOL    HW226634   5.661   1.527   4.953
 8579SOL     OW26635   1.168   6.932   2.845
 8579SOL    HW126636   1.225   6.997   2.795
 8579SOL    HW226637   1.173   6.951   2.943
 8580SOL     OW26638   3.028   6.126   2.806
 8580SOL    HW126639   3.055   6.222   2.812
 8580SOL    HW226640   2.958   6.106   2.874
 8581SOL     OW26641   3.056   3.412   2.050
 8581SOL    HW126642   2.995   3.417   2.129
 8581SOL    HW226643   3.008   3.442   1.968
 8582SOL     OW26644   4.601   4.451   2.751
 8582SOL    HW126645   4.580   4.517   2.678
 8582SOL    HW226646   4.678   4.485   2.805
 8583SOL     OW26647   5.234   0.713   4.600
 8583SOL    HW126648   5.295   0.636   4.617
 8583SOL    HW226649   5.285   0.786   4.554
 8584SOL     OW26650   0.731   4.098   5.891
 8584SOL    HW126651   0.682   4.056   5.967
 8584SOL    HW226652   0.816   4.048   5.874
 8585SOL     OW26653   0.537   6.048   6.202
 8585SOL    HW126654   0.444   6.013   6.212
 8585SOL    HW226655   0.587   6.037   6.288
 8586SOL     OW26656   2.655   0.031   3.181
 8586SOL    HW126657   2.738   6.998   3.173
 8586SOL    HW226658   2.678   0.123   3.211
 8587SOL     OW26659   1.803   0.298   3.159
 8587SOL    HW126660   1.831   0.250   3.242
 8587SOL    HW226661   1.831   0.394   3.165
 8588SOL     OW26662   2.423   0.497   0.332
 8588SOL    HW126663   2.417   0.519   0.235
 8588SOL    HW226664   2.473   0.410   0.343
 8589SOL     OW26665   5.087   2.835   4.821
 8589SOL    HW126666   5.070   2.737   4.819
 8589SOL    HW226667   5.061   2.872   4.910
 8590SOL     OW26668   0.129   6.311   3.965
 8590SOL    HW126669   0.181   6.367   3.900
 8590SOL    HW226670   0.120   6.218   3.928
 8591SOL     OW26671   6.628   4.519   6.903
 8591SOL    HW126672   6.674   4.549   6.819
 8591SOL    HW226673   6.697   4.501   6.974
 8592SOL     OW26674   6.946   2.865   6.640
 8592SOL    HW126675   7.006   2.795   6.679
 8592SOL    HW226676   6.931   2.938   6.707
 8593SOL     OW26677   2.648   0.018   1.786
 8593SOL    HW126678   2.628   0.102   1.735
 8593SOL    HW226679   2.562   6.993   1.808
 8594SOL     OW26680   3.570   2.763   5.171
 8594SOL    HW126681   3.587   2.681   5.116
 8594SOL    HW226682   3.473   2.769   5.192
 8595SOL     OW26683   1.530   2.618   2.977
 8595SOL    HW126684   1.533   2.560   2.896
 8595SOL    HW226685   1.497   2.565   3.055
 8596SOL     OW26686   6.226   5.281   3.593
 8596SOL    HW126687   6.168   5.338   3.652
 8596SOL    HW226688   6.198   5.186   3.602
 8597SOL     OW26689   4.200   0.952   0.715
 8597SOL    HW126690   4.285   0.978   0.669
 8597SOL    HW226691   4.139   0.908   0.650
 8598SOL     OW26692   6.860   6.477   1.100
 8598SOL    HW126693   6.786   6.409   1.097
 8598SOL    HW226694   6.855   6.528   1.186
 8599SOL     OW26695   1.251   2.619   4.237
 8599SOL    HW126696   1.294   2.532   4.258
 8599SOL    HW226697   1.164   2.603   4.191
 8600SOL     OW26698   4.906   5.140   6.116
 8600SOL    HW126699   4.832   5.207   6.107
 8600SOL    HW226700   4.965   5.144   6.035
 8601SOL     OW26701   0.962   0.731   4.888
 8601SOL    HW126702   0.970   0.758   4.983
 8601SOL    HW226703   0.883   0.670   4.877
 8602SOL     OW26704   3.427   5.450   3.204
 8602SOL    HW126705   3.398   5.464   3.299
 8602SOL    HW226706   3.417   5.354   3.180
 8603SOL     OW26707   3.869   5.259   0.734
 8603SOL    HW126708   3.828   5.196   0.799
 8603SOL    HW226709   3.829   5.244   0.643
 8604SOL     OW26710   0.731   3.154   3.699
 8604SOL    HW126711   0.675   3.120   3.775
 8604SOL    HW226712   0.812   3.097   3.688
 8605SOL     OW26713   2.890   5.603   4.901
 8605SOL    HW126714   2.934   5.648   4.979
 8605SOL    HW226715   2.919   5.647   4.816
 8606SOL     OW26716   1.314   3.082   6.228
 8606SOL    HW126717   1.282   3.096   6.134
 8606SOL    HW226718   1.357   3.166   6.261
 8607SOL     OW26719   3.588   6.059   1.121
 8607SOL    HW126720   3.585   5.960   1.130
 8607SOL    HW226721   3.554   6.086   1.031
 8608SOL     OW26722   4.388   5.405   3.037
 8608SOL    HW126723   4.428   5.448   3.118
 8608SOL    HW226724   4.340   5.321   3.063
 8609SOL     OW26725   5.716   0.756   3.399
 8609SOL    HW126726   5.623   0.743   3.432
 8609SOL    HW226727   5.754   0.669   3.369
 8610SOL     OW26728   1.761   2.256   2.677
 8610SOL    HW126729   1.860   2.249   2.664
 8610SOL    HW226730   1.724   2.165   2.695
 8611SOL     OW26731   2.668   1.716   4.416
 8611SOL    HW126732   2.767   1.729   4.424
 8611SOL    HW226733   2.641   1.635   4.468
 8612SOL     OW26734   3.722   3.209   0.840
 8612SOL    HW126735   3.631   3.247   0.855
 8612SOL    HW226736   3.766   3.193   0.929
 8613SOL     OW26737   2.254   1.880   0.971
 8613SOL    HW126738   2.350   1.904   0.954
 8613SOL    HW226739   2.249   1.814   1.045
 8614SOL     OW26740   1.100   3.474   2.372
 8614SOL    HW126741   1.064   3.381   2.380
 8614SOL    HW226742   1.194   3.471   2.337
 8615SOL     OW26743   5.163   1.894   5.337
 8615SOL    HW126744   5.064   1.903   5.326
 8615SOL    HW226745   5.184   1.865   5.430
 8616SOL     OW26746   3.080   4.848   1.634
 8616SOL    HW126747   3.067   4.895   1.546
 8616SOL    HW226748   2.998   4.796   1.656
 8617SOL     OW26749   0.001   0.760   6.326
 8617SOL    HW126750   0.050   0.716   6.401
 8617SOL    HW226751   6.926   0.766   6.348
 8618SOL     OW26752   6.208   6.105   0.905
 8618SOL    HW126753   6.191   6.016   0.864
 8618SOL    HW226754   6.279   6.153   0.853
 8619SOL     OW26755   3.933   4.807   2.248
 8619SOL    HW126756   3.844   4.820   2.292
 8619SOL    HW226757   3.921   4.799   2.149
 8620SOL     OW26758   0.818   0.239   3.760
 8620SOL    HW126759   0.802   0.337   3.758
 8620SOL    HW226760   0.901   0.219   3.811
 8621SOL     OW26761   6.166   1.512   2.783
 8621SOL    HW126762   6.067   1.523   2.769
 8621SOL    HW226763   6.193   1.418   2.761
 8622SOL     OW26764   4.690   2.883   0.293
 8622SOL    HW126765   4.649   2.882   0.202
 8622SOL    HW226766   4.759   2.810   0.300
 8623SOL     OW26767   0.783   3.964   3.467
 8623SOL    HW126768   0.759   4.051   3.425
 8623SOL    HW226769   0.788   3.893   3.397
 8624SOL     OW26770   0.533   3.883   4.886
 8624SOL    HW126771   0.605   3.813   4.882
 8624SOL    HW226772   0.573   3.971   4.911
 8625SOL     OW26773   4.326   0.264   5.602
 8625SOL    HW126774   4.279   0.302   5.681
 8625SOL    HW226775   4.349   0.169   5.619
 8626SOL     OW26776   3.804   2.793   5.310
 8626SOL    HW126777   3.730   2.817   5.248
 8626SOL    HW226778   3.805   2.694   5.325
 8627SOL     OW26779   0.554   1.296   3.396
 8627SOL    HW126780   0.469   1.328   3.354
 8627SOL    HW226781   0.557   1.196   3.392
 8628SOL     OW26782   6.191   6.441   1.618
 8628SOL    HW126783   6.150   6.498   1.547
 8628SOL    HW226784   6.126   6.369   1.644
 8629SOL     OW26785   1.254   4.745   5.232
 8629SOL    HW126786   1.228   4.809   5.305
 8629SOL    HW226787   1.172   4.702   5.195
 8630SOL     OW26788   5.085   4.231   3.451
 8630SOL    HW126789   4.989   4.259   3.444
 8630SOL    HW226790   5.091   4.132   3.462
 8631SOL     OW26791   2.332   5.986   5.772
 8631SOL    HW126792   2.327   5.944   5.863
 8631SOL    HW226793   2.374   5.921   5.708
 8632SOL     OW26794   3.477   6.013   4.000
 8632SOL    HW126795   3.427   5.926   4.007
 8632SOL    HW226796   3.540   6.009   3.922
 8633SOL     OW26797   5.498   1.969   5.008
 8633SOL    HW126798   5.472   1.883   5.051
 8633SOL    HW226799   5.440   2.042   5.042
 8634SOL     OW26800   5.404   3.523   0.065
 8634SOL    HW126801   5.458   3.545   7.005
 8634SOL    HW226802   5.404   3.424   0.078
 8635SOL     OW26803   5.768   4.321   6.382
 8635SOL    HW126804   5.700   4.360   6.443
 8635SOL    HW226805   5.724   4.295   6.296
 8636SOL     OW26806   5.340   6.021   0.522
 8636SOL    HW126807   5.306   5.969   0.600
 8636SOL    HW226808   5.272   6.089   0.495
 8637SOL     OW26809   2.005   1.157   0.166
 8637SOL    HW126810   1.922   1.104   0.147
 8637SOL    HW226811   2.021   1.223   0.092
 8638SOL     OW26812   3.011   2.992   6.626
 8638SOL    HW126813   2.993   3.009   6.723
 8638SOL    HW226814   3.007   2.894   6.608
 8639SOL     OW26815   5.101   2.168   1.534
 8639SOL    HW126816   5.140   2.258   1.513
 8639SOL    HW226817   5.019   2.153   1.480
 8640SOL     OW26818   4.471   3.900   0.753
 8640SOL    HW126819   4.487   3.874   0.658
 8640SOL    HW226820   4.458   3.818   0.809
 8641SOL     OW26821   5.718   5.185   4.013
 8641SOL    HW126822   5.623   5.214   3.998
 8641SOL    HW226823   5.747   5.213   4.105
 8642SOL     OW26824   2.702   0.296   3.266
 8642SOL    HW126825   2.740   0.338   3.184
 8642SOL    HW226826   2.727   0.350   3.346
 8643SOL     OW26827   3.054   0.710   6.679
 8643SOL    HW126828   3.028   0.656   6.599
 8643SOL    HW226829   3.103   0.792   6.650
 8644SOL     OW26830   4.666   2.204   5.588
 8644SOL    HW126831   4.662   2.128   5.523
 8644SOL    HW226832   4.586   2.201   5.648
 8645SOL     OW26833   4.465   4.605   1.173
 8645SOL    HW126834   4.465   4.704   1.158
 8645SOL    HW226835   4.372   4.570   1.163
 8646SOL     OW26836   6.115   1.063   2.000
 8646SOL    HW126837   6.174   1.030   1.926
 8646SOL    HW226838   6.071   1.148   1.972
 8647SOL     OW26839   2.299   5.592   5.717
 8647SOL    HW126840   2.382   5.549   5.682
 8647SOL    HW226841   2.324   5.669   5.777
 8648SOL     OW26842   6.404   0.801   3.661
 8648SOL    HW126843   6.465   0.829   3.587
 8648SOL    HW226844   6.328   0.747   3.623
 8649SOL     OW26845   5.345   4.485   5.923
 8649SOL    HW126846   5.354   4.572   5.875
 8649SOL    HW226847   5.407   4.418   5.883
 8650SOL     OW26848   2.139   4.882   6.223
 8650SOL    HW126849   2.238   4.887   6.208
 8650SOL    HW226850   2.097   4.828   6.150
 8651SOL     OW26851   3.861   0.672   0.702
 8651SOL    HW126852   3.950   0.691   0.745
 8651SOL    HW226853   3.864   0.582   0.659
 8652SOL     OW26854   1.792   3.685   3.920
 8652SOL    HW126855   1.810   3.598   3.967
 8652SOL    HW226856   1.846   3.689   3.836
 8653SOL     OW26857   6.168   1.210   6.381
 8653SOL    HW126858   6.254   1.259   6.368
 8653SOL    HW226859   6.162   1.176   6.475
 8654SOL     OW26860   0.918   4.930   1.201
 8654SOL    HW126861   0.976   4.873   1.144
 8654SOL    HW226862   0.846   4.875   1.244
 8655SOL     OW26863   6.411   1.483   3.818
 8655SOL    HW126864   6.431   1.447   3.728
 8655SOL    HW226865   6.464   1.434   3.887
 8656SOL     OW26866   6.480   1.098   0.817
 8656SOL    HW126867   6.465   1.069   0.723
 8656SOL    HW226868   6.400   1.076   0.873
 8657SOL     OW26869   5.288   4.520   0.432
 8657SOL    HW126870   5.322   4.429   0.455
 8657SOL    HW226871   5.245   4.517   0.342
 8658SOL     OW26872   4.015   6.663   0.229
 8658SOL    HW126873   3.917   6.657   0.212
 8658SOL    HW226874   4.061   6.587   0.183
 8659SOL     OW26875   4.590   1.342   3.195
 8659SOL    HW126876   4.555   1.404   3.124
 8659SOL    HW226877   4.672   1.296   3.161
 8660SOL     OW26878   5.538   3.712   0.502
 8660SOL    HW126879   5.565   3.777   0.574
 8660SOL    HW226880   5.459   3.659   0.533
 8661SOL     OW26881   5.976   4.337   1.009
 8661SOL    HW126882   6.062   4.297   1.040
 8661SOL    HW226883   5.923   4.268   0.961
 8662SOL     OW26884   4.422   5.977   0.854
 8662SOL    HW126885   4.332   6.007   0.825
 8662SOL    HW226886   4.480   5.962   0.774
 8663SOL     OW26887   2.791   5.841   1.430
 8663SOL    HW126888   2.748   5.790   1.505
 8663SOL    HW226889   2.832   5.925   1.465
 8664SOL     OW26890   2.975   6.561   1.191
 8664SOL    HW126891   2.995   6.588   1.285
 8664SOL    HW226892   2.987   6.462   1.181
 8665SOL     OW26893   5.721   6.180   4.899
 8665SOL    HW126894   5.673   6.119   4.836
 8665SOL    HW226895   5.692   6.162   4.993
 8666SOL     OW26896   4.971   1.486   3.975
 8666SOL    HW126897   4.940   1.508   4.068
 8666SOL    HW226898   4.976   1.387   3.965
 8667SOL     OW26899   5.010   2.227   3.088
 8667SOL    HW126900   5.107   2.207   3.100
 8667SOL    HW226901   4.998   2.325   3.074
 8668SOL     OW26902   5.692   4.120   3.365
 8668SOL    HW126903   5.681   4.106   3.463
 8668SOL    HW226904   5.789   4.111   3.341
 8669SOL     OW26905   2.524   6.106   7.012
 8669SOL    HW126906   2.484   6.182   0.040
 8669SOL    HW226907   2.525   6.024   0.047
 8670SOL     OW26908   3.527   4.607   5.326
 8670SOL    HW126909   3.496   4.520   5.287
 8670SOL    HW226910   3.461   4.679   5.304
 8671SOL     OW26911   5.601   2.162   3.314
 8671SOL    HW126912   5.630   2.256   3.331
 8671SOL    HW226913   5.567   2.121   3.398
 8672SOL     OW26914   2.059   4.949   3.721
 8672SOL    HW126915   2.155   4.971   3.704
 8672SOL    HW226916   2.003   5.032   3.709
 8673SOL     OW26917   6.075   2.576   0.612
 8673SOL    HW126918   6.156   2.575   0.671
 8673SOL    HW226919   5.994   2.596   0.668
 8674SOL     OW26920   5.384   5.480   3.527
 8674SOL    HW126921   5.377   5.399   3.468
 8674SOL    HW226922   5.309   5.478   3.594
 8675SOL     OW26923   3.271   2.163   4.303
 8675SOL    HW126924   3.182   2.202   4.278
 8675SOL    HW226925   3.263   2.116   4.391
 8676SOL     OW26926   4.142   0.370   2.391
 8676SOL    HW126927   4.142   0.270   2.395
 8676SOL    HW226928   4.121   0.407   2.482
 8677SOL     OW26929   2.402   5.827   5.561
 8677SOL    HW126930   2.383   5.730   5.552
 8677SOL    HW226931   2.332   5.880   5.514
 8678SOL     OW26932   6.350   0.485   1.118
 8678SOL    HW126933   6.269   0.477   1.176
 8678SOL    HW226934   6.426   0.433   1.159
 8679SOL     OW26935   6.968   2.569   3.287
 8679SOL    HW126936   6.885   2.618   3.263
 8679SOL    HW226937   6.971   2.556   3.387
 8680SOL     OW26938   1.039   3.785   1.029
 8680SOL    HW126939   0.981   3.833   1.094
 8680SOL    HW226940   1.001   3.794   0.937
 8681SOL     OW26941   4.932   5.360   0.234
 8681SOL    HW126942   4.913   5.392   0.327
 8681SOL    HW226943   4.958   5.264   0.237
 8682SOL     OW26944   5.745   6.924   1.448
 8682SOL    HW126945   5.828   6.976   1.431
 8682SOL    HW226946   5.665   6.983   1.437
 8683SOL     OW26947   2.058   2.463   2.718
 8683SOL    HW126948   1.984   2.505   2.665
 8683SOL    HW226949   2.146   2.489   2.679
 8684SOL     OW26950   0.598   2.930   5.107
 8684SOL    HW126951   0.534   2.877   5.051
 8684SOL    HW226952   0.626   3.012   5.056
 8685SOL     OW26953   0.781   1.914   6.086
 8685SOL    HW126954   0.726   1.911   6.002
 8685SOL    HW226955   0.876   1.893   6.064
 8686SOL     OW26956   0.194   1.229   1.522
 8686SOL    HW126957   0.195   1.180   1.610
 8686SOL    HW226958   0.264   1.300   1.523
 8687SOL     OW26959   4.380   5.299   1.991
 8687SOL    HW126960   4.450   5.338   1.930
 8687SOL    HW226961   4.356   5.366   2.061
 8688SOL     OW26962   3.131   5.749   0.020
 8688SOL    HW126963   3.058   5.818   0.020
 8688SOL    HW226964   3.215   5.789   0.055
 8689SOL     OW26965   3.712   3.753   1.613
 8689SOL    HW126966   3.712   3.765   1.712
 8689SOL    HW226967   3.688   3.658   1.591
 8690SOL     OW26968   1.498   3.023   3.017
 8690SOL    HW126969   1.426   2.978   3.070
 8690SOL    HW226970   1.585   2.979   3.034
 8691SOL     OW26971   3.424   2.006   6.515
 8691SOL    HW126972   3.374   1.927   6.551
 8691SOL    HW226973   3.453   1.987   6.422
 8692SOL     OW26974   1.975   1.546   4.067
 8692SOL    HW126975   1.922   1.630   4.059
 8692SOL    HW226976   1.941   1.478   4.002
 8693SOL     OW26977   6.718   0.919   6.917
 8693SOL    HW126978   6.708   1.012   6.953
 8693SOL    HW226979   6.797   0.916   6.856
 8694SOL     OW26980   4.573   1.142   4.900
 8694SOL    HW126981   4.668   1.164   4.921
 8694SOL    HW226982   4.551   1.174   4.808
 8695SOL     OW26983   3.660   2.515   6.014
 8695SOL    HW126984   3.651   2.415   6.013
 8695SOL    HW226985   3.585   2.554   6.067
 8696SOL     OW26986   2.448   5.608   0.466
 8696SOL    HW126987   2.418   5.560   0.384
 8696SOL    HW226988   2.526   5.666   0.445
 8697SOL     OW26989   6.681   2.558   0.444
 8697SOL    HW126990   6.602   2.499   0.463
 8697SOL    HW226991   6.650   2.653   0.435
 8698SOL     OW26992   5.697   5.709   4.664
 8698SOL    HW126993   5.709   5.775   4.590
 8698SOL    HW226994   5.673   5.620   4.625
 8699SOL     OW26995   2.785   2.332   5.670
 8699SOL    HW126996   2.777   2.431   5.657
 8699SOL    HW226997   2.844   2.294   5.599
 8700SOL     OW26998   0.955   0.694   4.546
 8700SOL    HW126999   0.877   0.753   4.568
 8700SOL    HW227000   1.029   0.712   4.612
 8701SOL     OW27001   0.701   1.299   0.630
 8701SOL    HW127002   0.694   1.333   0.537
 8701SOL    HW227003   0.797   1.284   0.653
 8702SOL     OW27004   4.832   4.958   1.316
 8702SOL    HW127005   4.912   4.904   1.343
 8702SOL    HW227006   4.767   4.961   1.392
 8703SOL     OW27007   3.008   4.657   0.328
 8703SOL    HW127008   3.091   4.603   0.340
 8703SOL    HW227009   3.009   4.735   0.391
 8704SOL     OW27010   0.123   3.602   3.148
 8704SOL    HW127011   0.028   3.575   3.130
 8704SOL    HW227012   0.138   3.696   3.117
 8705SOL     OW27013   4.997   0.830   6.376
 8705SOL    HW127014   5.034   0.790   6.460
 8705SOL    HW227015   4.906   0.868   6.395
 8706SOL     OW27016   4.288   2.005   6.477
 8706SOL    HW127017   4.375   1.976   6.515
 8706SOL    HW227018   4.297   2.017   6.378
 8707SOL     OW27019   6.987   2.676   6.840
 8707SOL    HW127020   6.917   2.730   6.888
 8707SOL    HW227021   7.007   2.593   6.893
 8708SOL     OW27022   4.988   2.466   2.277
 8708SOL    HW127023   5.041   2.542   2.239
 8708SOL    HW227024   4.946   2.495   2.363
 8709SOL     OW27025   6.832   6.053   0.366
 8709SOL    HW127026   6.870   6.052   0.274
 8709SOL    HW227027   6.735   6.080   0.361
 8710SOL     OW27028   2.066   3.012   4.162
 8710SOL    HW127029   2.060   2.955   4.244
 8710SOL    HW227030   2.070   3.108   4.188
 8711SOL     OW27031   1.493   6.469   3.007
 8711SOL    HW127032   1.465   6.404   2.937
 8711SOL    HW227033   1.435   6.550   3.003
 8712SOL     OW27034   4.069   2.147   5.048
 8712SOL    HW127035   4.091   2.244   5.048
 8712SOL    HW227036   4.120   2.100   4.976
 8713SOL     OW27037   0.533   3.367   4.108
 8713SOL    HW127038   0.590   3.409   4.178
 8713SOL    HW227039   0.558   3.404   4.018
 8714SOL     OW27040   1.023   1.229   5.928
 8714SOL    HW127041   0.925   1.232   5.948
 8714SOL    HW227042   1.046   1.140   5.887
 8715SOL     OW27043   4.344   0.449   1.263
 8715SOL    HW127044   4.301   0.502   1.336
 8715SOL    HW227045   4.438   0.426   1.290
 8716SOL     OW27046   0.313   0.207   1.050
 8716SOL    HW127047   0.401   0.187   1.007
 8716SOL    HW227048   0.300   0.145   1.128
 8717SOL     OW27049   3.585   3.492   3.854
 8717SOL    HW127050   3.664   3.440   3.820
 8717SOL    HW227051   3.519   3.503   3.780
 8718SOL     OW27052   0.739   3.713   4.969
 8718SOL    HW127053   0.825   3.672   4.940
 8718SOL    HW227054   0.676   3.641   5.001
 8719SOL     OW27055   2.973   0.595   6.435
 8719SOL    HW127056   2.948   0.651   6.356
 8719SOL    HW227057   2.932   0.504   6.426
 8720SOL     OW27058   6.302   4.880   5.946
 8720SOL    HW127059   6.226   4.899   5.885
 8720SOL    HW227060   6.278   4.805   6.008
 8721SOL     OW27061   0.218   2.590   2.237
 8721SOL    HW127062   0.118   2.589   2.240
 8721SOL    HW227063   0.248   2.634   2.153
 8722SOL     OW27064   4.209   1.412   6.930
 8722SOL    HW127065   4.187   1.357   7.010
 8722SOL    HW227066   4.308   1.423   6.923
 8723SOL     OW27067   4.696   5.386   1.181
 8723SOL    HW127068   4.766   5.399   1.112
 8723SOL    HW227069   4.648   5.472   1.198
 8724SOL     OW27070   4.972   0.461   5.740
 8724SOL    HW127071   5.056   0.504   5.775
 8724SOL    HW227072   4.991   0.365   5.719
 8725SOL     OW27073   1.476   6.877   6.807
 8725SOL    HW127074   1.559   6.907   6.758
 8725SOL    HW227075   1.452   6.946   6.875
 8726SOL     OW27076   6.478   0.377   1.801
 8726SOL    HW127077   6.518   0.466   1.782
 8726SOL    HW227078   6.534   0.329   1.869
 8727SOL     OW27079   0.247   6.108   2.361
 8727SOL    HW127080   0.191   6.179   2.318
 8727SOL    HW227081   0.276   6.139   2.451
 8728SOL     OW27082   5.331   0.046   3.622
 8728SOL    HW127083   5.416   0.084   3.657
 8728SOL    HW227084   5.322   0.069   3.525
 8729SOL     OW27085   4.297   5.898   4.700
 8729SOL    HW127086   4.283   5.935   4.609
 8729SOL    HW227087   4.342   5.809   4.693
 8730SOL     OW27088   6.228   3.880   2.234
 8730SOL    HW127089   6.225   3.893   2.135
 8730SOL    HW227090   6.282   3.799   2.256
 8731SOL     OW27091   2.588   2.460   2.827
 8731SOL    HW127092   2.623   2.553   2.830
 8731SOL    HW227093   2.647   2.403   2.770
 8732SOL     OW27094   5.592   4.631   1.482
 8732SOL    HW127095   5.529   4.687   1.429
 8732SOL    HW227096   5.590   4.659   1.578
 8733SOL     OW27097   1.788   5.743   1.266
 8733SOL    HW127098   1.861   5.785   1.211
 8733SOL    HW227099   1.829   5.692   1.341
 8734SOL     OW27100   1.830   4.720   2.258
 8734SOL    HW127101   1.855   4.798   2.202
 8734SOL    HW227102   1.767   4.749   2.330
 8735SOL     OW27103   1.040   2.511   0.478
 8735SOL    HW127104   1.140   2.505   0.474
 8735SOL    HW227105   1.010   2.497   0.572
 8736SOL     OW27106   1.091   6.121   6.239
 8736SOL    HW127107   1.100   6.077   6.328
 8736SOL    HW227108   1.035   6.204   6.248
 8737SOL     OW27109   2.105   6.807   6.032
 8737SOL    HW127110   2.043   6.843   6.102
 8737SOL    HW227111   2.199   6.827   6.057
 8738SOL     OW27112   2.358   5.737   4.426
 8738SOL    HW127113   2.322   5.661   4.372
 8738SOL    HW227114   2.365   5.710   4.522
 8739SOL     OW27115   5.734   5.478   5.804
 8739SOL    HW127116   5.725   5.565   5.754
 8739SOL    HW227117   5.746   5.497   5.901
 8740SOL     OW27118   4.862   1.187   5.017
 8740SOL    HW127119   4.823   1.096   5.032
 8740SOL    HW227120   4.960   1.185   5.034
 8741SOL     OW27121   2.800   1.584   1.774
 8741SOL    HW127122   2.883   1.624   1.735
 8741SOL    HW227123   2.721   1.638   1.747
 8742SOL     OW27124   5.924   6.221   0.899
 8742SOL    HW127125   6.008   6.169   0.913
 8742SOL    HW227126   5.883   6.196   0.811
 8743SOL     OW27127   1.545   0.427   2.168
 8743SOL    HW127128   1.476   0.362   2.137
 8743SOL    HW227129   1.507   0.520   2.165
 8744SOL     OW27130   3.147   2.691   6.359
 8744SOL    HW127131   3.132   2.593   6.348
 8744SOL    HW227132   3.240   2.708   6.391
 8745SOL     OW27133   5.708   3.017   6.266
 8745SOL    HW127134   5.790   3.066   6.235
 8745SOL    HW227135   5.716   2.920   6.243
 8746SOL     OW27136   5.377   3.920   4.823
 8746SOL    HW127137   5.282   3.951   4.830
 8746SOL    HW227138   5.392   3.880   4.733
 8747SOL     OW27139   0.946   2.725   2.567
 8747SOL    HW127140   0.867   2.671   2.597
 8747SOL    HW227141   0.916   2.794   2.501
 8748SOL     OW27142   7.017   1.775   4.952
 8748SOL    HW127143   0.019   1.679   4.968
 8748SOL    HW227144   6.935   1.796   5.005
 8749SOL     OW27145   2.339   0.587   6.327
 8749SOL    HW127146   2.258   0.645   6.328
 8749SOL    HW227147   2.383   0.592   6.237
 8750SOL     OW27148   3.520   3.444   5.574
 8750SOL    HW127149   3.552   3.508   5.643
 8750SOL    HW227150   3.551   3.352   5.596
 8751SOL     OW27151   6.009   1.062   2.654
 8751SOL    HW127152   5.948   1.133   2.688
 8751SOL    HW227153   6.031   1.079   2.558
 8752SOL     OW27154   2.696   4.195   0.478
 8752SOL    HW127155   2.752   4.212   0.559
 8752SOL    HW227156   2.632   4.120   0.497
 8753SOL     OW27157   4.129   2.169   5.641
 8753SOL    HW127158   4.082   2.104   5.700
 8753SOL    HW227159   4.154   2.250   5.694
 8754SOL     OW27160   1.293   3.379   5.454
 8754SOL    HW127161   1.323   3.442   5.525
 8754SOL    HW227162   1.351   3.297   5.455
 8755SOL     OW27163   2.766   0.335   0.674
 8755SOL    HW127164   2.808   0.316   0.585
 8755SOL    HW227165   2.679   0.382   0.660
 8756SOL     OW27166   1.765   2.838   3.347
 8756SOL    HW127167   1.693   2.785   3.394
 8756SOL    HW227168   1.765   2.932   3.381
 8757SOL     OW27169   4.260   6.302   5.612
 8757SOL    HW127170   4.300   6.393   5.600
 8757SOL    HW227171   4.266   6.251   5.525
 8758SOL     OW27172   5.133   6.511   2.610
 8758SOL    HW127173   5.207   6.572   2.638
 8758SOL    HW227174   5.049   6.563   2.595
 8759SOL     OW27175   4.691   1.994   0.136
 8759SOL    HW127176   4.626   1.920   0.119
 8759SOL    HW227177   4.644   2.069   0.183
 8760SOL     OW27178   1.241   1.361   4.988
 8760SOL    HW127179   1.266   1.372   4.891
 8760SOL    HW227180   1.309   1.408   5.045
 8761SOL     OW27181   5.822   2.520   2.815
 8761SOL    HW127182   5.868   2.599   2.857
 8761SOL    HW227183   5.801   2.541   2.719
 8762SOL     OW27184   0.942   4.311   2.567
 8762SOL    HW127185   0.976   4.311   2.472
 8762SOL    HW227186   0.976   4.230   2.615
 8763SOL     OW27187   6.378   6.178   5.771
 8763SOL    HW127188   6.332   6.261   5.741
 8763SOL    HW227189   6.310   6.116   5.812
 8764SOL     OW27190   5.150   1.153   5.036
 8764SOL    HW127191   5.193   1.225   4.982
 8764SOL    HW227192   5.218   1.083   5.059
 8765SOL     OW27193   5.647   0.318   4.984
 8765SOL    HW127194   5.653   0.334   5.083
 8765SOL    HW227195   5.553   0.292   4.961
 8766SOL     OW27196   4.471   4.502   3.968
 8766SOL    HW127197   4.538   4.539   3.905
 8766SOL    HW227198   4.381   4.542   3.949
 8767SOL     OW27199   4.551   6.544   3.164
 8767SOL    HW127200   4.604   6.478   3.112
 8767SOL    HW227201   4.603   6.572   3.245
 8768SOL     OW27202   1.490   3.008   0.187
 8768SOL    HW127203   1.529   2.943   0.252
 8768SOL    HW227204   1.436   2.959   0.119
 8769SOL     OW27205   0.644   0.630   4.028
 8769SOL    HW127206   0.609   0.631   4.121
 8769SOL    HW227207   0.737   0.668   4.026
 8770SOL     OW27208   5.127   4.206   2.362
 8770SOL    HW127209   5.187   4.179   2.436
 8770SOL    HW227210   5.102   4.126   2.308
 8771SOL     OW27211   1.343   0.541   6.657
 8771SOL    HW127212   1.375   0.579   6.570
 8771SOL    HW227213   1.285   0.462   6.641
 8772SOL     OW27214   4.757   6.566   0.194
 8772SOL    HW127215   4.726   6.618   0.115
 8772SOL    HW227216   4.816   6.623   0.251
 8773SOL     OW27217   4.555   2.583   3.387
 8773SOL    HW127218   4.471   2.637   3.398
 8773SOL    HW227219   4.541   2.515   3.315
 8774SOL     OW27220   1.526   1.491   6.775
 8774SOL    HW127221   1.497   1.396   6.791
 8774SOL    HW227222   1.553   1.501   6.679
 8775SOL     OW27223   6.151   6.870   5.928
 8775SOL    HW127224   6.218   6.868   6.001
 8775SOL    HW227225   6.198   6.868   5.839
 8776SOL     OW27226   4.044   3.569   6.238
 8776SOL    HW127227   4.128   3.518   6.255
 8776SOL    HW227228   4.021   3.623   6.319
 8777SOL     OW27229   0.038   3.810   1.600
 8777SOL    HW127230   6.969   3.790   1.565
 8777SOL    HW227231   0.044   3.783   1.696
 8778SOL     OW27232   6.470   3.093   4.789
 8778SOL    HW127233   6.395   3.117   4.852
 8778SOL    HW227234   6.466   2.995   4.770
 8779SOL     OW27235   2.878   5.223   2.297
 8779SOL    HW127236   2.790   5.176   2.303
 8779SOL    HW227237   2.947   5.160   2.263
 8780SOL     OW27238   0.916   5.897   2.988
 8780SOL    HW127239   0.890   5.806   2.957
 8780SOL    HW227240   0.930   5.896   3.087
 8781SOL     OW27241   5.933   1.449   3.278
 8781SOL    HW127242   5.981   1.364   3.298
 8781SOL    HW227243   5.879   1.477   3.357
 8782SOL     OW27244   5.177   7.011   1.873
 8782SOL    HW127245   5.219   6.997   1.963
 8782SOL    HW227246   5.229   6.961   1.804
 8783SOL     OW27247   6.258   3.665   3.403
 8783SOL    HW127248   6.247   3.741   3.339
 8783SOL    HW227249   6.355   3.655   3.426
 8784SOL     OW27250   5.733   4.575   6.601
 8784SOL    HW127251   5.657   4.510   6.607
 8784SOL    HW227252   5.819   4.527   6.612
 8785SOL     OW27253   6.151   3.674   6.641
 8785SOL    HW127254   6.249   3.683   6.659
 8785SOL    HW227255   6.103   3.755   6.676
 8786SOL     OW27256   1.701   6.924   0.552
 8786SOL    HW127257   1.659   6.949   0.465
 8786SOL    HW227258   1.800   6.938   0.548
 8787SOL     OW27259   2.940   2.609   1.760
 8787SOL    HW127260   3.028   2.653   1.779
 8787SOL    HW227261   2.938   2.519   1.804
 8788SOL     OW27262   0.567   2.207   5.946
 8788SOL    HW127263   0.621   2.252   5.873
 8788SOL    HW227264   0.577   2.108   5.938
 8789SOL     OW27265   6.071   6.810   5.495
 8789SOL    HW127266   6.022   6.832   5.580
 8789SOL    HW227267   6.022   6.850   5.417
 8790SOL     OW27268   0.392   0.716   6.930
 8790SOL    HW127269   0.375   0.730   0.005
 8790SOL    HW227270   0.438   0.628   6.917
 8791SOL     OW27271   5.612   0.127   5.349
 8791SOL    HW127272   5.670   0.205   5.326
 8791SOL    HW227273   5.656   0.042   5.318
 8792SOL     OW27274   3.524   6.513   3.252
 8792SOL    HW127275   3.542   6.592   3.311
 8792SOL    HW227276   3.426   6.508   3.232
 8793SOL     OW27277   1.905   4.821   3.388
 8793SOL    HW127278   1.951   4.910   3.384
 8793SOL    HW227279   1.908   4.778   3.297
 8794SOL     OW27280   4.025   6.473   1.731
 8794SOL    HW127281   4.075   6.454   1.646
 8794SOL    HW227282   4.057   6.560   1.769
 8795SOL     OW27283   1.543   6.006   5.669
 8795SOL    HW127284   1.589   6.089   5.701
 8795SOL    HW227285   1.557   5.997   5.570
 8796SOL     OW27286   4.123   2.171   4.473
 8796SOL    HW127287   4.073   2.084   4.477
 8796SOL    HW227288   4.092   2.231   4.547
 8797SOL     OW27289   0.629   6.822   6.086
 8797SOL    HW127290   0.701   6.886   6.062
 8797SOL    HW227291   0.626   6.747   6.020
 8798SOL     OW27292   5.284   5.516   5.866
 8798SOL    HW127293   5.369   5.470   5.841
 8798SOL    HW227294   5.217   5.505   5.793
 8799SOL     OW27295   2.384   4.906   3.924
 8799SOL    HW127296   2.378   4.994   3.971
 8799SOL    HW227297   2.475   4.868   3.935
 8800SOL     OW27298   5.903   3.730   5.358
 8800SOL    HW127299   5.841   3.805   5.337
 8800SOL    HW227300   5.993   3.748   5.318
 8801SOL     OW27301   0.485   2.085   4.945
 8801SOL    HW127302   0.452   2.092   4.851
 8801SOL    HW227303   0.575   2.042   4.946
 8802SOL     OW27304   1.698   6.955   0.863
 8802SOL    HW127305   1.750   6.933   0.780
 8802SOL    HW227306   1.620   6.894   0.871
 8803SOL     OW27307   6.818   5.325   6.322
 8803SOL    HW127308   6.733   5.339   6.372
 8803SOL    HW227309   6.856   5.414   6.295
 8804SOL     OW27310   3.078   0.368   2.209
 8804SOL    HW127311   3.008   0.324   2.265
 8804SOL    HW227312   3.053   0.361   2.112
 8805SOL     OW27313   2.864   6.798   4.188
 8805SOL    HW127314   2.765   6.795   4.178
 8805SOL    HW227315   2.889   6.853   4.268
 8806SOL     OW27316   2.545   5.429   2.418
 8806SOL    HW127317   2.538   5.449   2.516
 8806SOL    HW227318   2.589   5.340   2.405
 8807SOL     OW27319   5.332   6.940   6.764
 8807SOL    HW127320   5.414   6.977   6.807
 8807SOL    HW227321   5.264   7.012   6.756
 8808SOL     OW27322   5.818   2.402   6.844
 8808SOL    HW127323   5.845   2.439   6.933
 8808SOL    HW227324   5.720   2.382   6.845
 8809SOL     OW27325   4.509   5.692   3.831
 8809SOL    HW127326   4.509   5.654   3.924
 8809SOL    HW227327   4.568   5.637   3.772
 8810SOL     OW27328   4.799   0.818   5.988
 8810SOL    HW127329   4.852   0.765   6.055
 8810SOL    HW227330   4.721   0.860   6.033
 8811SOL     OW27331   2.747   1.333   3.812
 8811SOL    HW127332   2.673   1.378   3.862
 8811SOL    HW227333   2.808   1.287   3.877
 8812SOL     OW27334   1.998   0.279   0.887
 8812SOL    HW127335   1.967   0.299   0.980
 8812SOL    HW227336   2.074   0.339   0.863
 8813SOL     OW27337   1.182   4.842   1.879
 8813SOL    HW127338   1.143   4.907   1.944
 8813SOL    HW227339   1.175   4.749   1.917
 8814SOL     OW27340   5.688   6.846   1.161
 8814SOL    HW127341   5.706   6.793   1.244
 8814SOL    HW227342   5.759   6.827   1.093
 8815SOL     OW27343   6.615   6.842   0.540
 8815SOL    HW127344   6.648   6.859   0.633
 8815SOL    HW227345   6.582   6.748   0.533
 8816SOL     OW27346   1.374   0.196   0.260
 8816SOL    HW127347   1.418   0.151   0.337
 8816SOL    HW227348   1.396   0.293   0.260
 8817SOL     OW27349   1.029   5.852   4.720
 8817SOL    HW127350   1.098   5.780   4.713
 8817SOL    HW227351   0.995   5.873   4.628
 8818SOL     OW27352   0.448   3.991   4.668
 8818SOL    HW127353   0.492   3.941   4.744
 8818SOL    HW227354   0.349   3.979   4.674
 8819SOL     OW27355   5.467   5.029   4.915
 8819SOL    HW127356   5.465   5.127   4.896
 8819SOL    HW227357   5.522   5.011   4.996
 8820SOL     OW27358   1.729   0.927   5.185
 8820SOL    HW127359   1.657   0.931   5.254
 8820SOL    HW227360   1.809   0.978   5.218
 8821SOL     OW27361   3.095   6.014   0.084
 8821SOL    HW127362   3.072   6.040   7.013
 8821SOL    HW227363   3.052   6.077   0.149
 8822SOL     OW27364   0.559   0.000   4.856
 8822SOL    HW127365   0.577   6.957   4.782
 8822SOL    HW227366   0.613   0.083   4.840
 8823SOL     OW27367   2.509   0.764   1.207
 8823SOL    HW127368   2.540   0.687   1.151
 8823SOL    HW227369   2.520   0.849   1.156
 8824SOL     OW27370   0.799   3.093   0.718
 8824SOL    HW127371   0.873   3.037   0.755
 8824SOL    HW227372   0.837   3.164   0.659
 8825SOL     OW27373   1.975   0.319   2.590
 8825SOL    HW127374   1.956   0.233   2.542
 8825SOL    HW227375   1.947   0.396   2.532
 8826SOL     OW27376   6.636   3.455   1.017
 8826SOL    HW127377   6.656   3.544   1.058
 8826SOL    HW227378   6.580   3.401   1.080
 8827SOL     OW27379   3.785   1.564   3.029
 8827SOL    HW127380   3.795   1.663   3.020
 8827SOL    HW227381   3.792   1.521   2.939
 8828SOL     OW27382   4.792   5.793   5.475
 8828SOL    HW127383   4.848   5.851   5.418
 8828SOL    HW227384   4.703   5.836   5.490
 8829SOL     OW27385   5.610   2.490   0.619
 8829SOL    HW127386   5.579   2.474   0.713
 8829SOL    HW227387   5.669   2.415   0.591
 8830SOL     OW27388   1.255   1.563   2.509
 8830SOL    HW127389   1.309   1.647   2.520
 8830SOL    HW227390   1.285   1.495   2.575
 8831SOL     OW27391   4.758   1.819   4.136
 8831SOL    HW127392   4.746   1.836   4.038
 8831SOL    HW227393   4.789   1.725   4.150
 8832SOL     OW27394   0.139   5.399   3.183
 8832SOL    HW127395   0.138   5.429   3.278
 8832SOL    HW227396   0.102   5.471   3.124
 8833SOL     OW27397   2.376   5.582   5.434
 8833SOL    HW127398   2.344   5.601   5.341
 8833SOL    HW227399   2.462   5.530   5.429
 8834SOL     OW27400   5.102   3.284   4.771
 8834SOL    HW127401   5.077   3.188   4.779
 8834SOL    HW227402   5.021   3.341   4.784
 8835SOL     OW27403   5.226   1.069   6.007
 8835SOL    HW127404   5.235   1.153   5.953
 8835SOL    HW227405   5.132   1.061   6.041
 8836SOL     OW27406   4.808   2.858   6.849
 8836SOL    HW127407   4.761   2.842   6.763
 8836SOL    HW227408   4.814   2.773   6.901
 8837SOL     OW27409   6.890   5.950   3.164
 8837SOL    HW127410   6.850   5.904   3.085
 8837SOL    HW227411   6.916   5.881   3.232
 8838SOL     OW27412   2.686   5.317   2.980
 8838SOL    HW127413   2.733   5.391   2.931
 8838SOL    HW227414   2.591   5.313   2.950
 8839SOL     OW27415   5.303   5.066   3.596
 8839SOL    HW127416   5.384   5.028   3.641
 8839SOL    HW227417   5.229   5.078   3.662
 8840SOL     OW27418   6.840   2.018   2.470
 8840SOL    HW127419   6.937   2.015   2.491
 8840SOL    HW227420   6.797   2.092   2.522
 8841SOL     OW27421   0.604   1.053   5.148
 8841SOL    HW127422   0.552   0.979   5.189
 8841SOL    HW227423   0.701   1.041   5.167
 8842SOL     OW27424   3.324   2.977   2.423
 8842SOL    HW127425   3.352   3.050   2.486
 8842SOL    HW227426   3.394   2.907   2.420
 8843SOL     OW27427   1.648   3.108   6.020
 8843SOL    HW127428   1.670   3.179   5.953
 8843SOL    HW227429   1.704   3.121   6.102
 8844SOL     OW27430   6.814   2.410   6.814
 8844SOL    HW127431   6.887   2.444   6.874
 8844SOL    HW227432   6.747   2.360   6.868
 8845SOL     OW27433   3.521   3.539   6.927
 8845SOL    HW127434   3.566   3.549   7.016
 8845SOL    HW227435   3.440   3.597   6.925
 8846SOL     OW27436   3.348   5.740   3.728
 8846SOL    HW127437   3.397   5.810   3.675
 8846SOL    HW227438   3.255   5.731   3.693
 8847SOL     OW27439   2.867   1.153   3.594
 8847SOL    HW127440   2.778   1.179   3.631
 8847SOL    HW227441   2.862   1.061   3.556
 8848SOL     OW27442   1.943   0.874   1.280
 8848SOL    HW127443   1.883   0.919   1.347
 8848SOL    HW227444   2.026   0.842   1.326
 8849SOL     OW27445   3.281   6.359   3.563
 8849SOL    HW127446   3.288   6.447   3.515
 8849SOL    HW227447   3.298   6.374   3.661
 8850SOL     OW27448   0.994   2.290   0.140
 8850SOL    HW127449   1.010   2.389   0.142
 8850SOL    HW227450   1.012   2.255   0.048
 8851SOL     OW27451   1.276   4.008   3.483
 8851SOL    HW127452   1.185   4.040   3.455
 8851SOL    HW227453   1.301   4.051   3.570
 8852SOL     OW27454   0.069   2.755   5.435
 8852SOL    HW127455   0.134   2.736   5.509
 8852SOL    HW227456   0.106   2.828   5.377
 8853SOL     OW27457   3.219   1.033   1.337
 8853SOL    HW127458   3.180   1.035   1.429
 8853SOL    HW227459   3.318   1.045   1.343
 8854SOL     OW27460   2.544   2.292   5.790
 8854SOL    HW127461   2.637   2.314   5.761
 8854SOL    HW227462   2.522   2.342   5.873
 8855SOL     OW27463   6.538   5.067   1.092
 8855SOL    HW127464   6.531   4.978   1.138
 8855SOL    HW227465   6.633   5.096   1.090
 8856SOL     OW27466   0.623   6.323   6.182
 8856SOL    HW127467   0.586   6.230   6.174
 8856SOL    HW227468   0.616   6.353   6.277
 8857SOL     OW27469   7.019   1.835   4.353
 8857SOL    HW127470   0.005   1.765   4.282
 8857SOL    HW227471   0.087   1.866   4.381
 8858SOL     OW27472   0.129   4.117   4.472
 8858SOL    HW127473   0.163   4.114   4.566
 8858SOL    HW227474   0.202   4.148   4.411
 8859SOL     OW27475   1.509   1.388   3.692
 8859SOL    HW127476   1.445   1.319   3.725
 8859SOL    HW227477   1.479   1.420   3.602
 8860SOL     OW27478   6.753   2.071   1.989
 8860SOL    HW127479   6.820   2.132   1.947
 8860SOL    HW227480   6.678   2.124   2.027
 8861SOL     OW27481   4.042   1.043   6.002
 8861SOL    HW127482   4.062   1.027   5.905
 8861SOL    HW227483   4.070   1.136   6.026
 8862SOL     OW27484   5.554   6.803   3.786
 8862SOL    HW127485   5.455   6.786   3.777
 8862SOL    HW227486   5.596   6.801   3.695
 8863SOL     OW27487   2.763   4.732   3.621
 8863SOL    HW127488   2.759   4.742   3.522
 8863SOL    HW227489   2.676   4.696   3.655
 8864SOL     OW27490   2.925   5.054   6.304
 8864SOL    HW127491   2.886   4.963   6.293
 8864SOL    HW227492   2.859   5.123   6.276
 8865SOL     OW27493   3.055   0.647   4.515
 8865SOL    HW127494   3.047   0.746   4.521
 8865SOL    HW227495   3.137   0.616   4.563
 8866SOL     OW27496   5.438   0.259   3.035
 8866SOL    HW127497   5.366   0.323   3.062
 8866SOL    HW227498   5.403   0.166   3.041
 8867SOL     OW27499   5.968   4.643   3.384
 8867SOL    HW127500   5.942   4.552   3.352
 8867SOL    HW227501   5.898   4.678   3.447
 8868SOL     OW27502   0.398   3.184   1.275
 8868SOL    HW127503   0.434   3.176   1.368
 8868SOL    HW227504   0.387   3.093   1.236
 8869SOL     OW27505   3.699   6.062   5.314
 8869SOL    HW127506   3.637   5.985   5.297
 8869SOL    HW227507   3.674   6.139   5.254
 8870SOL     OW27508   2.571   6.555   1.372
 8870SOL    HW127509   2.635   6.610   1.426
 8870SOL    HW227510   2.620   6.513   1.295
 8871SOL     OW27511   1.618   0.815   4.042
 8871SOL    HW127512   1.545   0.834   4.107
 8871SOL    HW227513   1.591   0.739   3.982
 8872SOL     OW27514   1.562   4.818   5.536
 8872SOL    HW127515   1.600   4.880   5.467
 8872SOL    HW227516   1.620   4.737   5.544
 8873SOL     OW27517   1.182   6.937   2.234
 8873SOL    HW127518   1.177   6.847   2.278
 8873SOL    HW227519   1.221   7.003   2.297
 8874SOL     OW27520   2.291   5.489   2.282
 8874SOL    HW127521   2.262   5.583   2.301
 8874SOL    HW227522   2.382   5.473   2.320
 8875SOL     OW27523   0.078   3.864   4.340
 8875SOL    HW127524   0.093   3.956   4.377
 8875SOL    HW227525   7.022   3.865   4.278
 8876SOL     OW27526   1.987   0.113   5.706
 8876SOL    HW127527   1.987   0.171   5.625
 8876SOL    HW227528   2.019   0.021   5.682
 8877SOL     OW27529   2.652   1.984   4.343
 8877SOL    HW127530   2.683   1.987   4.248
 8877SOL    HW227531   2.650   1.889   4.374
 8878SOL     OW27532   4.816   5.226   0.867
 8878SOL    HW127533   4.787   5.153   0.929
 8878SOL    HW227534   4.738   5.284   0.844
 8879SOL     OW27535   4.541   4.628   2.564
 8879SOL    HW127536   4.539   4.620   2.464
 8879SOL    HW227537   4.449   4.648   2.598
 8880SOL     OW27538   4.516   6.399   5.116
 8880SOL    HW127539   4.532   6.397   5.017
 8880SOL    HW227540   4.602   6.423   5.163
 8881SOL     OW27541   5.402   6.047   3.900
 8881SOL    HW127542   5.422   6.052   3.997
 8881SOL    HW227543   5.479   6.085   3.848
 8882SOL     OW27544   5.056   0.972   1.570
 8882SOL    HW127545   5.105   0.996   1.486
 8882SOL    HW227546   4.959   0.961   1.550
 8883SOL     OW27547   2.210   6.215   5.942
 8883SOL    HW127548   2.138   6.154   5.910
 8883SOL    HW227549   2.174   6.308   5.948
 8884SOL     OW27550   5.933   2.890   5.616
 8884SOL    HW127551   5.899   2.826   5.547
 8884SOL    HW227552   5.893   2.869   5.705
 8885SOL     OW27553   5.219   4.273   0.978
 8885SOL    HW127554   5.192   4.215   1.055
 8885SOL    HW227555   5.306   4.241   0.941
 8886SOL     OW27556   2.947   6.143   5.020
 8886SOL    HW127557   3.040   6.178   5.032
 8886SOL    HW227558   2.882   6.214   5.044
 8887SOL     OW27559   4.057   1.166   0.776
 8887SOL    HW127560   4.118   1.096   0.739
 8887SOL    HW227561   3.965   1.130   0.786
 8888SOL     OW27562   1.858   1.502   5.329
 8888SOL    HW127563   1.868   1.461   5.238
 8888SOL    HW227564   1.766   1.541   5.338
 8889SOL     OW27565   6.658   6.966   0.093
 8889SOL    HW127566   6.682   6.999   0.184
 8889SOL    HW227567   6.584   0.001   0.056
 8890SOL     OW27568   0.374   5.934   5.578
 8890SOL    HW127569   0.405   5.948   5.484
 8890SOL    HW227570   0.352   6.023   5.619
 8891SOL     OW27571   3.771   3.716   6.983
 8891SOL    HW127572   3.712   3.748   6.909
 8891SOL    HW227573   3.718   3.702   0.043
 8892SOL     OW27574   3.943   5.045   2.773
 8892SOL    HW127575   3.954   5.038   2.674
 8892SOL    HW227576   3.999   5.120   2.808
 8893SOL     OW27577   1.143   5.483   4.281
 8893SOL    HW127578   1.229   5.448   4.318
 8893SOL    HW227579   1.077   5.494   4.356
 8894SOL     OW27580   3.220   1.834   6.306
 8894SOL    HW127581   3.173   1.918   6.333
 8894SOL    HW227582   3.240   1.780   6.388
 8895SOL     OW27583   0.020   2.190   2.044
 8895SOL    HW127584   0.023   2.092   2.024
 8895SOL    HW227585   0.001   2.240   1.960
 8896SOL     OW27586   2.145   3.202   5.062
 8896SOL    HW127587   2.228   3.146   5.063
 8896SOL    HW227588   2.077   3.162   5.123
 8897SOL     OW27589   2.427   2.263   3.786
 8897SOL    HW127590   2.464   2.245   3.695
 8897SOL    HW227591   2.395   2.358   3.791
 8898SOL     OW27592   5.066   3.669   2.847
 8898SOL    HW127593   5.065   3.633   2.940
 8898SOL    HW227594   5.141   3.734   2.837
 8899SOL     OW27595   1.114   4.534   0.920
 8899SOL    HW127596   1.175   4.603   0.882
 8899SOL    HW227597   1.118   4.538   1.020
 8900SOL     OW27598   5.183   3.129   3.227
 8900SOL    HW127599   5.187   3.215   3.277
 8900SOL    HW227600   5.209   3.144   3.132
 8901SOL     OW27601   1.053   1.563   4.983
 8901SOL    HW127602   1.090   1.622   4.911
 8901SOL    HW227603   1.097   1.473   4.978
 8902SOL     OW27604   0.739   5.536   0.592
 8902SOL    HW127605   0.675   5.460   0.602
 8902SOL    HW227606   0.736   5.570   0.498
 8903SOL     OW27607   0.813   1.759   4.347
 8903SOL    HW127608   0.887   1.775   4.282
 8903SOL    HW227609   0.775   1.847   4.377
 8904SOL     OW27610   0.591   0.585   4.632
 8904SOL    HW127611   0.630   0.642   4.704
 8904SOL    HW227612   0.617   0.622   4.543
 8905SOL     OW27613   2.179   3.275   3.275
 8905SOL    HW127614   2.270   3.291   3.312
 8905SOL    HW227615   2.187   3.219   3.192
 8906SOL     OW27616   0.537   6.166   0.980
 8906SOL    HW127617   0.580   6.247   0.941
 8906SOL    HW227618   0.607   6.103   1.013
 8907SOL     OW27619   3.405   2.751   5.864
 8907SOL    HW127620   3.499   2.784   5.857
 8907SOL    HW227621   3.352   2.810   5.925
 8908SOL     OW27622   1.798   5.614   0.254
 8908SOL    HW127623   1.761   5.706   0.244
 8908SOL    HW227624   1.885   5.607   0.206
 8909SOL     OW27625   2.333   1.582   5.693
 8909SOL    HW127626   2.280   1.612   5.614
 8909SOL    HW227627   2.278   1.520   5.748
 8910SOL     OW27628   0.935   3.291   5.761
 8910SOL    HW127629   0.973   3.357   5.696
 8910SOL    HW227630   0.860   3.334   5.811
 8911SOL     OW27631   4.854   2.833   4.499
 8911SOL    HW127632   4.941   2.883   4.501
 8911SOL    HW227633   4.779   2.898   4.485
 8912SOL     OW27634   2.878   3.842   0.204
 8912SOL    HW127635   2.852   3.749   0.178
 8912SOL    HW227636   2.828   3.908   0.148
 8913SOL     OW27637   3.961   5.364   6.939
 8913SOL    HW127638   3.965   5.447   6.883
 8913SOL    HW227639   3.892   5.302   6.901
 8914SOL     OW27640   4.770   0.130   4.998
 8914SOL    HW127641   4.860   0.087   5.005
 8914SOL    HW227642   4.707   0.087   5.062
 8915SOL     OW27643   1.759   2.480   3.734
 8915SOL    HW127644   1.791   2.454   3.643
 8915SOL    HW227645   1.709   2.567   3.728
 8916SOL     OW27646   6.452   3.142   0.867
 8916SOL    HW127647   6.358   3.162   0.839
 8916SOL    HW227648   6.508   3.224   0.857
 8917SOL     OW27649   5.774   2.953   0.270
 8917SOL    HW127650   5.718   2.971   0.189
 8917SOL    HW227651   5.794   2.855   0.276
 8918SOL     OW27652   0.534   4.756   0.949
 8918SOL    HW127653   0.629   4.750   0.979
 8918SOL    HW227654   0.484   4.674   0.979
 8919SOL     OW27655   4.799   3.957   0.214
 8919SOL    HW127656   4.815   3.910   0.301
 8919SOL    HW227657   4.842   3.907   0.140
 8920SOL     OW27658   0.108   1.907   6.933
 8920SOL    HW127659   0.157   1.838   6.986
 8920SOL    HW227660   0.140   1.905   6.838
 8921SOL     OW27661   1.822   3.162   1.717
 8921SOL    HW127662   1.888   3.094   1.684
 8921SOL    HW227663   1.869   3.248   1.735
 8922SOL     OW27664   3.799   5.095   2.110
 8922SOL    HW127665   3.738   5.094   2.189
 8922SOL    HW227666   3.817   5.001   2.081
 8923SOL     OW27667   1.813   1.845   6.389
 8923SOL    HW127668   1.748   1.874   6.319
 8923SOL    HW227669   1.864   1.765   6.356
 8924SOL     OW27670   5.121   5.635   5.382
 8924SOL    HW127671   5.144   5.732   5.387
 8924SOL    HW227672   5.040   5.623   5.325
 8925SOL     OW27673   0.950   0.703   3.275
 8925SOL    HW127674   1.011   0.644   3.329
 8925SOL    HW227675   0.943   0.666   3.182
 8926SOL     OW27676   6.419   3.117   6.212
 8926SOL    HW127677   6.496   3.061   6.246
 8926SOL    HW227678   6.348   3.120   6.282
 8927SOL     OW27679   0.306   1.109   4.848
 8927SOL    HW127680   0.232   1.092   4.913
 8927SOL    HW227681   0.382   1.047   4.867
 8928SOL     OW27682   1.235   0.281   6.278
 8928SOL    HW127683   1.186   0.245   6.199
 8928SOL    HW227684   1.205   0.234   6.360
 8929SOL     OW27685   5.901   2.148   4.628
 8929SOL    HW127686   5.886   2.058   4.669
 8929SOL    HW227687   5.997   2.158   4.603
 8930SOL     OW27688   1.231   2.755   4.563
 8930SOL    HW127689   1.275   2.790   4.480
 8930SOL    HW227690   1.156   2.695   4.538
 8931SOL     OW27691   3.013   3.706   1.219
 8931SOL    HW127692   2.979   3.794   1.252
 8931SOL    HW227693   2.988   3.634   1.283
 8932SOL     OW27694   6.025   2.192   1.874
 8932SOL    HW127695   6.046   2.262   1.805
 8932SOL    HW227696   5.926   2.187   1.887
 8933SOL     OW27697   2.873   2.849   5.738
 8933SOL    HW127698   2.865   2.757   5.702
 8933SOL    HW227699   2.781   2.888   5.751
 8934SOL     OW27700   2.632   5.908   4.517
 8934SOL    HW127701   2.683   5.860   4.589
 8934SOL    HW227702   2.539   5.873   4.513
 8935SOL     OW27703   0.722   4.602   0.477
 8935SOL    HW127704   0.702   4.508   0.451
 8935SOL    HW227705   0.655   4.664   0.435
 8936SOL     OW27706   1.192   4.230   2.368
 8936SOL    HW127707   1.152   4.192   2.284
 8936SOL    HW227708   1.203   4.157   2.436
 8937SOL     OW27709   0.524   0.170   5.679
 8937SOL    HW127710   0.449   0.137   5.736
 8937SOL    HW227711   0.497   0.256   5.635
 8938SOL     OW27712   0.667   6.438   0.530
 8938SOL    HW127713   0.694   6.375   0.602
 8938SOL    HW227714   0.748   6.466   0.478
 8939SOL     OW27715   4.886   3.187   4.500
 8939SOL    HW127716   4.904   3.285   4.504
 8939SOL    HW227717   4.839   3.158   4.583
 8940SOL     OW27718   0.377   1.494   2.376
 8940SOL    HW127719   0.428   1.540   2.449
 8940SOL    HW227720   0.333   1.562   2.318
 8941SOL     OW27721   6.314   2.592   5.846
 8941SOL    HW127722   6.275   2.683   5.865
 8941SOL    HW227723   6.282   2.561   5.757
 8942SOL     OW27724   6.753   4.813   4.777
 8942SOL    HW127725   6.690   4.817   4.699
 8942SOL    HW227726   6.755   4.720   4.813
 8943SOL     OW27727   3.431   5.221   6.068
 8943SOL    HW127728   3.403   5.155   6.138
 8943SOL    HW227729   3.440   5.174   5.980
 8944SOL     OW27730   5.510   4.730   5.365
 8944SOL    HW127731   5.508   4.830   5.372
 8944SOL    HW227732   5.540   4.703   5.273
 8945SOL     OW27733   1.196   0.582   2.963
 8945SOL    HW127734   1.233   0.674   2.950
 8945SOL    HW227735   1.232   0.521   2.893
 8946SOL     OW27736   3.371   1.528   5.144
 8946SOL    HW127737   3.436   1.459   5.175
 8946SOL    HW227738   3.420   1.604   5.101
 8947SOL     OW27739   2.293   3.557   5.836
 8947SOL    HW127740   2.282   3.459   5.820
 8947SOL    HW227741   2.304   3.604   5.748
 8948SOL     OW27742   6.511   6.406   4.467
 8948SOL    HW127743   6.601   6.441   4.437
 8948SOL    HW227744   6.525   6.328   4.527
 8949SOL     OW27745   2.633   6.741   1.077
 8949SOL    HW127746   2.651   6.651   1.037
 8949SOL    HW227747   2.709   6.802   1.056
 8950SOL     OW27748   4.667   4.479   5.696
 8950SOL    HW127749   4.721   4.543   5.642
 8950SOL    HW227750   4.644   4.521   5.784
 8951SOL     OW27751   1.251   2.276   5.357
 8951SOL    HW127752   1.176   2.280   5.290
 8951SOL    HW227753   1.231   2.204   5.424
 8952SOL     OW27754   1.287   6.653   2.744
 8952SOL    HW127755   1.276   6.717   2.821
 8952SOL    HW227756   1.255   6.697   2.660
 8953SOL     OW27757   1.262   4.298   6.278
 8953SOL    HW127758   1.266   4.209   6.323
 8953SOL    HW227759   1.285   4.370   6.343
 8954SOL     OW27760   0.782   0.481   4.880
 8954SOL    HW127761   0.687   0.460   4.902
 8954SOL    HW227762   0.816   0.417   4.811
 8955SOL     OW27763   6.995   5.156   2.433
 8955SOL    HW127764   6.964   5.251   2.424
 8955SOL    HW227765   0.022   5.146   2.519
 8956SOL     OW27766   1.336   1.027   6.492
 8956SOL    HW127767   1.416   0.968   6.476
 8956SOL    HW227768   1.328   1.046   6.590
 8957SOL     OW27769   2.954   4.657   1.423
 8957SOL    HW127770   2.872   4.601   1.411
 8957SOL    HW227771   2.938   4.726   1.494
 8958SOL     OW27772   0.558   1.245   4.970
 8958SOL    HW127773   0.558   1.175   5.042
 8958SOL    HW227774   0.467   1.249   4.928
 8959SOL     OW27775   1.275   4.485   1.633
 8959SOL    HW127776   1.285   4.442   1.543
 8959SOL    HW227777   1.355   4.543   1.651
 8960SOL     OW27778   4.878   4.484   3.072
 8960SOL    HW127779   4.921   4.394   3.071
 8960SOL    HW227780   4.926   4.544   3.008
 8961SOL     OW27781   2.472   1.043   4.691
 8961SOL    HW127782   2.514   1.045   4.782
 8961SOL    HW227783   2.376   1.016   4.699
 8962SOL     OW27784   6.000   6.089   2.213
 8962SOL    HW127785   6.020   6.166   2.151
 8962SOL    HW227786   5.904   6.095   2.243
 8963SOL     OW27787   4.301   5.979   4.360
 8963SOL    HW127788   4.278   6.058   4.418
 8963SOL    HW227789   4.330   6.011   4.270
 8964SOL     OW27790   4.863   3.263   3.121
 8964SOL    HW127791   4.860   3.168   3.090
 8964SOL    HW227792   4.931   3.313   3.067
 8965SOL     OW27793   2.400   5.248   0.612
 8965SOL    HW127794   2.492   5.225   0.644
 8965SOL    HW227795   2.357   5.310   0.677
 8966SOL     OW27796   6.826   3.893   6.914
 8966SOL    HW127797   6.819   3.922   6.819
 8966SOL    HW227798   6.761   3.945   6.970
 8967SOL     OW27799   4.029   0.146   1.690
 8967SOL    HW127800   4.079   0.218   1.642
 8967SOL    HW227801   3.975   0.186   1.764
 8968SOL     OW27802   4.979   4.931   3.271
 8968SOL    HW127803   5.065   4.973   3.242
 8968SOL    HW227804   4.917   4.926   3.192
 8969SOL     OW27805   6.875   1.495   4.389
 8969SOL    HW127806   6.920   1.539   4.311
 8969SOL    HW227807   6.896   1.397   4.388
 8970SOL     OW27808   2.227   3.113   0.724
 8970SOL    HW127809   2.131   3.140   0.719
 8970SOL    HW227810   2.266   3.113   0.632
 8971SOL     OW27811   5.263   5.518   1.531
 8971SOL    HW127812   5.315   5.457   1.591
 8971SOL    HW227813   5.165   5.510   1.552
 8972SOL     OW27814   5.382   4.495   6.195
 8972SOL    HW127815   5.436   4.415   6.219
 8972SOL    HW227816   5.359   4.492   6.097
 8973SOL     OW27817   0.847   2.902   2.387
 8973SOL    HW127818   0.884   2.950   2.308
 8973SOL    HW227819   0.752   2.875   2.368
 8974SOL     OW27820   1.168   4.470   5.568
 8974SOL    HW127821   1.155   4.371   5.563
 8974SOL    HW227822   1.223   4.501   5.490
 8975SOL     OW27823   1.666   7.004   5.794
 8975SOL    HW127824   1.614   6.953   5.862
 8975SOL    HW227825   1.694   0.070   5.832
 8976SOL     OW27826   0.074   4.889   4.953
 8976SOL    HW127827   0.165   4.910   4.990
 8976SOL    HW227828   0.040   4.805   4.994
 8977SOL     OW27829   5.882   2.530   0.058
 8977SOL    HW127830   5.871   2.447   0.113
 8977SOL    HW227831   5.969   2.527   0.009
 8978SOL     OW27832   5.812   0.384   4.734
 8978SOL    HW127833   5.775   0.374   4.827
 8978SOL    HW227834   5.876   0.309   4.716
 8979SOL     OW27835   1.176   3.758   4.326
 8979SOL    HW127836   1.244   3.752   4.399
 8979SOL    HW227837   1.217   3.727   4.240
 8980SOL     OW27838   2.768   2.596   5.687
 8980SOL    HW127839   2.701   2.652   5.735
 8980SOL    HW227840   2.736   2.578   5.594
 8981SOL     OW27841   4.453   1.900   5.632
 8981SOL    HW127842   4.372   1.954   5.655
 8981SOL    HW227843   4.437   1.804   5.655
 8982SOL     OW27844   0.923   2.345   1.377
 8982SOL    HW127845   0.832   2.347   1.335
 8982SOL    HW227846   0.920   2.292   1.462
 8983SOL     OW27847   1.840   6.040   0.013
 8983SOL    HW127848   1.830   6.135   0.045
 8983SOL    HW227849   1.817   6.034   6.939
 8984SOL     OW27850   0.163   0.330   4.420
 8984SOL    HW127851   0.157   0.429   4.415
 8984SOL    HW227852   0.104   0.289   4.351
 8985SOL     OW27853   2.809   2.638   0.641
 8985SOL    HW127854   2.868   2.557   0.652
 8985SOL    HW227855   2.837   2.709   0.705
 8986SOL     OW27856   4.702   5.138   2.582
 8986SOL    HW127857   4.671   5.234   2.583
 8986SOL    HW227858   4.729   5.112   2.674
 8987SOL     OW27859   4.433   6.957   1.209
 8987SOL    HW127860   4.446   6.949   1.308
 8987SOL    HW227861   4.509   7.006   1.169
 8988SOL     OW27862   1.401   3.760   5.657
 8988SOL    HW127863   1.450   3.795   5.577
 8988SOL    HW227864   1.435   3.806   5.739
 8989SOL     OW27865   5.088   3.900   1.356
 8989SOL    HW127866   5.050   3.821   1.307
 8989SOL    HW227867   5.188   3.899   1.348
 8990SOL     OW27868   2.089   6.126   3.030
 8990SOL    HW127869   2.087   6.174   3.118
 8990SOL    HW227870   2.177   6.080   3.019
 8991SOL     OW27871   1.353   1.869   6.563
 8991SOL    HW127872   1.391   1.899   6.651
 8991SOL    HW227873   1.263   1.828   6.578
 8992SOL     OW27874   5.701   1.356   0.090
 8992SOL    HW127875   5.613   1.371   0.135
 8992SOL    HW227876   5.705   1.262   0.055
 8993SOL     OW27877   5.066   2.359   2.681
 8993SOL    HW127878   4.999   2.285   2.687
 8993SOL    HW227879   5.030   2.431   2.621
 8994SOL     OW27880   1.131   4.489   4.538
 8994SOL    HW127881   1.163   4.548   4.464
 8994SOL    HW227882   1.162   4.395   4.522
 8995SOL     OW27883   0.826   3.086   0.048
 8995SOL    HW127884   0.790   3.177   0.072
 8995SOL    HW227885   0.843   3.081   6.972
 8996SOL     OW27886   5.926   5.415   0.398
 8996SOL    HW127887   5.902   5.477   0.473
 8996SOL    HW227888   5.843   5.376   0.359
 8997SOL     OW27889   4.699   1.221   5.822
 8997SOL    HW127890   4.638   1.241   5.899
 8997SOL    HW227891   4.659   1.255   5.738
 8998SOL     OW27892   6.301   3.871   4.189
 8998SOL    HW127893   6.336   3.825   4.270
 8998SOL    HW227894   6.230   3.814   4.146
 8999SOL     OW27895   4.752   6.096   6.938
 8999SOL    HW127896   4.712   6.177   6.896
 8999SOL    HW227897   4.752   6.107   0.015
 9000SOL     OW27898   1.779   4.169   0.937
 9000SOL    HW127899   1.836   4.228   0.995
 9000SOL    HW227900   1.738   4.097   0.993
 9001SOL     OW27901   1.320   5.668   2.494
 9001SOL    HW127902   1.378   5.588   2.474
 9001SOL    HW227903   1.343   5.704   2.584
 9002SOL     OW27904   0.333   4.842   5.041
 9002SOL    HW127905   0.347   4.748   5.008
 9002SOL    HW227906   0.408   4.900   5.009
 9003SOL     OW27907   5.160   3.154   1.719
 9003SOL    HW127908   5.248   3.113   1.745
 9003SOL    HW227909   5.156   3.165   1.620
 9004SOL     OW27910   3.764   6.695   1.128
 9004SOL    HW127911   3.804   6.787   1.131
 9004SOL    HW227912   3.665   6.702   1.131
 9005SOL     OW27913   5.578   2.678   4.195
 9005SOL    HW127914   5.515   2.601   4.201
 9005SOL    HW227915   5.652   2.665   4.261
 9006SOL     OW27916   2.461   6.241   0.976
 9006SOL    HW127917   2.417   6.329   0.997
 9006SOL    HW227918   2.445   6.178   1.052
 9007SOL     OW27919   3.556   0.989   4.084
 9007SOL    HW127920   3.617   0.972   4.007
 9007SOL    HW227921   3.464   0.959   4.061
 9008SOL     OW27922   1.140   5.891   3.696
 9008SOL    HW127923   1.135   5.991   3.694
 9008SOL    HW227924   1.080   5.854   3.625
 9009SOL     OW27925   3.065   6.847   0.804
 9009SOL    HW127926   3.027   6.844   0.712
 9009SOL    HW227927   3.090   6.942   0.827
 9010SOL     OW27928   1.301   6.427   3.536
 9010SOL    HW127929   1.259   6.515   3.559
 9010SOL    HW227930   1.397   6.441   3.513
 9011SOL     OW27931   5.764   2.225   1.942
 9011SOL    HW127932   5.699   2.249   2.015
 9011SOL    HW227933   5.765   2.298   1.873
 9012SOL     OW27934   1.930   3.894   1.083
 9012SOL    HW127935   1.850   3.955   1.087
 9012SOL    HW227936   1.927   3.842   0.998
 9013SOL     OW27937   6.957   6.710   5.089
 9013SOL    HW127938   6.972   6.689   4.993
 9013SOL    HW227939   0.011   6.765   5.124
 9014SOL     OW27940   6.082   1.722   6.955
 9014SOL    HW127941   6.150   1.648   6.949
 9014SOL    HW227942   6.010   1.705   6.888
 9015SOL     OW27943   4.678   1.465   1.933
 9015SOL    HW127944   4.670   1.486   1.836
 9015SOL    HW227945   4.751   1.397   1.946
 9016SOL     OW27946   0.415   6.687   6.568
 9016SOL    HW127947   0.403   6.603   6.514
 9016SOL    HW227948   0.512   6.696   6.593
 9017SOL     OW27949   4.430   1.845   3.226
 9017SOL    HW127950   4.466   1.936   3.241
 9017SOL    HW227951   4.417   1.798   3.314
 9018SOL     OW27952   3.930   2.175   6.993
 9018SOL    HW127953   3.920   2.267   0.009
 9018SOL    HW227954   3.957   2.182   6.897
 9019SOL     OW27955   1.424   6.666   2.141
 9019SOL    HW127956   1.407   6.576   2.179
 9019SOL    HW227957   1.338   6.713   2.124
 9020SOL     OW27958   0.282   3.742   1.524
 9020SOL    HW127959   0.183   3.755   1.520
 9020SOL    HW227960   0.321   3.800   1.595
 9021SOL     OW27961   6.464   0.387   3.518
 9021SOL    HW127962   6.430   0.332   3.595
 9021SOL    HW227963   6.404   0.466   3.505
 9022SOL     OW27964   3.204   1.733   6.840
 9022SOL    HW127965   3.183   1.707   6.935
 9022SOL    HW227966   3.300   1.712   6.820
 9023SOL     OW27967   3.300   3.230   2.622
 9023SOL    HW127968   3.367   3.190   2.685
 9023SOL    HW227969   3.344   3.303   2.569
 9024SOL     OW27970   1.042   4.476   4.879
 9024SOL    HW127971   0.986   4.455   4.799
 9024SOL    HW227972   1.131   4.510   4.850
 9025SOL     OW27973   0.773   5.229   0.293
 9025SOL    HW127974   0.847   5.207   0.229
 9025SOL    HW227975   0.686   5.199   0.254
 9026SOL     OW27976   4.109   2.946   0.971
 9026SOL    HW127977   4.072   2.892   0.896
 9026SOL    HW227978   4.084   2.905   1.059
 9027SOL     OW27979   1.316   2.299   3.680
 9027SOL    HW127980   1.355   2.313   3.590
 9027SOL    HW227981   1.274   2.384   3.712
 9028SOL     OW27982   2.698   3.636   5.371
 9028SOL    HW127983   2.781   3.662   5.420
 9028SOL    HW227984   2.680   3.702   5.298
 9029SOL     OW27985   3.936   6.487   4.838
 9029SOL    HW127986   3.955   6.471   4.935
 9029SOL    HW227987   3.843   6.522   4.827
 9030SOL     OW27988   2.628   1.829   3.534
 9030SOL    HW127989   2.673   1.740   3.539
 9030SOL    HW227990   2.672   1.893   3.597
 9031SOL     OW27991   4.304   5.726   4.417
 9031SOL    HW127992   4.304   5.822   4.389
 9031SOL    HW227993   4.211   5.689   4.410
 9032SOL     OW27994   3.850   3.728   0.515
 9032SOL    HW127995   3.774   3.792   0.502
 9032SOL    HW227996   3.886   3.738   0.608
 9033SOL     OW27997   0.405   4.048   3.267
 9033SOL    HW127998   0.345   4.072   3.343
 9033SOL    HW227999   0.447   3.959   3.284
 9034SOL     OW28000   2.926   0.182   5.568
 9034SOL    HW128001   2.882   0.108   5.619
 9034SOL    HW228002   3.009   0.148   5.524
 9035SOL     OW28003   1.727   4.941   6.576
 9035SOL    HW128004   1.784   4.939   6.494
 9035SOL    HW228005   1.652   4.876   6.567
 9036SOL     OW28006   1.457   1.487   5.700
 9036SOL    HW128007   1.536   1.425   5.705
 9036SOL    HW228008   1.447   1.520   5.606
 9037SOL     OW28009   1.308   3.839   4.798
 9037SOL    HW128010   1.368   3.896   4.854
 9037SOL    HW228011   1.360   3.806   4.718
 9038SOL     OW28012   4.180   0.046   6.086
 9038SOL    HW128013   4.149   0.117   6.149
 9038SOL    HW228014   4.280   0.046   6.083
 9039SOL     OW28015   2.791   6.082   5.239
 9039SOL    HW128016   2.848   6.082   5.156
 9039SOL    HW228017   2.844   6.045   5.315
 9040SOL     OW28018   3.373   1.797   2.545
 9040SOL    HW128019   3.324   1.878   2.513
 9040SOL    HW228020   3.458   1.787   2.494
 9041SOL     OW28021   1.137   2.158   1.763
 9041SOL    HW128022   1.132   2.060   1.781
 9041SOL    HW228023   1.056   2.186   1.712
 9042SOL     OW28024   3.620   0.599   4.349
 9042SOL    HW128025   3.545   0.544   4.312
 9042SOL    HW228026   3.631   0.578   4.446
 9043SOL     OW28027   1.499   0.842   0.220
 9043SOL    HW128028   1.504   0.886   0.310
 9043SOL    HW228029   1.432   0.768   0.222
 9044SOL     OW28030   6.334   0.761   0.516
 9044SOL    HW128031   6.251   0.773   0.462
 9044SOL    HW228032   6.414   0.778   0.458
 9045SOL     OW28033   2.455   1.223   2.492
 9045SOL    HW128034   2.373   1.211   2.437
 9045SOL    HW228035   2.435   1.282   2.570
 9046SOL     OW28036   3.295   3.696   3.100
 9046SOL    HW128037   3.199   3.676   3.079
 9046SOL    HW228038   3.313   3.673   3.196
 9047SOL     OW28039   1.848   3.436   6.047
 9047SOL    HW128040   1.812   3.386   5.968
 9047SOL    HW228041   1.918   3.501   6.016
 9048SOL     OW28042   5.021   3.263   6.306
 9048SOL    HW128043   4.940   3.204   6.303
 9048SOL    HW228044   5.083   3.239   6.232
 9049SOL     OW28045   3.277   0.101   5.744
 9049SOL    HW128046   3.308   0.194   5.728
 9049SOL    HW228047   3.356   0.042   5.763
 9050SOL     OW28048   0.207   3.213   0.846
 9050SOL    HW128049   0.267   3.136   0.871
 9050SOL    HW228050   0.263   3.293   0.825
 9051SOL     OW28051   3.862   6.911   0.770
 9051SOL    HW128052   3.791   6.843   0.784
 9051SOL    HW228053   3.888   6.912   0.673
 9052SOL     OW28054   2.758   2.358   4.191
 9052SOL    HW128055   2.680   2.297   4.204
 9052SOL    HW228056   2.728   2.441   4.144
 9053SOL     OW28057   2.184   0.634   2.762
 9053SOL    HW128058   2.167   0.723   2.721
 9053SOL    HW228059   2.101   0.578   2.755
 9054SOL     OW28060   2.794   5.808   3.384
 9054SOL    HW128061   2.850   5.865   3.445
 9054SOL    HW228062   2.842   5.723   3.364
 9055SOL     OW28063   5.732   2.621   4.393
 9055SOL    HW128064   5.695   2.642   4.484
 9055SOL    HW228065   5.791   2.541   4.398
 9056SOL     OW28066   0.468   1.653   2.572
 9056SOL    HW128067   0.385   1.676   2.622
 9056SOL    HW228068   0.483   1.720   2.499
 9057SOL     OW28069   4.998   4.185   6.672
 9057SOL    HW128070   5.090   4.217   6.651
 9057SOL    HW228071   4.931   4.253   6.640
 9058SOL     OW28072   1.827   1.634   1.903
 9058SOL    HW128073   1.895   1.652   1.831
 9058SOL    HW228074   1.788   1.721   1.934
 9059SOL     OW28075   1.303   2.155   4.344
 9059SOL    HW128076   1.312   2.230   4.279
 9059SOL    HW228077   1.206   2.139   4.362
 9060SOL     OW28078   6.089   2.450   3.531
 9060SOL    HW128079   6.035   2.412   3.606
 9060SOL    HW228080   6.049   2.537   3.503
 9061SOL     OW28081   1.992   5.201   2.136
 9061SOL    HW128082   1.909   5.218   2.188
 9061SOL    HW228083   2.072   5.212   2.196
 9062SOL     OW28084   1.897   5.835   1.863
 9062SOL    HW128085   1.942   5.912   1.818
 9062SOL    HW228086   1.861   5.864   1.951
 9063SOL     OW28087   2.934   6.997   3.141
 9063SOL    HW128088   2.987   7.010   3.225
 9063SOL    HW228089   2.933   0.060   3.088
 9064SOL     OW28090   6.723   2.441   5.463
 9064SOL    HW128091   6.668   2.465   5.383
 9064SOL    HW228092   6.757   2.347   5.453
 9065SOL     OW28093   3.444   0.310   5.469
 9065SOL    HW128094   3.427   0.404   5.439
 9065SOL    HW228095   3.490   0.312   5.558
 9066SOL     OW28096   4.578   6.167   0.387
 9066SOL    HW128097   4.598   6.078   0.429
 9066SOL    HW228098   4.530   6.153   0.300
 9067SOL     OW28099   0.186   0.477   4.132
 9067SOL    HW128100   0.144   0.464   4.042
 9067SOL    HW228101   0.130   0.539   4.186
 9068SOL     OW28102   2.509   6.773   4.713
 9068SOL    HW128103   2.600   6.801   4.744
 9068SOL    HW228104   2.489   6.817   4.625
 9069SOL     OW28105   1.656   3.388   1.413
 9069SOL    HW128106   1.632   3.292   1.416
 9069SOL    HW228107   1.748   3.401   1.452
 9070SOL     OW28108   1.551   3.525   4.562
 9070SOL    HW128109   1.528   3.532   4.659
 9070SOL    HW228110   1.539   3.431   4.532
 9071SOL     OW28111   6.056   6.601   1.447
 9071SOL    HW128112   6.052   6.546   1.363
 9071SOL    HW228113   5.964   6.632   1.471
 9072SOL     OW28114   7.006   1.984   1.524
 9072SOL    HW128115   6.924   1.964   1.470
 9072SOL    HW228116   0.061   1.935   1.486
 9073SOL     OW28117   3.113   6.777   2.809
 9073SOL    HW128118   3.148   6.871   2.813
 9073SOL    HW228119   3.157   6.728   2.734
 9074SOL     OW28120   1.672   1.939   2.276
 9074SOL    HW128121   1.595   1.986   2.319
 9074SOL    HW228122   1.756   1.993   2.289
 9075SOL     OW28123   0.772   1.461   2.027
 9075SOL    HW128124   0.710   1.420   1.961
 9075SOL    HW228125   0.835   1.523   1.979
 9076SOL     OW28126   6.750   2.345   5.732
 9076SOL    HW128127   6.745   2.418   5.801
 9076SOL    HW228128   6.746   2.386   5.641
 9077SOL     OW28129   4.200   0.249   0.130
 9077SOL    HW128130   4.146   0.165   0.125
 9077SOL    HW228131   4.266   0.251   0.054
 9078SOL     OW28132   4.093   3.452   6.504
 9078SOL    HW128133   4.066   3.359   6.478
 9078SOL    HW228134   4.190   3.453   6.528
 9079SOL     OW28135   3.077   0.138   4.196
 9079SOL    HW128136   3.014   0.180   4.131
 9079SOL    HW228137   3.135   0.072   4.148
 9080SOL     OW28138   4.479   2.839   6.767
 9080SOL    HW128139   4.459   2.810   6.861
 9080SOL    HW228140   4.470   2.761   6.705
 9081SOL     OW28141   3.613   0.217   2.242
 9081SOL    HW128142   3.615   0.133   2.296
 9081SOL    HW228143   3.582   0.293   2.300
 9082SOL     OW28144   2.266   0.610   5.202
 9082SOL    HW128145   2.305   0.518   5.191
 9082SOL    HW228146   2.328   0.666   5.257
 9083SOL     OW28147   3.176   5.281   6.228
 9083SOL    HW128148   3.263   5.313   6.266
 9083SOL    HW228149   3.172   5.181   6.236
 9084SOL     OW28150   3.532   4.093   3.985
 9084SOL    HW128151   3.507   4.093   3.889
 9084SOL    HW228152   3.454   4.062   4.040
 9085SOL     OW28153   2.113   0.542   1.778
 9085SOL    HW128154   2.089   0.638   1.762
 9085SOL    HW228155   2.044   0.499   1.835
 9086SOL     OW28156   0.893   4.514   0.140
 9086SOL    HW128157   0.846   4.541   0.056
 9086SOL    HW228158   0.827   4.476   0.205
 9087SOL     OW28159   4.400   2.324   1.417
 9087SOL    HW128160   4.410   2.239   1.366
 9087SOL    HW228161   4.331   2.381   1.372
 9088SOL     OW28162   6.894   0.140   0.979
 9088SOL    HW128163   6.944   0.090   0.908
 9088SOL    HW228164   6.870   0.076   1.052
 9089SOL     OW28165   5.382   5.825   5.910
 9089SOL    HW128166   5.320   5.820   5.832
 9089SOL    HW228167   5.357   5.755   5.977
 9090SOL     OW28168   6.782   1.161   4.183
 9090SOL    HW128169   6.880   1.141   4.180
 9090SOL    HW228170   6.765   1.249   4.137
 9091SOL     OW28171   2.880   4.435   0.147
 9091SOL    HW128172   2.871   4.466   0.053
 9091SOL    HW228173   2.937   4.500   0.198
 9092SOL     OW28174   6.456   0.962   6.716
 9092SOL    HW128175   6.390   0.900   6.672
 9092SOL    HW228176   6.533   0.909   6.751
 9093SOL     OW28177   0.860   5.731   5.788
 9093SOL    HW128178   0.764   5.756   5.796
 9093SOL    HW228179   0.894   5.756   5.698
 9094SOL     OW28180   6.344   4.753   2.792
 9094SOL    HW128181   6.288   4.832   2.820
 9094SOL    HW228182   6.389   4.715   2.873
 9095SOL     OW28183   4.834   4.903   6.222
 9095SOL    HW128184   4.838   4.991   6.174
 9095SOL    HW228185   4.747   4.858   6.201
 9096SOL     OW28186   6.460   5.347   2.484
 9096SOL    HW128187   6.511   5.428   2.455
 9096SOL    HW228188   6.423   5.301   2.404
 9097SOL     OW28189   1.754   1.740   0.852
 9097SOL    HW128190   1.681   1.692   0.804
 9097SOL    HW228191   1.801   1.801   0.789
 9098SOL     OW28192   3.227   2.132   4.773
 9098SOL    HW128193   3.158   2.166   4.710
 9098SOL    HW228194   3.194   2.140   4.867
 9099SOL     OW28195   3.329   3.327   6.158
 9099SOL    HW128196   3.418   3.362   6.191
 9099SOL    HW228197   3.288   3.395   6.098
 9100SOL     OW28198   0.097   3.398   3.467
 9100SOL    HW128199   0.019   3.407   3.406
 9100SOL    HW228200   0.160   3.475   3.453
 9101SOL     OW28201   2.678   2.390   1.759
 9101SOL    HW128202   2.769   2.353   1.778
 9101SOL    HW228203   2.661   2.389   1.660
 9102SOL     OW28204   3.489   6.561   2.089
 9102SOL    HW128205   3.564   6.580   2.026
 9102SOL    HW228206   3.490   6.629   2.163
 9103SOL     OW28207   5.489   1.891   6.422
 9103SOL    HW128208   5.558   1.928   6.484
 9103SOL    HW228209   5.520   1.900   6.328
 9104SOL     OW28210   6.959   6.919   1.361
 9104SOL    HW128211   6.995   6.983   1.429
 9104SOL    HW228212   0.013   6.878   1.311
 9105SOL     OW28213   0.424   0.823   6.009
 9105SOL    HW128214   0.514   0.780   6.018
 9105SOL    HW228215   0.434   0.922   6.016
 9106SOL     OW28216   5.993   3.570   1.236
 9106SOL    HW128217   6.046   3.526   1.164
 9106SOL    HW228218   5.983   3.667   1.215
 9107SOL     OW28219   2.175   0.984   6.406
 9107SOL    HW128220   2.236   0.963   6.482
 9107SOL    HW228221   2.229   1.008   6.325
 9108SOL     OW28222   4.949   4.647   5.126
 9108SOL    HW128223   4.968   4.732   5.077
 9108SOL    HW228224   4.946   4.571   5.061
 9109SOL     OW28225   5.540   3.860   2.988
 9109SOL    HW128226   5.525   3.798   2.911
 9109SOL    HW228227   5.597   3.815   3.056
 9110SOL     OW28228   1.679   5.191   4.500
 9110SOL    HW128229   1.585   5.225   4.497
 9110SOL    HW228230   1.740   5.256   4.453
 9111SOL     OW28231   4.169   3.168   0.079
 9111SOL    HW128232   4.177   3.261   0.115
 9111SOL    HW228233   4.255   3.119   0.094
 9112SOL     OW28234   2.012   5.615   2.564
 9112SOL    HW128235   2.089   5.665   2.523
 9112SOL    HW228236   2.018   5.622   2.664
 9113SOL     OW28237   5.282   2.729   2.566
 9113SOL    HW128238   5.276   2.639   2.610
 9113SOL    HW228239   5.377   2.758   2.562
 9114SOL     OW28240   6.934   5.371   3.583
 9114SOL    HW128241   6.988   5.292   3.616
 9114SOL    HW228242   6.903   5.353   3.490
 9115SOL     OW28243   5.898   5.461   5.240
 9115SOL    HW128244   5.886   5.433   5.335
 9115SOL    HW228245   5.915   5.381   5.183
 9116SOL     OW28246   0.463   6.669   2.853
 9116SOL    HW128247   0.469   6.572   2.876
 9116SOL    HW228248   0.511   6.687   2.767
 9117SOL     OW28249   3.447   2.632   6.155
 9117SOL    HW128250   3.392   2.548   6.146
 9117SOL    HW228251   3.391   2.711   6.131
 9118SOL     OW28252   6.577   3.629   0.382
 9118SOL    HW128253   6.524   3.700   0.336
 9118SOL    HW228254   6.530   3.542   0.375
 9119SOL     OW28255   3.861   1.155   1.792
 9119SOL    HW128256   3.809   1.237   1.815
 9119SOL    HW228257   3.957   1.178   1.777
 9120SOL     OW28258   0.218   2.144   5.959
 9120SOL    HW128259   0.126   2.134   5.996
 9120SOL    HW228260   0.281   2.088   6.014
 9121SOL     OW28261   3.533   5.899   4.924
 9121SOL    HW128262   3.505   5.811   4.886
 9121SOL    HW228263   3.524   5.970   4.854
 9122SOL     OW28264   2.548   4.559   2.160
 9122SOL    HW128265   2.628   4.588   2.108
 9122SOL    HW228266   2.511   4.475   2.120
 9123SOL     OW28267   1.923   0.847   4.506
 9123SOL    HW128268   1.844   0.796   4.473
 9123SOL    HW228269   1.895   0.940   4.532
 9124SOL     OW28270   3.501   5.468   1.319
 9124SOL    HW128271   3.415   5.439   1.276
 9124SOL    HW228272   3.572   5.473   1.249
 9125SOL     OW28273   4.203   4.553   1.155
 9125SOL    HW128274   4.138   4.598   1.215
 9125SOL    HW228275   4.189   4.454   1.158
 9126SOL     OW28276   4.474   3.581   1.237
 9126SOL    HW128277   4.469   3.676   1.267
 9126SOL    HW228278   4.478   3.520   1.316
 9127SOL     OW28279   6.796   2.183   5.403
 9127SOL    HW128280   6.715   2.126   5.387
 9127SOL    HW228281   6.879   2.131   5.384
 9128SOL     OW28282   5.729   2.719   5.424
 9128SOL    HW128283   5.770   2.766   5.347
 9128SOL    HW228284   5.762   2.625   5.427
 9129SOL     OW28285   6.573   1.626   0.213
 9129SOL    HW128286   6.477   1.610   0.236
 9129SOL    HW228287   6.627   1.631   0.297
 9130SOL     OW28288   0.884   4.472   5.855
 9130SOL    HW128289   0.956   4.404   5.867
 9130SOL    HW228290   0.915   4.560   5.891
 9131SOL     OW28291   5.107   3.489   6.413
 9131SOL    HW128292   5.177   3.470   6.482
 9131SOL    HW228293   5.068   3.403   6.381
 9132SOL     OW28294   1.198   4.714   4.379
 9132SOL    HW128295   1.197   4.674   4.287
 9132SOL    HW228296   1.127   4.784   4.386
 9133SOL     OW28297   3.427   0.737   1.368
 9133SOL    HW128298   3.467   0.772   1.453
 9133SOL    HW228299   3.333   0.708   1.384
 9134SOL     OW28300   4.655   5.331   1.508
 9134SOL    HW128301   4.621   5.416   1.549
 9134SOL    HW228302   4.615   5.320   1.416
 9135SOL     OW28303   0.992   6.472   1.762
 9135SOL    HW128304   0.954   6.503   1.850
 9135SOL    HW228305   0.976   6.542   1.693
 9136SOL     OW28306   4.569   5.974   5.702
 9136SOL    HW128307   4.626   6.043   5.657
 9136SOL    HW228308   4.477   5.978   5.663
 9137SOL     OW28309   4.088   0.609   6.832
 9137SOL    HW128310   4.121   0.515   6.825
 9137SOL    HW228311   3.993   0.609   6.864
 9138SOL     OW28312   1.251   4.120   6.478
 9138SOL    HW128313   1.317   4.046   6.492
 9138SOL    HW228314   1.166   4.097   6.527
 9139SOL     OW28315   0.896   1.315   2.223
 9139SOL    HW128316   0.878   1.217   2.216
 9139SOL    HW228317   0.851   1.362   2.147
 9140SOL     OW28318   0.777   4.932   2.525
 9140SOL    HW128319   0.851   4.987   2.563
 9140SOL    HW228320   0.749   4.863   2.591
 9141SOL     OW28321   0.076   5.963   6.512
 9141SOL    HW128322   0.003   6.024   6.483
 9141SOL    HW228323   0.064   5.940   6.609
 9142SOL     OW28324   0.390   2.966   1.753
 9142SOL    HW128325   0.340   3.039   1.799
 9142SOL    HW228326   0.433   3.001   1.670
 9143SOL     OW28327   0.247   4.201   1.676
 9143SOL    HW128328   0.175   4.213   1.744
 9143SOL    HW228329   0.281   4.290   1.647
 9144SOL     OW28330   3.573   5.105   5.092
 9144SOL    HW128331   3.485   5.078   5.052
 9144SOL    HW228332   3.626   5.155   5.024
 9145SOL     OW28333   1.678   6.196   6.614
 9145SOL    HW128334   1.666   6.270   6.679
 9145SOL    HW228335   1.718   6.116   6.660
 9146SOL     OW28336   5.051   3.373   2.902
 9146SOL    HW128337   5.004   3.461   2.892
 9146SOL    HW228338   5.085   3.344   2.813
 9147SOL     OW28339   6.902   0.871   4.660
 9147SOL    HW128340   6.830   0.804   4.679
 9147SOL    HW228341   6.883   0.917   4.573
 9148SOL     OW28342   5.642   6.890   1.815
 9148SOL    HW128343   5.621   6.937   1.900
 9148SOL    HW228344   5.686   6.953   1.751
 9149SOL     OW28345   5.551   3.149   2.109
 9149SOL    HW128346   5.464   3.109   2.136
 9149SOL    HW228347   5.537   3.243   2.079
 9150SOL     OW28348   3.482   4.161   0.747
 9150SOL    HW128349   3.456   4.257   0.743
 9150SOL    HW228350   3.474   4.121   0.656
 9151SOL     OW28351   2.129   3.793   3.644
 9151SOL    HW128352   2.097   3.888   3.644
 9151SOL    HW228353   2.197   3.781   3.717
 9152SOL     OW28354   2.094   4.455   4.256
 9152SOL    HW128355   2.048   4.455   4.168
 9152SOL    HW228356   2.171   4.520   4.254
 9153SOL     OW28357   0.244   3.164   6.860
 9153SOL    HW128358   0.249   3.166   6.760
 9153SOL    HW228359   0.330   3.196   6.898
 9154SOL     OW28360   4.885   4.177   3.768
 9154SOL    HW128361   4.983   4.181   3.788
 9154SOL    HW228362   4.848   4.270   3.762
 9155SOL     OW28363   2.256   4.335   2.870
 9155SOL    HW128364   2.193   4.262   2.846
 9155SOL    HW228365   2.332   4.335   2.804
 9156SOL     OW28366   6.420   2.747   1.450
 9156SOL    HW128367   6.387   2.825   1.503
 9156SOL    HW228368   6.518   2.756   1.434
 9157SOL     OW28369   2.948   4.129   6.956
 9157SOL    HW128370   2.871   4.127   7.020
 9157SOL    HW228371   2.915   4.145   6.864
 9158SOL     OW28372   6.922   4.339   4.047
 9158SOL    HW128373   6.953   4.289   4.128
 9158SOL    HW228374   6.829   4.373   4.062
 9159SOL     OW28375   1.859   0.268   3.425
 9159SOL    HW128376   1.936   0.320   3.387
 9159SOL    HW228377   1.892   0.211   3.500
 9160SOL     OW28378   0.390   5.372   5.765
 9160SOL    HW128379   0.295   5.344   5.752
 9160SOL    HW228380   0.396   5.471   5.760
 9161SOL     OW28381   6.402   5.077   3.391
 9161SOL    HW128382   6.309   5.075   3.354
 9161SOL    HW228383   6.430   4.983   3.414
 9162SOL     OW28384   3.682   0.412   2.984
 9162SOL    HW128385   3.758   0.463   3.024
 9162SOL    HW228386   3.690   0.414   2.884
 9163SOL     OW28387   6.819   3.536   2.584
 9163SOL    HW128388   6.833   3.596   2.505
 9163SOL    HW228389   6.810   3.442   2.553
 9164SOL     OW28390   1.628   0.979   6.905
 9164SOL    HW128391   1.654   0.970   7.001
 9164SOL    HW228392   1.711   0.978   6.849
 9165SOL     OW28393   4.731   1.801   5.779
 9165SOL    HW128394   4.768   1.815   5.871
 9165SOL    HW228395   4.636   1.833   5.776
 9166SOL     OW28396   4.213   5.122   0.912
 9166SOL    HW128397   4.247   5.048   0.970
 9166SOL    HW228398   4.288   5.185   0.891
 9167SOL     OW28399   1.340   2.709   5.899
 9167SOL    HW128400   1.371   2.802   5.918
 9167SOL    HW228401   1.247   2.712   5.862
 9168SOL     OW28402   6.656   5.656   6.091
 9168SOL    HW128403   6.607   5.571   6.109
 9168SOL    HW228404   6.592   5.727   6.062
 9169SOL     OW28405   6.550   5.924   5.994
 9169SOL    HW128406   6.515   5.893   5.906
 9169SOL    HW228407   6.575   6.021   5.987
 9170SOL     OW28408   1.744   1.284   6.199
 9170SOL    HW128409   1.695   1.309   6.282
 9170SOL    HW228410   1.840   1.269   6.220
 9171SOL     OW28411   2.695   5.830   0.754
 9171SOL    HW128412   2.754   5.856   0.678
 9171SOL    HW228413   2.749   5.824   0.837
 9172SOL     OW28414   4.356   2.113   4.654
 9172SOL    HW128415   4.433   2.147   4.600
 9172SOL    HW228416   4.313   2.037   4.605
 9173SOL     OW28417   6.314   2.828   4.520
 9173SOL    HW128418   6.321   2.843   4.618
 9173SOL    HW228419   6.219   2.808   4.496
 9174SOL     OW28420   0.904   5.904   6.952
 9174SOL    HW128421   0.957   5.983   6.981
 9174SOL    HW228422   0.962   5.844   6.895
 9175SOL     OW28423   1.438   6.572   0.173
 9175SOL    HW128424   1.456   6.566   0.271
 9175SOL    HW228425   1.387   6.656   0.154
 9176SOL     OW28426   2.441   6.847   1.823
 9176SOL    HW128427   2.441   6.835   1.724
 9176SOL    HW228428   2.458   6.759   1.868
 9177SOL     OW28429   1.599   2.752   3.712
 9177SOL    HW128430   1.521   2.734   3.772
 9177SOL    HW228431   1.678   2.776   3.767
 9178SOL     OW28432   2.466   5.338   6.305
 9178SOL    HW128433   2.429   5.373   6.391
 9178SOL    HW228434   2.452   5.239   6.301
 9179SOL     OW28435   2.476   6.147   5.141
 9179SOL    HW128436   2.535   6.224   5.116
 9179SOL    HW228437   2.431   6.167   5.228
 9180SOL     OW28438   6.708   2.299   4.033
 9180SOL    HW128439   6.637   2.264   4.093
 9180SOL    HW228440   6.708   2.399   4.036
 9181SOL     OW28441   4.937   2.531   3.112
 9181SOL    HW128442   4.972   2.552   3.204
 9181SOL    HW228443   4.845   2.569   3.102
 9182SOL     OW28444   3.128   1.256   2.935
 9182SOL    HW128445   3.112   1.164   2.901
 9182SOL    HW228446   3.215   1.291   2.899
 9183SOL     OW28447   4.611   3.975   6.136
 9183SOL    HW128448   4.705   3.946   6.156
 9183SOL    HW228449   4.551   3.952   6.213
 9184SOL     OW28450   3.660   2.176   0.742
 9184SOL    HW128451   3.681   2.194   0.838
 9184SOL    HW228452   3.615   2.087   0.734
 9185SOL     OW28453   0.894   6.649   6.337
 9185SOL    HW128454   0.829   6.585   6.378
 9185SOL    HW228455   0.895   6.636   6.238
 9186SOL     OW28456   4.607   0.746   5.774
 9186SOL    HW128457   4.681   0.811   5.756
 9186SOL    HW228458   4.628   0.694   5.856
 9187SOL     OW28459   4.795   2.038   6.907
 9187SOL    HW128460   4.778   2.036   7.006
 9187SOL    HW228461   4.820   1.946   6.876
 9188SOL     OW28462   1.579   0.409   1.441
 9188SOL    HW128463   1.532   0.481   1.491
 9188SOL    HW228464   1.604   0.336   1.504
 9189SOL     OW28465   3.275   0.918   4.027
 9189SOL    HW128466   3.253   0.881   3.937
 9189SOL    HW228467   3.237   0.859   4.098
 9190SOL     OW28468   6.373   3.854   5.367
 9190SOL    HW128469   6.378   3.792   5.445
 9190SOL    HW228470   6.440   3.825   5.298
 9191SOL     OW28471   4.909   6.508   6.877
 9191SOL    HW128472   4.995   6.458   6.868
 9191SOL    HW228473   4.917   6.574   6.952
 9192SOL     OW28474   6.252   3.883   6.240
 9192SOL    HW128475   6.322   3.812   6.249
 9192SOL    HW228476   6.280   3.965   6.291
 9193SOL     OW28477   3.321   3.745   3.901
 9193SOL    HW128478   3.244   3.683   3.916
 9193SOL    HW228479   3.380   3.709   3.829
 9194SOL     OW28480   3.599   5.845   1.999
 9194SOL    HW128481   3.519   5.866   1.942
 9194SOL    HW228482   3.571   5.781   2.071
 9195SOL     OW28483   2.153   2.628   3.695
 9195SOL    HW128484   2.133   2.530   3.693
 9195SOL    HW228485   2.099   2.675   3.625
 9196SOL     OW28486   5.586   0.012   4.089
 9196SOL    HW128487   5.620   6.963   4.027
 9196SOL    HW228488   5.658   0.039   4.152
 9197SOL     OW28489   3.307   4.363   1.009
 9197SOL    HW128490   3.211   4.341   1.026
 9197SOL    HW228491   3.357   4.278   0.989
 9198SOL     OW28492   5.537   3.997   6.259
 9198SOL    HW128493   5.630   4.004   6.295
 9198SOL    HW228494   5.539   3.963   6.165
 9199SOL     OW28495   0.596   3.477   6.197
 9199SOL    HW128496   0.649   3.404   6.240
 9199SOL    HW228497   0.606   3.561   6.250
 9200SOL     OW28498   1.664   5.767   6.669
 9200SOL    HW128499   1.667   5.674   6.705
 9200SOL    HW228500   1.628   5.766   6.576
 9201SOL     OW28501   0.779   3.682   1.289
 9201SOL    HW128502   0.702   3.651   1.344
 9201SOL    HW228503   0.772   3.643   1.197
 9202SOL     OW28504   1.862   5.666   4.415
 9202SOL    HW128505   1.907   5.751   4.444
 9202SOL    HW228506   1.887   5.645   4.321
 9203SOL     OW28507   5.042   2.303   6.415
 9203SOL    HW128508   5.081   2.218   6.382
 9203SOL    HW228509   5.105   2.347   6.479
 9204SOL     OW28510   5.232   3.849   3.742
 9204SOL    HW128511   5.252   3.772   3.803
 9204SOL    HW228512   5.133   3.862   3.736
 9205SOL     OW28513   5.191   3.690   2.367
 9205SOL    HW128514   5.213   3.651   2.277
 9205SOL    HW228515   5.100   3.658   2.396
 9206SOL     OW28516   3.139   0.347   4.379
 9206SOL    HW128517   3.136   0.284   4.301
 9206SOL    HW228518   3.060   0.331   4.438
 9207SOL     OW28519   3.755   6.403   5.738
 9207SOL    HW128520   3.668   6.404   5.787
 9207SOL    HW228521   3.785   6.308   5.725
 9208SOL     OW28522   5.102   3.960   2.212
 9208SOL    HW128523   5.043   3.880   2.211
 9208SOL    HW228524   5.197   3.932   2.198
 9209SOL     OW28525   4.040   0.721   2.155
 9209SOL    HW128526   4.078   0.776   2.080
 9209SOL    HW228527   3.951   0.758   2.182
 9210SOL     OW28528   1.457   0.595   1.076
 9210SOL    HW128529   1.404   0.621   1.157
 9210SOL    HW228530   1.548   0.565   1.104
 9211SOL     OW28531   4.969   2.151   5.965
 9211SOL    HW128532   5.034   2.145   5.889
 9211SOL    HW228533   5.005   2.213   6.035
 9212SOL     OW28534   4.974   4.023   5.100
 9212SOL    HW128535   4.923   4.058   5.021
 9212SOL    HW228536   4.910   4.002   5.174
 9213SOL     OW28537   5.500   6.255   4.605
 9213SOL    HW128538   5.495   6.159   4.632
 9213SOL    HW228539   5.595   6.279   4.587
 9214SOL     OW28540   0.754   2.692   5.159
 9214SOL    HW128541   0.848   2.723   5.147
 9214SOL    HW228542   0.694   2.771   5.174
 9215SOL     OW28543   0.413   4.286   2.551
 9215SOL    HW128544   0.460   4.303   2.638
 9215SOL    HW228545   0.465   4.218   2.498
 9216SOL     OW28546   2.276   6.790   4.878
 9216SOL    HW128547   2.353   6.812   4.818
 9216SOL    HW228548   2.191   6.824   4.836
 9217SOL     OW28549   5.439   1.460   6.785
 9217SOL    HW128550   5.452   1.362   6.799
 9217SOL    HW228551   5.501   1.492   6.714
 9218SOL     OW28552   3.786   0.927   6.823
 9218SOL    HW128553   3.796   0.837   6.865
 9218SOL    HW228554   3.863   0.944   6.761
 9219SOL     OW28555   4.119   3.140   5.635
 9219SOL    HW128556   4.171   3.084   5.570
 9219SOL    HW228557   4.042   3.183   5.588
 9220SOL     OW28558   2.289   5.939   2.274
 9220SOL    HW128559   2.291   6.026   2.323
 9220SOL    HW228560   2.225   5.946   2.196
 9221SOL     OW28561   2.361   0.465   5.697
 9221SOL    HW128562   2.414   0.493   5.777
 9221SOL    HW228563   2.270   0.508   5.700
 9222SOL     OW28564   2.391   4.414   4.450
 9222SOL    HW128565   2.320   4.372   4.507
 9222SOL    HW228566   2.436   4.487   4.501
 9223SOL     OW28567   0.773   2.514   3.907
 9223SOL    HW128568   0.703   2.444   3.890
 9223SOL    HW228569   0.837   2.516   3.830
 9224SOL     OW28570   2.077   3.107   3.706
 9224SOL    HW128571   2.074   3.194   3.755
 9224SOL    HW228572   2.085   3.032   3.771
 9225SOL     OW28573   3.928   6.918   6.414
 9225SOL    HW128574   4.009   6.913   6.356
 9225SOL    HW228575   3.892   6.827   6.430
 9226SOL     OW28576   1.293   0.358   1.371
 9226SOL    HW128577   1.354   0.334   1.447
 9226SOL    HW228578   1.333   0.327   1.285
 9227SOL     OW28579   2.165   5.006   1.401
 9227SOL    HW128580   2.189   5.095   1.362
 9227SOL    HW228581   2.240   4.975   1.460
 9228SOL     OW28582   1.876   2.602   6.247
 9228SOL    HW128583   1.948   2.610   6.315
 9228SOL    HW228584   1.902   2.652   6.164
 9229SOL     OW28585   1.392   4.967   6.785
 9229SOL    HW128586   1.312   4.960   6.845
 9229SOL    HW228587   1.370   5.029   6.709
 9230SOL     OW28588   5.037   2.578   3.649
 9230SOL    HW128589   5.129   2.616   3.655
 9230SOL    HW228590   4.970   2.647   3.676
 9231SOL     OW28591   0.824   4.883   5.774
 9231SOL    HW128592   0.858   4.798   5.815
 9231SOL    HW228593   0.868   4.961   5.818
 9232SOL     OW28594   2.012   5.392   1.247
 9232SOL    HW128595   2.027   5.341   1.331
 9232SOL    HW228596   2.013   5.329   1.169
 9233SOL     OW28597   1.027   6.733   0.622
 9233SOL    HW128598   1.112   6.773   0.588
 9233SOL    HW228599   0.997   6.783   0.703
 9234SOL     OW28600   2.595   5.474   0.645
 9234SOL    HW128601   2.588   5.548   0.712
 9234SOL    HW228602   2.540   5.497   0.565
 9235SOL     OW28603   2.660   2.278   3.464
 9235SOL    HW128604   2.648   2.255   3.368
 9235SOL    HW228605   2.589   2.344   3.492
 9236SOL     OW28606   2.327   3.317   6.530
 9236SOL    HW128607   2.231   3.291   6.518
 9236SOL    HW228608   2.339   3.360   6.619
 9237SOL     OW28609   0.413   5.833   2.805
 9237SOL    HW128610   0.430   5.868   2.897
 9237SOL    HW228611   0.501   5.819   2.758
 9238SOL     OW28612   2.968   2.209   5.829
 9238SOL    HW128613   2.931   2.135   5.884
 9238SOL    HW228614   2.901   2.235   5.759
 9239SOL     OW28615   6.738   4.436   6.256
 9239SOL    HW128616   6.734   4.396   6.164
 9239SOL    HW228617   6.646   4.461   6.286
 9240SOL     OW28618   5.119   3.298   2.626
 9240SOL    HW128619   5.037   3.356   2.622
 9240SOL    HW228620   5.167   3.302   2.538
 9241SOL     OW28621   6.724   5.793   0.396
 9241SOL    HW128622   6.746   5.777   0.492
 9241SOL    HW228623   6.734   5.890   0.375
 9242SOL     OW28624   2.031   2.865   1.965
 9242SOL    HW128625   2.063   2.939   2.025
 9242SOL    HW228626   2.091   2.859   1.885
 9243SOL     OW28627   0.955   0.542   2.197
 9243SOL    HW128628   0.914   0.455   2.168
 9243SOL    HW228629   0.883   0.612   2.204
 9244SOL     OW28630   2.477   6.576   5.997
 9244SOL    HW128631   2.483   6.675   6.000
 9244SOL    HW228632   2.438   6.542   6.082
 9245SOL     OW28633   0.695   4.336   3.768
 9245SOL    HW128634   0.749   4.258   3.798
 9245SOL    HW228635   0.598   4.316   3.777
 9246SOL     OW28636   5.893   0.101   4.686
 9246SOL    HW128637   5.910   0.003   4.686
 9246SOL    HW228638   5.970   0.148   4.642
 9247SOL     OW28639   4.038   5.746   3.251
 9247SOL    HW128640   4.016   5.837   3.215
 9247SOL    HW228641   3.957   5.688   3.248
 9248SOL     OW28642   2.819   1.883   5.424
 9248SOL    HW128643   2.767   1.916   5.503
 9248SOL    HW228644   2.917   1.884   5.446
 9249SOL     OW28645   4.356   4.892   1.085
 9249SOL    HW128646   4.282   4.872   1.148
 9249SOL    HW228647   4.402   4.976   1.113
 9250SOL     OW28648   6.772   3.361   3.986
 9250SOL    HW128649   6.849   3.299   3.986
 9250SOL    HW228650   6.691   3.315   3.949
 9251SOL     OW28651   4.245   2.175   1.965
 9251SOL    HW128652   4.149   2.183   1.991
 9251SOL    HW228653   4.302   2.219   2.034
 9252SOL     OW28654   5.409   0.863   4.863
 9252SOL    HW128655   5.407   0.766   4.839
 9252SOL    HW228656   5.417   0.872   4.963
 9253SOL     OW28657   5.077   5.125   5.909
 9253SOL    HW128658   5.157   5.072   5.934
 9253SOL    HW228659   5.055   5.111   5.813
 9254SOL     OW28660   5.035   5.183   2.497
 9254SOL    HW128661   4.993   5.236   2.425
 9254SOL    HW228662   5.026   5.085   2.476
 9255SOL     OW28663   5.738   3.248   6.520
 9255SOL    HW128664   5.654   3.218   6.565
 9255SOL    HW228665   5.728   3.243   6.421
 9256SOL     OW28666   1.762   0.029   1.430
 9256SOL    HW128667   1.730   6.964   1.467
 9256SOL    HW228668   1.845   0.057   1.479
 9257SOL     OW28669   6.222   5.962   2.990
 9257SOL    HW128670   6.219   6.009   2.902
 9257SOL    HW228671   6.254   6.025   3.061
 9258SOL     OW28672   3.661   3.476   0.654
 9258SOL    HW128673   3.610   3.534   0.590
 9258SOL    HW228674   3.656   3.515   0.746
 9259SOL     OW28675   1.931   1.315   0.449
 9259SOL    HW128676   2.025   1.317   0.415
 9259SOL    HW228677   1.868   1.296   0.374
 9260SOL     OW28678   6.947   2.434   6.157
 9260SOL    HW128679   6.948   2.359   6.223
 9260SOL    HW228680   0.013   2.437   6.110
 9261SOL     OW28681   4.736   0.890   6.433
 9261SOL    HW128682   4.725   0.826   6.509
 9261SOL    HW228683   4.658   0.952   6.429
 9262SOL     OW28684   1.151   6.804   5.244
 9262SOL    HW128685   1.117   6.762   5.328
 9262SOL    HW228686   1.110   6.895   5.233
 9263SOL     OW28687   3.405   5.247   2.805
 9263SOL    HW128688   3.466   5.177   2.767
 9263SOL    HW228689   3.312   5.212   2.808
 9264SOL     OW28690   4.456   3.108   0.146
 9264SOL    HW128691   4.480   3.017   0.112
 9264SOL    HW228692   4.466   3.174   0.072
 9265SOL     OW28693   3.933   2.122   6.705
 9265SOL    HW128694   4.023   2.081   6.689
 9265SOL    HW228695   3.899   2.163   6.621
 9266SOL     OW28696   0.183   5.755   1.201
 9266SOL    HW128697   0.092   5.792   1.184
 9266SOL    HW228698   0.252   5.822   1.173
 9267SOL     OW28699   1.021   2.059   4.353
 9267SOL    HW128700   0.959   2.043   4.276
 9267SOL    HW228701   0.968   2.078   4.435
 9268SOL     OW28702   0.913   6.294   2.520
 9268SOL    HW128703   0.832   6.349   2.538
 9268SOL    HW228704   0.911   6.261   2.425
 9269SOL     OW28705   4.021   0.176   6.641
 9269SOL    HW128706   3.931   0.132   6.640
 9269SOL    HW228707   4.034   0.227   6.556
 9270SOL     OW28708   3.749   0.420   5.494
 9270SOL    HW128709   3.831   0.377   5.530
 9270SOL    HW228710   3.711   0.364   5.420
 9271SOL     OW28711   0.065   0.318   1.024
 9271SOL    HW128712   0.004   0.255   0.977
 9271SOL    HW228713   0.159   0.283   1.022
 9272SOL     OW28714   0.707   6.463   6.469
 9272SOL    HW128715   0.755   6.457   6.557
 9272SOL    HW228716   0.609   6.473   6.485
 9273SOL     OW28717   5.443   6.013   3.059
 9273SOL    HW128718   5.398   6.074   2.994
 9273SOL    HW228719   5.536   5.993   3.026
 9274SOL     OW28720   6.594   2.239   0.238
 9274SOL    HW128721   6.649   2.265   0.318
 9274SOL    HW228722   6.564   2.144   0.248
 9275SOL     OW28723   7.008   6.809   0.020
 9275SOL    HW128724   0.074   6.770   0.048
 9275SOL    HW228725   6.935   6.766   0.072
 9276SOL     OW28726   2.476   5.117   6.776
 9276SOL    HW128727   2.499   5.187   6.708
 9276SOL    HW228728   2.449   5.162   6.861
 9277SOL     OW28729   3.947   5.503   2.909
 9277SOL    HW128730   3.849   5.494   2.929
 9277SOL    HW228731   3.965   5.594   2.871
 9278SOL     OW28732   1.024   0.700   5.407
 9278SOL    HW128733   1.058   0.613   5.443
 9278SOL    HW228734   0.964   0.683   5.329
 9279SOL     OW28735   3.398   6.793   1.811
 9279SOL    HW128736   3.491   6.779   1.846
 9279SOL    HW228737   3.353   6.704   1.800
 9280SOL     OW28738   2.373   1.566   2.387
 9280SOL    HW128739   2.408   1.481   2.427
 9280SOL    HW228740   2.432   1.642   2.413
 9281SOL     OW28741   3.453   3.725   6.613
 9281SOL    HW128742   3.363   3.761   6.638
 9281SOL    HW228743   3.448   3.682   6.523
 9282SOL     OW28744   4.858   1.151   4.508
 9282SOL    HW128745   4.783   1.087   4.490
 9282SOL    HW228746   4.917   1.114   4.580
 9283SOL     OW28747   5.386   0.574   5.308
 9283SOL    HW128748   5.319   0.634   5.264
 9283SOL    HW228749   5.432   0.624   5.381
 9284SOL     OW28750   2.562   3.390   5.406
 9284SOL    HW128751   2.612   3.476   5.399
 9284SOL    HW228752   2.625   3.314   5.388
 9285SOL     OW28753   5.228   2.915   0.665
 9285SOL    HW128754   5.179   2.859   0.731
 9285SOL    HW228755   5.233   3.010   0.698
 9286SOL     OW28756   4.691   5.637   0.413
 9286SOL    HW128757   4.771   5.595   0.456
 9286SOL    HW228758   4.620   5.653   0.482
 9287SOL     OW28759   3.291   4.713   5.537
 9287SOL    HW128760   3.260   4.778   5.468
 9287SOL    HW228761   3.285   4.620   5.500
 9288SOL     OW28762   4.781   2.084   3.121
 9288SOL    HW128763   4.822   2.014   3.179
 9288SOL    HW228764   4.849   2.154   3.099
 9289SOL     OW28765   4.211   0.781   0.000
 9289SOL    HW128766   4.145   0.739   6.960
 9289SOL    HW228767   4.182   0.875   0.020
 9290SOL     OW28768   6.360   0.881   4.375
 9290SOL    HW128769   6.368   0.826   4.458
 9290SOL    HW228770   6.317   0.969   4.399
 9291SOL     OW28771   1.586   6.182   6.204
 9291SOL    HW128772   1.655   6.209   6.271
 9291SOL    HW228773   1.587   6.083   6.192
 9292SOL     OW28774   1.724   1.194   6.597
 9292SOL    HW128775   1.816   1.213   6.563
 9292SOL    HW228776   1.719   1.099   6.628
 9293SOL     OW28777   4.739   3.297   6.759
 9293SOL    HW128778   4.816   3.293   6.694
 9293SOL    HW228779   4.668   3.234   6.729
 9294SOL     OW28780   5.028   0.707   6.903
 9294SOL    HW128781   5.070   0.720   6.992
 9294SOL    HW228782   5.030   0.610   6.879
 9295SOL     OW28783   6.637   0.906   4.955
 9295SOL    HW128784   6.611   0.876   5.046
 9295SOL    HW228785   6.736   0.898   4.944
 9296SOL     OW28786   2.021   4.995   0.761
 9296SOL    HW128787   2.048   4.932   0.688
 9296SOL    HW228788   2.100   5.017   0.817
 9297SOL     OW28789   0.510   6.422   3.301
 9297SOL    HW128790   0.441   6.445   3.370
 9297SOL    HW228791   0.521   6.499   3.238
 9298SOL     OW28792   1.390   6.545   6.265
 9298SOL    HW128793   1.332   6.591   6.332
 9298SOL    HW228794   1.456   6.486   6.312
 9299SOL     OW28795   0.964   1.221   3.637
 9299SOL    HW128796   0.944   1.265   3.549
 9299SOL    HW228797   1.061   1.195   3.639
 9300SOL     OW28798   0.470   5.306   4.851
 9300SOL    HW128799   0.499   5.377   4.915
 9300SOL    HW228800   0.381   5.271   4.878
 9301SOL     OW28801   0.013   4.103   5.167
 9301SOL    HW128802   0.006   4.100   5.067
 9301SOL    HW228803   6.976   4.176   5.203
 9302SOL     OW28804   2.218   3.028   4.635
 9302SOL    HW128805   2.159   3.076   4.570
 9302SOL    HW228806   2.273   2.960   4.586
 9303SOL     OW28807   2.637   4.826   0.346
 9303SOL    HW128808   2.647   4.726   0.356
 9303SOL    HW228809   2.654   4.851   0.251
 9304SOL     OW28810   4.401   5.246   0.584
 9304SOL    HW128811   4.305   5.254   0.612
 9304SOL    HW228812   4.418   5.307   0.507
 9305SOL     OW28813   3.659   1.123   0.561
 9305SOL    HW128814   3.758   1.130   0.553
 9305SOL    HW228815   3.617   1.121   0.470
 9306SOL     OW28816   0.529   3.767   5.507
 9306SOL    HW128817   0.470   3.727   5.437
 9306SOL    HW228818   0.594   3.829   5.464
 9307SOL     OW28819   1.225   4.375   0.695
 9307SOL    HW128820   1.176   4.422   0.767
 9307SOL    HW228821   1.248   4.282   0.725
 9308SOL     OW28822   0.792   4.461   1.834
 9308SOL    HW128823   0.794   4.535   1.900
 9308SOL    HW228824   0.811   4.497   1.742
 9309SOL     OW28825   4.380   6.536   5.537
 9309SOL    HW128826   4.462   6.586   5.566
 9309SOL    HW228827   4.299   6.593   5.550
 9310SOL     OW28828   5.522   6.080   5.818
 9310SOL    HW128829   5.503   6.152   5.885
 9310SOL    HW228830   5.475   5.996   5.846
 9311SOL     OW28831   5.297   4.473   1.224
 9311SOL    HW128832   5.229   4.422   1.277
 9311SOL    HW228833   5.369   4.410   1.193
 9312SOL     OW28834   1.523   1.903   0.934
 9312SOL    HW128835   1.621   1.883   0.927
 9312SOL    HW228836   1.488   1.930   0.844
 9313SOL     OW28837   0.894   0.508   1.867
 9313SOL    HW128838   0.956   0.457   1.808
 9313SOL    HW228839   0.880   0.457   1.952
 9314SOL     OW28840   6.144   3.826   1.133
 9314SOL    HW128841   6.127   3.825   1.034
 9314SOL    HW228842   6.235   3.790   1.151
 9315SOL     OW28843   5.972   0.553   6.268
 9315SOL    HW128844   5.996   0.538   6.172
 9315SOL    HW228845   5.878   0.587   6.274
 9316SOL     OW28846   5.989   0.226   5.295
 9316SOL    HW128847   5.955   0.312   5.258
 9316SOL    HW228848   6.064   0.192   5.239
 9317SOL     OW28849   3.980   5.290   3.401
 9317SOL    HW128850   4.001   5.219   3.469
 9317SOL    HW228851   4.014   5.263   3.312
 9318SOL     OW28852   4.583   6.353   0.119
 9318SOL    HW128853   4.651   6.422   0.142
 9318SOL    HW228854   4.497   6.373   0.165
 9319SOL     OW28855   2.397   2.767   0.746
 9319SOL    HW128856   2.359   2.788   0.656
 9319SOL    HW228857   2.359   2.680   0.779
 9320SOL     OW28858   4.894   0.419   6.303
 9320SOL    HW128859   4.867   0.329   6.269
 9320SOL    HW228860   4.899   0.417   6.403
 9321SOL     OW28861   0.890   1.839   5.380
 9321SOL    HW128862   0.870   1.800   5.290
 9321SOL    HW228863   0.809   1.884   5.416
 9322SOL     OW28864   6.468   4.439   6.320
 9322SOL    HW128865   6.447   4.527   6.278
 9322SOL    HW228866   6.426   4.366   6.266
 9323SOL     OW28867   2.539   1.718   4.755
 9323SOL    HW128868   2.575   1.775   4.829
 9323SOL    HW228869   2.454   1.758   4.720
 9324SOL     OW28870   2.064   3.898   1.851
 9324SOL    HW128871   2.064   3.936   1.759
 9324SOL    HW228872   2.058   3.798   1.845
 9325SOL     OW28873   0.760   6.072   1.245
 9325SOL    HW128874   0.672   6.121   1.240
 9325SOL    HW228875   0.785   6.060   1.341
 9326SOL     OW28876   3.288   5.330   6.804
 9326SOL    HW128877   3.322   5.329   6.710
 9326SOL    HW228878   3.363   5.349   6.867
 9327SOL     OW28879   4.659   6.929   3.116
 9327SOL    HW128880   4.579   6.969   3.162
 9327SOL    HW228881   4.697   6.856   3.172
 9328SOL     OW28882   2.056   6.940   4.815
 9328SOL    HW128883   2.069   6.993   4.731
 9328SOL    HW228884   1.965   6.960   4.852
 9329SOL     OW28885   6.766   5.670   0.647
 9329SOL    HW128886   6.715   5.606   0.705
 9329SOL    HW228887   6.863   5.665   0.670
 9330SOL     OW28888   0.393   0.268   6.259
 9330SOL    HW128889   0.378   0.330   6.336
 9330SOL    HW228890   0.341   0.299   6.180
 9331SOL     OW28891   1.955   2.379   5.980
 9331SOL    HW128892   1.877   2.353   5.922
 9331SOL    HW228893   1.959   2.479   5.986
 9332SOL     OW28894   3.993   5.872   0.595
 9332SOL    HW128895   4.015   5.809   0.670
 9332SOL    HW228896   4.057   5.857   0.519
 9333SOL     OW28897   4.053   5.928   0.089
 9333SOL    HW128898   4.072   5.942   7.014
 9333SOL    HW228899   4.099   5.845   0.120
 9334SOL     OW28900   5.096   0.541   4.431
 9334SOL    HW128901   5.076   0.465   4.493
 9334SOL    HW228902   5.139   0.615   4.482
 9335SOL     OW28903   1.472   2.147   0.304
 9335SOL    HW128904   1.472   2.206   0.385
 9335SOL    HW228905   1.552   2.169   0.247
 9336SOL     OW28906   5.490   0.347   4.692
 9336SOL    HW128907   5.551   0.269   4.674
 9336SOL    HW228908   5.442   0.332   4.778
 9337SOL     OW28909   5.134   0.648   6.579
 9337SOL    HW128910   5.144   0.742   6.612
 9337SOL    HW228911   5.046   0.612   6.606
 9338SOL     OW28912   6.853   5.933   0.903
 9338SOL    HW128913   6.811   5.927   0.812
 9338SOL    HW228914   6.932   5.994   0.898
 9339SOL     OW28915   5.806   5.808   0.575
 9339SOL    HW128916   5.738   5.868   0.618
 9339SOL    HW228917   5.765   5.763   0.496
 9340SOL     OW28918   4.092   4.805   2.797
 9340SOL    HW128919   4.015   4.868   2.803
 9340SOL    HW228920   4.097   4.751   2.881
 9341SOL     OW28921   6.687   4.289   0.190
 9341SOL    HW128922   6.748   4.278   0.268
 9341SOL    HW228923   6.674   4.386   0.171
 9342SOL     OW28924   2.711   0.328   4.534
 9342SOL    HW128925   2.781   0.375   4.588
 9342SOL    HW228926   2.744   0.316   4.440
 9343SOL     OW28927   4.848   3.556   1.881
 9343SOL    HW128928   4.780   3.594   1.818
 9343SOL    HW228929   4.939   3.592   1.857
 9344SOL     OW28930   5.290   5.747   6.626
 9344SOL    HW128931   5.346   5.814   6.674
 9344SOL    HW228932   5.347   5.698   6.559
 9345SOL     OW28933   6.156   4.761   0.457
 9345SOL    HW128934   6.207   4.694   0.403
 9345SOL    HW228935   6.181   4.752   0.554
 9346SOL     OW28936   4.990   6.318   2.764
 9346SOL    HW128937   5.060   6.366   2.711
 9346SOL    HW228938   4.900   6.352   2.738
 9347SOL     OW28939   3.548   6.058   0.825
 9347SOL    HW128940   3.608   5.980   0.802
 9347SOL    HW228941   3.504   6.091   0.742
 9348SOL     OW28942   3.161   5.146   2.808
 9348SOL    HW128943   3.120   5.176   2.722
 9348SOL    HW228944   3.088   5.128   2.874
 9349SOL     OW28945   6.136   5.908   2.082
 9349SOL    HW128946   6.095   5.985   2.129
 9349SOL    HW228947   6.217   5.939   2.031
 9350SOL     OW28948   0.413   1.649   4.056
 9350SOL    HW128949   0.355   1.569   4.037
 9350SOL    HW228950   0.486   1.654   3.988
 9351SOL     OW28951   2.584   0.364   6.282
 9351SOL    HW128952   2.532   0.284   6.252
 9351SOL    HW228953   2.665   0.376   6.224
 9352SOL     OW28954   2.567   3.242   5.814
 9352SOL    HW128955   2.568   3.224   5.913
 9352SOL    HW228956   2.592   3.337   5.797
 9353SOL     OW28957   1.693   4.350   1.949
 9353SOL    HW128958   1.748   4.268   1.966
 9353SOL    HW228959   1.652   4.345   1.858
 9354SOL     OW28960   6.045   1.674   0.780
 9354SOL    HW128961   6.126   1.615   0.783
 9354SOL    HW228962   6.037   1.714   0.689
 9355SOL     OW28963   6.337   1.342   4.417
 9355SOL    HW128964   6.313   1.435   4.443
 9355SOL    HW228965   6.367   1.341   4.321
 9356SOL     OW28966   4.730   5.338   2.079
 9356SOL    HW128967   4.682   5.255   2.109
 9356SOL    HW228968   4.814   5.348   2.131
 9357SOL     OW28969   2.353   3.975   0.197
 9357SOL    HW128970   2.430   3.915   0.218
 9357SOL    HW228971   2.273   3.949   0.252
 9358SOL     OW28972   6.034   3.580   1.648
 9358SOL    HW128973   6.041   3.676   1.675
 9358SOL    HW228974   6.060   3.522   1.726
 9359SOL     OW28975   0.329   3.799   5.688
 9359SOL    HW128976   0.380   3.784   5.772
 9359SOL    HW228977   0.392   3.795   5.610
 9360SOL     OW28978   1.089   6.863   5.971
 9360SOL    HW128979   1.131   6.879   5.882
 9360SOL    HW228980   1.106   6.769   6.000
 9361SOL     OW28981   2.530   6.280   3.656
 9361SOL    HW128982   2.621   6.253   3.685
 9361SOL    HW228983   2.502   6.362   3.705
 9362SOL     OW28984   1.695   1.648   2.247
 9362SOL    HW128985   1.695   1.748   2.236
 9362SOL    HW228986   1.625   1.608   2.188
 9363SOL     OW28987   4.325   5.028   2.070
 9363SOL    HW128988   4.291   5.015   2.163
 9363SOL    HW228989   4.333   5.126   2.051
 9364SOL     OW28990   4.279   3.258   6.032
 9364SOL    HW128991   4.346   3.308   5.977
 9364SOL    HW228992   4.325   3.188   6.086
 9365SOL     OW28993   2.452   1.761   5.339
 9365SOL    HW128994   2.534   1.775   5.395
 9365SOL    HW228995   2.470   1.689   5.272
 9366SOL     OW28996   3.070   1.366   0.071
 9366SOL    HW128997   3.120   1.384   0.156
 9366SOL    HW228998   3.024   1.277   0.078
 9367SOL     OW28999   6.921   5.756   3.365
 9367SOL    HW129000   6.893   5.816   3.440
 9367SOL    HW229001   6.988   5.690   3.398
 9368SOL     OW29002   3.297   1.574   3.479
 9368SOL    HW129003   3.266   1.497   3.534
 9368SOL    HW229004   3.304   1.655   3.537
 9369SOL     OW29005   0.230   0.682   5.837
 9369SOL    HW129006   0.287   0.740   5.895
 9369SOL    HW229007   0.273   0.591   5.829
 9370SOL     OW29008   4.869   0.423   2.721
 9370SOL    HW129009   4.834   0.346   2.668
 9370SOL    HW229010   4.938   0.472   2.667
 9371SOL     OW29011   1.854   4.600   0.906
 9371SOL    HW129012   1.925   4.545   0.861
 9371SOL    HW229013   1.801   4.542   0.967
 9372SOL     OW29014   5.295   5.753   3.044
 9372SOL    HW129015   5.308   5.849   3.069
 9372SOL    HW229016   5.299   5.744   2.944
 9373SOL     OW29017   4.644   2.256   2.764
 9373SOL    HW129018   4.575   2.207   2.818
 9373SOL    HW229019   4.638   2.354   2.785
 9374SOL     OW29020   6.632   3.315   0.493
 9374SOL    HW129021   6.723   3.273   0.493
 9374SOL    HW229022   6.601   3.326   0.587
 9375SOL     OW29023   6.827   2.109   2.978
 9375SOL    HW129024   6.901   2.171   3.003
 9375SOL    HW229025   6.861   2.039   2.916
 9376SOL     OW29026   2.316   3.902   1.264
 9376SOL    HW129027   2.253   3.833   1.228
 9376SOL    HW229028   2.410   3.867   1.257
 9377SOL     OW29029   1.382   5.754   3.729
 9377SOL    HW129030   1.422   5.844   3.749
 9377SOL    HW229031   1.293   5.766   3.687
 9378SOL     OW29032   0.543   0.375   5.233
 9378SOL    HW129033   0.624   0.318   5.216
 9378SOL    HW229034   0.570   0.457   5.283
 9379SOL     OW29035   4.551   4.953   5.299
 9379SOL    HW129036   4.525   4.972   5.204
 9379SOL    HW229037   4.515   5.025   5.359
 9380SOL     OW29038   5.699   4.450   4.958
 9380SOL    HW129039   5.775   4.502   4.918
 9380SOL    HW229040   5.646   4.408   4.885
 9381SOL     OW29041   2.641   3.483   5.710
 9381SOL    HW129042   2.567   3.540   5.673
 9381SOL    HW229043   2.702   3.456   5.636
 9382SOL     OW29044   3.147   1.386   3.651
 9382SOL    HW129045   3.193   1.299   3.633
 9382SOL    HW229046   3.134   1.396   3.749
 9383SOL     OW29047   2.169   6.106   4.531
 9383SOL    HW129048   2.233   6.057   4.471
 9383SOL    HW229049   2.220   6.144   4.609
 9384SOL     OW29050   3.246   6.028   1.437
 9384SOL    HW129051   3.212   5.938   1.410
 9384SOL    HW229052   3.312   6.017   1.512
 9385SOL     OW29053   4.351   1.056   3.015
 9385SOL    HW129054   4.394   0.987   2.957
 9385SOL    HW229055   4.267   1.018   3.055
 9386SOL     OW29056   2.345   6.362   4.828
 9386SOL    HW129057   2.440   6.389   4.813
 9386SOL    HW229058   2.331   6.268   4.797
 9387SOL     OW29059   2.662   1.030   6.675
 9387SOL    HW129060   2.654   1.106   6.610
 9387SOL    HW229061   2.695   0.949   6.628
 9388SOL     OW29062   2.453   5.623   2.889
 9388SOL    HW129063   2.462   5.536   2.937
 9388SOL    HW229064   2.455   5.607   2.790
 9389SOL     OW29065   1.499   6.744   4.833
 9389SOL    HW129066   1.529   6.739   4.928
 9389SOL    HW229067   1.574   6.776   4.775
 9390SOL     OW29068   3.913   5.393   5.188
 9390SOL    HW129069   3.879   5.304   5.220
 9390SOL    HW229070   3.908   5.395   5.088
 9391SOL     OW29071   2.474   0.773   5.341
 9391SOL    HW129072   2.548   0.767   5.408
 9391SOL    HW229073   2.488   0.853   5.283
 9392SOL     OW29074   6.777   0.367   5.097
 9392SOL    HW129075   6.685   0.330   5.106
 9392SOL    HW229076   6.785   0.450   5.153
 9393SOL     OW29077   2.835   0.367   5.064
 9393SOL    HW129078   2.838   0.433   5.139
 9393SOL    HW229079   2.742   0.361   5.028
 9394SOL     OW29080   0.184   1.566   2.177
 9394SOL    HW129081   0.141   1.541   2.090
 9394SOL    HW229082   0.198   1.665   2.180
 9395SOL     OW29083   2.418   1.713   6.881
 9395SOL    HW129084   2.501   1.755   6.915
 9395SOL    HW229085   2.359   1.783   6.841
 9396SOL     OW29086   1.349   5.381   3.423
 9396SOL    HW129087   1.323   5.340   3.336
 9396SOL    HW229088   1.297   5.465   3.438
 9397SOL     OW29089   3.236   0.133   0.149
 9397SOL    HW129090   3.251   0.164   0.243
 9397SOL    HW229091   3.272   0.041   0.137
 9398SOL     OW29092   0.678   0.189   5.443
 9398SOL    HW129093   0.653   0.144   5.357
 9398SOL    HW229094   0.626   0.148   5.518
 9399SOL     OW29095   0.098   1.659   6.646
 9399SOL    HW129096   0.056   1.750   6.636
 9399SOL    HW229097   0.168   1.647   6.576
 9400SOL     OW29098   4.283   2.341   1.734
 9400SOL    HW129099   4.271   2.261   1.793
 9400SOL    HW229100   4.346   2.406   1.777
 9401SOL     OW29101   4.884   0.097   3.347
 9401SOL    HW129102   4.805   0.036   3.356
 9401SOL    HW229103   4.874   0.173   3.412
 9402SOL     OW29104   1.191   4.956   3.773
 9402SOL    HW129105   1.163   4.866   3.806
 9402SOL    HW229106   1.120   4.993   3.713
 9403SOL     OW29107   5.823   1.167   3.132
 9403SOL    HW129108   5.823   1.180   3.033
 9403SOL    HW229109   5.917   1.170   3.166
 9404SOL     OW29110   0.714   3.261   6.287
 9404SOL    HW129111   0.640   3.203   6.251
 9404SOL    HW229112   0.802   3.216   6.273
 9405SOL     OW29113   0.415   5.745   2.109
 9405SOL    HW129114   0.355   5.825   2.109
 9405SOL    HW229115   0.421   5.709   2.016
 9406SOL     OW29116   6.909   2.863   6.377
 9406SOL    HW129117   6.872   2.772   6.360
 9406SOL    HW229118   6.938   2.870   6.473
 9407SOL     OW29119   3.046   5.286   3.213
 9407SOL    HW129120   2.994   5.278   3.299
 9407SOL    HW229121   3.014   5.217   3.148
 9408SOL     OW29122   4.052   1.558   6.160
 9408SOL    HW129123   4.019   1.652   6.171
 9408SOL    HW229124   4.130   1.543   6.221
 9409SOL     OW29125   5.830   4.827   6.533
 9409SOL    HW129126   5.803   4.745   6.584
 9409SOL    HW229127   5.830   4.906   6.594
 9410SOL     OW29128   2.816   6.382   1.651
 9410SOL    HW129129   2.780   6.393   1.558
 9410SOL    HW229130   2.893   6.318   1.650
 9411SOL     OW29131   4.276   3.670   1.733
 9411SOL    HW129132   4.247   3.647   1.640
 9411SOL    HW229133   4.240   3.602   1.797
 9412SOL     OW29134   6.960   2.868   1.474
 9412SOL    HW129135   6.967   2.809   1.394
 9412SOL    HW229136   7.011   2.952   1.458
 9413SOL     OW29137   3.374   6.186   4.546
 9413SOL    HW129138   3.295   6.199   4.486
 9413SOL    HW229139   3.342   6.159   4.637
 9414SOL     OW29140   3.253   0.805   3.793
 9414SOL    HW129141   3.169   0.752   3.809
 9414SOL    HW229142   3.264   0.821   3.695
 9415SOL     OW29143   2.803   6.958   2.007
 9415SOL    HW129144   2.768   7.004   1.926
 9415SOL    HW229145   2.812   0.002   2.082
 9416SOL     OW29146   0.810   1.794   1.070
 9416SOL    HW129147   0.799   1.877   1.015
 9416SOL    HW229148   0.826   1.821   1.165
 9417SOL     OW29149   3.734   6.625   5.593
 9417SOL    HW129150   3.727   6.709   5.647
 9417SOL    HW229151   3.751   6.547   5.654
 9418SOL     OW29152   3.349   6.113   1.694
 9418SOL    HW129153   3.407   6.034   1.672
 9418SOL    HW229154   3.403   6.183   1.739
 9419SOL     OW29155   3.201   4.815   5.761
 9419SOL    HW129156   3.198   4.791   5.664
 9419SOL    HW229157   3.120   4.779   5.808
 9420SOL     OW29158   0.632   2.455   5.085
 9420SOL    HW129159   0.670   2.537   5.127
 9420SOL    HW229160   0.534   2.468   5.068
 9421SOL     OW29161   1.887   6.416   4.890
 9421SOL    HW129162   1.977   6.458   4.883
 9421SOL    HW229163   1.866   6.371   4.803
 9422SOL     OW29164   5.028   6.432   3.245
 9422SOL    HW129165   5.027   6.360   3.175
 9422SOL    HW229166   5.059   6.394   3.332
 9423SOL     OW29167   4.319   0.404   3.431
 9423SOL    HW129168   4.287   0.321   3.385
 9423SOL    HW229169   4.416   0.394   3.453
 9424SOL     OW29170   4.987   0.922   4.887
 9424SOL    HW129171   5.060   0.942   4.952
 9424SOL    HW229172   4.899   0.919   4.935
 9425SOL     OW29173   6.591   3.417   6.526
 9425SOL    HW129174   6.640   3.496   6.561
 9425SOL    HW229175   6.543   3.442   6.442
 9426SOL     OW29176   2.623   2.077   6.947
 9426SOL    HW129177   2.650   2.100   6.853
 9426SOL    HW229178   2.622   1.977   6.957
 9427SOL     OW29179   2.699   5.522   4.317
 9427SOL    HW129180   2.772   5.588   4.334
 9427SOL    HW229181   2.706   5.488   4.223
 9428SOL     OW29182   5.334   0.513   1.078
 9428SOL    HW129183   5.424   0.555   1.092
 9428SOL    HW229184   5.267   0.559   1.135
 9429SOL     OW29185   1.886   3.802   2.245
 9429SOL    HW129186   1.924   3.717   2.208
 9429SOL    HW229187   1.958   3.852   2.292
 9430SOL     OW29188   0.235   4.409   2.031
 9430SOL    HW129189   0.278   4.438   2.116
 9430SOL    HW229190   0.299   4.420   1.955
 9431SOL     OW29191   5.687   3.956   1.142
 9431SOL    HW129192   5.612   3.904   1.183
 9431SOL    HW229193   5.761   3.966   1.208
 9432SOL     OW29194   5.413   1.156   3.070
 9432SOL    HW129195   5.336   1.191   3.016
 9432SOL    HW229196   5.437   1.065   3.037
 9433SOL     OW29197   3.813   4.951   3.437
 9433SOL    HW129198   3.718   4.964   3.463
 9433SOL    HW229199   3.850   4.872   3.486
 9434SOL     OW29200   5.429   5.223   3.389
 9434SOL    HW129201   5.374   5.166   3.451
 9434SOL    HW229202   5.429   5.183   3.297
 9435SOL     OW29203   0.387   2.443   4.737
 9435SOL    HW129204   0.294   2.478   4.728
 9435SOL    HW229205   0.407   2.424   4.833
 9436SOL     OW29206   0.944   3.407   2.117
 9436SOL    HW129207   0.924   3.310   2.131
 9436SOL    HW229208   1.042   3.419   2.105
 9437SOL     OW29209   2.587   6.401   3.390
 9437SOL    HW129210   2.507   6.425   3.336
 9437SOL    HW229211   2.559   6.349   3.471
 9438SOL     OW29212   0.495   7.000   1.560
 9438SOL    HW129213   0.579   0.014   1.601
 9438SOL    HW229214   0.416   0.006   1.615
 9439SOL     OW29215   0.686   2.467   1.528
 9439SOL    HW129216   0.726   2.503   1.612
 9439SOL    HW229217   0.596   2.428   1.548
 9440SOL     OW29218   4.204   5.333   4.195
 9440SOL    HW129219   4.127   5.378   4.150
 9440SOL    HW229220   4.186   5.235   4.202
 9441SOL     OW29221   1.649   3.669   5.064
 9441SOL    HW129222   1.744   3.642   5.080
 9441SOL    HW229223   1.647   3.765   5.035
 9442SOL     OW29224   4.549   3.235   0.372
 9442SOL    HW129225   4.521   3.172   0.299
 9442SOL    HW229226   4.642   3.267   0.353
 9443SOL     OW29227   2.417   5.018   1.559
 9443SOL    HW129228   2.496   4.962   1.535
 9443SOL    HW229229   2.445   5.088   1.625
 9444SOL     OW29230   1.052   4.007   6.664
 9444SOL    HW129231   1.016   3.924   6.708
 9444SOL    HW229232   1.038   4.085   6.725
 9445SOL     OW29233   5.866   3.433   2.778
 9445SOL    HW129234   5.916   3.478   2.852
 9445SOL    HW229235   5.868   3.490   2.696
 9446SOL     OW29236   6.632   6.617   4.143
 9446SOL    HW129237   6.731   6.615   4.153
 9446SOL    HW229238   6.608   6.624   4.046
 9447SOL     OW29239   6.215   3.507   4.071
 9447SOL    HW129240   6.294   3.528   4.128
 9447SOL    HW229241   6.140   3.570   4.095
 9448SOL     OW29242   6.782   6.685   6.467
 9448SOL    HW129243   6.812   6.777   6.443
 9448SOL    HW229244   6.853   6.640   6.521
 9449SOL     OW29245   0.191   5.836   0.020
 9449SOL    HW129246   0.222   5.850   6.948
 9449SOL    HW229247   0.236   5.902   0.080
 9450SOL     OW29248   3.207   5.667   5.017
 9450SOL    HW129249   3.203   5.642   5.114
 9450SOL    HW229250   3.173   5.760   5.005
 9451SOL     OW29251   4.098   6.404   6.181
 9451SOL    HW129252   4.186   6.384   6.222
 9451SOL    HW229253   4.038   6.447   6.248
 9452SOL     OW29254   1.412   3.882   0.631
 9452SOL    HW129255   1.319   3.877   0.667
 9452SOL    HW229256   1.424   3.966   0.579
 9453SOL     OW29257   2.177   5.299   3.416
 9453SOL    HW129258   2.210   5.249   3.497
 9453SOL    HW229259   2.228   5.384   3.406
 9454SOL     OW29260   2.103   3.608   6.930
 9454SOL    HW129261   2.169   3.683   6.924
 9454SOL    HW229262   2.059   3.595   6.841
 9455SOL     OW29263   3.899   1.810   2.755
 9455SOL    HW129264   3.926   1.823   2.850
 9455SOL    HW229265   3.831   1.879   2.730
 9456SOL     OW29266   0.534   3.872   1.002
 9456SOL    HW129267   0.492   3.782   1.005
 9456SOL    HW229268   0.547   3.906   1.096
 9457SOL     OW29269   2.482   4.234   5.318
 9457SOL    HW129270   2.407   4.272   5.263
 9457SOL    HW229271   2.484   4.135   5.308
 9458SOL     OW29272   1.356   3.376   7.019
 9458SOL    HW129273   1.265   3.416   0.011
 9458SOL    HW229274   1.366   3.351   6.923
 9459SOL     OW29275   5.420   4.613   2.478
 9459SOL    HW129276   5.504   4.575   2.439
 9459SOL    HW229277   5.438   4.642   2.572
 9460SOL     OW29278   0.152   2.458   3.824
 9460SOL    HW129279   0.162   2.535   3.887
 9460SOL    HW229280   0.126   2.492   3.734
 9461SOL     OW29281   6.646   1.587   2.685
 9461SOL    HW129282   6.677   1.637   2.604
 9461SOL    HW229283   6.550   1.607   2.703
 9462SOL     OW29284   2.134   3.768   2.481
 9462SOL    HW129285   2.084   3.693   2.523
 9462SOL    HW229286   2.178   3.824   2.552
 9463SOL     OW29287   0.365   0.933   1.684
 9463SOL    HW129288   0.291   0.905   1.623
 9463SOL    HW229289   0.427   0.856   1.699
 9464SOL     OW29290   5.855   6.785   0.961
 9464SOL    HW129291   5.934   6.745   1.008
 9464SOL    HW229292   5.887   6.850   0.893
 9465SOL     OW29293   1.072   5.840   3.244
 9465SOL    HW129294   1.148   5.898   3.275
 9465SOL    HW229295   1.013   5.819   3.322
 9466SOL     OW29296   4.344   4.794   5.492
 9466SOL    HW129297   4.314   4.885   5.521
 9466SOL    HW229298   4.302   4.772   5.404
 9467SOL     OW29299   1.444   2.523   1.449
 9467SOL    HW129300   1.452   2.472   1.535
 9467SOL    HW229301   1.353   2.510   1.411
 9468SOL     OW29302   6.127   2.096   6.026
 9468SOL    HW129303   6.097   2.133   6.114
 9468SOL    HW229304   6.048   2.063   5.975
 9469SOL     OW29305   6.043   6.201   1.664
 9469SOL    HW129306   5.969   6.256   1.702
 9469SOL    HW229307   6.032   6.194   1.565
 9470SOL     OW29308   4.425   4.070   5.480
 9470SOL    HW129309   4.427   3.988   5.538
 9470SOL    HW229310   4.430   4.152   5.538
 9471SOL     OW29311   6.463   1.618   4.717
 9471SOL    HW129312   6.463   1.717   4.713
 9471SOL    HW229313   6.555   1.585   4.741
 9472SOL     OW29314   5.995   3.122   4.364
 9472SOL    HW129315   6.076   3.179   4.346
 9472SOL    HW229316   5.922   3.179   4.402
 9473SOL     OW29317   2.879   5.424   5.276
 9473SOL    HW129318   2.909   5.466   5.191
 9473SOL    HW229319   2.919   5.333   5.285
 9474SOL     OW29320   6.939   3.200   0.495
 9474SOL    HW129321   6.941   3.264   0.572
 9474SOL    HW229322   6.937   3.252   0.409
 9475SOL     OW29323   2.755   3.631   0.111
 9475SOL    HW129324   2.678   3.607   0.052
 9475SOL    HW229325   2.781   3.552   0.166
 9476SOL     OW29326   2.849   3.425   5.303
 9476SOL    HW129327   2.820   3.521   5.298
 9476SOL    HW229328   2.851   3.395   5.399
 9477SOL     OW29329   0.103   3.798   2.543
 9477SOL    HW129330   0.148   3.835   2.625
 9477SOL    HW229331   0.007   3.825   2.542
 9478SOL     OW29332   5.327   2.993   6.153
 9478SOL    HW129333   5.401   2.950   6.102
 9478SOL    HW229334   5.364   3.065   6.211
 9479SOL     OW29335   4.692   6.344   6.902
 9479SOL    HW129336   4.757   6.417   6.880
 9479SOL    HW229337   4.647   6.364   6.989
 9480SOL     OW29338   5.114   3.649   0.704
 9480SOL    HW129339   5.065   3.580   0.757
 9480SOL    HW229340   5.108   3.737   0.751
 9481SOL     OW29341   5.550   3.704   2.197
 9481SOL    HW129342   5.496   3.707   2.113
 9481SOL    HW229343   5.542   3.791   2.246
 9482SOL     OW29344   6.781   0.830   3.290
 9482SOL    HW129345   6.850   0.770   3.249
 9482SOL    HW229346   6.749   0.895   3.221
 9483SOL     OW29347   0.896   1.585   1.796
 9483SOL    HW129348   0.957   1.595   1.718
 9483SOL    HW229349   0.801   1.577   1.764
 9484SOL     OW29350   4.313   0.920   3.332
 9484SOL    HW129351   4.394   0.970   3.303
 9484SOL    HW229352   4.253   0.905   3.254
 9485SOL     OW29353   0.614   0.224   2.208
 9485SOL    HW129354   0.551   0.265   2.274
 9485SOL    HW229355   0.630   0.129   2.232
 9486SOL     OW29356   2.446   5.323   1.470
 9486SOL    HW129357   2.465   5.335   1.567
 9486SOL    HW229358   2.403   5.234   1.455
 9487SOL     OW29359   2.898   3.407   3.269
 9487SOL    HW129360   2.915   3.479   3.203
 9487SOL    HW229361   2.864   3.447   3.354
 9488SOL     OW29362   1.544   6.444   1.136
 9488SOL    HW129363   1.633   6.442   1.090
 9488SOL    HW229364   1.532   6.533   1.180
 9489SOL     OW29365   4.191   4.004   1.434
 9489SOL    HW129366   4.187   3.939   1.358
 9489SOL    HW229367   4.280   4.049   1.434
 9490SOL     OW29368   6.624   5.565   0.867
 9490SOL    HW129369   6.629   5.665   0.870
 9490SOL    HW229370   6.537   5.535   0.905
 9491SOL     OW29371   6.801   4.012   3.951
 9491SOL    HW129372   6.802   4.077   3.875
 9491SOL    HW229373   6.708   4.004   3.988
 9492SOL     OW29374   3.615   2.857   2.965
 9492SOL    HW129375   3.515   2.855   2.958
 9492SOL    HW229376   3.643   2.834   3.058
 9493SOL     OW29377   3.627   5.484   3.958
 9493SOL    HW129378   3.724   5.469   3.937
 9493SOL    HW229379   3.577   5.398   3.948
 9494SOL     OW29380   4.443   4.605   1.660
 9494SOL    HW129381   4.370   4.588   1.726
 9494SOL    HW229382   4.420   4.685   1.605
 9495SOL     OW29383   6.367   1.723   3.963
 9495SOL    HW129384   6.379   1.797   3.898
 9495SOL    HW229385   6.379   1.635   3.917
 9496SOL     OW29386   5.730   4.979   1.188
 9496SOL    HW129387   5.811   4.975   1.130
 9496SOL    HW229388   5.667   4.906   1.164
 9497SOL     OW29389   6.542   5.298   6.500
 9497SOL    HW129390   6.617   5.283   6.564
 9497SOL    HW229391   6.455   5.273   6.543
 9498SOL     OW29392   5.388   0.260   4.941
 9498SOL    HW129393   5.313   0.310   4.984
 9498SOL    HW229394   5.391   0.167   4.977
 9499SOL     OW29395   2.189   5.169   6.617
 9499SOL    HW129396   2.269   5.114   6.641
 9499SOL    HW229397   2.124   5.113   6.566
 9500SOL     OW29398   4.850   6.822   1.535
 9500SOL    HW129399   4.751   6.803   1.534
 9500SOL    HW229400   4.875   6.860   1.624
 9501SOL     OW29401   2.777   1.325   4.818
 9501SOL    HW129402   2.743   1.392   4.752
 9501SOL    HW229403   2.838   1.370   4.884
 9502SOL     OW29404   0.335   2.191   5.156
 9502SOL    HW129405   0.324   2.120   5.226
 9502SOL    HW229406   0.397   2.159   5.085
 9503SOL     OW29407   0.492   1.705   0.709
 9503SOL    HW129408   0.434   1.705   0.791
 9503SOL    HW229409   0.521   1.798   0.689
 9504SOL     OW29410   6.926   2.137   0.795
 9504SOL    HW129411   6.865   2.095   0.728
 9504SOL    HW229412   7.005   2.176   0.748
 9505SOL     OW29413   5.496   4.587   3.491
 9505SOL    HW129414   5.488   4.615   3.395
 9505SOL    HW229415   5.407   4.556   3.523
 9506SOL     OW29416   0.245   2.727   6.693
 9506SOL    HW129417   0.210   2.680   6.774
 9506SOL    HW229418   0.329   2.777   6.717
 9507SOL     OW29419   1.211   1.400   3.232
 9507SOL    HW129420   1.157   1.484   3.237
 9507SOL    HW229421   1.151   1.321   3.248
 9508SOL     OW29422   6.373   3.689   0.831
 9508SOL    HW129423   6.379   3.646   0.921
 9508SOL    HW229424   6.292   3.656   0.783
 9509SOL     OW29425   0.817   0.752   5.154
 9509SOL    HW129426   0.763   0.705   5.224
 9509SOL    HW229427   0.818   0.850   5.174
 9510SOL     OW29428   1.201   3.809   2.120
 9510SOL    HW129429   1.119   3.796   2.176
 9510SOL    HW229430   1.203   3.740   2.048
 9511SOL     OW29431   0.487   1.545   6.953
 9511SOL    HW129432   0.475   1.524   0.028
 9511SOL    HW229433   0.397   1.555   6.910
 9512SOL     OW29434   5.672   1.539   1.644
 9512SOL    HW129435   5.708   1.549   1.736
 9512SOL    HW229436   5.609   1.614   1.624
 9513SOL     OW29437   1.691   3.334   5.800
 9513SOL    HW129438   1.710   3.409   5.737
 9513SOL    HW229439   1.672   3.251   5.748
 9514SOL     OW29440   2.150   4.481   0.124
 9514SOL    HW129441   2.172   4.565   0.074
 9514SOL    HW229442   2.144   4.405   0.059
 9515SOL     OW29443   1.387   5.940   0.961
 9515SOL    HW129444   1.384   5.916   0.864
 9515SOL    HW229445   1.406   6.037   0.971
 9516SOL     OW29446   5.688   3.371   5.141
 9516SOL    HW129447   5.702   3.445   5.075
 9516SOL    HW229448   5.595   3.378   5.179
 9517SOL     OW29449   0.722   4.494   1.047
 9517SOL    HW129450   0.771   4.569   1.002
 9517SOL    HW229451   0.788   4.427   1.082
 9518SOL     OW29452   1.073   2.028   0.237
 9518SOL    HW129453   1.040   2.121   0.255
 9518SOL    HW229454   1.142   2.030   0.165
 9519SOL     OW29455   3.474   3.961   4.347
 9519SOL    HW129456   3.418   3.890   4.391
 9519SOL    HW229457   3.421   4.005   4.275
 9520SOL     OW29458   0.486   1.626   3.418
 9520SOL    HW129459   0.490   1.628   3.318
 9520SOL    HW229460   0.558   1.565   3.453
 9521SOL     OW29461   3.876   4.592   1.236
 9521SOL    HW129462   3.871   4.495   1.214
 9521SOL    HW229463   3.837   4.645   1.161
 9522SOL     OW29464   4.041   5.194   1.597
 9522SOL    HW129465   3.973   5.247   1.547
 9522SOL    HW229466   4.093   5.255   1.657
 9523SOL     OW29467   2.632   5.425   4.606
 9523SOL    HW129468   2.540   5.386   4.618
 9523SOL    HW229469   2.641   5.461   4.513
 9524SOL     OW29470   2.514   3.095   0.735
 9524SOL    HW129471   2.418   3.068   0.732
 9524SOL    HW229472   2.568   3.029   0.683
 9525SOL     OW29473   2.674   1.944   5.722
 9525SOL    HW129474   2.646   1.848   5.710
 9525SOL    HW229475   2.762   1.947   5.770
 9526SOL     OW29476   5.855   4.587   0.860
 9526SOL    HW129477   5.820   4.524   0.930
 9526SOL    HW229478   5.877   4.535   0.777
 9527SOL     OW29479   0.851   0.592   4.332
 9527SOL    HW129480   0.871   0.637   4.420
 9527SOL    HW229481   0.937   0.559   4.292
 9528SOL     OW29482   6.874   1.659   1.011
 9528SOL    HW129483   6.936   1.659   0.933
 9528SOL    HW229484   6.837   1.751   1.024
 9529SOL     OW29485   6.234   3.336   6.098
 9529SOL    HW129486   6.229   3.352   6.000
 9529SOL    HW229487   6.293   3.258   6.117
 9530SOL     OW29488   1.710   3.111   3.361
 9530SOL    HW129489   1.618   3.118   3.324
 9530SOL    HW229490   1.770   3.174   3.312
 9531SOL     OW29491   5.016   4.396   2.614
 9531SOL    HW129492   5.074   4.319   2.640
 9531SOL    HW229493   4.926   4.363   2.587
 9532SOL     OW29494   0.323   5.950   1.081
 9532SOL    HW129495   0.301   5.984   0.990
 9532SOL    HW229496   0.279   6.009   1.150
 9533SOL     OW29497   0.158   5.744   4.862
 9533SOL    HW129498   0.097   5.724   4.939
 9533SOL    HW229499   0.119   5.709   4.777
 9534SOL     OW29500   6.611   4.194   4.971
 9534SOL    HW129501   6.514   4.221   4.970
 9534SOL    HW229502   6.636   4.161   5.062
 9535SOL     OW29503   1.580   0.679   5.626
 9535SOL    HW129504   1.583   0.747   5.700
 9535SOL    HW229505   1.667   0.679   5.578
 9536SOL     OW29506   3.156   4.121   5.203
 9536SOL    HW129507   3.210   4.164   5.130
 9536SOL    HW229508   3.085   4.185   5.234
 9537SOL     OW29509   2.636   6.958   4.438
 9537SOL    HW129510   2.733   6.969   4.459
 9537SOL    HW229511   2.613   6.861   4.433
 9538SOL     OW29512   5.598   0.564   3.925
 9538SOL    HW129513   5.554   0.495   3.982
 9538SOL    HW229514   5.528   0.612   3.872
 9539SOL     OW29515   3.612   3.710   4.175
 9539SOL    HW129516   3.606   3.703   4.275
 9539SOL    HW229517   3.587   3.802   4.147
 9540SOL     OW29518   6.117   4.752   4.056
 9540SOL    HW129519   6.020   4.774   4.046
 9540SOL    HW229520   6.171   4.813   3.999
 9541SOL     OW29521   3.037   0.203   6.261
 9541SOL    HW129522   3.079   0.159   6.340
 9541SOL    HW229523   2.976   0.276   6.292
 9542SOL     OW29524   4.708   4.227   5.054
 9542SOL    HW129525   4.728   4.173   4.972
 9542SOL    HW229526   4.616   4.265   5.048
 9543SOL     OW29527   3.596   0.633   5.553
 9543SOL    HW129528   3.644   0.552   5.518
 9543SOL    HW229529   3.653   0.679   5.621
 9544SOL     OW29530   6.352   1.947   3.809
 9544SOL    HW129531   6.420   2.003   3.855
 9544SOL    HW229532   6.333   1.985   3.718
 9545SOL     OW29533   5.744   6.009   4.035
 9545SOL    HW129534   5.752   5.960   3.948
 9545SOL    HW229535   5.790   6.097   4.028
 9546SOL     OW29536   3.857   1.891   5.425
 9546SOL    HW129537   3.768   1.875   5.382
 9546SOL    HW229538   3.904   1.966   5.378
 9547SOL     OW29539   2.723   5.086   4.461
 9547SOL    HW129540   2.819   5.059   4.452
 9547SOL    HW229541   2.714   5.185   4.449
 9548SOL     OW29542   5.893   4.560   5.744
 9548SOL    HW129543   5.921   4.621   5.669
 9548SOL    HW229544   5.925   4.467   5.724
 9549SOL     OW29545   2.896   2.525   1.355
 9549SOL    HW129546   2.957   2.457   1.397
 9549SOL    HW229547   2.809   2.525   1.404
 9550SOL     OW29548   0.233   1.289   0.286
 9550SOL    HW129549   0.162   1.358   0.278
 9550SOL    HW229550   0.244   1.263   0.382
 9551SOL     OW29551   5.746   2.192   6.193
 9551SOL    HW129552   5.817   2.183   6.263
 9551SOL    HW229553   5.718   2.288   6.186
 9552SOL     OW29554   1.716   6.508   4.287
 9552SOL    HW129555   1.691   6.522   4.383
 9552SOL    HW229556   1.666   6.574   4.230
 9553SOL     OW29557   6.195   2.265   6.849
 9553SOL    HW129558   6.115   2.271   6.790
 9553SOL    HW229559   6.273   2.232   6.796
 9554SOL     OW29560   2.681   0.195   2.189
 9554SOL    HW129561   2.588   0.225   2.165
 9554SOL    HW229562   2.742   0.274   2.192
 9555SOL     OW29563   1.019   0.958   2.749
 9555SOL    HW129564   1.088   1.029   2.732
 9555SOL    HW229565   1.062   0.868   2.744
 9556SOL     OW29566   2.062   3.991   1.595
 9556SOL    HW129567   2.030   3.917   1.536
 9556SOL    HW229568   1.984   4.045   1.627
 9557SOL     OW29569   6.732   5.879   2.177
 9557SOL    HW129570   6.708   5.934   2.097
 9557SOL    HW229571   6.832   5.867   2.180
 9558SOL     OW29572   5.932   6.192   5.378
 9558SOL    HW129573   5.842   6.185   5.422
 9558SOL    HW229574   5.940   6.281   5.333
 9559SOL     OW29575   0.117   4.858   0.986
 9559SOL    HW129576   0.149   4.952   0.993
 9559SOL    HW229577   0.098   4.822   1.077
 9560SOL     OW29578   2.208   1.820   3.398
 9560SOL    HW129579   2.243   1.826   3.492
 9560SOL    HW229580   2.275   1.773   3.341
 9561SOL     OW29581   1.956   0.491   0.628
 9561SOL    HW129582   1.902   0.575   0.635
 9561SOL    HW229583   2.049   0.514   0.599
 9562SOL     OW29584   2.628   0.512   5.576
 9562SOL    HW129585   2.572   0.511   5.659
 9562SOL    HW229586   2.632   0.420   5.537
 9563SOL     OW29587   6.989   6.358   0.723
 9563SOL    HW129588   0.011   6.277   0.760
 9563SOL    HW229589   6.972   6.345   0.625
 9564SOL     OW29590   3.049   0.225   0.531
 9564SOL    HW129591   2.968   0.211   0.474
 9564SOL    HW229592   3.128   0.183   0.487
 9565SOL     OW29593   3.654   0.651   4.817
 9565SOL    HW129594   3.642   0.585   4.743
 9565SOL    HW229595   3.659   0.744   4.778
 9566SOL     OW29596   2.570   4.866   0.077
 9566SOL    HW129597   2.614   4.828   7.018
 9566SOL    HW229598   2.585   4.965   0.079
 9567SOL     OW29599   5.077   5.305   0.911
 9567SOL    HW129600   5.133   5.273   0.835
 9567SOL    HW229601   4.981   5.284   0.891
 9568SOL     OW29602   4.438   2.658   6.563
 9568SOL    HW129603   4.400   2.750   6.568
 9568SOL    HW229604   4.366   2.593   6.540
 9569SOL     OW29605   6.983   1.362   2.291
 9569SOL    HW129606   0.012   1.344   2.375
 9569SOL    HW229607   0.017   1.416   2.229
 9570SOL     OW29608   0.666   3.462   1.903
 9570SOL    HW129609   0.705   3.428   1.818
 9570SOL    HW229610   0.724   3.435   1.980
 9571SOL     OW29611   3.497   4.268   6.210
 9571SOL    HW129612   3.431   4.222   6.151
 9571SOL    HW229613   3.572   4.304   6.154
 9572SOL     OW29614   2.093   4.841   1.916
 9572SOL    HW129615   2.163   4.779   1.881
 9572SOL    HW229616   2.094   4.926   1.864
 9573SOL     OW29617   0.586   3.116   6.676
 9573SOL    HW129618   0.496   3.147   6.645
 9573SOL    HW229619   0.657   3.162   6.623
 9574SOL     OW29620   3.987   3.638   3.289
 9574SOL    HW129621   3.966   3.704   3.362
 9574SOL    HW229622   3.938   3.553   3.307
 9575SOL     OW29623   0.593   1.069   1.232
 9575SOL    HW129624   0.685   1.051   1.196
 9575SOL    HW229625   0.536   1.107   1.159
 9576SOL     OW29626   1.880   0.960   1.630
 9576SOL    HW129627   1.805   1.024   1.647
 9576SOL    HW229628   1.844   0.872   1.602
 9577SOL     OW29629   1.209   0.550   6.346
 9577SOL    HW129630   1.187   0.545   6.249
 9577SOL    HW229631   1.227   0.458   6.381
 9578SOL     OW29632   0.513   3.811   3.320
 9578SOL    HW129633   0.608   3.796   3.344
 9578SOL    HW229634   0.469   3.723   3.300
 9579SOL     OW29635   1.652   5.062   2.729
 9579SOL    HW129636   1.604   5.147   2.748
 9579SOL    HW229637   1.698   5.069   2.640
 9580SOL     OW29638   4.690   4.117   0.735
 9580SOL    HW129639   4.635   4.161   0.664
 9580SOL    HW229640   4.630   4.068   0.798
 9581SOL     OW29641   6.944   5.335   5.848
 9581SOL    HW129642   7.011   5.304   5.780
 9581SOL    HW229643   6.991   5.379   5.924
 9582SOL     OW29644   5.014   5.192   6.347
 9582SOL    HW129645   4.975   5.199   6.255
 9582SOL    HW229646   4.947   5.152   6.409
 9583SOL     OW29647   3.789   4.149   1.335
 9583SOL    HW129648   3.708   4.100   1.368
 9583SOL    HW229649   3.821   4.106   1.251
 9584SOL     OW29650   0.212   5.570   0.028
 9584SOL    HW129651   0.206   5.670   0.019
 9584SOL    HW229652   0.278   5.548   0.100
 9585SOL     OW29653   0.040   0.417   4.711
 9585SOL    HW129654   0.072   0.331   4.673
 9585SOL    HW229655   6.966   0.431   4.689
 9586SOL     OW29656   5.558   4.885   1.721
 9586SOL    HW129657   5.636   4.824   1.738
 9586SOL    HW229658   5.592   4.976   1.697
 9587SOL     OW29659   0.649   0.672   1.856
 9587SOL    HW129660   0.612   0.662   1.763
 9587SOL    HW229661   0.699   0.589   1.881
 9588SOL     OW29662   6.590   1.458   1.351
 9588SOL    HW129663   6.659   1.461   1.278
 9588SOL    HW229664   6.522   1.389   1.329
 9589SOL     OW29665   2.032   4.889   6.900
 9589SOL    HW129666   2.102   4.833   6.856
 9589SOL    HW229667   2.063   4.916   6.991
 9590SOL     OW29668   6.532   3.296   2.220
 9590SOL    HW129669   6.582   3.382   2.227
 9590SOL    HW229670   6.536   3.248   2.308
 9591SOL     OW29671   3.011   6.292   5.954
 9591SOL    HW129672   3.041   6.351   5.879
 9591SOL    HW229673   2.927   6.329   5.993
 9592SOL     OW29674   3.966   4.166   1.099
 9592SOL    HW129675   4.000   4.137   1.010
 9592SOL    HW229676   3.934   4.261   1.093
 9593SOL     OW29677   0.109   0.793   5.568
 9593SOL    HW129678   0.033   0.728   5.567
 9593SOL    HW229679   0.171   0.770   5.643
 9594SOL     OW29680   1.751   5.726   2.456
 9594SOL    HW129681   1.847   5.704   2.476
 9594SOL    HW229682   1.695   5.644   2.461
 9595SOL     OW29683   0.503   4.425   5.222
 9595SOL    HW129684   0.571   4.354   5.203
 9595SOL    HW229685   0.532   4.478   5.302
 9596SOL     OW29686   6.883   5.581   6.200
 9596SOL    HW129687   6.908   5.665   6.248
 9596SOL    HW229688   6.806   5.600   6.138
 9597SOL     OW29689   0.602   4.300   1.651
 9597SOL    HW129690   0.655   4.382   1.675
 9597SOL    HW229691   0.625   4.226   1.714
 9598SOL     OW29692   1.283   3.653   4.102
 9598SOL    HW129693   1.367   3.677   4.054
 9598SOL    HW229694   1.211   3.632   4.036
 9599SOL     OW29695   4.216   0.269   4.588
 9599SOL    HW129696   4.202   0.173   4.612
 9599SOL    HW229697   4.209   0.280   4.489
 9600SOL     OW29698   2.090   6.879   6.404
 9600SOL    HW129699   2.097   6.909   6.498
 9600SOL    HW229700   2.171   6.907   6.353
 9601SOL     OW29701   5.355   3.968   1.253
 9601SOL    HW129702   5.386   3.925   1.168
 9601SOL    HW229703   5.289   4.040   1.232
 9602SOL     OW29704   6.606   5.153   6.191
 9602SOL    HW129705   6.557   5.206   6.261
 9602SOL    HW229706   6.697   5.192   6.178
 9603SOL     OW29707   3.891   1.567   3.833
 9603SOL    HW129708   3.801   1.602   3.859
 9603SOL    HW229709   3.880   1.498   3.761
 9604SOL     OW29710   4.046   0.019   0.085
 9604SOL    HW129711   4.060   6.954   0.038
 9604SOL    HW229712   3.952   0.051   0.068
 9605SOL     OW29713   0.748   5.265   3.379
 9605SOL    HW129714   0.836   5.232   3.345
 9605SOL    HW229715   0.696   5.304   3.303
 9606SOL     OW29716   1.933   6.413   6.243
 9606SOL    HW129717   1.884   6.327   6.255
 9606SOL    HW229718   1.968   6.444   6.331
 9607SOL     OW29719   1.969   1.685   0.039
 9607SOL    HW129720   1.905   1.656   6.990
 9607SOL    HW229721   1.922   1.746   0.103
 9608SOL     OW29722   6.658   5.834   2.433
 9608SOL    HW129723   6.672   5.869   2.340
 9608SOL    HW229724   6.747   5.819   2.476
 9609SOL     OW29725   2.089   4.074   6.477
 9609SOL    HW129726   2.041   3.987   6.490
 9609SOL    HW229727   2.030   4.149   6.506
 9610SOL     OW29728   1.448   5.317   4.353
 9610SOL    HW129729   1.426   5.271   4.267
 9610SOL    HW229730   1.445   5.416   4.339
 9611SOL     OW29731   0.246   6.212   6.946
 9611SOL    HW129732   0.263   6.260   0.010
 9611SOL    HW229733   0.256   6.114   6.960
 9612SOL     OW29734   0.634   3.970   1.902
 9612SOL    HW129735   0.694   4.045   1.874
 9612SOL    HW229736   0.592   3.992   1.990
 9613SOL     OW29737   4.862   6.507   3.549
 9613SOL    HW129738   4.786   6.447   3.524
 9613SOL    HW229739   4.949   6.465   3.521
 9614SOL     OW29740   3.117   2.051   0.523
 9614SOL    HW129741   3.177   2.054   0.443
 9614SOL    HW229742   3.043   2.117   0.511
 9615SOL     OW29743   0.585   0.192   0.893
 9615SOL    HW129744   0.526   0.225   0.819
 9615SOL    HW229745   0.672   0.241   0.890
 9616SOL     OW29746   4.475   3.402   1.446
 9616SOL    HW129747   4.511   3.311   1.425
 9616SOL    HW229748   4.470   3.414   1.545
 9617SOL     OW29749   2.338   2.846   3.774
 9617SOL    HW129750   2.247   2.817   3.803
 9617SOL    HW229751   2.329   2.911   3.698
 9618SOL     OW29752   3.813   6.603   5.329
 9618SOL    HW129753   3.910   6.581   5.340
 9618SOL    HW229754   3.769   6.605   5.418
 9619SOL     OW29755   1.280   6.783   0.246
 9619SOL    HW129756   1.187   6.771   0.211
 9619SOL    HW229757   1.275   6.818   0.340
 9620SOL     OW29758   4.229   2.291   0.022
 9620SOL    HW129759   4.265   2.222   0.084
 9620SOL    HW229760   4.138   2.320   0.053
 9621SOL     OW29761   0.630   0.867   2.352
 9621SOL    HW129762   0.584   0.946   2.311
 9621SOL    HW229763   0.662   0.890   2.443
 9622SOL     OW29764   6.838   0.586   0.292
 9622SOL    HW129765   6.783   0.603   0.211
 9622SOL    HW229766   6.826   0.491   0.322
 9623SOL     OW29767   3.074   4.740   5.989
 9623SOL    HW129768   3.016   4.770   6.065
 9623SOL    HW229769   3.116   4.652   6.013
 9624SOL     OW29770   6.675   4.599   2.661
 9624SOL    HW129771   6.753   4.603   2.724
 9624SOL    HW229772   6.647   4.692   2.637
 9625SOL     OW29773   4.956   5.862   0.496
 9625SOL    HW129774   4.990   5.770   0.515
 9625SOL    HW229775   4.891   5.858   0.419
 9626SOL     OW29776   3.040   6.097   6.861
 9626SOL    HW129777   2.954   6.060   6.894
 9626SOL    HW229778   3.064   6.056   6.773
 9627SOL     OW29779   0.064   4.884   3.110
 9627SOL    HW129780   0.009   4.957   3.152
 9627SOL    HW229781   0.072   4.902   3.012
 9628SOL     OW29782   5.649   5.171   6.446
 9628SOL    HW129783   5.623   5.160   6.350
 9628SOL    HW229784   5.611   5.256   6.482
 9629SOL     OW29785   0.398   6.397   2.839
 9629SOL    HW129786   0.426   6.339   2.915
 9629SOL    HW229787   0.431   6.357   2.753
 9630SOL     OW29788   6.564   6.114   5.573
 9630SOL    HW129789   6.494   6.061   5.525
 9630SOL    HW229790   6.523   6.163   5.650
 9631SOL     OW29791   5.874   0.288   0.189
 9631SOL    HW129792   5.859   0.195   0.154
 9631SOL    HW229793   5.903   0.348   0.114
 9632SOL     OW29794   2.401   5.599   2.613
 9632SOL    HW129795   2.337   5.527   2.639
 9632SOL    HW229796   2.359   5.657   2.543
 9633SOL     OW29797   4.977   4.836   6.974
 9633SOL    HW129798   4.984   4.927   6.934
 9633SOL    HW229799   5.061   4.815   0.002
 9634SOL     OW29800   1.066   6.870   4.457
 9634SOL    HW129801   1.015   6.812   4.521
 9634SOL    HW229802   1.001   6.928   4.406
 9635SOL     OW29803   1.247   4.590   5.798
 9635SOL    HW129804   1.226   4.527   5.724
 9635SOL    HW229805   1.255   4.540   5.884
 9636SOL     OW29806   4.184   1.915   5.972
 9636SOL    HW129807   4.115   1.946   5.907
 9636SOL    HW229808   4.142   1.901   6.061
 9637SOL     OW29809   2.476   1.792   6.539
 9637SOL    HW129810   2.471   1.693   6.525
 9637SOL    HW229811   2.385   1.827   6.561
 9638SOL     OW29812   6.914   3.370   0.010
 9638SOL    HW129813   6.861   3.289   0.033
 9638SOL    HW229814   6.862   3.427   6.968
 9639SOL     OW29815   3.897   1.893   2.293
 9639SOL    HW129816   3.852   1.954   2.228
 9639SOL    HW229817   3.995   1.895   2.278
 9640SOL     OW29818   3.058   1.832   3.103
 9640SOL    HW129819   3.021   1.823   3.196
 9640SOL    HW229820   3.028   1.754   3.048
 9641SOL     OW29821   5.265   6.295   0.891
 9641SOL    HW129822   5.362   6.271   0.884
 9641SOL    HW229823   5.256   6.394   0.902
 9642SOL     OW29824   2.782   6.123   4.810
 9642SOL    HW129825   2.806   6.100   4.904
 9642SOL    HW229826   2.861   6.164   4.765
 9643SOL     OW29827   6.162   4.462   3.996
 9643SOL    HW129828   6.245   4.462   3.940
 9643SOL    HW229829   6.134   4.556   4.016
 9644SOL     OW29830   0.758   5.135   4.556
 9644SOL    HW129831   0.794   5.114   4.647
 9644SOL    HW229832   0.687   5.068   4.533
 9645SOL     OW29833   3.750   4.914   3.761
 9645SOL    HW129834   3.734   5.009   3.734
 9645SOL    HW229835   3.665   4.873   3.793
 9646SOL     OW29836   2.764   4.886   1.975
 9646SOL    HW129837   2.771   4.788   1.997
 9646SOL    HW229838   2.855   4.921   1.952
 9647SOL     OW29839   0.096   5.698   1.468
 9647SOL    HW129840   0.130   5.607   1.491
 9647SOL    HW229841   0.132   5.726   1.379
 9648SOL     OW29842   3.706   1.951   0.304
 9648SOL    HW129843   3.691   1.885   0.230
 9648SOL    HW229844   3.664   2.038   0.279
 9649SOL     OW29845   2.814   5.399   6.845
 9649SOL    HW129846   2.868   5.430   6.922
 9649SOL    HW229847   2.737   5.461   6.831
 9650SOL     OW29848   4.630   4.644   3.318
 9650SOL    HW129849   4.693   4.617   3.246
 9650SOL    HW229850   4.646   4.589   3.400
 9651SOL     OW29851   6.528   0.733   6.902
 9651SOL    HW129852   6.435   0.759   6.925
 9651SOL    HW229853   6.591   0.806   6.928
 9652SOL     OW29854   2.138   4.209   0.849
 9652SOL    HW129855   2.106   4.225   0.942
 9652SOL    HW229856   2.073   4.250   0.784
 9653SOL     OW29857   4.469   5.638   4.875
 9653SOL    HW129858   4.371   5.654   4.863
 9653SOL    HW229859   4.484   5.541   4.896
 9654SOL     OW29860   3.846   3.320   2.364
 9654SOL    HW129861   3.908   3.246   2.388
 9654SOL    HW229862   3.798   3.298   2.279
 9655SOL     OW29863   7.010   0.989   7.020
 9655SOL    HW129864   0.034   0.928   0.062
 9655SOL    HW229865   6.950   1.052   0.048
 9656SOL     OW29866   3.637   2.229   1.015
 9656SOL    HW129867   3.680   2.202   1.102
 9656SOL    HW229868   3.538   2.219   1.022
 9657SOL     OW29869   6.092   1.579   3.066
 9657SOL    HW129870   6.025   1.517   3.107
 9657SOL    HW229871   6.103   1.557   2.969
 9658SOL     OW29872   5.803   1.276   2.660
 9658SOL    HW129873   5.840   1.353   2.713
 9658SOL    HW229874   5.788   1.305   2.566
 9659SOL     OW29875   6.866   3.603   0.789
 9659SOL    HW129876   6.905   3.660   0.718
 9659SOL    HW229877   6.767   3.598   0.778
 9660SOL     OW29878   0.043   6.158   2.045
 9660SOL    HW129879   6.966   6.146   2.039
 9660SOL    HW229880   0.088   6.100   1.976
 9661SOL     OW29881   3.201   6.378   1.974
 9661SOL    HW129882   3.239   6.348   2.062
 9661SOL    HW229883   3.159   6.468   1.986
 9662SOL     OW29884   4.884   2.393   5.145
 9662SOL    HW129885   4.955   2.451   5.106
 9662SOL    HW229886   4.804   2.449   5.168
 9663SOL     OW29887   0.586   6.121   3.822
 9663SOL    HW129888   0.599   6.100   3.919
 9663SOL    HW229889   0.493   6.096   3.795
 9664SOL     OW29890   5.692   6.333   4.264
 9664SOL    HW129891   5.773   6.305   4.213
 9664SOL    HW229892   5.716   6.349   4.359
 9665SOL     OW29893   5.081   6.469   0.196
 9665SOL    HW129894   5.143   6.515   0.133
 9665SOL    HW229895   5.126   6.387   0.232
 9666SOL     OW29896   5.776   3.875   1.443
 9666SOL    HW129897   5.746   3.783   1.467
 9666SOL    HW229898   5.872   3.887   1.467
 9667SOL     OW29899   3.968   3.264   5.408
 9667SOL    HW129900   3.958   3.203   5.329
 9667SOL    HW229901   3.966   3.359   5.378
 9668SOL     OW29902   6.990   0.897   5.909
 9668SOL    HW129903   0.043   0.853   5.861
 9668SOL    HW229904   6.958   0.976   5.857
 9669SOL     OW29905   1.350   0.238   2.150
 9669SOL    HW129906   1.264   0.286   2.129
 9669SOL    HW229907   1.371   0.173   2.077
 9670SOL     OW29908   6.114   4.893   6.682
 9670SOL    HW129909   6.044   4.963   6.663
 9670SOL    HW229910   6.189   4.902   6.617
 9671SOL     OW29911   5.891   5.076   6.710
 9671SOL    HW129912   5.861   5.153   6.654
 9671SOL    HW229913   5.953   5.108   6.782
 9672SOL     OW29914   1.752   6.040   4.196
 9672SOL    HW129915   1.702   6.122   4.170
 9672SOL    HW229916   1.708   5.959   4.156
 9673SOL     OW29917   5.123   3.798   0.368
 9673SOL    HW129918   5.131   3.702   0.392
 9673SOL    HW229919   5.209   3.845   0.389
 9674SOL     OW29920   2.683   6.007   3.197
 9674SOL    HW129921   2.623   5.959   3.133
 9674SOL    HW229922   2.731   5.941   3.254
 9675SOL     OW29923   5.834   2.313   0.216
 9675SOL    HW129924   5.767   2.289   0.286
 9675SOL    HW229925   5.829   2.247   0.141
 9676SOL     OW29926   1.123   3.782   5.664
 9676SOL    HW129927   1.089   3.854   5.602
 9676SOL    HW229928   1.223   3.779   5.659
 9677SOL     OW29929   1.184   5.133   4.847
 9677SOL    HW129930   1.233   5.205   4.798
 9677SOL    HW229931   1.248   5.085   4.908
 9678SOL     OW29932   3.214   3.622   3.381
 9678SOL    HW129933   3.115   3.626   3.389
 9678SOL    HW229934   3.247   3.533   3.414
 9679SOL     OW29935   2.379   0.979   2.166
 9679SOL    HW129936   2.343   1.071   2.150
 9679SOL    HW229937   2.304   0.915   2.178
 9680SOL     OW29938   5.053   1.073   3.179
 9680SOL    HW129939   5.061   1.164   3.219
 9680SOL    HW229940   5.093   1.005   3.240
 9681SOL     OW29941   3.025   1.115   0.161
 9681SOL    HW129942   3.039   1.039   0.097
 9681SOL    HW229943   3.107   1.125   0.218
 9682SOL     OW29944   5.181   4.911   4.069
 9682SOL    HW129945   5.085   4.938   4.057
 9682SOL    HW229946   5.199   4.828   4.016
 9683SOL     OW29947   2.506   5.639   0.833
 9683SOL    HW129948   2.535   5.616   0.926
 9683SOL    HW229949   2.542   5.729   0.808
 9684SOL     OW29950   0.661   3.119   5.369
 9684SOL    HW129951   0.642   3.041   5.309
 9684SOL    HW229952   0.575   3.152   5.409
 9685SOL     OW29953   2.345   4.265   1.187
 9685SOL    HW129954   2.387   4.353   1.167
 9685SOL    HW229955   2.246   4.277   1.200
 9686SOL     OW29956   6.630   1.386   6.808
 9686SOL    HW129957   6.542   1.397   6.762
 9686SOL    HW229958   6.704   1.399   6.742
 9687SOL     OW29959   1.761   0.596   4.194
 9687SOL    HW129960   1.853   0.628   4.218
 9687SOL    HW229961   1.709   0.671   4.154
 9688SOL     OW29962   0.523   2.647   2.535
 9688SOL    HW129963   0.497   2.570   2.593
 9688SOL    HW229964   0.487   2.731   2.573
 9689SOL     OW29965   1.551   5.806   6.939
 9689SOL    HW129966   1.507   5.717   6.929
 9689SOL    HW229967   1.611   5.822   6.861
 9690SOL     OW29968   6.254   6.153   6.719
 9690SOL    HW129969   6.272   6.091   6.642
 9690SOL    HW229970   6.252   6.247   6.686
 9691SOL     OW29971   2.729   5.218   1.591
 9691SOL    HW129972   2.742   5.315   1.611
 9691SOL    HW229973   2.691   5.172   1.672
 9692SOL     OW29974   3.624   5.407   2.886
 9692SOL    HW129975   3.543   5.359   2.854
 9692SOL    HW229976   3.675   5.348   2.949
 9693SOL     OW29977   6.070   4.986   1.488
 9693SOL    HW129978   6.076   5.073   1.440
 9693SOL    HW229979   6.091   4.999   1.585
 9694SOL     OW29980   2.087   0.935   0.316
 9694SOL    HW129981   2.074   1.014   0.256
 9694SOL    HW229982   2.035   0.948   0.400
 9695SOL     OW29983   0.072   3.797   2.271
 9695SOL    HW129984   0.160   3.793   2.223
 9695SOL    HW229985   0.088   3.797   2.370
 9696SOL     OW29986   5.349   3.543   0.588
 9696SOL    HW129987   5.289   3.580   0.659
 9696SOL    HW229988   5.352   3.443   0.595
 9697SOL     OW29989   0.374   6.022   6.616
 9697SOL    HW129990   0.345   6.016   6.521
 9697SOL    HW229991   0.366   6.117   6.647
 9698SOL     OW29992   4.336   1.193   5.899
 9698SOL    HW129993   4.352   1.100   5.932
 9698SOL    HW229994   4.392   1.257   5.951
 9699SOL     OW29995   6.958   5.139   6.484
 9699SOL    HW129996   0.035   5.145   6.490
 9699SOL    HW229997   6.924   5.206   6.418
 9700SOL     OW29998   4.431   5.011   5.070
 9700SOL    HW129999   4.440   4.983   4.975
 9700SOL    HW230000   4.334   5.014   5.095
 9701SOL     OW30001   3.902   5.002   5.097
 9701SOL    HW130002   3.878   5.079   5.157
 9701SOL    HW230003   3.887   4.917   5.146
 9702SOL     OW30004   4.772   0.160   0.040
 9702SOL    HW130005   4.792   0.173   0.136
 9702SOL    HW230006   4.806   0.070   0.010
 9703SOL     OW30007   4.241   4.659   3.991
 9703SOL    HW130008   4.301   4.656   4.071
 9703SOL    HW230009   4.164   4.719   4.010
 9704SOL     OW30010   3.322   0.893   2.905
 9704SOL    HW130011   3.251   0.963   2.913
 9704SOL    HW230012   3.292   0.824   2.839
 9705SOL     OW30013   6.050   4.640   6.374
 9705SOL    HW130014   5.989   4.706   6.419
 9705SOL    HW230015   5.995   4.567   6.333
 9706SOL     OW30016   0.624   3.126   1.098
 9706SOL    HW130017   0.645   3.185   1.177
 9706SOL    HW230018   0.690   3.051   1.094
 9707SOL     OW30019   6.434   4.698   1.610
 9707SOL    HW130020   6.470   4.665   1.697
 9707SOL    HW230021   6.334   4.694   1.612
 9708SOL     OW30022   1.352   2.162   2.550
 9708SOL    HW130023   1.341   2.228   2.624
 9708SOL    HW230024   1.275   2.168   2.487
 9709SOL     OW30025   5.949   6.059   2.940
 9709SOL    HW130026   6.014   6.032   3.012
 9709SOL    HW230027   5.941   6.159   2.939
 9710SOL     OW30028   0.097   1.365   1.916
 9710SOL    HW130029   0.152   1.283   1.902
 9710SOL    HW230030   0.001   1.345   1.895
 9711SOL     OW30031   2.188   4.636   6.344
 9711SOL    HW130032   2.139   4.569   6.287
 9711SOL    HW230033   2.137   4.722   6.344
 9712SOL     OW30034   6.308   4.635   6.416
 9712SOL    HW130035   6.326   4.543   6.451
 9712SOL    HW230036   6.213   4.641   6.385
 9713SOL     OW30037   1.267   5.025   3.259
 9713SOL    HW130038   1.324   5.105   3.239
 9713SOL    HW230039   1.257   4.969   3.176
 9714SOL     OW30040   3.074   0.521   0.558
 9714SOL    HW130041   3.131   0.440   0.571
 9714SOL    HW230042   3.023   0.539   0.642
 9715SOL     OW30043   5.307   4.037   6.417
 9715SOL    HW130044   5.378   4.004   6.354
 9715SOL    HW230045   5.220   4.046   6.368
 9716SOL     OW30046   3.757   3.131   0.167
 9716SOL    HW130047   3.718   3.198   0.231
 9716SOL    HW230048   3.833   3.173   0.118
 9717SOL     OW30049   4.958   6.070   6.098
 9717SOL    HW130050   4.916   6.012   6.028
 9717SOL    HW230051   5.057   6.057   6.096
 9718SOL     OW30052   5.039   2.493   0.493
 9718SOL    HW130053   5.088   2.578   0.475
 9718SOL    HW230054   4.949   2.513   0.530
 9719SOL     OW30055   6.598   1.600   6.536
 9719SOL    HW130056   6.613   1.657   6.617
 9719SOL    HW230057   6.679   1.604   6.477
 9720SOL     OW30058   0.130   5.488   2.058
 9720SOL    HW130059   0.150   5.528   1.968
 9720SOL    HW230060   0.156   5.552   2.130
 9721SOL     OW30061   0.247   2.160   1.771
 9721SOL    HW130062   0.264   2.195   1.863
 9721SOL    HW230063   0.235   2.061   1.775
 9722SOL     OW30064   6.643   0.381   4.100
 9722SOL    HW130065   6.674   0.362   4.007
 9722SOL    HW230066   6.635   0.295   4.151
 9723SOL     OW30067   2.375   6.052   3.114
 9723SOL    HW130068   2.428   6.136   3.128
 9723SOL    HW230069   2.395   6.016   3.023
 9724SOL     OW30070   1.481   4.175   0.515
 9724SOL    HW130071   1.560   4.221   0.474
 9724SOL    HW230072   1.439   4.236   0.583
 9725SOL     OW30073   3.695   4.775   6.451
 9725SOL    HW130074   3.646   4.766   6.537
 9725SOL    HW230075   3.656   4.713   6.383
 9726SOL     OW30076   5.325   0.059   4.054
 9726SOL    HW130077   5.423   0.069   4.073
 9726SOL    HW230078   5.272   0.102   4.127
 9727SOL     OW30079   0.743   3.728   5.703
 9727SOL    HW130080   0.707   3.732   5.609
 9727SOL    HW230081   0.676   3.768   5.766
 9728SOL     OW30082   0.381   0.801   6.496
 9728SOL    HW130083   0.408   0.854   6.415
 9728SOL    HW230084   0.341   0.862   6.564
 9729SOL     OW30085   1.014   4.363   3.134
 9729SOL    HW130086   1.020   4.437   3.201
 9729SOL    HW230087   1.102   4.354   3.087
 9730SOL     OW30088   0.737   3.425   3.343
 9730SOL    HW130089   0.674   3.351   3.367
 9730SOL    HW230090   0.818   3.420   3.401
 9731SOL     OW30091   4.412   4.299   1.137
 9731SOL    HW130092   4.370   4.350   1.211
 9731SOL    HW230093   4.384   4.203   1.142
 9732SOL     OW30094   5.977   5.607   2.786
 9732SOL    HW130095   6.071   5.628   2.814
 9732SOL    HW230096   5.965   5.635   2.690
 9733SOL     OW30097   5.449   5.075   0.678
 9733SOL    HW130098   5.533   5.109   0.636
 9733SOL    HW230099   5.417   4.994   0.629
 9734SOL     OW30100   6.176   1.366   2.189
 9734SOL    HW130101   6.232   1.308   2.249
 9734SOL    HW230102   6.192   1.462   2.212
 9735SOL     OW30103   2.545   4.543   2.957
 9735SOL    HW130104   2.463   4.599   2.958
 9735SOL    HW230105   2.557   4.500   3.047
 9736SOL     OW30106   6.379   2.146   6.669
 9736SOL    HW130107   6.414   2.079   6.734
 9736SOL    HW230108   6.447   2.161   6.597
 9737SOL     OW30109   5.795   2.870   4.106
 9737SOL    HW130110   5.737   2.799   4.147
 9737SOL    HW230111   5.813   2.846   4.010
 9738SOL     OW30112   1.519   0.097   1.378
 9738SOL    HW130113   1.615   0.080   1.402
 9738SOL    HW230114   1.514   0.128   1.283
 9739SOL     OW30115   5.905   4.835   2.220
 9739SOL    HW130116   5.855   4.855   2.305
 9739SOL    HW230117   5.898   4.737   2.200
 9740SOL     OW30118   6.462   2.274   3.104
 9740SOL    HW130119   6.527   2.345   3.075
 9740SOL    HW230120   6.368   2.307   3.088
 9741SOL     OW30121   4.871   1.834   3.253
 9741SOL    HW130122   4.888   1.779   3.172
 9741SOL    HW230123   4.801   1.789   3.310
 9742SOL     OW30124   4.112   6.843   1.266
 9742SOL    HW130125   4.126   6.881   1.175
 9742SOL    HW230126   4.200   6.839   1.314
 9743SOL     OW30127   0.766   1.785   4.818
 9743SOL    HW130128   0.680   1.762   4.774
 9743SOL    HW230129   0.781   1.884   4.815
 9744SOL     OW30130   0.349   0.409   3.107
 9744SOL    HW130131   0.270   0.356   3.076
 9744SOL    HW230132   0.366   0.485   3.044
 9745SOL     OW30133   6.385   2.767   6.182
 9745SOL    HW130134   6.456   2.715   6.134
 9745SOL    HW230135   6.428   2.838   6.238
 9746SOL     OW30136   6.602   1.023   5.829
 9746SOL    HW130137   6.645   0.933   5.840
 9746SOL    HW230138   6.506   1.012   5.806
 9747SOL     OW30139   2.072   0.599   1.110
 9747SOL    HW130140   2.102   0.659   1.184
 9747SOL    HW230141   2.057   0.653   1.027
 9748SOL     OW30142   0.426   1.840   3.537
 9748SOL    HW130143   0.388   1.910   3.477
 9748SOL    HW230144   0.445   1.758   3.483
 9749SOL     OW30145   2.049   1.633   4.998
 9749SOL    HW130146   1.957   1.594   5.004
 9749SOL    HW230147   2.106   1.575   4.939
 9750SOL     OW30148   5.835   4.428   3.699
 9750SOL    HW130149   5.874   4.362   3.634
 9750SOL    HW230150   5.850   4.521   3.664
 9751SOL     OW30151   1.149   0.658   0.410
 9751SOL    HW130152   1.088   0.711   0.469
 9751SOL    HW230153   1.096   0.585   0.366
 9752SOL     OW30154   5.146   1.779   5.964
 9752SOL    HW130155   5.218   1.711   5.980
 9752SOL    HW230156   5.140   1.800   5.867
 9753SOL     OW30157   6.026   6.243   5.771
 9753SOL    HW130158   5.930   6.255   5.797
 9753SOL    HW230159   6.050   6.311   5.702
 9754SOL     OW30160   1.000   1.335   6.614
 9754SOL    HW130161   0.947   1.368   6.536
 9754SOL    HW230162   1.097   1.330   6.589
 9755SOL     OW30163   4.290   3.574   5.389
 9755SOL    HW130164   4.217   3.634   5.422
 9755SOL    HW230165   4.274   3.552   5.293
 9756SOL     OW30166   5.880   3.208   0.495
 9756SOL    HW130167   5.969   3.166   0.475
 9756SOL    HW230168   5.825   3.143   0.548
 9757SOL     OW30169   5.796   3.775   3.573
 9757SOL    HW130170   5.883   3.727   3.572
 9757SOL    HW230171   5.723   3.710   3.595
 9758SOL     OW30172   2.541   0.036   7.006
 9758SOL    HW130173   2.512   6.974   6.960
 9758SOL    HW230174   2.506   0.115   6.956
 9759SOL     OW30175   2.180   6.924   6.675
 9759SOL    HW130176   2.235   6.996   6.718
 9759SOL    HW230177   2.121   6.882   6.744
 9760SOL     OW30178   4.776   3.089   5.183
 9760SOL    HW130179   4.747   3.162   5.244
 9760SOL    HW230180   4.743   3.108   5.090
 9761SOL     OW30181   6.403   0.629   2.433
 9761SOL    HW130182   6.332   0.698   2.444
 9761SOL    HW230183   6.368   0.539   2.459
 9762SOL     OW30184   3.598   1.744   4.461
 9762SOL    HW130185   3.676   1.747   4.525
 9762SOL    HW230186   3.513   1.759   4.512
 9763SOL     OW30187   4.900   2.308   1.835
 9763SOL    HW130188   4.906   2.316   1.736
 9763SOL    HW230189   4.992   2.290   1.872
 9764SOL     OW30190   0.487   3.132   3.013
 9764SOL    HW130191   0.582   3.101   3.024
 9764SOL    HW230192   0.469   3.208   3.075
 9765SOL     OW30193   6.944   1.219   3.064
 9765SOL    HW130194   6.976   1.203   2.971
 9765SOL    HW230195   6.923   1.317   3.076
 9766SOL     OW30196   2.715   0.475   3.497
 9766SOL    HW130197   2.641   0.540   3.516
 9766SOL    HW230198   2.716   0.404   3.567
 9767SOL     OW30199   5.352   1.526   5.466
 9767SOL    HW130200   5.323   1.516   5.371
 9767SOL    HW230201   5.274   1.510   5.527
 9768SOL     OW30202   5.409   1.727   2.374
 9768SOL    HW130203   5.431   1.629   2.374
 9768SOL    HW230204   5.469   1.774   2.309
 9769SOL     OW30205   2.641   0.486   2.619
 9769SOL    HW130206   2.566   0.541   2.657
 9769SOL    HW230207   2.609   0.437   2.538
 9770SOL     OW30208   5.545   0.006   6.909
 9770SOL    HW130209   5.610   6.958   6.939
 9770SOL    HW230210   5.532   0.073   6.982
 9771SOL     OW30211   2.717   5.743   1.119
 9771SOL    HW130212   2.636   5.687   1.141
 9771SOL    HW230213   2.741   5.798   1.199
 9772SOL     OW30214   1.412   6.112   2.874
 9772SOL    HW130215   1.431   6.158   2.787
 9772SOL    HW230216   1.317   6.129   2.901
 9773SOL     OW30217   5.325   6.561   4.090
 9773SOL    HW130218   5.331   6.654   4.053
 9773SOL    HW230219   5.292   6.565   4.184
 9774SOL     OW30220   6.378   4.952   1.480
 9774SOL    HW130221   6.388   5.024   1.549
 9774SOL    HW230222   6.405   4.864   1.519
 9775SOL     OW30223   2.551   0.963   3.871
 9775SOL    HW130224   2.606   0.921   3.798
 9775SOL    HW230225   2.568   1.061   3.872
 9776SOL     OW30226   0.898   5.013   4.287
 9776SOL    HW130227   0.834   5.075   4.242
 9776SOL    HW230228   0.943   5.061   4.362
 9777SOL     OW30229   5.051   4.527   6.215
 9777SOL    HW130230   5.131   4.490   6.262
 9777SOL    HW230231   4.984   4.454   6.201
 9778SOL     OW30232   0.652   0.824   3.285
 9778SOL    HW130233   0.566   0.820   3.234
 9778SOL    HW230234   0.717   0.759   3.245
 9779SOL     OW30235   1.951   0.600   4.777
 9779SOL    HW130236   2.036   0.643   4.747
 9779SOL    HW230237   1.937   0.617   4.874
 9780SOL     OW30238   2.353   1.495   0.817
 9780SOL    HW130239   2.452   1.494   0.832
 9780SOL    HW230240   2.327   1.417   0.760
 9781SOL     OW30241   1.615   3.756   4.276
 9781SOL    HW130242   1.680   3.697   4.228
 9781SOL    HW230243   1.551   3.699   4.328
 9782SOL     OW30244   6.776   0.418   1.702
 9782SOL    HW130245   6.785   0.342   1.767
 9782SOL    HW230246   6.821   0.499   1.739
 9783SOL     OW30247   5.146   1.994   3.324
 9783SOL    HW130248   5.062   1.944   3.303
 9783SOL    HW230249   5.199   1.943   3.392
 9784SOL     OW30250   3.897   1.441   4.291
 9784SOL    HW130251   3.884   1.539   4.276
 9784SOL    HW230252   3.995   1.419   4.283
 9785SOL     OW30253   6.673   3.914   5.513
 9785SOL    HW130254   6.675   4.013   5.506
 9785SOL    HW230255   6.623   3.887   5.595
 9786SOL     OW30256   2.529   4.640   6.852
 9786SOL    HW130257   2.501   4.557   6.901
 9786SOL    HW230258   2.617   4.671   6.887
 9787SOL     OW30259   4.386   3.406   1.736
 9787SOL    HW130260   4.295   3.413   1.696
 9787SOL    HW230261   4.393   3.321   1.788
 9788SOL     OW30262   0.760   0.491   3.801
 9788SOL    HW130263   0.705   0.527   3.725
 9788SOL    HW230264   0.722   0.524   3.888
 9789SOL     OW30265   1.257   5.617   0.107
 9789SOL    HW130266   1.308   5.651   0.186
 9789SOL    HW230267   1.313   5.550   0.058
 9790SOL     OW30268   5.614   3.896   5.511
 9790SOL    HW130269   5.518   3.914   5.533
 9790SOL    HW230270   5.644   3.813   5.558
 9791SOL     OW30271   0.286   1.518   3.005
 9791SOL    HW130272   0.189   1.498   3.014
 9791SOL    HW230273   0.325   1.463   2.931
 9792SOL     OW30274   5.454   5.619   1.858
 9792SOL    HW130275   5.511   5.667   1.925
 9792SOL    HW230276   5.509   5.549   1.812
 9793SOL     OW30277   5.205   4.818   3.534
 9793SOL    HW130278   5.189   4.768   3.449
 9793SOL    HW230279   5.275   4.888   3.519
 9794SOL     OW30280   6.441   4.207   0.168
 9794SOL    HW130281   6.536   4.238   0.166
 9794SOL    HW230282   6.402   4.213   0.077
 9795SOL     OW30283   1.579   2.160   4.003
 9795SOL    HW130284   1.479   2.162   4.010
 9795SOL    HW230285   1.607   2.185   3.910
 9796SOL     OW30286   4.141   2.439   1.330
 9796SOL    HW130287   4.069   2.503   1.301
 9796SOL    HW230288   4.100   2.366   1.383
 9797SOL     OW30289   3.453   5.291   6.589
 9797SOL    HW130290   3.452   5.191   6.586
 9797SOL    HW230291   3.548   5.323   6.587
 9798SOL     OW30292   2.780   0.281   1.112
 9798SOL    HW130293   2.840   0.361   1.115
 9798SOL    HW230294   2.771   0.244   1.205
 9799SOL     OW30295   3.383   3.835   3.380
 9799SOL    HW130296   3.475   3.797   3.369
 9799SOL    HW230297   3.315   3.764   3.362
 9800SOL     OW30298   3.652   6.196   5.088
 9800SOL    HW130299   3.641   6.291   5.119
 9800SOL    HW230300   3.648   6.193   4.988
 9801SOL     OW30301   4.826   4.488   0.538
 9801SOL    HW130302   4.842   4.490   0.439
 9801SOL    HW230303   4.904   4.530   0.585
 9802SOL     OW30304   0.808   2.535   1.754
 9802SOL    HW130305   0.891   2.586   1.775
 9802SOL    HW230306   0.779   2.485   1.835
 9803SOL     OW30307   6.290   1.594   0.303
 9803SOL    HW130308   6.249   1.516   0.255
 9803SOL    HW230309   6.277   1.583   0.401
 9804SOL     OW30310   0.992   6.307   2.788
 9804SOL    HW130311   0.988   6.221   2.839
 9804SOL    HW230312   0.955   6.294   2.696
 9805SOL     OW30313   0.918   6.059   5.323
 9805SOL    HW130314   0.847   6.062   5.393
 9805SOL    HW230315   0.985   6.131   5.341
 9806SOL     OW30316   1.516   1.889   0.387
 9806SOL    HW130317   1.522   1.982   0.349
 9806SOL    HW230318   1.597   1.837   0.360
 9807SOL     OW30319   1.940   3.261   0.239
 9807SOL    HW130320   1.927   3.358   0.259
 9807SOL    HW230321   1.901   3.241   0.149
 9808SOL     OW30322   5.882   1.618   5.520
 9808SOL    HW130323   5.874   1.685   5.446
 9808SOL    HW230324   5.791   1.590   5.550
 9809SOL     OW30325   0.674   2.064   6.839
 9809SOL    HW130326   0.694   1.969   6.860
 9809SOL    HW230327   0.606   2.098   6.904
 9810SOL     OW30328   2.512   2.473   4.109
 9810SOL    HW130329   2.507   2.387   4.160
 9810SOL    HW230330   2.435   2.531   4.134
 9811SOL     OW30331   5.490   5.539   3.804
 9811SOL    HW130332   5.463   5.636   3.810
 9811SOL    HW230333   5.502   5.514   3.708
 9812SOL     OW30334   2.969   2.208   5.458
 9812SOL    HW130335   3.069   2.216   5.457
 9812SOL    HW230336   2.929   2.279   5.400
 9813SOL     OW30337   5.910   0.559   6.804
 9813SOL    HW130338   5.937   0.506   6.724
 9813SOL    HW230339   5.829   0.614   6.782
 9814SOL     OW30340   0.497   1.162   0.058
 9814SOL    HW130341   0.400   1.184   0.063
 9814SOL    HW230342   0.511   1.085   7.018
 9815SOL     OW30343   5.916   3.727   2.704
 9815SOL    HW130344   5.833   3.713   2.757
 9815SOL    HW230345   5.974   3.794   2.749
 9816SOL     OW30346   0.326   1.878   6.021
 9816SOL    HW130347   0.227   1.872   6.035
 9816SOL    HW230348   0.372   1.885   6.109
 9817SOL     OW30349   2.636   5.760   2.568
 9817SOL    HW130350   2.717   5.725   2.521
 9817SOL    HW230351   2.568   5.688   2.575
 9818SOL     OW30352   1.725   1.000   4.348
 9818SOL    HW130353   1.739   0.934   4.274
 9818SOL    HW230354   1.775   1.084   4.329
 9819SOL     OW30355   4.799   2.856   4.932
 9819SOL    HW130356   4.874   2.820   4.987
 9819SOL    HW230357   4.761   2.782   4.876
 9820SOL     OW30358   3.774   3.150   6.175
 9820SOL    HW130359   3.727   3.064   6.161
 9820SOL    HW230360   3.764   3.179   6.270
 9821SOL     OW30361   4.893   0.849   0.506
 9821SOL    HW130362   4.974   0.874   0.453
 9821SOL    HW230363   4.903   0.879   0.600
 9822SOL     OW30364   2.624   5.493   3.730
 9822SOL    HW130365   2.594   5.451   3.645
 9822SOL    HW230366   2.545   5.533   3.777
 9823SOL     OW30367   2.054   0.033   1.704
 9823SOL    HW130368   2.006   0.094   1.641
 9823SOL    HW230369   2.042   6.961   1.674
 9824SOL     OW30370   2.163   5.611   4.623
 9824SOL    HW130371   2.255   5.625   4.659
 9824SOL    HW230372   2.153   5.663   4.538
 9825SOL     OW30373   5.533   6.685   4.736
 9825SOL    HW130374   5.455   6.703   4.677
 9825SOL    HW230375   5.512   6.712   4.830
 9826SOL     OW30376   3.403   6.432   5.533
 9826SOL    HW130377   3.344   6.358   5.501
 9826SOL    HW230378   3.495   6.418   5.497
 9827SOL     OW30379   2.101   3.780   3.370
 9827SOL    HW130380   2.004   3.801   3.367
 9827SOL    HW230381   2.131   3.776   3.466
 9828SOL     OW30382   2.837   2.292   5.224
 9828SOL    HW130383   2.931   2.308   5.195
 9828SOL    HW230384   2.818   2.194   5.219
 9829SOL     OW30385   4.267   5.726   6.148
 9829SOL    HW130386   4.327   5.758   6.222
 9829SOL    HW230387   4.247   5.802   6.087
 9830SOL     OW30388   4.917   1.629   1.819
 9830SOL    HW130389   4.982   1.563   1.859
 9830SOL    HW230390   4.840   1.580   1.779
 9831SOL     OW30391   1.005   4.745   2.576
 9831SOL    HW130392   0.919   4.696   2.562
 9831SOL    HW230393   1.082   4.685   2.552
 9832SOL     OW30394   4.612   5.419   1.852
 9832SOL    HW130395   4.689   5.461   1.805
 9832SOL    HW230396   4.643   5.377   1.937
 9833SOL     OW30397   3.275   3.368   3.434
 9833SOL    HW130398   3.288   3.341   3.529
 9833SOL    HW230399   3.217   3.301   3.388
 9834SOL     OW30400   1.987   4.739   5.482
 9834SOL    HW130401   2.084   4.723   5.466
 9834SOL    HW230402   1.936   4.656   5.461
 9835SOL     OW30403   3.661   3.210   4.085
 9835SOL    HW130404   3.687   3.121   4.121
 9835SOL    HW230405   3.569   3.205   4.045
 9836SOL     OW30406   0.544   4.089   4.338
 9836SOL    HW130407   0.542   4.154   4.414
 9836SOL    HW230408   0.556   3.996   4.374
 9837SOL     OW30409   4.836   0.601   2.357
 9837SOL    HW130410   4.853   0.637   2.265
 9837SOL    HW230411   4.824   0.502   2.353
 9838SOL     OW30412   1.708   6.516   0.697
 9838SOL    HW130413   1.792   6.495   0.647
 9838SOL    HW230414   1.651   6.435   0.702
 9839SOL     OW30415   4.724   6.339   3.078
 9839SOL    HW130416   4.752   6.274   3.148
 9839SOL    HW230417   4.802   6.395   3.051
 9840SOL     OW30418   4.839   1.686   0.605
 9840SOL    HW130419   4.746   1.696   0.568
 9840SOL    HW230420   4.904   1.681   0.529
 9841SOL     OW30421   1.681   4.570   3.711
 9841SOL    HW130422   1.766   4.608   3.676
 9841SOL    HW230423   1.613   4.567   3.638
 9842SOL     OW30424   3.471   3.252   0.948
 9842SOL    HW130425   3.420   3.338   0.937
 9842SOL    HW230426   3.415   3.176   0.915
 9843SOL     OW30427   0.093   6.869   1.793
 9843SOL    HW130428   0.182   6.915   1.793
 9843SOL    HW230429   0.032   6.914   1.858
 9844SOL     OW30430   6.005   1.097   4.144
 9844SOL    HW130431   6.062   1.040   4.085
 9844SOL    HW230432   6.045   1.099   4.236
 9845SOL     OW30433   1.325   2.378   2.700
 9845SOL    HW130434   1.417   2.406   2.729
 9845SOL    HW230435   1.273   2.458   2.671
 9846SOL     OW30436   4.333   1.711   0.909
 9846SOL    HW130437   4.390   1.743   0.985
 9846SOL    HW230438   4.289   1.788   0.864
 9847SOL     OW30439   4.028   3.117   2.371
 9847SOL    HW130440   4.024   3.120   2.471
 9847SOL    HW230441   4.087   3.192   2.338
 9848SOL     OW30442   4.019   5.006   6.067
 9848SOL    HW130443   4.036   5.054   5.980
 9848SOL    HW230444   3.988   4.913   6.048
 9849SOL     OW30445   0.881   6.904   6.430
 9849SOL    HW130446   0.899   6.826   6.370
 9849SOL    HW230447   0.853   6.983   6.375
 9850SOL     OW30448   0.188   0.730   3.518
 9850SOL    HW130449   0.228   0.804   3.463
 9850SOL    HW230450   0.160   0.766   3.607
 9851SOL     OW30451   2.347   6.563   4.481
 9851SOL    HW130452   2.283   6.533   4.410
 9851SOL    HW230453   2.352   6.495   4.553
 9852SOL     OW30454   1.635   1.681   5.336
 9852SOL    HW130455   1.717   1.732   5.308
 9852SOL    HW230456   1.557   1.710   5.280
 9853SOL     OW30457   6.268   3.340   5.468
 9853SOL    HW130458   6.265   3.429   5.512
 9853SOL    HW230459   6.312   3.274   5.529
 9854SOL     OW30460   0.438   5.184   4.377
 9854SOL    HW130461   0.491   5.215   4.456
 9854SOL    HW230462   0.483   5.212   4.293
 9855SOL     OW30463   1.405   3.582   0.913
 9855SOL    HW130464   1.361   3.585   0.823
 9855SOL    HW230465   1.496   3.540   0.904
 9856SOL     OW30466   5.524   4.691   4.049
 9856SOL    HW130467   5.605   4.635   4.063
 9856SOL    HW230468   5.444   4.645   4.088
 9857SOL     OW30469   5.798   2.908   2.805
 9857SOL    HW130470   5.794   3.007   2.795
 9857SOL    HW230471   5.802   2.865   2.715
 9858SOL     OW30472   0.484   6.746   1.563
 9858SOL    HW130473   0.506   6.844   1.556
 9858SOL    HW230474   0.385   6.734   1.567
 9859SOL     OW30475   6.705   4.662   4.114
 9859SOL    HW130476   6.618   4.704   4.088
 9859SOL    HW230477   6.696   4.563   4.113
 9860SOL     OW30478   1.531   2.492   4.763
 9860SOL    HW130479   1.478   2.420   4.806
 9860SOL    HW230480   1.616   2.506   4.814
 9861SOL     OW30481   2.997   0.522   3.594
 9861SOL    HW130482   2.908   0.519   3.548
 9861SOL    HW230483   3.018   0.432   3.634
 9862SOL     OW30484   2.657   3.755   0.815
 9862SOL    HW130485   2.717   3.753   0.895
 9862SOL    HW230486   2.634   3.661   0.788
 9863SOL     OW30487   3.289   5.821   1.077
 9863SOL    HW130488   3.270   5.908   1.123
 9863SOL    HW230489   3.353   5.767   1.132
 9864SOL     OW30490   3.504   0.495   5.235
 9864SOL    HW130491   3.601   0.505   5.210
 9864SOL    HW230492   3.456   0.580   5.213
 9865SOL     OW30493   0.881   6.330   4.504
 9865SOL    HW130494   0.837   6.409   4.460
 9865SOL    HW230495   0.980   6.338   4.496
 9866SOL     OW30496   6.055   4.342   4.756
 9866SOL    HW130497   6.145   4.373   4.724
 9866SOL    HW230498   6.006   4.420   4.796
 9867SOL     OW30499   6.318   2.353   2.611
 9867SOL    HW130500   6.349   2.262   2.583
 9867SOL    HW230501   6.229   2.345   2.655
 9868SOL     OW30502   0.422   3.573   4.360
 9868SOL    HW130503   0.325   3.598   4.351
 9868SOL    HW230504   0.432   3.503   4.430
 9869SOL     OW30505   0.499   2.663   0.759
 9869SOL    HW130506   0.541   2.646   0.849
 9869SOL    HW230507   0.541   2.743   0.717
 9870SOL     OW30508   4.002   0.261   2.794
 9870SOL    HW130509   4.016   0.236   2.890
 9870SOL    HW230510   4.048   0.348   2.775
 9871SOL     OW30511   6.384   3.131   5.609
 9871SOL    HW130512   6.412   3.039   5.635
 9871SOL    HW230513   6.457   3.196   5.632
 9872SOL     OW30514   2.670   5.198   5.029
 9872SOL    HW130515   2.577   5.163   5.018
 9872SOL    HW230516   2.674   5.292   4.996
 9873SOL     OW30517   2.350   2.266   6.443
 9873SOL    HW130518   2.363   2.169   6.425
 9873SOL    HW230519   2.279   2.302   6.383
 9874SOL     OW30520   0.285   3.299   5.772
 9874SOL    HW130521   0.202   3.355   5.765
 9874SOL    HW230522   0.259   3.204   5.790
 9875SOL     OW30523   6.920   5.924   2.581
 9875SOL    HW130524   6.977   5.966   2.652
 9875SOL    HW230525   6.972   5.920   2.495
 9876SOL     OW30526   5.433   0.728   3.789
 9876SOL    HW130527   5.495   0.806   3.802
 9876SOL    HW230528   5.339   0.759   3.801
 9877SOL     OW30529   6.794   4.397   4.369
 9877SOL    HW130530   6.704   4.359   4.391
 9877SOL    HW230531   6.797   4.493   4.399
 9878SOL     OW30532   2.517   3.536   6.216
 9878SOL    HW130533   2.497   3.621   6.264
 9878SOL    HW230534   2.608   3.541   6.175
 9879SOL     OW30535   0.003   4.660   5.126
 9879SOL    HW130536   0.091   4.614   5.116
 9879SOL    HW230537   6.953   4.603   5.086
 9880SOL     OW30538   2.422   0.138   1.134
 9880SOL    HW130539   2.397   0.069   1.067
 9880SOL    HW230540   2.386   0.227   1.105
 9881SOL     OW30541   6.616   1.599   4.438
 9881SOL    HW130542   6.608   1.688   4.484
 9881SOL    HW230543   6.711   1.568   4.442
 9882SOL     OW30544   3.366   3.879   5.133
 9882SOL    HW130545   3.371   3.979   5.135
 9882SOL    HW230546   3.456   3.841   5.153
 9883SOL     OW30547   1.288   5.656   1.525
 9883SOL    HW130548   1.385   5.632   1.515
 9883SOL    HW230549   1.242   5.586   1.581
 9884SOL     OW30550   3.435   2.210   0.583
 9884SOL    HW130551   3.438   2.143   0.509
 9884SOL    HW230552   3.518   2.201   0.639
 9885SOL     OW30553   0.351   3.147   4.174
 9885SOL    HW130554   0.431   3.194   4.136
 9885SOL    HW230555   0.308   3.205   4.243
 9886SOL     OW30556   6.604   6.587   1.858
 9886SOL    HW130557   6.667   6.524   1.904
 9886SOL    HW230558   6.545   6.535   1.796
 9887SOL     OW30559   3.302   0.271   0.380
 9887SOL    HW130560   3.250   0.350   0.349
 9887SOL    HW230561   3.328   0.283   0.475
 9888SOL     OW30562   5.991   5.871   3.163
 9888SOL    HW130563   6.068   5.827   3.209
 9888SOL    HW230564   5.927   5.801   3.131
 9889SOL     OW30565   1.299   5.326   2.518
 9889SOL    HW130566   1.212   5.361   2.482
 9889SOL    HW230567   1.301   5.341   2.617
 9890SOL     OW30568   6.450   2.873   0.896
 9890SOL    HW130569   6.433   2.824   0.810
 9890SOL    HW230570   6.443   2.972   0.880
 9891SOL     OW30571   5.371   4.729   1.333
 9891SOL    HW130572   5.343   4.637   1.306
 9891SOL    HW230573   5.299   4.771   1.389
 9892SOL     OW30574   2.313   5.575   3.620
 9892SOL    HW130575   2.223   5.598   3.582
 9892SOL    HW230576   2.301   5.518   3.701
 9893SOL     OW30577   6.350   6.371   2.672
 9893SOL    HW130578   6.340   6.458   2.721
 9893SOL    HW230579   6.340   6.387   2.574
 9894SOL     OW30580   2.649   1.257   6.483
 9894SOL    HW130581   2.549   1.251   6.476
 9894SOL    HW230582   2.683   1.327   6.421
 9895SOL     OW30583   6.372   1.969   5.698
 9895SOL    HW130584   6.331   1.911   5.769
 9895SOL    HW230585   6.450   2.019   5.737
 9896SOL     OW30586   5.038   2.329   0.280
 9896SOL    HW130587   4.962   2.336   0.216
 9896SOL    HW230588   5.018   2.381   0.363
 9897SOL     OW30589   5.076   1.141   2.187
 9897SOL    HW130590   5.144   1.147   2.115
 9897SOL    HW230591   5.110   1.083   2.261
 9898SOL     OW30592   0.582   5.529   4.976
 9898SOL    HW130593   0.603   5.577   5.062
 9898SOL    HW230594   0.666   5.492   4.937
 9899SOL     OW30595   6.212   4.696   2.318
 9899SOL    HW130596   6.215   4.644   2.233
 9899SOL    HW230597   6.268   4.779   2.309
 9900SOL     OW30598   2.135   1.847   2.968
 9900SOL    HW130599   2.131   1.839   2.869
 9900SOL    HW230600   2.149   1.943   2.993
 9901SOL     OW30601   1.303   2.514   0.434
 9901SOL    HW130602   1.289   2.514   0.335
 9901SOL    HW230603   1.381   2.456   0.457
 9902SOL     OW30604   3.159   3.085   1.301
 9902SOL    HW130605   3.187   3.037   1.384
 9902SOL    HW230606   3.181   3.182   1.310
 9903SOL     OW30607   4.499   0.291   2.270
 9903SOL    HW130608   4.467   0.275   2.364
 9903SOL    HW230609   4.470   0.382   2.241
 9904SOL     OW30610   6.608   3.462   6.914
 9904SOL    HW130611   6.573   3.488   7.004
 9904SOL    HW230612   6.692   3.513   6.894
 9905SOL     OW30613   2.083   6.371   0.344
 9905SOL    HW130614   2.079   6.349   0.246
 9905SOL    HW230615   2.172   6.344   0.381
 9906SOL     OW30616   1.514   3.493   0.357
 9906SOL    HW130617   1.550   3.504   0.264
 9906SOL    HW230618   1.513   3.396   0.380
 9907SOL     OW30619   2.508   0.064   3.584
 9907SOL    HW130620   2.410   0.042   3.583
 9907SOL    HW230621   2.560   7.009   3.547
 9908SOL     OW30622   0.672   3.407   5.590
 9908SOL    HW130623   0.752   3.373   5.540
 9908SOL    HW230624   0.696   3.422   5.686
 9909SOL     OW30625   3.323   0.362   3.126
 9909SOL    HW130626   3.347   0.381   3.221
 9909SOL    HW230627   3.400   0.388   3.067
 9910SOL     OW30628   0.661   5.057   1.878
 9910SOL    HW130629   0.578   5.074   1.931
 9910SOL    HW230630   0.738   5.105   1.920
 9911SOL     OW30631   4.583   5.563   3.175
 9911SOL    HW130632   4.593   5.560   3.075
 9911SOL    HW230633   4.620   5.649   3.209
 9912SOL     OW30634   4.389   0.984   2.161
 9912SOL    HW130635   4.350   0.950   2.247
 9912SOL    HW230636   4.484   0.955   2.153
 9913SOL     OW30637   6.273   3.083   2.346
 9913SOL    HW130638   6.239   2.998   2.307
 9913SOL    HW230639   6.196   3.141   2.373
 9914SOL     OW30640   0.643   0.446   6.242
 9914SOL    HW130641   0.742   0.437   6.251
 9914SOL    HW230642   0.601   0.446   6.333
 9915SOL     OW30643   4.875   3.176   4.217
 9915SOL    HW130644   4.859   3.138   4.308
 9915SOL    HW230645   4.916   3.267   4.226
 9916SOL     OW30646   2.912   2.318   3.604
 9916SOL    HW130647   2.852   2.288   3.530
 9916SOL    HW230648   2.861   2.317   3.690
 9917SOL     OW30649   3.128   3.032   4.375
 9917SOL    HW130650   3.099   2.955   4.318
 9917SOL    HW230651   3.180   2.997   4.454
 9918SOL     OW30652   0.842   1.780   0.639
 9918SOL    HW130653   0.901   1.853   0.605
 9918SOL    HW230654   0.829   1.791   0.738
 9919SOL     OW30655   2.260   5.426   1.991
 9919SOL    HW130656   2.177   5.447   2.042
 9919SOL    HW230657   2.301   5.342   2.026
 9920SOL     OW30658   3.356   1.158   3.088
 9920SOL    HW130659   3.439   1.202   3.053
 9920SOL    HW230660   3.290   1.228   3.116
 9921SOL     OW30661   5.876   6.007   4.343
 9921SOL    HW130662   5.855   6.065   4.265
 9921SOL    HW230663   5.791   5.979   4.388
 9922SOL     OW30664   4.767   4.380   0.880
 9922SOL    HW130665   4.738   4.344   0.792
 9922SOL    HW230666   4.867   4.384   0.883
 9923SOL     OW30667   6.749   3.067   0.929
 9923SOL    HW130668   6.675   3.078   0.863
 9923SOL    HW230669   6.837   3.084   0.885
 9924SOL     OW30670   5.565   2.117   2.405
 9924SOL    HW130671   5.606   2.193   2.455
 9924SOL    HW230672   5.497   2.072   2.463
 9925SOL     OW30673   2.264   4.289   5.157
 9925SOL    HW130674   2.186   4.280   5.219
 9925SOL    HW230675   2.284   4.199   5.116
 9926SOL     OW30676   3.073   2.345   1.431
 9926SOL    HW130677   3.091   2.257   1.387
 9926SOL    HW230678   3.064   2.331   1.529
 9927SOL     OW30679   0.650   2.344   1.272
 9927SOL    HW130680   0.646   2.404   1.352
 9927SOL    HW230681   0.587   2.377   1.202
 9928SOL     OW30682   6.243   4.564   2.087
 9928SOL    HW130683   6.202   4.475   2.067
 9928SOL    HW230684   6.339   4.550   2.112
 9929SOL     OW30685   2.739   4.194   5.433
 9929SOL    HW130686   2.731   4.100   5.466
 9929SOL    HW230687   2.655   4.219   5.384
 9930SOL     OW30688   0.043   0.109   5.534
 9930SOL    HW130689   0.126   0.075   5.489
 9930SOL    HW230690   0.065   0.134   5.628
 9931SOL     OW30691   0.146   5.432   4.751
 9931SOL    HW130692   0.198   5.442   4.836
 9931SOL    HW230693   0.133   5.523   4.711
 9932SOL     OW30694   1.855   2.197   0.401
 9932SOL    HW130695   1.820   2.186   0.308
 9932SOL    HW230696   1.782   2.178   0.466
 9933SOL     OW30697   1.859   0.968   4.032
 9933SOL    HW130698   1.921   0.943   3.958
 9933SOL    HW230699   1.783   0.903   4.035
 9934SOL     OW30700   6.000   1.992   0.158
 9934SOL    HW130701   5.934   1.945   0.100
 9934SOL    HW230702   6.027   2.079   0.116
 9935SOL     OW30703   2.652   1.591   0.526
 9935SOL    HW130704   2.603   1.507   0.502
 9935SOL    HW230705   2.599   1.670   0.494
 9936SOL     OW30706   6.038   4.696   5.925
 9936SOL    HW130707   5.975   4.768   5.952
 9936SOL    HW230708   6.010   4.660   5.836
 9937SOL     OW30709   1.476   0.683   2.957
 9937SOL    HW130710   1.455   0.734   3.041
 9937SOL    HW230711   1.521   0.744   2.892
 9938SOL     OW30712   5.822   0.316   3.901
 9938SOL    HW130713   5.868   0.401   3.926
 9938SOL    HW230714   5.804   0.315   3.803
 9939SOL     OW30715   1.969   2.700   1.233
 9939SOL    HW130716   1.942   2.794   1.256
 9939SOL    HW230717   2.050   2.702   1.174
 9940SOL     OW30718   0.548   0.573   3.628
 9940SOL    HW130719   0.508   0.585   3.537
 9940SOL    HW230720   0.477   0.586   3.697
 9941SOL     OW30721   3.029   5.636   6.007
 9941SOL    HW130722   3.035   5.731   6.039
 9941SOL    HW230723   3.120   5.596   6.003
 9942SOL     OW30724   4.551   5.275   2.841
 9942SOL    HW130725   4.499   5.335   2.901
 9942SOL    HW230726   4.601   5.330   2.774
 9943SOL     OW30727   0.363   4.520   5.850
 9943SOL    HW130728   0.375   4.438   5.795
 9943SOL    HW230729   0.398   4.503   5.943
 9944SOL     OW30730   0.070   5.881   6.076
 9944SOL    HW130731   7.004   5.865   6.030
 9944SOL    HW230732   0.074   5.828   6.160
 9945SOL     OW30733   5.448   4.078   6.898
 9945SOL    HW130734   5.371   4.016   6.907
 9945SOL    HW230735   5.446   4.123   6.809
 9946SOL     OW30736   6.061   0.189   3.577
 9946SOL    HW130737   6.101   0.173   3.487
 9946SOL    HW230738   5.989   0.121   3.594
 9947SOL     OW30739   1.832   1.967   3.848
 9947SOL    HW130740   1.762   2.038   3.844
 9947SOL    HW230741   1.828   1.911   3.766
 9948SOL     OW30742   6.784   5.666   4.873
 9948SOL    HW130743   6.700   5.662   4.927
 9948SOL    HW230744   6.783   5.749   4.817
 9949SOL     OW30745   0.261   5.011   4.220
 9949SOL    HW130746   0.239   4.965   4.306
 9949SOL    HW230747   0.296   5.102   4.239
 9950SOL     OW30748   6.456   5.227   5.955
 9950SOL    HW130749   6.521   5.166   6.001
 9950SOL    HW230750   6.446   5.311   6.008
 9951SOL     OW30751   1.545   2.202   2.897
 9951SOL    HW130752   1.547   2.277   2.831
 9951SOL    HW230753   1.635   2.160   2.902
 9952SOL     OW30754   1.352   3.945   1.471
 9952SOL    HW130755   1.257   3.914   1.463
 9952SOL    HW230756   1.359   4.012   1.545
 9953SOL     OW30757   5.405   2.439   3.217
 9953SOL    HW130758   5.398   2.341   3.196
 9953SOL    HW230759   5.410   2.491   3.132
 9954SOL     OW30760   1.762   0.880   4.919
 9954SOL    HW130761   1.733   0.878   5.014
 9954SOL    HW230762   1.697   0.934   4.865
 9955SOL     OW30763   4.740   3.814   6.875
 9955SOL    HW130764   4.824   3.805   6.929
 9955SOL    HW230765   4.693   3.726   6.871
 9956SOL     OW30766   6.854   4.171   2.578
 9956SOL    HW130767   6.802   4.257   2.580
 9956SOL    HW230768   6.893   4.154   2.668
 9957SOL     OW30769   5.474   0.003   1.459
 9957SOL    HW130770   5.380   7.010   1.429
 9957SOL    HW230771   5.491   0.101   1.467
 9958SOL     OW30772   2.911   5.713   5.777
 9958SOL    HW130773   2.832   5.773   5.787
 9958SOL    HW230774   2.939   5.680   5.868
 9959SOL     OW30775   4.084   3.265   2.033
 9959SOL    HW130776   4.122   3.271   2.125
 9959SOL    HW230777   4.035   3.178   2.023
 9960SOL     OW30778   0.324   6.437   1.468
 9960SOL    HW130779   0.295   6.528   1.498
 9960SOL    HW230780   0.401   6.446   1.404
 9961SOL     OW30781   2.362   4.312   2.370
 9961SOL    HW130782   2.313   4.237   2.415
 9961SOL    HW230783   2.460   4.296   2.376
 9962SOL     OW30784   3.867   0.951   2.019
 9962SOL    HW130785   3.872   1.027   1.954
 9962SOL    HW230786   3.875   0.986   2.113
 9963SOL     OW30787   2.580   3.650   6.903
 9963SOL    HW130788   2.503   3.704   6.936
 9963SOL    HW230789   2.568   3.628   6.806
 9964SOL     OW30790   3.519   5.217   5.508
 9964SOL    HW130791   3.477   5.231   5.598
 9964SOL    HW230792   3.601   5.160   5.519
 9965SOL     OW30793   3.450   5.463   4.652
 9965SOL    HW130794   3.453   5.503   4.743
 9965SOL    HW230795   3.356   5.462   4.618
 9966SOL     OW30796   2.636   5.341   2.107
 9966SOL    HW130797   2.603   5.428   2.142
 9966SOL    HW230798   2.736   5.343   2.101
 9967SOL     OW30799   6.319   5.232   2.971
 9967SOL    HW130800   6.295   5.280   3.055
 9967SOL    HW230801   6.366   5.295   2.909
 9968SOL     OW30802   3.808   5.566   0.175
 9968SOL    HW130803   3.779   5.540   0.083
 9968SOL    HW230804   3.770   5.502   0.241
 9969SOL     OW30805   1.556   3.252   4.528
 9969SOL    HW130806   1.602   3.229   4.614
 9969SOL    HW230807   1.569   3.178   4.462
 9970SOL     OW30808   6.431   5.290   0.996
 9970SOL    HW130809   6.454   5.282   0.899
 9970SOL    HW230810   6.468   5.212   1.046
 9971SOL     OW30811   2.341   2.479   1.444
 9971SOL    HW130812   2.391   2.548   1.392
 9971SOL    HW230813   2.244   2.483   1.420
 9972SOL     OW30814   2.723   4.143   0.842
 9972SOL    HW130815   2.817   4.129   0.874
 9972SOL    HW230816   2.660   4.099   0.906
 9973SOL     OW30817   4.340   2.354   4.413
 9973SOL    HW130818   4.417   2.291   4.421
 9973SOL    HW230819   4.254   2.303   4.420
 9974SOL     OW30820   0.431   2.867   2.916
 9974SOL    HW130821   0.371   2.805   2.967
 9974SOL    HW230822   0.442   2.952   2.967
 9975SOL     OW30823   0.378   5.394   6.191
 9975SOL    HW130824   0.325   5.419   6.110
 9975SOL    HW230825   0.413   5.301   6.181
 9976SOL     OW30826   0.838   5.010   5.239
 9976SOL    HW130827   0.872   4.951   5.312
 9976SOL    HW230828   0.899   5.089   5.229
 9977SOL     OW30829   5.595   4.764   5.833
 9977SOL    HW130830   5.496   4.751   5.831
 9977SOL    HW230831   5.635   4.705   5.903
 9978SOL     OW30832   6.875   1.431   5.161
 9978SOL    HW130833   6.848   1.340   5.129
 9978SOL    HW230834   6.877   1.432   5.261
 9979SOL     OW30835   6.611   3.996   6.684
 9979SOL    HW130836   6.585   3.979   6.589
 9979SOL    HW230837   6.582   3.919   6.741
 9980SOL     OW30838   1.874   0.223   0.633
 9980SOL    HW130839   1.906   0.318   0.624
 9980SOL    HW230840   1.892   0.191   0.726
 9981SOL     OW30841   2.642   2.156   0.329
 9981SOL    HW130842   2.655   2.195   0.420
 9981SOL    HW230843   2.557   2.192   0.289
 9982SOL     OW30844   1.163   1.248   4.494
 9982SOL    HW130845   1.082   1.296   4.528
 9982SOL    HW230846   1.134   1.173   4.434
 9983SOL     OW30847   0.414   1.372   1.914
 9983SOL    HW130848   0.387   1.357   2.009
 9983SOL    HW230849   0.505   1.332   1.899
 9984SOL     OW30850   1.069   6.116   0.008
 9984SOL    HW130851   1.106   6.205   7.005
 9984SOL    HW230852   1.035   6.120   0.102
 9985SOL     OW30853   2.736   6.406   1.133
 9985SOL    HW130854   2.765   6.484   1.078
 9985SOL    HW230855   2.742   6.322   1.078
 9986SOL     OW30856   5.372   5.102   0.981
 9986SOL    HW130857   5.367   5.006   1.008
 9986SOL    HW230858   5.405   5.108   0.887
 9987SOL     OW30859   6.567   2.487   2.678
 9987SOL    HW130860   6.498   2.418   2.655
 9987SOL    HW230861   6.631   2.449   2.744
 9988SOL     OW30862   6.618   5.195   4.233
 9988SOL    HW130863   6.595   5.291   4.245
 9988SOL    HW230864   6.666   5.182   4.147
 9989SOL     OW30865   6.155   4.072   2.422
 9989SOL    HW130866   6.237   4.103   2.470
 9989SOL    HW230867   6.181   4.016   2.344
 9990SOL     OW30868   2.290   7.016   3.165
 9990SOL    HW130869   2.341   0.021   3.084
 9990SOL    HW230870   2.317   6.924   3.192
 9991SOL     OW30871   2.058   3.384   3.762
 9991SOL    HW130872   2.090   3.427   3.847
 9991SOL    HW230873   2.014   3.453   3.705
 9992SOL     OW30874   3.490   3.768   0.743
 9992SOL    HW130875   3.578   3.756   0.788
 9992SOL    HW230876   3.431   3.827   0.798
 9993SOL     OW30877   3.759   6.668   3.392
 9993SOL    HW130878   3.843   6.703   3.352
 9993SOL    HW230879   3.774   6.577   3.429
 9994SOL     OW30880   6.636   4.350   2.434
 9994SOL    HW130881   6.671   4.440   2.457
 9994SOL    HW230882   6.646   4.334   2.335
 9995SOL     OW30883   3.280   1.162   3.575
 9995SOL    HW130884   3.324   1.141   3.663
 9995SOL    HW230885   3.344   1.143   3.501
 9996SOL     OW30886   2.670   3.496   1.782
 9996SOL    HW130887   2.576   3.503   1.816
 9996SOL    HW230888   2.722   3.433   1.838
 9997SOL     OW30889   5.233   0.849   1.878
 9997SOL    HW130890   5.246   0.926   1.941
 9997SOL    HW230891   5.197   0.771   1.927
 9998SOL     OW30892   5.588   3.612   2.463
 9998SOL    HW130893   5.548   3.521   2.477
 9998SOL    HW230894   5.578   3.638   2.367
 9999SOL     OW30895   0.326   5.715   5.208
 9999SOL    HW130896   0.375   5.794   5.244
 9999SOL    HW230897   0.361   5.694   5.117
10000SOL     OW30898   5.732   1.846   0.314
10000SOL    HW130899   5.691   1.898   0.389
10000SOL    HW230900   5.827   1.877   0.301
10001SOL     OW30901   4.032   0.650   1.298
10001SOL    HW130902   3.940   0.637   1.333
10001SOL    HW230903   4.028   0.686   1.205
10002SOL     OW30904   2.098   1.103   1.546
10002SOL    HW130905   2.022   1.057   1.592
10002SOL    HW230906   2.070   1.195   1.521
10003SOL     OW30907   2.970   2.149   2.330
10003SOL    HW130908   2.887   2.186   2.371
10003SOL    HW230909   3.001   2.211   2.257
10004SOL     OW30910   5.570   2.849   5.124
10004SOL    HW130911   5.655   2.823   5.170
10004SOL    HW230912   5.526   2.923   5.176
10005SOL     OW30913   3.721   5.574   2.445
10005SOL    HW130914   3.820   5.559   2.454
10005SOL    HW230915   3.678   5.564   2.535
10006SOL     OW30916   6.228   0.140   5.190
10006SOL    HW130917   6.226   0.053   5.238
10006SOL    HW230918   6.234   0.123   5.091
10007SOL     OW30919   0.606   3.017   3.921
10007SOL    HW130920   0.646   3.053   4.005
10007SOL    HW230921   0.626   2.920   3.913
10008SOL     OW30922   4.624   0.819   3.858
10008SOL    HW130923   4.572   0.876   3.795
10008SOL    HW230924   4.715   0.858   3.871
10009SOL     OW30925   1.358   4.315   1.431
10009SOL    HW130926   1.402   4.279   1.349
10009SOL    HW230927   1.393   4.267   1.511
10010SOL     OW30928   2.782   6.077   0.297
10010SOL    HW130929   2.789   6.088   0.396
10010SOL    HW230930   2.698   6.122   0.265
10011SOL     OW30931   0.576   4.161   6.118
10011SOL    HW130932   0.605   4.238   6.060
10011SOL    HW230933   0.503   4.191   6.179
10012SOL     OW30934   5.533   0.387   2.192
10012SOL    HW130935   5.445   0.338   2.197
10012SOL    HW230936   5.523   0.477   2.235
10013SOL     OW30937   1.830   2.208   4.110
10013SOL    HW130938   1.738   2.210   4.072
10013SOL    HW230939   1.828   2.164   4.200
10014SOL     OW30940   1.109   1.247   1.302
10014SOL    HW130941   1.096   1.259   1.204
10014SOL    HW230942   1.184   1.306   1.333
10015SOL     OW30943   4.081   5.497   0.419
10015SOL    HW130944   4.051   5.427   0.355
10015SOL    HW230945   4.058   5.588   0.384
10016SOL     OW30946   1.423   0.513   5.011
10016SOL    HW130947   1.360   0.519   5.088
10016SOL    HW230948   1.511   0.476   5.042
10017SOL     OW30949   1.754   1.522   3.209
10017SOL    HW130950   1.838   1.551   3.164
10017SOL    HW230951   1.730   1.429   3.180
10018SOL     OW30952   6.689   5.107   5.721
10018SOL    HW130953   6.700   5.059   5.808
10018SOL    HW230954   6.756   5.071   5.655
10019SOL     OW30955   0.636   1.875   3.177
10019SOL    HW130956   0.622   1.781   3.210
10019SOL    HW230957   0.658   1.934   3.254
10020SOL     OW30958   0.639   0.754   1.374
10020SOL    HW130959   0.723   0.783   1.329
10020SOL    HW230960   0.561   0.802   1.333
10021SOL     OW30961   0.940   2.454   2.361
10021SOL    HW130962   1.039   2.469   2.367
10021SOL    HW230963   0.907   2.416   2.448
10022SOL     OW30964   3.729   0.020   0.971
10022SOL    HW130965   3.761   0.114   0.974
10022SOL    HW230966   3.775   6.993   0.897
10023SOL     OW30967   2.206   4.877   4.502
10023SOL    HW130968   2.113   4.908   4.524
10023SOL    HW230969   2.214   4.863   4.403
10024SOL     OW30970   2.149   5.684   1.667
10024SOL    HW130971   2.123   5.616   1.735
10024SOL    HW230972   2.219   5.744   1.705
10025SOL     OW30973   1.635   2.671   2.279
10025SOL    HW130974   1.565   2.740   2.298
10025SOL    HW230975   1.667   2.681   2.185
10026SOL     OW30976   5.032   0.202   3.140
10026SOL    HW130977   4.979   0.149   3.206
10026SOL    HW230978   5.097   0.260   3.188
10027SOL     OW30979   0.418   2.936   5.343
10027SOL    HW130980   0.326   2.961   5.312
10027SOL    HW230981   0.469   2.896   5.267
10028SOL     OW30982   1.963   1.619   2.214
10028SOL    HW130983   1.968   1.537   2.157
10028SOL    HW230984   1.868   1.645   2.228
10029SOL     OW30985   1.643   2.035   3.542
10029SOL    HW130986   1.698   2.061   3.463
10029SOL    HW230987   1.591   1.952   3.521
10030SOL     OW30988   3.198   0.352   4.675
10030SOL    HW130989   3.219   0.349   4.577
10030SOL    HW230990   3.269   0.402   4.724
10031SOL     OW30991   5.774   4.825   4.736
10031SOL    HW130992   5.684   4.828   4.691
10031SOL    HW230993   5.768   4.866   4.827
10032SOL     OW30994   4.210   0.345   4.997
10032SOL    HW130995   4.260   0.397   5.066
10032SOL    HW230996   4.239   0.249   4.999
10033SOL     OW30997   4.413   2.358   3.748
10033SOL    HW130998   4.488   2.372   3.683
10033SOL    HW230999   4.439   2.394   3.838
10034SOL     OW31000   3.158   0.342   3.908
10034SOL    HW131001   3.212   0.426   3.905
10034SOL    HW231002   3.123   0.322   3.816
10035SOL     OW31003   6.670   4.666   1.295
10035SOL    HW131004   6.757   4.694   1.255
10035SOL    HW231005   6.628   4.596   1.239
10036SOL     OW31006   6.467   0.356   0.199
10036SOL    HW131007   6.402   0.414   0.149
10036SOL    HW231008   6.447   0.361   0.297
10037SOL     OW31009   5.869   0.898   0.337
10037SOL    HW131010   5.903   0.899   0.431
10037SOL    HW231011   5.781   0.850   0.334
10038SOL     OW31012   4.276   0.099   6.639
10038SOL    HW131013   4.294   0.026   6.705
10038SOL    HW231014   4.180   0.127   6.645
10039SOL     OW31015   4.562   6.642   5.240
10039SOL    HW131016   4.586   6.586   5.319
10039SOL    HW231017   4.474   6.612   5.203
10040SOL     OW31018   4.227   5.434   6.152
10040SOL    HW131019   4.211   5.406   6.247
10040SOL    HW231020   4.221   5.534   6.145
10041SOL     OW31021   4.439   6.049   6.810
10041SOL    HW131022   4.458   5.953   6.830
10041SOL    HW231023   4.480   6.073   6.722
10042SOL     OW31024   1.403   2.287   4.892
10042SOL    HW131025   1.306   2.261   4.891
10042SOL    HW231026   1.459   2.204   4.893
10043SOL     OW31027   0.417   2.254   4.304
10043SOL    HW131028   0.415   2.323   4.376
10043SOL    HW231029   0.504   2.203   4.309
10044SOL     OW31030   3.050   1.586   4.536
10044SOL    HW131031   3.015   1.653   4.471
10044SOL    HW231032   3.141   1.556   4.508
10045SOL     OW31033   5.034   6.800   3.751
10045SOL    HW131034   4.968   6.728   3.772
10045SOL    HW231035   5.009   6.884   3.799
10046SOL     OW31036   1.602   3.911   1.349
10046SOL    HW131037   1.627   3.814   1.356
10046SOL    HW231038   1.506   3.922   1.375
10047SOL     OW31039   6.396   3.194   5.258
10047SOL    HW131040   6.468   3.237   5.205
10047SOL    HW231041   6.354   3.261   5.319
10048SOL     OW31042   5.719   1.788   2.485
10048SOL    HW131043   5.762   1.792   2.575
10048SOL    HW231044   5.624   1.758   2.494
10049SOL     OW31045   0.642   0.031   6.659
10049SOL    HW131046   0.640   6.958   6.628
10049SOL    HW231047   0.684   0.036   6.750
10050SOL     OW31048   6.428   2.514   4.820
10050SOL    HW131049   6.430   2.612   4.843
10050SOL    HW231050   6.519   2.486   4.790
10051SOL     OW31051   6.177   2.470   4.945
10051SOL    HW131052   6.237   2.491   4.867
10051SOL    HW231053   6.224   2.493   5.030
10052SOL     OW31054   2.975   2.221   2.843
10052SOL    HW131055   3.034   2.165   2.785
10052SOL    HW231056   3.030   2.269   2.911
10053SOL     OW31057   3.317   5.876   1.849
10053SOL    HW131058   3.328   5.965   1.806
10053SOL    HW231059   3.275   5.887   1.939
10054SOL     OW31060   5.193   4.995   6.477
10054SOL    HW131061   5.172   5.079   6.427
10054SOL    HW231062   5.178   5.010   6.575
10055SOL     OW31063   6.179   2.163   4.886
10055SOL    HW131064   6.220   2.254   4.888
10055SOL    HW231065   6.141   2.142   4.976
10056SOL     OW31066   5.467   4.563   1.924
10056SOL    HW131067   5.399   4.633   1.899
10056SOL    HW231068   5.559   4.600   1.913
10057SOL     OW31069   3.965   1.927   4.453
10057SOL    HW131070   3.945   1.833   4.482
10057SOL    HW231071   3.898   1.955   4.384
10058SOL     OW31072   0.503   3.834   4.423
10058SOL    HW131073   0.470   3.741   4.408
10058SOL    HW231074   0.471   3.867   4.512
10059SOL     OW31075   5.180   7.022   1.000
10059SOL    HW131076   5.169   0.076   1.064
10059SOL    HW231077   5.092   7.003   0.956
10060SOL     OW31078   1.487   1.570   1.505
10060SOL    HW131079   1.566   1.628   1.524
10060SOL    HW231080   1.514   1.497   1.442
10061SOL     OW31081   4.933   1.564   4.454
10061SOL    HW131082   4.997   1.516   4.514
10061SOL    HW231083   4.981   1.636   4.404
10062SOL     OW31084   6.839   0.299   4.429
10062SOL    HW131085   6.854   0.222   4.366
10062SOL    HW231086   6.887   0.380   4.394
10063SOL     OW31087   2.198   1.260   4.091
10063SOL    HW131088   2.245   1.342   4.124
10063SOL    HW231089   2.102   1.281   4.074
10064SOL     OW31090   4.936   6.787   0.277
10064SOL    HW131091   4.982   6.746   0.356
10064SOL    HW231092   4.977   6.753   0.193
10065SOL     OW31093   1.989   6.908   2.268
10065SOL    HW131094   1.917   6.842   2.289
10065SOL    HW231095   2.041   6.876   2.189
10066SOL     OW31096   1.242   2.563   3.742
10066SOL    HW131097   1.177   2.636   3.719
10066SOL    HW231098   1.314   2.601   3.800
10067SOL     OW31099   6.641   4.204   4.706
10067SOL    HW131100   6.633   4.197   4.805
10067SOL    HW231101   6.559   4.249   4.669
10068SOL     OW31102   0.257   3.416   3.010
10068SOL    HW131103   0.200   3.484   3.055
10068SOL    HW231104   0.203   3.335   2.988
10069SOL     OW31105   2.289   5.307   3.115
10069SOL    HW131106   2.192   5.291   3.096
10069SOL    HW231107   2.299   5.394   3.163
10070SOL     OW31108   6.504   6.849   5.420
10070SOL    HW131109   6.427   6.822   5.362
10070SOL    HW231110   6.580   6.786   5.407
10071SOL     OW31111   6.056   5.738   3.858
10071SOL    HW131112   6.142   5.709   3.818
10071SOL    HW231113   6.050   5.707   3.953
10072SOL     OW31114   6.913   6.375   4.030
10072SOL    HW131115   7.001   6.331   4.014
10072SOL    HW231116   6.840   6.320   3.988
10073SOL     OW31117   5.711   4.053   5.777
10073SOL    HW131118   5.723   3.964   5.821
10073SOL    HW231119   5.683   4.039   5.681
10074SOL     OW31120   1.486   0.929   5.345
10074SOL    HW131121   1.389   0.915   5.324
10074SOL    HW231122   1.495   0.952   5.442
10075SOL     OW31123   1.970   2.880   2.753
10075SOL    HW131124   1.976   2.847   2.848
10075SOL    HW231125   2.062   2.905   2.721
10076SOL     OW31126   0.168   0.143   3.845
10076SOL    HW131127   0.119   0.230   3.841
10076SOL    HW231128   0.264   0.159   3.866
10077SOL     OW31129   4.049   3.218   6.397
10077SOL    HW131130   4.123   3.178   6.450
10077SOL    HW231131   4.048   3.179   6.305
10078SOL     OW31132   0.525   4.961   4.035
10078SOL    HW131133   0.458   5.019   4.080
10078SOL    HW231134   0.546   4.998   3.944
10079SOL     OW31135   6.937   3.999   2.977
10079SOL    HW131136   6.871   4.046   3.037
10079SOL    HW231137   6.888   3.932   2.921
10080SOL     OW31138   4.594   1.353   5.615
10080SOL    HW131139   4.578   1.276   5.552
10080SOL    HW231140   4.540   1.432   5.585
10081SOL     OW31141   0.222   0.238   0.626
10081SOL    HW131142   0.227   0.140   0.646
10081SOL    HW231143   0.127   0.263   0.606
10082SOL     OW31144   7.018   4.833   1.460
10082SOL    HW131145   6.967   4.881   1.531
10082SOL    HW231146   0.065   4.894   1.421
10083SOL     OW31147   4.728   1.163   3.443
10083SOL    HW131148   4.658   1.138   3.376
10083SOL    HW231149   4.773   1.248   3.414
10084SOL     OW31150   2.023   0.737   5.300
10084SOL    HW131151   2.114   0.708   5.271
10084SOL    HW231152   2.012   0.834   5.281
10085SOL     OW31153   2.206   5.429   1.504
10085SOL    HW131154   2.302   5.453   1.488
10085SOL    HW231155   2.157   5.510   1.537
10086SOL     OW31156   4.327   5.542   2.115
10086SOL    HW131157   4.343   5.608   2.041
10086SOL    HW231158   4.231   5.547   2.143
10087SOL     OW31159   6.872   0.196   3.980
10087SOL    HW131160   6.906   0.103   3.994
10087SOL    HW231161   6.789   0.193   3.924
10088SOL     OW31162   6.122   0.382   1.276
10088SOL    HW131163   6.087   0.290   1.294
10088SOL    HW231164   6.174   0.414   1.356
10089SOL     OW31165   2.878   1.891   2.331
10089SOL    HW131166   2.901   1.989   2.338
10089SOL    HW231167   2.962   1.838   2.332
10090SOL     OW31168   1.324   4.874   1.640
10090SOL    HW131169   1.285   4.879   1.732
10090SOL    HW231170   1.395   4.944   1.630
10091SOL     OW31171   0.380   4.273   6.316
10091SOL    HW131172   0.412   4.334   6.388
10091SOL    HW231173   0.304   4.218   6.350
10092SOL     OW31174   2.213   2.517   5.417
10092SOL    HW131175   2.209   2.594   5.480
10092SOL    HW231176   2.124   2.472   5.413
10093SOL     OW31177   6.644   3.319   5.249
10093SOL    HW131178   6.695   3.264   5.315
10093SOL    HW231179   6.682   3.411   5.246
10094SOL     OW31180   2.622   5.610   2.118
10094SOL    HW131181   2.649   5.696   2.163
10094SOL    HW231182   2.533   5.622   2.076
10095SOL     OW31183   6.145   1.788   5.394
10095SOL    HW131184   6.180   1.720   5.458
10095SOL    HW231185   6.050   1.766   5.371
10096SOL     OW31186   4.275   5.229   2.717
10096SOL    HW131187   4.269   5.141   2.669
10096SOL    HW231188   4.371   5.252   2.732
10097SOL     OW31189   1.059   1.255   0.310
10097SOL    HW131190   1.156   1.242   0.331
10097SOL    HW231191   1.022   1.169   0.273
10098SOL     OW31192   2.877   0.502   4.658
10098SOL    HW131193   2.849   0.550   4.740
10098SOL    HW231194   2.933   0.562   4.601
10099SOL     OW31195   0.213   5.104   1.055
10099SOL    HW131196   0.143   5.169   1.027
10099SOL    HW231197   0.304   5.142   1.037
10100SOL     OW31198   5.266   6.837   4.778
10100SOL    HW131199   5.241   6.772   4.706
10100SOL    HW231200   5.242   6.930   4.750
10101SOL     OW31201   6.249   3.866   1.687
10101SOL    HW131202   6.167   3.909   1.649
10101SOL    HW231203   6.329   3.922   1.667
10102SOL     OW31204   0.841   1.446   2.673
10102SOL    HW131205   0.789   1.419   2.593
10102SOL    HW231206   0.779   1.479   2.744
10103SOL     OW31207   2.736   0.248   5.888
10103SOL    HW131208   2.637   0.250   5.869
10103SOL    HW231209   2.772   0.159   5.861
10104SOL     OW31210   2.417   1.720   3.847
10104SOL    HW131211   2.500   1.676   3.883
10104SOL    HW231212   2.356   1.650   3.810
10105SOL     OW31213   1.453   1.344   0.750
10105SOL    HW131214   1.413   1.279   0.815
10105SOL    HW231215   1.384   1.368   0.681
10106SOL     OW31216   4.122   6.250   0.388
10106SOL    HW131217   4.108   6.257   0.289
10106SOL    HW231218   4.038   6.277   0.435
10107SOL     OW31219   6.530   1.578   6.267
10107SOL    HW131220   6.531   1.583   6.367
10107SOL    HW231221   6.578   1.657   6.229
10108SOL     OW31222   6.537   0.177   6.998
10108SOL    HW131223   6.540   0.242   0.052
10108SOL    HW231224   6.494   0.222   6.919
10109SOL     OW31225   5.349   6.969   0.789
10109SOL    HW131226   5.291   6.968   0.708
10109SOL    HW231227   5.292   6.974   0.871
10110SOL     OW31228   3.701   5.291   4.933
10110SOL    HW131229   3.801   5.299   4.935
10110SOL    HW231230   3.670   5.288   4.839
10111SOL     OW31231   5.764   3.439   3.483
10111SOL    HW131232   5.729   3.354   3.446
10111SOL    HW231233   5.706   3.468   3.560
10112SOL     OW31234   5.533   3.422   3.956
10112SOL    HW131235   5.439   3.421   3.992
10112SOL    HW231236   5.579   3.337   3.981
10113SOL     OW31237   4.122   0.345   6.857
10113SOL    HW131238   4.221   0.334   6.866
10113SOL    HW231239   4.085   0.272   6.799
10114SOL     OW31240   5.208   1.374   1.104
10114SOL    HW131241   5.245   1.465   1.123
10114SOL    HW231242   5.108   1.377   1.112
10115SOL     OW31243   3.689   1.200   4.643
10115SOL    HW131244   3.761   1.193   4.574
10115SOL    HW231245   3.611   1.250   4.606
10116SOL     OW31246   0.490   6.567   0.307
10116SOL    HW131247   0.522   6.527   0.394
10116SOL    HW231248   0.570   6.590   0.250
10117SOL     OW31249   6.338   5.976   5.497
10117SOL    HW131250   6.342   5.887   5.453
10117SOL    HW231251   6.246   5.992   5.532
10118SOL     OW31252   2.089   4.645   2.555
10118SOL    HW131253   2.011   4.588   2.531
10118SOL    HW231254   2.127   4.614   2.642
10119SOL     OW31255   0.493   5.274   4.141
10119SOL    HW131256   0.464   5.263   4.046
10119SOL    HW231257   0.500   5.371   4.164
10120SOL     OW31258   1.859   3.516   5.221
10120SOL    HW131259   1.779   3.463   5.247
10120SOL    HW231260   1.920   3.459   5.166
10121SOL     OW31261   6.449   3.645   6.760
10121SOL    HW131262   6.496   3.580   6.819
10121SOL    HW231263   6.382   3.697   6.814
10122SOL     OW31264   6.101   3.438   1.870
10122SOL    HW131265   6.093   3.514   1.934
10122SOL    HW231266   6.070   3.354   1.914
10123SOL     OW31267   5.154   6.394   6.830
10123SOL    HW131268   5.248   6.391   6.865
10123SOL    HW231269   5.154   6.369   6.733
10124SOL     OW31270   1.088   4.277   0.475
10124SOL    HW131271   1.140   4.317   0.550
10124SOL    HW231272   1.040   4.350   0.425
10125SOL     OW31273   1.838   1.065   2.020
10125SOL    HW131274   1.899   0.986   2.014
10125SOL    HW231275   1.836   1.113   1.932
10126SOL     OW31276   0.036   6.557   6.494
10126SOL    HW131277   0.070   6.522   6.581
10126SOL    HW231278   0.027   6.482   6.429
10127SOL     OW31279   2.788   4.398   6.436
10127SOL    HW131280   2.812   4.441   6.349
10127SOL    HW231281   2.740   4.463   6.494
10128SOL     OW31282   3.173   1.076   0.742
10128SOL    HW131283   3.107   1.140   0.702
10128SOL    HW231284   3.264   1.117   0.742
10129SOL     OW31285   5.947   1.954   2.210
10129SOL    HW131286   5.908   1.960   2.118
10129SOL    HW231287   5.914   1.871   2.255
10130SOL     OW31288   1.172   3.457   1.758
10130SOL    HW131289   1.247   3.431   1.697
10130SOL    HW231290   1.198   3.437   1.853
10131SOL     OW31291   1.214   0.083   4.534
10131SOL    HW131292   1.269   0.147   4.480
10131SOL    HW231293   1.195   0.001   4.480
10132SOL     OW31294   3.889   0.799   3.950
10132SOL    HW131295   3.853   0.742   4.024
10132SOL    HW231296   3.813   0.846   3.904
10133SOL     OW31297   3.707   6.436   0.819
10133SOL    HW131298   3.664   6.437   0.729
10133SOL    HW231299   3.728   6.342   0.845
10134SOL     OW31300   0.150   6.334   3.057
10134SOL    HW131301   0.110   6.323   2.966
10134SOL    HW231302   0.170   6.431   3.073
10135SOL     OW31303   4.899   3.263   3.380
10135SOL    HW131304   4.868   3.181   3.428
10135SOL    HW231305   4.885   3.251   3.282
10136SOL     OW31306   5.620   0.994   2.520
10136SOL    HW131307   5.671   1.080   2.526
10136SOL    HW231308   5.645   0.947   2.435
10137SOL     OW31309   6.871   3.489   4.404
10137SOL    HW131310   6.861   3.392   4.382
10137SOL    HW231311   6.837   3.544   4.327
10138SOL     OW31312   5.191   3.737   0.086
10138SOL    HW131313   5.237   3.652   0.110
10138SOL    HW231314   5.147   3.776   0.167
10139SOL     OW31315   3.053   3.704   3.637
10139SOL    HW131316   3.095   3.622   3.676
10139SOL    HW231317   3.070   3.782   3.697
10140SOL     OW31318   6.113   5.764   6.891
10140SOL    HW131319   6.141   5.719   6.806
10140SOL    HW231320   6.070   5.851   6.869
10141SOL     OW31321   3.860   1.194   5.649
10141SOL    HW131322   3.852   1.232   5.557
10141SOL    HW231323   3.956   1.195   5.678
10142SOL     OW31324   6.514   6.649   5.636
10142SOL    HW131325   6.436   6.712   5.643
10142SOL    HW231326   6.541   6.641   5.541
10143SOL     OW31327   5.468   1.193   6.828
10143SOL    HW131328   5.545   1.152   6.876
10143SOL    HW231329   5.393   1.126   6.822
10144SOL     OW31330   3.052   0.493   6.040
10144SOL    HW131331   3.024   0.436   5.964
10144SOL    HW231332   3.151   0.490   6.050
10145SOL     OW31333   3.276   5.145   4.206
10145SOL    HW131334   3.203   5.212   4.198
10145SOL    HW231335   3.248   5.060   4.161
10146SOL     OW31336   4.597   4.597   4.991
10146SOL    HW131337   4.499   4.589   5.006
10146SOL    HW231338   4.639   4.647   5.067
10147SOL     OW31339   5.545   3.710   5.144
10147SOL    HW131340   5.520   3.805   5.123
10147SOL    HW231341   5.546   3.657   5.059
10148SOL     OW31342   5.077   4.864   6.120
10148SOL    HW131343   5.066   4.789   6.055
10148SOL    HW231344   4.987   4.892   6.155
10149SOL     OW31345   5.797   3.364   0.858
10149SOL    HW131346   5.849   3.400   0.781
10149SOL    HW231347   5.844   3.285   0.897
10150SOL     OW31348   3.669   3.320   0.357
10150SOL    HW131349   3.757   3.369   0.353
10150SOL    HW231350   3.601   3.370   0.303
10151SOL     OW31351   0.785   5.703   0.096
10151SOL    HW131352   0.825   5.793   0.079
10151SOL    HW231353   0.795   5.646   0.015
10152SOL     OW31354   0.160   5.656   4.236
10152SOL    HW131355   0.197   5.662   4.143
10152SOL    HW231356   0.175   5.564   4.272
10153SOL     OW31357   4.693   6.013   3.664
10153SOL    HW131358   4.692   6.031   3.763
10153SOL    HW231359   4.599   6.017   3.629
10154SOL     OW31360   4.302   6.415   5.303
10154SOL    HW131361   4.318   6.480   5.378
10154SOL    HW231362   4.388   6.397   5.255
10155SOL     OW31363   4.154   2.258   6.321
10155SOL    HW131364   4.097   2.236   6.241
10155SOL    HW231365   4.231   2.195   6.325
10156SOL     OW31366   6.295   0.718   2.171
10156SOL    HW131367   6.209   0.675   2.142
10156SOL    HW231368   6.282   0.817   2.177
10157SOL     OW31369   0.039   1.629   0.811
10157SOL    HW131370   0.064   1.715   0.855
10157SOL    HW231371   0.122   1.576   0.793
10158SOL     OW31372   6.019   5.976   0.634
10158SOL    HW131373   6.078   5.983   0.553
10158SOL    HW231374   5.957   5.898   0.624
10159SOL     OW31375   1.924   3.141   0.641
10159SOL    HW131376   1.902   3.110   0.548
10159SOL    HW231377   1.857   3.105   0.705
10160SOL     OW31378   1.844   3.241   2.038
10160SOL    HW131379   1.813   3.336   2.045
10160SOL    HW231380   1.769   3.185   2.003
10161SOL     OW31381   3.811   3.074   1.066
10161SOL    HW131382   3.863   2.995   1.099
10161SOL    HW231383   3.770   3.122   1.143
10162SOL     OW31384   3.511   4.739   1.125
10162SOL    HW131385   3.526   4.670   1.054
10162SOL    HW231386   3.571   4.818   1.107
10163SOL     OW31387   5.842   4.241   6.828
10163SOL    HW131388   5.875   4.156   6.868
10163SOL    HW231389   5.749   4.260   6.861
10164SOL     OW31390   6.203   3.242   3.995
10164SOL    HW131391   6.197   3.331   4.041
10164SOL    HW231392   6.233   3.255   3.901
10165SOL     OW31393   6.664   1.378   3.243
10165SOL    HW131394   6.622   1.380   3.152
10165SOL    HW231395   6.659   1.470   3.283
10166SOL     OW31396   3.076   1.869   1.791
10166SOL    HW131397   3.095   1.906   1.700
10166SOL    HW231398   3.098   1.937   1.861
10167SOL     OW31399   1.291   4.482   6.888
10167SOL    HW131400   1.386   4.480   6.921
10167SOL    HW231401   1.246   4.396   6.910
10168SOL     OW31402   5.903   2.676   6.455
10168SOL    HW131403   5.964   2.754   6.443
10168SOL    HW231404   5.855   2.686   6.542
10169SOL     OW31405   6.626   4.526   3.541
10169SOL    HW131406   6.708   4.517   3.484
10169SOL    HW231407   6.567   4.447   3.526
10170SOL     OW31408   6.748   5.277   5.467
10170SOL    HW131409   6.819   5.228   5.517
10170SOL    HW231410   6.726   5.363   5.515
10171SOL     OW31411   0.081   2.281   4.316
10171SOL    HW131412   0.142   2.203   4.307
10171SOL    HW231413   0.027   2.271   4.400
10172SOL     OW31414   0.704   6.041   5.496
10172SOL    HW131415   0.623   6.011   5.446
10172SOL    HW231416   0.678   6.108   5.565
10173SOL     OW31417   1.982   2.450   0.530
10173SOL    HW131418   2.077   2.462   0.502
10173SOL    HW231419   1.941   2.377   0.476
10174SOL     OW31420   5.204   4.465   3.600
10174SOL    HW131421   5.168   4.389   3.545
10174SOL    HW231422   5.280   4.432   3.656
10175SOL     OW31423   5.795   1.813   2.980
10175SOL    HW131424   5.865   1.770   3.037
10175SOL    HW231425   5.772   1.903   3.017
10176SOL     OW31426   0.477   3.235   5.551
10176SOL    HW131427   0.395   3.242   5.608
10176SOL    HW231428   0.526   3.322   5.552
10177SOL     OW31429   2.316   1.362   1.678
10177SOL    HW131430   2.394   1.388   1.735
10177SOL    HW231431   2.295   1.265   1.691
10178SOL     OW31432   0.205   0.838   6.795
10178SOL    HW131433   0.161   0.790   6.719
10178SOL    HW231434   0.296   0.799   6.812
10179SOL     OW31435   0.542   2.729   6.503
10179SOL    HW131436   0.524   2.742   6.600
10179SOL    HW231437   0.640   2.722   6.487
10180SOL     OW31438   3.760   0.755   5.722
10180SOL    HW131439   3.742   0.772   5.819
10180SOL    HW231440   3.845   0.800   5.696
10181SOL     OW31441   6.447   3.613   1.596
10181SOL    HW131442   6.386   3.687   1.624
10181SOL    HW231443   6.406   3.525   1.621
10182SOL     OW31444   4.593   0.756   1.576
10182SOL    HW131445   4.627   0.664   1.597
10182SOL    HW231446   4.559   0.798   1.660
10183SOL     OW31447   6.577   3.060   6.590
10183SOL    HW131448   6.536   3.140   6.547
10183SOL    HW231449   6.537   3.045   6.680
10184SOL     OW31450   4.324   0.959   6.045
10184SOL    HW131451   4.270   0.980   6.127
10184SOL    HW231452   4.287   0.877   6.001
10185SOL     OW31453   6.239   6.115   2.763
10185SOL    HW131454   6.170   6.145   2.698
10185SOL    HW231455   6.298   6.192   2.787
10186SOL     OW31456   5.601   3.689   4.033
10186SOL    HW131457   5.607   3.605   3.978
10186SOL    HW231458   5.624   3.669   4.128
10187SOL     OW31459   1.185   3.536   0.284
10187SOL    HW131460   1.227   3.598   0.351
10187SOL    HW231461   1.154   3.453   0.331
10188SOL     OW31462   4.091   4.382   0.421
10188SOL    HW131463   4.081   4.462   0.362
10188SOL    HW231464   4.085   4.411   0.517
10189SOL     OW31465   0.625   1.129   6.548
10189SOL    HW131466   0.696   1.177   6.598
10189SOL    HW231467   0.620   1.034   6.580
10190SOL     OW31468   4.947   3.132   1.257
10190SOL    HW131469   4.895   3.081   1.324
10190SOL    HW231470   4.885   3.179   1.194
10191SOL     OW31471   4.160   5.917   6.344
10191SOL    HW131472   4.069   5.879   6.328
10191SOL    HW231473   4.203   5.869   6.420
10192SOL     OW31474   4.421   1.548   5.531
10192SOL    HW131475   4.474   1.570   5.449
10192SOL    HW231476   4.324   1.551   5.510
10193SOL     OW31477   3.611   2.992   2.210
10193SOL    HW131478   3.710   3.003   2.211
10193SOL    HW231479   3.581   2.942   2.291
10194SOL     OW31480   5.059   6.220   5.824
10194SOL    HW131481   5.084   6.307   5.868
10194SOL    HW231482   5.001   6.167   5.885
10195SOL     OW31483   6.552   6.059   0.359
10195SOL    HW131484   6.534   6.001   0.279
10195SOL    HW231485   6.481   6.129   0.366
10196SOL     OW31486   4.344   2.048   4.002
10196SOL    HW131487   4.441   2.055   3.979
10196SOL    HW231488   4.290   2.092   3.930
10197SOL     OW31489   5.497   1.854   4.495
10197SOL    HW131490   5.512   1.888   4.588
10197SOL    HW231491   5.442   1.771   4.498
10198SOL     OW31492   2.758   6.942   2.571
10198SOL    HW131493   2.848   6.986   2.569
10198SOL    HW231494   2.760   6.860   2.515
10199SOL     OW31495   1.272   2.886   0.665
10199SOL    HW131496   1.207   2.961   0.672
10199SOL    HW231497   1.274   2.834   0.751
10200SOL     OW31498   4.868   2.747   6.049
10200SOL    HW131499   4.812   2.754   5.966
10200SOL    HW231500   4.822   2.687   6.115
10201SOL     OW31501   1.200   5.147   0.262
10201SOL    HW131502   1.129   5.169   0.194
10201SOL    HW231503   1.283   5.199   0.242
10202SOL     OW31504   2.888   5.242   0.890
10202SOL    HW131505   2.966   5.186   0.916
10202SOL    HW231506   2.914   5.338   0.888
10203SOL     OW31507   6.846   2.869   2.566
10203SOL    HW131508   6.788   2.839   2.491
10203SOL    HW231509   6.936   2.824   2.559
10204SOL     OW31510   4.223   5.599   6.884
10204SOL    HW131511   4.273   5.520   6.848
10204SOL    HW231512   4.131   5.600   6.847
10205SOL     OW31513   2.292   0.743   1.963
10205SOL    HW131514   2.323   0.817   1.903
10205SOL    HW231515   2.368   0.679   1.978
10206SOL     OW31516   6.898   6.893   6.745
10206SOL    HW131517   6.864   6.799   6.757
10206SOL    HW231518   6.982   6.905   6.799
10207SOL     OW31519   0.899   2.461   6.892
10207SOL    HW131520   0.837   2.535   6.867
10207SOL    HW231521   0.985   2.500   6.927
10208SOL     OW31522   6.404   5.020   4.081
10208SOL    HW131523   6.497   5.037   4.050
10208SOL    HW231524   6.347   4.992   4.003
10209SOL     OW31525   0.292   6.622   6.806
10209SOL    HW131526   0.225   6.549   6.801
10209SOL    HW231527   0.357   6.614   6.730
10210SOL     OW31528   4.735   6.372   1.927
10210SOL    HW131529   4.752   6.436   1.852
10210SOL    HW231530   4.701   6.422   2.006
10211SOL     OW31531   5.062   6.434   4.307
10211SOL    HW131532   5.066   6.520   4.357
10211SOL    HW231533   5.087   6.359   4.369
10212SOL     OW31534   0.342   6.952   5.385
10212SOL    HW131535   0.358   0.022   5.349
10212SOL    HW231536   0.305   6.894   5.312
10213SOL     OW31537   5.734   2.387   1.706
10213SOL    HW131538   5.766   2.302   1.663
10213SOL    HW231539   5.802   2.458   1.691
10214SOL     OW31540   0.321   1.645   1.575
10214SOL    HW131541   0.368   1.558   1.562
10214SOL    HW231542   0.242   1.650   1.515
10215SOL     OW31543   3.740   3.255   3.782
10215SOL    HW131544   3.658   3.213   3.820
10215SOL    HW231545   3.812   3.258   3.852
10216SOL     OW31546   6.923   1.244   1.526
10216SOL    HW131547   6.870   1.233   1.442
10216SOL    HW231548   7.020   1.233   1.505
10217SOL     OW31549   2.738   1.563   3.591
10217SOL    HW131550   2.755   1.536   3.686
10217SOL    HW231551   2.766   1.489   3.530
10218SOL     OW31552   0.634   1.238   1.915
10218SOL    HW131553   0.718   1.222   1.862
10218SOL    HW231554   0.631   1.174   1.992
10219SOL     OW31555   0.250   2.213   2.767
10219SOL    HW131556   0.294   2.129   2.800
10219SOL    HW231557   0.307   2.292   2.791
10220SOL     OW31558   4.706   1.839   1.032
10220SOL    HW131559   4.619   1.860   1.076
10220SOL    HW231560   4.700   1.750   0.986
10221SOL     OW31561   1.924   4.079   4.363
10221SOL    HW131562   1.940   4.029   4.448
10221SOL    HW231563   1.840   4.046   4.320
10222SOL     OW31564   2.948   4.334   5.322
10222SOL    HW131565   2.916   4.409   5.264
10222SOL    HW231566   2.870   4.288   5.365
10223SOL     OW31567   2.516   5.172   1.213
10223SOL    HW131568   2.580   5.241   1.246
10223SOL    HW231569   2.550   5.134   1.127
10224SOL     OW31570   6.243   2.470   6.074
10224SOL    HW131571   6.253   2.532   5.996
10224SOL    HW231572   6.292   2.507   6.153
10225SOL     OW31573   1.419   6.199   5.326
10225SOL    HW131574   1.455   6.231   5.238
10225SOL    HW231575   1.335   6.249   5.348
10226SOL     OW31576   2.132   0.650   6.043
10226SOL    HW131577   2.158   0.672   5.949
10226SOL    HW231578   2.118   0.551   6.052
10227SOL     OW31579   5.345   4.881   0.525
10227SOL    HW131580   5.363   4.891   0.428
10227SOL    HW231581   5.378   4.792   0.557
10228SOL     OW31582   0.443   6.039   1.730
10228SOL    HW131583   0.388   5.991   1.661
10228SOL    HW231584   0.540   6.023   1.711
10229SOL     OW31585   1.918   3.146   5.238
10229SOL    HW131586   1.950   3.089   5.162
10229SOL    HW231587   1.996   3.176   5.292
10230SOL     OW31588   6.464   6.123   3.066
10230SOL    HW131589   6.508   6.168   2.988
10230SOL    HW231590   6.381   6.174   3.091
10231SOL     OW31591   6.313   4.822   5.141
10231SOL    HW131592   6.300   4.746   5.205
10231SOL    HW231593   6.224   4.855   5.110
10232SOL     OW31594   3.310   1.560   4.013
10232SOL    HW131595   3.293   1.590   3.919
10232SOL    HW231596   3.347   1.637   4.066
10233SOL     OW31597   3.900   4.007   5.265
10233SOL    HW131598   3.856   3.994   5.354
10233SOL    HW231599   3.877   4.097   5.228
10234SOL     OW31600   5.439   0.621   0.625
10234SOL    HW131601   5.482   0.533   0.647
10234SOL    HW231602   5.367   0.607   0.558
10235SOL     OW31603   3.131   2.087   1.277
10235SOL    HW131604   3.136   2.107   1.180
10235SOL    HW231605   3.175   1.999   1.296
10236SOL     OW31606   1.984   1.299   1.380
10236SOL    HW131607   1.926   1.374   1.351
10236SOL    HW231608   1.993   1.233   1.305
10237SOL     OW31609   0.106   4.908   6.159
10237SOL    HW131610   0.046   4.903   6.239
10237SOL    HW231611   0.108   4.820   6.113
10238SOL     OW31612   4.024   3.794   2.243
10238SOL    HW131613   3.956   3.867   2.254
10238SOL    HW231614   4.053   3.762   2.334
10239SOL     OW31615   2.585   3.870   5.835
10239SOL    HW131616   2.680   3.839   5.837
10239SOL    HW231617   2.531   3.815   5.898
10240SOL     OW31618   2.073   4.304   2.301
10240SOL    HW131619   2.148   4.312   2.367
10240SOL    HW231620   2.092   4.229   2.238
10241SOL     OW31621   0.392   6.477   3.538
10241SOL    HW131622   0.312   6.420   3.559
10241SOL    HW231623   0.471   6.443   3.588
10242SOL     OW31624   0.259   1.150   1.789
10242SOL    HW131625   0.310   1.073   1.751
10242SOL    HW231626   0.323   1.220   1.821
10243SOL     OW31627   2.470   4.401   2.720
10243SOL    HW131628   2.474   4.484   2.664
10243SOL    HW231629   2.528   4.412   2.800
10244SOL     OW31630   1.559   4.224   1.262
10244SOL    HW131631   1.520   4.181   1.181
10244SOL    HW231632   1.644   4.178   1.288
10245SOL     OW31633   3.955   3.847   1.629
10245SOL    HW131634   3.978   3.816   1.722
10245SOL    HW231635   3.860   3.826   1.610
10246SOL     OW31636   3.704   3.059   3.571
10246SOL    HW131637   3.614   3.022   3.547
10246SOL    HW231638   3.693   3.152   3.606
10247SOL     OW31639   7.007   4.446   6.315
10247SOL    HW131640   0.039   4.434   6.232
10247SOL    HW231641   6.911   4.430   6.294
10248SOL     OW31642   1.766   6.462   2.974
10248SOL    HW131643   1.669   6.454   2.996
10248SOL    HW231644   1.794   6.558   2.984
10249SOL     OW31645   2.423   6.234   6.338
10249SOL    HW131646   2.420   6.253   6.436
10249SOL    HW231647   2.483   6.156   6.320
10250SOL     OW31648   6.593   2.376   1.820
10250SOL    HW131649   6.534   2.429   1.758
10250SOL    HW231650   6.548   2.290   1.843
10251SOL     OW31651   2.080   1.224   4.994
10251SOL    HW131652   2.057   1.132   4.962
10251SOL    HW231653   2.112   1.221   5.088
10252SOL     OW31654   3.931   4.763   6.015
10252SOL    HW131655   3.910   4.694   6.085
10252SOL    HW231656   3.860   4.761   5.945
10253SOL     OW31657   2.950   0.186   0.827
10253SOL    HW131658   2.853   0.211   0.824
10253SOL    HW231659   2.988   0.188   0.735
10254SOL     OW31660   5.014   1.225   5.621
10254SOL    HW131661   5.045   1.320   5.625
10254SOL    HW231662   4.957   1.205   5.701
10255SOL     OW31663   2.375   6.050   1.171
10255SOL    HW131664   2.446   6.013   1.230
10255SOL    HW231665   2.296   6.077   1.226
10256SOL     OW31666   4.911   1.898   1.857
10256SOL    HW131667   4.906   1.798   1.853
10256SOL    HW231668   4.983   1.930   1.795
10257SOL     OW31669   1.462   4.798   4.565
10257SOL    HW131670   1.380   4.745   4.543
10257SOL    HW231671   1.517   4.810   4.483
10258SOL     OW31672   3.414   1.147   3.795
10258SOL    HW131673   3.404   1.184   3.888
10258SOL    HW231674   3.458   1.057   3.800
10259SOL     OW31675   1.258   5.118   2.890
10259SOL    HW131676   1.233   5.031   2.932
10259SOL    HW231677   1.293   5.102   2.798
10260SOL     OW31678   1.723   1.315   3.859
10260SOL    HW131679   1.652   1.352   3.800
10260SOL    HW231680   1.812   1.323   3.814
10261SOL     OW31681   6.821   4.959   2.526
10261SOL    HW131682   6.900   5.004   2.483
10261SOL    HW231683   6.754   4.936   2.456
10262SOL     OW31684   2.699   6.896   5.366
10262SOL    HW131685   2.770   6.947   5.317
10262SOL    HW231686   2.742   6.842   5.439
10263SOL     OW31687   5.782   6.798   6.745
10263SOL    HW131688   5.770   6.824   6.841
10263SOL    HW231689   5.794   6.699   6.738
10264SOL     OW31690   6.095   6.654   6.763
10264SOL    HW131691   6.112   6.692   6.854
10264SOL    HW231692   6.124   6.720   6.694
10265SOL     OW31693   2.671   2.781   1.497
10265SOL    HW131694   2.582   2.812   1.530
10265SOL    HW231695   2.732   2.860   1.483
10266SOL     OW31696   4.119   3.487   4.160
10266SOL    HW131697   4.190   3.480   4.091
10266SOL    HW231698   4.031   3.507   4.116
10267SOL     OW31699   5.784   2.681   6.686
10267SOL    HW131700   5.785   2.583   6.709
10267SOL    HW231701   5.828   2.732   6.760
10268SOL     OW31702   6.076   5.896   2.453
10268SOL    HW131703   6.030   5.901   2.542
10268SOL    HW231704   6.008   5.873   2.382
10269SOL     OW31705   6.824   3.623   6.853
10269SOL    HW131706   6.905   3.592   6.803
10269SOL    HW231707   6.841   3.713   6.892
10270SOL     OW31708   3.970   4.930   2.511
10270SOL    HW131709   4.062   4.891   2.512
10270SOL    HW231710   3.939   4.942   2.417
10271SOL     OW31711   3.646   2.340   6.437
10271SOL    HW131712   3.553   2.305   6.448
10271SOL    HW231713   3.651   2.432   6.477
10272SOL     OW31714   1.392   1.453   5.344
10272SOL    HW131715   1.417   1.471   5.249
10272SOL    HW231716   1.455   1.385   5.383
10273SOL     OW31717   2.994   5.449   2.781
10273SOL    HW131718   3.039   5.434   2.869
10273SOL    HW231719   2.981   5.547   2.766
10274SOL     OW31720   0.821   5.804   5.530
10274SOL    HW131721   0.782   5.896   5.525
10274SOL    HW231722   0.747   5.737   5.538
10275SOL     OW31723   0.351   6.532   2.407
10275SOL    HW131724   0.432   6.475   2.394
10275SOL    HW231725   0.310   6.552   2.318
10276SOL     OW31726   5.112   5.218   5.550
10276SOL    HW131727   5.108   5.187   5.455
10276SOL    HW231728   5.033   5.185   5.600
10277SOL     OW31729   1.555   5.588   4.031
10277SOL    HW131730   1.612   5.629   3.960
10277SOL    HW231731   1.491   5.523   3.989
10278SOL     OW31732   0.865   2.020   4.111
10278SOL    HW131733   0.923   2.099   4.096
10278SOL    HW231734   0.788   2.022   4.047
10279SOL     OW31735   2.157   5.144   4.108
10279SOL    HW131736   2.067   5.150   4.066
10279SOL    HW231737   2.163   5.060   4.162
10280SOL     OW31738   7.003   3.049   0.789
10280SOL    HW131739   0.002   2.973   0.727
10280SOL    HW231740   0.064   3.101   0.809
10281SOL     OW31741   5.742   1.100   2.861
10281SOL    HW131742   5.706   1.011   2.831
10281SOL    HW231743   5.743   1.163   2.784
10282SOL     OW31744   5.284   3.212   4.461
10282SOL    HW131745   5.367   3.190   4.512
10282SOL    HW231746   5.207   3.162   4.500
10283SOL     OW31747   1.374   3.009   1.032
10283SOL    HW131748   1.335   3.006   1.124
10283SOL    HW231749   1.464   2.967   1.032
10284SOL     OW31750   5.363   2.349   4.996
10284SOL    HW131751   5.358   2.354   5.096
10284SOL    HW231752   5.453   2.316   4.968
10285SOL     OW31753   5.726   7.016   2.681
10285SOL    HW131754   5.786   0.073   2.670
10285SOL    HW231755   5.647   0.003   2.620
10286SOL     OW31756   3.328   1.616   3.005
10286SOL    HW131757   3.405   1.634   2.944
10286SOL    HW231758   3.243   1.642   2.959
10287SOL     OW31759   2.013   6.833   1.533
10287SOL    HW131760   2.009   6.739   1.567
10287SOL    HW231761   2.071   6.837   1.452
10288SOL     OW31762   4.655   5.785   3.399
10288SOL    HW131763   4.574   5.762   3.453
10288SOL    HW231764   4.733   5.733   3.433
10289SOL     OW31765   2.380   6.333   0.079
10289SOL    HW131766   2.383   6.368   0.173
10289SOL    HW231767   2.462   6.363   0.030
10290SOL     OW31768   3.200   4.034   2.711
10290SOL    HW131769   3.232   4.031   2.617
10290SOL    HW231770   3.122   3.972   2.722
10291SOL     OW31771   4.133   1.453   2.676
10291SOL    HW131772   4.191   1.415   2.604
10291SOL    HW231773   4.190   1.475   2.756
10292SOL     OW31774   1.596   1.255   5.383
10292SOL    HW131775   1.553   1.169   5.409
10292SOL    HW231776   1.689   1.259   5.418
10293SOL     OW31777   2.242   4.101   2.474
10293SOL    HW131778   2.195   4.028   2.424
10293SOL    HW231779   2.199   4.113   2.563
10294SOL     OW31780   5.760   3.108   3.205
10294SOL    HW131781   5.841   3.145   3.161
10294SOL    HW231782   5.751   3.011   3.182
10295SOL     OW31783   0.019   4.739   5.438
10295SOL    HW131784   7.010   4.793   5.360
10295SOL    HW231785   0.119   4.735   5.437
10296SOL     OW31786   5.280   1.452   7.008
10296SOL    HW131787   5.315   1.443   6.915
10296SOL    HW231788   5.317   1.536   0.027
10297SOL     OW31789   1.654   0.072   6.359
10297SOL    HW131790   1.748   0.086   6.329
10297SOL    HW231791   1.612   0.160   6.381
10298SOL     OW31792   2.613   4.511   1.562
10298SOL    HW131793   2.682   4.488   1.631
10298SOL    HW231794   2.558   4.430   1.542
10299SOL     OW31795   5.051   4.703   2.930
10299SOL    HW131796   5.140   4.666   2.957
10299SOL    HW231797   5.038   4.793   2.973
10300SOL     OW31798   1.403   4.359   2.545
10300SOL    HW131799   1.477   4.330   2.484
10300SOL    HW231800   1.315   4.333   2.505
10301SOL     OW31801   5.391   2.478   4.229
10301SOL    HW131802   5.382   2.391   4.181
10301SOL    HW231803   5.301   2.521   4.238
10302SOL     OW31804   2.017   6.940   3.899
10302SOL    HW131805   1.954   7.009   3.934
10302SOL    HW231806   2.057   6.972   3.813
10303SOL     OW31807   1.889   6.241   2.866
10303SOL    HW131808   1.835   6.322   2.891
10303SOL    HW231809   1.964   6.229   2.931
10304SOL     OW31810   5.784   6.652   1.481
10304SOL    HW131811   5.713   6.598   1.436
10304SOL    HW231812   5.781   6.746   1.448
10305SOL     OW31813   1.052   4.553   6.747
10305SOL    HW131814   1.004   4.465   6.746
10305SOL    HW231815   1.142   4.542   6.788
10306SOL     OW31816   4.682   6.527   6.219
10306SOL    HW131817   4.631   6.609   6.246
10306SOL    HW231818   4.711   6.536   6.123
10307SOL     OW31819   2.552   2.152   5.327
10307SOL    HW131820   2.469   2.113   5.287
10307SOL    HW231821   2.529   2.238   5.373
10308SOL     OW31822   2.001   4.207   3.358
10308SOL    HW131823   2.025   4.303   3.372
10308SOL    HW231824   2.084   4.156   3.334
10309SOL     OW31825   0.078   1.319   5.677
10309SOL    HW131826   0.004   1.385   5.693
10309SOL    HW231827   0.046   1.227   5.700
10310SOL     OW31828   3.324   3.483   1.009
10310SOL    HW131829   3.335   3.569   0.959
10310SOL    HW231830   3.234   3.444   0.987
10311SOL     OW31831   6.943   6.288   0.455
10311SOL    HW131832   0.013   6.305   0.420
10311SOL    HW231833   6.911   6.199   0.421
10312SOL     OW31834   3.650   6.011   2.549
10312SOL    HW131835   3.671   6.037   2.455
10312SOL    HW231836   3.685   6.081   2.611
10313SOL     OW31837   4.558   6.764   1.682
10313SOL    HW131838   4.483   6.731   1.738
10313SOL    HW231839   4.638   6.781   1.740
10314SOL     OW31840   6.475   0.894   2.328
10314SOL    HW131841   6.380   0.910   2.301
10314SOL    HW231842   6.495   0.796   2.328
10315SOL     OW31843   5.009   5.902   5.099
10315SOL    HW131844   5.076   5.883   5.171
10315SOL    HW231845   5.050   5.881   5.010
10316SOL     OW31846   6.257   1.561   4.167
10316SOL    HW131847   6.307   1.608   4.095
10316SOL    HW231848   6.160   1.579   4.158
10317SOL     OW31849   4.869   5.916   4.643
10317SOL    HW131850   4.798   5.902   4.712
10317SOL    HW231851   4.868   6.011   4.612
10318SOL     OW31852   5.314   6.137   6.836
10318SOL    HW131853   5.232   6.131   6.892
10318SOL    HW231854   5.290   6.151   6.740
10319SOL     OW31855   1.097   2.665   5.422
10319SOL    HW131856   1.130   2.753   5.457
10319SOL    HW231857   1.135   2.591   5.478
10320SOL     OW31858   0.284   1.165   2.848
10320SOL    HW131859   0.195   1.181   2.807
10320SOL    HW231860   0.327   1.086   2.804
10321SOL     OW31861   4.048   1.999   1.750
10321SOL    HW131862   4.005   2.040   1.830
10321SOL    HW231863   4.088   1.911   1.775
10322SOL     OW31864   6.450   5.587   5.291
10322SOL    HW131865   6.405   5.673   5.271
10322SOL    HW231866   6.403   5.541   5.366
10323SOL     OW31867   5.787   2.728   5.793
10323SOL    HW131868   5.792   2.663   5.717
10323SOL    HW231869   5.692   2.739   5.821
10324SOL     OW31870   3.505   3.345   2.506
10324SOL    HW131871   3.559   3.411   2.453
10324SOL    HW231872   3.567   3.280   2.551
10325SOL     OW31873   0.076   4.072   2.228
10325SOL    HW131874   0.064   3.973   2.216
10325SOL    HW231875   7.013   4.111   2.262
10326SOL     OW31876   3.486   4.484   0.488
10326SOL    HW131877   3.458   4.579   0.506
10326SOL    HW231878   3.522   4.477   0.395
10327SOL     OW31879   2.535   1.647   1.396
10327SOL    HW131880   2.547   1.698   1.481
10327SOL    HW231881   2.548   1.549   1.415
10328SOL     OW31882   5.685   2.623   0.994
10328SOL    HW131883   5.704   2.721   0.982
10328SOL    HW231884   5.628   2.610   1.075
10329SOL     OW31885   3.598   0.147   4.039
10329SOL    HW131886   3.579   0.089   4.118
10329SOL    HW231887   3.514   0.163   3.988
10330SOL     OW31888   4.788   0.305   2.324
10330SOL    HW131889   4.815   0.289   2.419
10330SOL    HW231890   4.688   0.306   2.318
10331SOL     OW31891   0.069   1.004   5.388
10331SOL    HW131892   0.048   0.950   5.470
10331SOL    HW231893   7.006   1.027   5.341
10332SOL     OW31894   6.359   0.411   0.429
10332SOL    HW131895   6.266   0.431   0.398
10332SOL    HW231896   6.376   0.459   0.515
10333SOL     OW31897   6.523   4.326   4.431
10333SOL    HW131898   6.532   4.423   4.456
10333SOL    HW231899   6.427   4.305   4.413
10334SOL     OW31900   3.818   6.646   3.776
10334SOL    HW131901   3.895   6.617   3.834
10334SOL    HW231902   3.852   6.709   3.706
10335SOL     OW31903   3.131   4.427   6.763
10335SOL    HW131904   3.104   4.507   6.709
10335SOL    HW231905   3.080   4.347   6.731
10336SOL     OW31906   6.816   6.214   2.741
10336SOL    HW131907   6.836   6.182   2.648
10336SOL    HW231908   6.871   6.295   2.761
10337SOL     OW31909   6.744   6.579   5.794
10337SOL    HW131910   6.662   6.575   5.737
10337SOL    HW231911   6.720   6.610   5.886
10338SOL     OW31912   2.271   6.153   2.434
10338SOL    HW131913   2.195   6.147   2.498
10338SOL    HW231914   2.312   6.244   2.439
10339SOL     OW31915   3.721   4.748   6.935
10339SOL    HW131916   3.688   4.733   0.005
10339SOL    HW231917   3.663   4.700   6.870
10340SOL     OW31918   1.865   4.778   1.233
10340SOL    HW131919   1.866   4.826   1.146
10340SOL    HW231920   1.773   4.746   1.253
10341SOL     OW31921   1.958   3.425   1.691
10341SOL    HW131922   1.935   3.446   1.596
10341SOL    HW231923   2.050   3.386   1.695
10342SOL     OW31924   0.973   0.056   5.504
10342SOL    HW131925   1.015   0.134   5.458
10342SOL    HW231926   0.927   7.021   5.436
10343SOL     OW31927   3.487   5.916   6.768
10343SOL    HW131928   3.437   5.878   6.691
10343SOL    HW231929   3.471   5.860   6.849
10344SOL     OW31930   4.607   4.048   1.661
10344SOL    HW131931   4.548   4.098   1.724
10344SOL    HW231932   4.700   4.085   1.668
10345SOL     OW31933   1.833   1.393   6.862
10345SOL    HW131934   1.780   1.346   6.792
10345SOL    HW231935   1.817   1.491   6.856
10346SOL     OW31936   6.457   6.850   1.786
10346SOL    HW131937   6.525   6.786   1.822
10346SOL    HW231938   6.366   6.825   1.820
10347SOL     OW31939   4.870   2.179   2.630
10347SOL    HW131940   4.778   2.197   2.666
10347SOL    HW231941   4.870   2.190   2.530
10348SOL     OW31942   6.555   1.349   0.391
10348SOL    HW131943   6.532   1.301   0.306
10348SOL    HW231944   6.514   1.440   0.391
10349SOL     OW31945   6.917   0.859   1.080
10349SOL    HW131946   6.835   0.827   1.033
10349SOL    HW231947   6.995   0.801   1.055
10350SOL     OW31948   2.082   6.736   5.307
10350SOL    HW131949   2.143   6.805   5.268
10350SOL    HW231950   2.016   6.707   5.238
10351SOL     OW31951   4.636   5.469   6.550
10351SOL    HW131952   4.713   5.482   6.487
10351SOL    HW231953   4.604   5.375   6.543
10352SOL     OW31954   4.233   2.467   6.542
10352SOL    HW131955   4.217   2.426   6.632
10352SOL    HW231956   4.213   2.400   6.471
10353SOL     OW31957   0.397   2.714   5.944
10353SOL    HW131958   0.429   2.619   5.950
10353SOL    HW231959   0.446   2.760   5.870
10354SOL     OW31960   6.093   2.640   1.791
10354SOL    HW131961   6.057   2.691   1.868
10354SOL    HW231962   6.109   2.702   1.714
10355SOL     OW31963   1.682   7.019   1.845
10355SOL    HW131964   1.758   0.030   1.901
10355SOL    HW231965   1.603   7.001   1.903
10356SOL     OW31966   0.025   4.669   6.001
10356SOL    HW131967   6.984   4.746   6.002
10356SOL    HW231968   0.054   4.651   5.908
10357SOL     OW31969   3.016   3.210   6.090
10357SOL    HW131970   3.040   3.277   6.161
10357SOL    HW231971   2.992   3.257   6.006
10358SOL     OW31972   6.498   2.988   3.199
10358SOL    HW131973   6.489   2.963   3.296
10358SOL    HW231974   6.557   2.921   3.153
10359SOL     OW31975   6.627   1.887   1.580
10359SOL    HW131976   6.679   1.932   1.507
10359SOL    HW231977   6.544   1.846   1.543
10360SOL     OW31978   4.485   5.847   2.537
10360SOL    HW131979   4.448   5.895   2.616
10360SOL    HW231980   4.414   5.834   2.468
10361SOL     OW31981   2.824   0.319   3.000
10361SOL    HW131982   2.843   0.276   2.912
10361SOL    HW231983   2.888   0.395   3.015
10362SOL     OW31984   0.673   4.605   4.055
10362SOL    HW131985   0.651   4.687   4.108
10362SOL    HW231986   0.607   4.532   4.078
10363SOL     OW31987   4.469   2.161   0.767
10363SOL    HW131988   4.508   2.100   0.699
10363SOL    HW231989   4.369   2.163   0.756
10364SOL     OW31990   4.039   3.727   2.498
10364SOL    HW131991   3.982   3.645   2.488
10364SOL    HW231992   4.069   3.735   2.593
10365SOL     OW31993   5.092   4.575   5.339
10365SOL    HW131994   5.042   4.608   5.419
10365SOL    HW231995   5.048   4.611   5.256
10366SOL     OW31996   4.901   0.011   3.918
10366SOL    HW131997   4.850   0.066   3.984
10366SOL    HW231998   4.972   0.068   3.875
10367SOL     OW31999   6.878   1.313   1.831
10367SOL    HW132000   6.869   1.279   1.738
10367SOL    HW232001   6.791   1.300   1.879
10368SOL     OW32002   1.689   0.668   2.085
10368SOL    HW132003   1.697   0.594   2.152
10368SOL    HW232004   1.722   0.753   2.125
10369SOL     OW32005   4.021   1.068   5.023
10369SOL    HW132006   4.106   1.114   5.050
10369SOL    HW232007   3.978   1.029   5.104
10370SOL     OW32008   5.667   2.014   5.313
10370SOL    HW132009   5.632   1.976   5.399
10370SOL    HW232010   5.612   1.981   5.237
10371SOL     OW32011   1.994   5.891   4.169
10371SOL    HW132012   2.034   5.933   4.088
10371SOL    HW232013   1.910   5.938   4.194
10372SOL     OW32014   1.649   1.492   0.469
10372SOL    HW132015   1.704   1.409   0.483
10372SOL    HW232016   1.632   1.536   0.557
10373SOL     OW32017   1.900   6.747   4.367
10373SOL    HW132018   1.955   6.696   4.433
10373SOL    HW232019   1.851   6.682   4.308
10374SOL     OW32020   4.422   0.863   2.794
10374SOL    HW132021   4.458   0.778   2.833
10374SOL    HW232022   4.444   0.866   2.697
10375SOL     OW32023   3.054   1.511   6.176
10375SOL    HW132024   2.990   1.586   6.158
10375SOL    HW232025   3.141   1.548   6.209
10376SOL     OW32026   1.320   6.020   4.100
10376SOL    HW132027   1.242   6.045   4.157
10376SOL    HW232028   1.314   6.068   4.012
10377SOL     OW32029   6.759   1.194   3.634
10377SOL    HW132030   6.661   1.206   3.650
10377SOL    HW232031   6.780   1.097   3.627
10378SOL     OW32032   5.864   0.297   5.978
10378SOL    HW132033   5.873   0.392   6.008
10378SOL    HW232034   5.771   0.280   5.947
10379SOL     OW32035   3.057   6.751   4.633
10379SOL    HW132036   3.139   6.697   4.613
10379SOL    HW232037   3.017   6.783   4.547
10380SOL     OW32038   0.756   2.024   4.452
10380SOL    HW132039   0.779   2.090   4.523
10380SOL    HW232040   0.686   2.062   4.392
10381SOL     OW32041   4.373   4.452   0.461
10381SOL    HW132042   4.273   4.455   0.470
10381SOL    HW232043   4.397   4.422   0.368
10382SOL     OW32044   2.006   4.417   0.730
10382SOL    HW132045   1.936   4.372   0.675
10382SOL    HW232046   2.083   4.442   0.671
10383SOL     OW32047   6.615   3.655   0.715
10383SOL    HW132048   6.622   3.659   0.616
10383SOL    HW232049   6.520   3.671   0.743
10384SOL     OW32050   0.674   6.730   0.674
10384SOL    HW132051   0.726   6.680   0.605
10384SOL    HW232052   0.591   6.679   0.697
10385SOL     OW32053   3.054   6.512   5.772
10385SOL    HW132054   3.030   6.566   5.691
10385SOL    HW232055   3.154   6.507   5.780
10386SOL     OW32056   6.563   2.135   5.811
10386SOL    HW132057   6.528   2.188   5.888
10386SOL    HW232058   6.634   2.186   5.764
10387SOL     OW32059   4.649   1.949   2.930
10387SOL    HW132060   4.702   2.013   2.986
10387SOL    HW232061   4.590   2.001   2.868
10388SOL     OW32062   2.235   5.754   2.452
10388SOL    HW132063   2.207   5.814   2.527
10388SOL    HW232064   2.262   5.810   2.373
10389SOL     OW32065   0.206   6.718   1.561
10389SOL    HW132066   0.161   6.729   1.472
10389SOL    HW232067   0.160   6.775   1.629
10390SOL     OW32068   2.171   2.692   1.731
10390SOL    HW132069   2.256   2.669   1.779
10390SOL    HW232070   2.188   2.693   1.632
10391SOL     OW32071   1.034   5.876   4.219
10391SOL    HW132072   1.095   5.829   4.282
10391SOL    HW232073   1.063   5.859   4.125
10392SOL     OW32074   6.731   4.568   0.178
10392SOL    HW132075   6.666   4.610   0.241
10392SOL    HW232076   6.816   4.621   0.178
10393SOL     OW32077   2.031   2.248   2.582
10393SOL    HW132078   2.112   2.189   2.573
10393SOL    HW232079   2.056   2.329   2.635
10394SOL     OW32080   2.400   6.118   4.700
10394SOL    HW132081   2.485   6.079   4.664
10394SOL    HW232082   2.377   6.074   4.787
10395SOL     OW32083   6.864   0.700   3.544
10395SOL    HW132084   6.810   0.619   3.569
10395SOL    HW232085   6.814   0.754   3.476
10396SOL     OW32086   2.441   0.383   4.191
10396SOL    HW132087   2.413   0.431   4.108
10396SOL    HW232088   2.455   0.450   4.265
10397SOL     OW32089   3.162   1.922   3.625
10397SOL    HW132090   3.122   2.004   3.665
10397SOL    HW232091   3.105   1.843   3.649
10398SOL     OW32092   5.793   2.272   0.542
10398SOL    HW132093   5.781   2.236   0.634
10398SOL    HW232094   5.891   2.277   0.520
10399SOL     OW32095   4.229   1.854   4.597
10399SOL    HW132096   4.255   1.770   4.548
10399SOL    HW232097   4.138   1.882   4.569
10400SOL     OW32098   3.861   5.920   0.980
10400SOL    HW132099   3.866   6.015   0.951
10400SOL    HW232100   3.790   5.910   1.051
10401SOL     OW32101   0.232   0.126   2.755
10401SOL    HW132102   0.178   0.209   2.765
10401SOL    HW232103   0.255   0.090   2.846
10402SOL     OW32104   0.157   2.681   5.831
10402SOL    HW132105   0.206   2.670   5.745
10402SOL    HW232106   0.218   2.663   5.907
10403SOL     OW32107   5.408   1.452   2.941
10403SOL    HW132108   5.314   1.418   2.947
10403SOL    HW232109   5.471   1.375   2.948
10404SOL     OW32110   0.208   6.493   3.779
10404SOL    HW132111   0.161   6.448   3.702
10404SOL    HW232112   0.188   6.591   3.776
10405SOL     OW32113   1.248   5.655   4.684
10405SOL    HW132114   1.346   5.674   4.691
10405SOL    HW232115   1.214   5.622   4.773
10406SOL     OW32116   2.122   3.468   5.085
10406SOL    HW132117   2.118   3.368   5.077
10406SOL    HW232118   2.197   3.494   5.145
10407SOL     OW32119   1.869   0.471   6.830
10407SOL    HW132120   1.945   0.536   6.834
10407SOL    HW232121   1.817   0.486   6.746
10408SOL     OW32122   3.515   6.279   1.842
10408SOL    HW132123   3.600   6.330   1.830
10408SOL    HW232124   3.496   6.268   1.940
10409SOL     OW32125   0.276   3.726   0.762
10409SOL    HW132126   0.252   3.748   0.856
10409SOL    HW232127   0.208   3.664   0.723
10410SOL     OW32128   5.185   1.660   1.412
10410SOL    HW132129   5.217   1.616   1.328
10410SOL    HW232130   5.181   1.759   1.397
10411SOL     OW32131   3.988   5.349   4.881
10411SOL    HW132132   3.996   5.431   4.824
10411SOL    HW232133   4.063   5.347   4.947
10412SOL     OW32134   0.429   1.272   0.735
10412SOL    HW132135   0.517   1.290   0.691
10412SOL    HW232136   0.368   1.227   0.670
10413SOL     OW32137   0.136   1.879   0.902
10413SOL    HW132138   0.142   1.912   0.808
10413SOL    HW232139   0.099   1.952   0.960
10414SOL     OW32140   4.680   6.529   5.935
10414SOL    HW132141   4.715   6.521   5.842
10414SOL    HW232142   4.609   6.460   5.949
10415SOL     OW32143   2.354   4.351   3.866
10415SOL    HW132144   2.348   4.265   3.816
10415SOL    HW232145   2.267   4.369   3.913
10416SOL     OW32146   6.148   0.737   5.563
10416SOL    HW132147   6.238   0.736   5.607
10416SOL    HW232148   6.095   0.658   5.594
10417SOL     OW32149   4.759   4.130   4.296
10417SOL    HW132150   4.771   4.058   4.228
10417SOL    HW232151   4.690   4.194   4.264
10418SOL     OW32152   5.963   4.074   5.558
10418SOL    HW132153   6.039   4.082   5.493
10418SOL    HW232154   5.950   3.979   5.583
10419SOL     OW32155   3.166   0.340   5.444
10419SOL    HW132156   3.077   0.383   5.429
10419SOL    HW232157   3.213   0.330   5.356
10420SOL     OW32158   6.703   3.307   3.588
10420SOL    HW132159   6.622   3.354   3.623
10420SOL    HW232160   6.676   3.246   3.513
10421SOL     OW32161   1.649   3.249   4.792
10421SOL    HW132162   1.634   3.339   4.833
10421SOL    HW232163   1.734   3.210   4.827
10422SOL     OW32164   6.337   3.652   5.565
10422SOL    HW132165   6.296   3.664   5.656
10422SOL    HW232166   6.424   3.605   5.574
10423SOL     OW32167   4.244   4.738   5.211
10423SOL    HW132168   4.212   4.831   5.188
10423SOL    HW232169   4.280   4.694   5.128
10424SOL     OW32170   4.017   2.386   0.185
10424SOL    HW132171   4.094   2.442   0.216
10424SOL    HW232172   3.951   2.443   0.136
10425SOL     OW32173   0.706   5.893   1.613
10425SOL    HW132174   0.662   5.830   1.549
10425SOL    HW232175   0.788   5.931   1.570
10426SOL     OW32176   5.426   3.393   5.193
10426SOL    HW132177   5.429   3.462   5.265
10426SOL    HW232178   5.374   3.428   5.115
10427SOL     OW32179   5.100   6.781   6.725
10427SOL    HW132180   5.185   6.833   6.720
10427SOL    HW232181   5.117   6.687   6.694
10428SOL     OW32182   2.339   1.979   4.530
10428SOL    HW132183   2.363   2.006   4.623
10428SOL    HW232184   2.422   1.973   4.475
10429SOL     OW32185   1.069   3.700   3.172
10429SOL    HW132186   1.024   3.789   3.177
10429SOL    HW232187   1.151   3.707   3.115
10430SOL     OW32188   4.136   6.307   4.751
10430SOL    HW132189   4.061   6.359   4.791
10430SOL    HW232190   4.149   6.222   4.802
10431SOL     OW32191   2.991   0.996   4.279
10431SOL    HW132192   3.076   1.049   4.273
10431SOL    HW232193   2.991   0.926   4.207
10432SOL     OW32194   0.101   1.666   5.458
10432SOL    HW132195   0.013   1.704   5.487
10432SOL    HW232196   0.138   1.722   5.384
10433SOL     OW32197   0.112   6.323   2.257
10433SOL    HW132198   0.188   6.388   2.258
10433SOL    HW232199   0.106   6.279   2.168
10434SOL     OW32200   4.605   6.429   4.849
10434SOL    HW132201   4.596   6.345   4.795
10434SOL    HW232202   4.613   6.507   4.788
10435SOL     OW32203   1.816   2.066   6.057
10435SOL    HW132204   1.834   1.999   5.985
10435SOL    HW232205   1.895   2.127   6.067
10436SOL     OW32206   6.496   3.904   3.801
10436SOL    HW132207   6.531   3.912   3.894
10436SOL    HW232208   6.409   3.855   3.802
10437SOL     OW32209   5.715   4.878   5.047
10437SOL    HW132210   5.812   4.859   5.066
10437SOL    HW232211   5.692   4.969   5.081
10438SOL     OW32212   0.124   6.307   5.830
10438SOL    HW132213   0.146   6.213   5.803
10438SOL    HW232214   0.209   6.359   5.842
10439SOL     OW32215   5.723   1.647   5.126
10439SOL    HW132216   5.800   1.601   5.172
10439SOL    HW232217   5.754   1.685   5.039
10440SOL     OW32218   6.964   0.041   6.993
10440SOL    HW132219   6.970   6.964   6.998
10440SOL    HW232220   6.881   0.067   6.943
10441SOL     OW32221   2.912   1.256   1.000
10441SOL    HW132222   2.893   1.214   1.089
10441SOL    HW232223   3.011   1.268   0.989
10442SOL     OW32224   4.465   0.339   4.706
10442SOL    HW132225   4.375   0.302   4.686
10442SOL    HW232226   4.521   0.336   4.624
10443SOL     OW32227   6.597   2.766   2.999
10443SOL    HW132228   6.507   2.735   2.970
10443SOL    HW232229   6.666   2.735   2.933
10444SOL     OW32230   3.698   4.910   2.315
10444SOL    HW132231   3.682   4.857   2.398
10444SOL    HW232232   3.627   4.889   2.248
10445SOL     OW32233   0.438   3.891   2.906
10445SOL    HW132234   0.483   3.823   2.965
10445SOL    HW232235   0.451   3.982   2.945
10446SOL     OW32236   2.063   3.718   6.490
10446SOL    HW132237   2.042   3.642   6.552
10446SOL    HW232238   2.028   3.698   6.399
10447SOL     OW32239   6.655   0.377   2.365
10447SOL    HW132240   6.730   0.441   2.383
10447SOL    HW232241   6.642   0.318   2.444
10448SOL     OW32242   3.312   0.464   2.579
10448SOL    HW132243   3.391   0.493   2.633
10448SOL    HW232244   3.241   0.429   2.640
10449SOL     OW32245   2.676   5.638   6.516
10449SOL    HW132246   2.705   5.609   6.425
10449SOL    HW232247   2.612   5.715   6.509
10450SOL     OW32248   6.786   0.958   6.557
10450SOL    HW132249   6.839   0.921   6.633
10450SOL    HW232250   6.783   1.058   6.563
10451SOL     OW32251   3.231   7.007   2.799
10451SOL    HW132252   3.233   0.044   2.879
10451SOL    HW232253   3.322   7.002   2.759
10452SOL     OW32254   6.630   3.380   2.782
10452SOL    HW132255   6.543   3.399   2.736
10452SOL    HW232256   6.686   3.321   2.725
10453SOL     OW32257   4.788   6.235   2.429
10453SOL    HW132258   4.825   6.301   2.364
10453SOL    HW232259   4.773   6.148   2.383
10454SOL     OW32260   5.401   1.328   0.916
10454SOL    HW132261   5.488   1.300   0.956
10454SOL    HW232262   5.328   1.319   0.984
10455SOL     OW32263   0.223   5.700   3.959
10455SOL    HW132264   0.281   5.771   3.920
10455SOL    HW232265   0.139   5.693   3.907
10456SOL     OW32266   0.596   5.762   0.799
10456SOL    HW132267   0.659   5.710   0.741
10456SOL    HW232268   0.542   5.824   0.742
10457SOL     OW32269   4.070   2.709   0.200
10457SOL    HW132270   4.054   2.799   0.240
10457SOL    HW232271   4.110   2.648   0.269
10458SOL     OW32272   6.169   6.768   7.013
10458SOL    HW132273   6.151   6.865   0.001
10458SOL    HW232274   6.261   6.747   0.025
10459SOL     OW32275   4.890   5.197   1.447
10459SOL    HW132276   4.801   5.233   1.474
10459SOL    HW232277   4.878   5.118   1.387
10460SOL     OW32278   0.546   4.077   2.126
10460SOL    HW132279   0.622   4.068   2.190
10460SOL    HW232280   0.468   4.117   2.174
10461SOL     OW32281   6.155   4.742   5.645
10461SOL    HW132282   6.202   4.728   5.732
10461SOL    HW232283   6.215   4.791   5.581
10462SOL     OW32284   6.047   2.390   2.683
10462SOL    HW132285   6.034   2.449   2.604
10462SOL    HW232286   5.989   2.422   2.758
10463SOL     OW32287   4.465   2.186   5.810
10463SOL    HW132288   4.379   2.196   5.861
10463SOL    HW232289   4.533   2.143   5.869
10464SOL     OW32290   5.924   6.270   1.971
10464SOL    HW132291   5.988   6.335   2.012
10464SOL    HW232292   5.890   6.307   1.884
10465SOL     OW32293   4.692   5.836   1.497
10465SOL    HW132294   4.605   5.871   1.462
10465SOL    HW232295   4.768   5.882   1.452
10466SOL     OW32296   4.884   4.678   5.560
10466SOL    HW132297   4.912   4.696   5.654
10466SOL    HW232298   4.873   4.765   5.511
10467SOL     OW32299   1.643   2.322   0.804
10467SOL    HW132300   1.576   2.387   0.842
10467SOL    HW232301   1.735   2.352   0.828
10468SOL     OW32302   4.167   5.067   4.233
10468SOL    HW132303   4.069   5.087   4.235
10468SOL    HW232304   4.187   4.993   4.296
10469SOL     OW32305   4.353   4.028   5.856
10469SOL    HW132306   4.388   4.117   5.884
10469SOL    HW232307   4.422   3.980   5.803
10470SOL     OW32308   2.495   1.492   3.453
10470SOL    HW132309   2.482   1.444   3.367
10470SOL    HW232310   2.588   1.529   3.457
10471SOL     OW32311   2.487   0.082   0.706
10471SOL    HW132312   2.549   0.064   0.783
10471SOL    HW232313   2.400   0.036   0.722
10472SOL     OW32314   2.913   5.838   0.323
10472SOL    HW132315   2.986   5.788   0.276
10472SOL    HW232316   2.891   5.921   0.272
10473SOL     OW32317   5.892   6.898   5.672
10473SOL    HW132318   5.867   6.836   5.746
10473SOL    HW232319   5.870   6.992   5.697
10474SOL     OW32320   4.633   1.037   4.103
10474SOL    HW132321   4.626   1.101   4.027
10474SOL    HW232322   4.716   0.982   4.093
10475SOL     OW32323   3.184   6.811   2.278
10475SOL    HW132324   3.281   6.823   2.258
10475SOL    HW232325   3.132   6.807   2.193
10476SOL     OW32326   5.121   6.483   5.941
10476SOL    HW132327   5.162   6.515   5.856
10476SOL    HW232328   5.104   6.561   6.001
10477SOL     OW32329   6.900   1.012   5.162
10477SOL    HW132330   6.856   1.090   5.119
10477SOL    HW232331   6.886   0.930   5.107
10478SOL     OW32332   6.700   6.707   0.003
10478SOL    HW132333   6.699   6.807   0.007
10478SOL    HW232334   6.730   6.671   0.091
10479SOL     OW32335   6.732   1.538   2.072
10479SOL    HW132336   6.687   1.451   2.052
10479SOL    HW232337   6.824   1.538   2.033
10480SOL     OW32338   0.964   1.010   2.194
10480SOL    HW132339   1.031   0.937   2.176
10480SOL    HW232340   0.978   1.044   2.287
10481SOL     OW32341   2.103   6.547   3.538
10481SOL    HW132342   2.079   6.495   3.620
10481SOL    HW232343   2.025   6.548   3.476
10482SOL     OW32344   6.403   5.168   4.406
10482SOL    HW132345   6.463   5.166   4.325
10482SOL    HW232346   6.439   5.234   4.472
10483SOL     OW32347   5.114   5.264   0.490
10483SOL    HW132348   5.022   5.225   0.493
10483SOL    HW232349   5.161   5.247   0.577
10484SOL     OW32350   4.755   1.547   2.186
10484SOL    HW132351   4.733   1.533   2.089
10484SOL    HW232352   4.791   1.463   2.225
10485SOL     OW32353   3.120   4.631   0.582
10485SOL    HW132354   3.042   4.575   0.552
10485SOL    HW232355   3.138   4.614   0.679
10486SOL     OW32356   0.550   0.523   0.390
10486SOL    HW132357   0.479   0.579   0.433
10486SOL    HW232358   0.598   0.471   0.461
10487SOL     OW32359   4.609   0.133   1.478
10487SOL    HW132360   4.535   0.067   1.485
10487SOL    HW232361   4.595   0.207   1.543
10488SOL     OW32362   3.109   1.698   5.469
10488SOL    HW132363   3.100   1.762   5.393
10488SOL    HW232364   3.205   1.694   5.498
10489SOL     OW32365   0.711   6.698   5.192
10489SOL    HW132366   0.620   6.673   5.225
10489SOL    HW232367   0.726   6.796   5.205
10490SOL     OW32368   5.962   1.488   1.286
10490SOL    HW132369   6.027   1.413   1.269
10490SOL    HW232370   5.960   1.549   1.207
10491SOL     OW32371   1.806   3.254   6.978
10491SOL    HW132372   1.736   3.237   0.025
10491SOL    HW232373   1.765   3.305   6.901
10492SOL     OW32374   5.822   4.264   5.361
10492SOL    HW132375   5.823   4.173   5.402
10492SOL    HW232376   5.877   4.327   5.416
10493SOL     OW32377   3.491   0.694   1.824
10493SOL    HW132378   3.484   0.769   1.758
10493SOL    HW232379   3.574   0.641   1.806
10494SOL     OW32380   5.246   3.745   5.937
10494SOL    HW132381   5.186   3.825   5.947
10494SOL    HW232382   5.335   3.774   5.904
10495SOL     OW32383   2.593   6.721   0.113
10495SOL    HW132384   2.593   6.764   0.023
10495SOL    HW232385   2.605   6.622   0.102
10496SOL     OW32386   0.461   4.443   6.514
10496SOL    HW132387   0.391   4.513   6.509
10496SOL    HW232388   0.467   4.407   6.607
10497SOL     OW32389   2.376   0.114   2.156
10497SOL    HW132390   2.437   0.041   2.186
10497SOL    HW232391   2.336   0.091   2.068
10498SOL     OW32392   3.214   5.763   1.378
10498SOL    HW132393   3.231   5.693   1.447
10498SOL    HW232394   3.152   5.726   1.308
10499SOL     OW32395   3.487   0.019   2.727
10499SOL    HW132396   3.528   0.088   2.668
10499SOL    HW232397   3.539   0.014   2.813
10500SOL     OW32398   6.935   1.224   6.343
10500SOL    HW132399   6.881   1.158   6.291
10500SOL    HW232400   0.007   1.191   6.353
10501SOL     OW32401   2.194   5.762   2.891
10501SOL    HW132402   2.280   5.709   2.891
10501SOL    HW232403   2.212   5.855   2.859
10502SOL     OW32404   2.679   0.137   0.910
10502SOL    HW132405   2.646   0.215   0.857
10502SOL    HW232406   2.717   0.169   0.997
10503SOL     OW32407   4.021   2.802   0.747
10503SOL    HW132408   4.112   2.812   0.706
10503SOL    HW232409   3.954   2.853   0.693
10504SOL     OW32410   1.779   1.642   6.843
10504SOL    HW132411   1.727   1.725   6.862
10504SOL    HW232412   1.803   1.638   6.746
10505SOL     OW32413   5.316   6.382   0.556
10505SOL    HW132414   5.379   6.358   0.630
10505SOL    HW232415   5.254   6.454   0.587
10506SOL     OW32416   7.016   5.692   0.266
10506SOL    HW132417   6.970   5.634   0.334
10506SOL    HW232418   6.999   5.655   0.175
10507SOL     OW32419   2.400   0.215   0.203
10507SOL    HW132420   2.327   0.264   0.156
10507SOL    HW232421   2.435   0.142   0.144
10508SOL     OW32422   6.130   6.675   4.629
10508SOL    HW132423   6.224   6.659   4.661
10508SOL    HW232424   6.075   6.593   4.646
10509SOL     OW32425   0.739   6.269   4.749
10509SOL    HW132426   0.797   6.314   4.681
10509SOL    HW232427   0.682   6.200   4.705
10510SOL     OW32428   4.929   5.771   6.394
10510SOL    HW132429   4.862   5.698   6.405
10510SOL    HW232430   4.944   5.788   6.297
10511SOL     OW32431   4.452   1.808   1.728
10511SOL    HW132432   4.458   1.749   1.809
10511SOL    HW232433   4.543   1.845   1.708
10512SOL     OW32434   3.838   6.940   5.438
10512SOL    HW132435   3.923   6.982   5.407
10512SOL    HW232436   3.826   6.852   5.391
10513SOL     OW32437   6.423   2.851   4.220
10513SOL    HW132438   6.379   2.907   4.150
10513SOL    HW232439   6.365   2.847   4.301
10514SOL     OW32440   6.867   3.949   0.233
10514SOL    HW132441   6.880   3.852   0.255
10514SOL    HW232442   6.777   3.963   0.193
10515SOL     OW32443   0.695   3.432   2.767
10515SOL    HW132444   0.784   3.476   2.760
10515SOL    HW232445   0.680   3.400   2.860
10516SOL     OW32446   3.932   1.163   0.490
10516SOL    HW132447   3.985   1.247   0.482
10516SOL    HW232448   3.988   1.093   0.535
10517SOL     OW32449   0.562   2.789   2.269
10517SOL    HW132450   0.479   2.763   2.319
10517SOL    HW232451   0.591   2.712   2.212
10518SOL     OW32452   1.317   5.212   6.640
10518SOL    HW132453   1.231   5.262   6.630
10518SOL    HW232454   1.385   5.249   6.577
10519SOL     OW32455   2.327   3.417   6.789
10519SOL    HW132456   2.400   3.464   6.839
10519SOL    HW232457   2.239   3.440   6.831
10520SOL     OW32458   0.993   2.780   6.646
10520SOL    HW132459   1.056   2.706   6.622
10520SOL    HW232460   1.034   2.868   6.621
10521SOL     OW32461   5.652   6.047   1.987
10521SOL    HW132462   5.607   6.040   2.076
10521SOL    HW232463   5.737   6.099   1.997
10522SOL     OW32464   6.363   0.309   6.175
10522SOL    HW132465   6.329   0.339   6.264
10522SOL    HW232466   6.462   0.324   6.170
10523SOL     OW32467   0.395   4.762   3.882
10523SOL    HW132468   0.437   4.812   3.806
10523SOL    HW232469   0.437   4.791   3.968
10524SOL     OW32470   1.877   0.343   4.664
10524SOL    HW132471   1.818   0.342   4.583
10524SOL    HW232472   1.905   0.437   4.684
10525SOL     OW32473   3.341   6.665   6.143
10525SOL    HW132474   3.254   6.637   6.182
10525SOL    HW232475   3.353   6.764   6.156
10526SOL     OW32476   1.026   6.804   3.665
10526SOL    HW132477   1.034   6.871   3.738
10526SOL    HW232478   0.935   6.808   3.625
10527SOL     OW32479   6.576   1.864   4.732
10527SOL    HW132480   6.568   1.936   4.800
10527SOL    HW232481   6.647   1.890   4.665
10528SOL     OW32482   2.104   3.560   6.050
10528SOL    HW132483   2.135   3.553   6.145
10528SOL    HW232484   2.183   3.566   5.989
10529SOL     OW32485   2.271   5.723   4.121
10529SOL    HW132486   2.281   5.737   4.023
10529SOL    HW232487   2.355   5.682   4.157
10530SOL     OW32488   2.087   0.516   6.453
10530SOL    HW132489   2.179   0.477   6.455
10530SOL    HW232490   2.088   0.601   6.400
10531SOL     OW32491   1.243   2.849   3.608
10531SOL    HW132492   1.207   2.934   3.572
10531SOL    HW232493   1.306   2.868   3.683
10532SOL     OW32494   1.495   4.724   6.247
10532SOL    HW132495   1.548   4.752   6.167
10532SOL    HW232496   1.409   4.774   6.250
10533SOL     OW32497   2.649   1.081   4.899
10533SOL    HW132498   2.709   1.009   4.865
10533SOL    HW232499   2.687   1.170   4.872
10534SOL     OW32500   6.049   5.670   1.512
10534SOL    HW132501   6.059   5.753   1.569
10534SOL    HW232502   6.136   5.648   1.469
10535SOL     OW32503   0.920   1.832   1.324
10535SOL    HW132504   1.006   1.837   1.273
10535SOL    HW232505   0.914   1.909   1.386
10536SOL     OW32506   3.856   0.657   2.992
10536SOL    HW132507   3.877   0.706   3.077
10536SOL    HW232508   3.844   0.723   2.918
10537SOL     OW32509   3.952   5.326   4.379
10537SOL    HW132510   3.876   5.266   4.404
10537SOL    HW232511   4.038   5.282   4.403
10538SOL     OW32512   5.145   2.071   0.279
10538SOL    HW132513   5.236   2.090   0.240
10538SOL    HW232514   5.085   2.149   0.262
10539SOL     OW32515   0.080   3.884   0.025
10539SOL    HW132516   0.102   3.917   0.116
10539SOL    HW232517   7.004   3.892   0.008
10540SOL     OW32518   1.515   3.080   4.995
10540SOL    HW132519   1.449   3.040   5.058
10540SOL    HW232520   1.469   3.145   4.935
10541SOL     OW32521   3.864   3.959   2.385
10541SOL    HW132522   3.925   3.887   2.418
10541SOL    HW232523   3.798   3.982   2.457
10542SOL     OW32524   6.790   0.470   5.505
10542SOL    HW132525   6.744   0.499   5.589
10542SOL    HW232526   6.773   0.538   5.433
10543SOL     OW32527   0.349   1.123   5.473
10543SOL    HW132528   0.357   1.171   5.560
10543SOL    HW232529   0.252   1.114   5.448
10544SOL     OW32530   2.171   6.573   2.020
10544SOL    HW132531   2.216   6.547   2.106
10544SOL    HW232532   2.232   6.552   1.943
10545SOL     OW32533   6.187   0.956   2.859
10545SOL    HW132534   6.193   0.856   2.854
10545SOL    HW232535   6.105   0.987   2.812
10546SOL     OW32536   1.407   0.678   6.952
10546SOL    HW132537   1.436   0.741   0.002
10546SOL    HW232538   1.434   0.585   6.976
10547SOL     OW32539   5.984   2.899   2.213
10547SOL    HW132540   5.945   2.812   2.180
10547SOL    HW232541   5.910   2.965   2.227
10548SOL     OW32542   5.291   4.537   4.607
10548SOL    HW132543   5.236   4.460   4.573
10548SOL    HW232544   5.230   4.604   4.649
10549SOL     OW32545   6.743   6.977   1.728
10549SOL    HW132546   6.645   6.957   1.719
10549SOL    HW232547   6.761   0.048   1.696
10550SOL     OW32548   4.249   6.208   4.498
10550SOL    HW132549   4.287   6.242   4.411
10550SOL    HW232550   4.255   6.281   4.567
10551SOL     OW32551   1.631   2.555   6.480
10551SOL    HW132552   1.727   2.549   6.452
10551SOL    HW232553   1.602   2.467   6.517
10552SOL     OW32554   3.178   1.329   6.368
10552SOL    HW132555   3.114   1.316   6.444
10552SOL    HW232556   3.127   1.325   6.282
10553SOL     OW32557   0.820   4.995   1.614
10553SOL    HW132558   0.740   4.949   1.651
10553SOL    HW232559   0.820   5.091   1.644
10554SOL     OW32560   5.252   5.407   0.284
10554SOL    HW132561   5.262   5.329   0.222
10554SOL    HW232562   5.215   5.376   0.372
10555SOL     OW32563   1.830   3.584   0.639
10555SOL    HW132564   1.883   3.525   0.579
10555SOL    HW232565   1.813   3.672   0.594
10556SOL     OW32566   2.019   2.020   5.306
10556SOL    HW132567   2.088   2.054   5.369
10556SOL    HW232568   1.998   2.090   5.238
10557SOL     OW32569   2.556   2.213   3.140
10557SOL    HW132570   2.536   2.130   3.192
10557SOL    HW232571   2.650   2.211   3.108
10558SOL     OW32572   3.823   0.919   3.586
10558SOL    HW132573   3.892   0.987   3.610
10558SOL    HW232574   3.865   0.829   3.581
10559SOL     OW32575   4.898   0.209   1.156
10559SOL    HW132576   4.986   0.161   1.155
10559SOL    HW232577   4.887   0.261   1.070
10560SOL     OW32578   3.551   5.952   3.742
10560SOL    HW132579   3.545   6.039   3.692
10560SOL    HW232580   3.647   5.926   3.751
10561SOL     OW32581   3.251   4.802   1.004
10561SOL    HW132582   3.313   4.775   1.078
10561SOL    HW232583   3.299   4.861   0.939
10562SOL     OW32584   4.733   5.885   0.296
10562SOL    HW132585   4.675   5.902   0.217
10562SOL    HW232586   4.727   5.789   0.322
10563SOL     OW32587   0.591   1.626   3.799
10563SOL    HW132588   0.658   1.657   3.865
10563SOL    HW232589   0.578   1.527   3.808
10564SOL     OW32590   5.559   0.042   2.073
10564SOL    HW132591   5.652   0.025   2.105
10564SOL    HW232592   5.504   6.980   2.084
10565SOL     OW32593   6.823   0.502   6.437
10565SOL    HW132594   6.853   0.535   6.527
10565SOL    HW232595   6.758   0.428   6.449
10566SOL     OW32596   3.877   2.494   7.007
10566SOL    HW132597   3.878   2.593   6.990
10566SOL    HW232598   3.839   2.447   6.927
10567SOL     OW32599   2.803   2.022   4.109
10567SOL    HW132600   2.847   1.933   4.098
10567SOL    HW232601   2.867   2.094   4.080
10568SOL     OW32602   6.116   2.096   1.089
10568SOL    HW132603   6.181   2.171   1.077
10568SOL    HW232604   6.060   2.087   1.007
10569SOL     OW32605   5.497   2.219   1.573
10569SOL    HW132606   5.475   2.317   1.579
10569SOL    HW232607   5.597   2.208   1.571
10570SOL     OW32608   1.974   5.076   3.363
10570SOL    HW132609   2.041   5.142   3.331
10570SOL    HW232610   1.883   5.101   3.328
10571SOL     OW32611   0.124   5.237   5.182
10571SOL    HW132612   0.030   5.215   5.154
10571SOL    HW232613   0.135   5.217   5.280
10572SOL     OW32614   0.053   3.952   3.914
10572SOL    HW132615   0.017   4.002   3.993
10572SOL    HW232616   7.005   3.891   3.879
10573SOL     OW32617   4.582   7.021   5.149
10573SOL    HW132618   4.525   0.079   5.168
10573SOL    HW232619   4.559   6.986   5.058
10574SOL     OW32620   1.538   1.648   4.021
10574SOL    HW132621   1.590   1.582   4.075
10574SOL    HW232622   1.542   1.738   4.066
10575SOL     OW32623   0.078   1.490   2.782
10575SOL    HW132624   7.018   1.441   2.810
10575SOL    HW232625   0.105   1.460   2.690
10576SOL     OW32626   0.362   5.541   5.409
10576SOL    HW132627   0.398   5.469   5.350
10576SOL    HW232628   0.348   5.624   5.355
10577SOL     OW32629   1.443   2.619   0.179
10577SOL    HW132630   1.491   2.682   0.117
10577SOL    HW232631   1.461   2.646   0.274
10578SOL     OW32632   5.843   0.868   3.187
10578SOL    HW132633   5.789   0.857   3.271
10578SOL    HW232634   5.852   0.965   3.166
10579SOL     OW32635   4.510   2.115   1.251
10579SOL    HW132636   4.557   2.064   1.323
10579SOL    HW232637   4.573   2.180   1.208
10580SOL     OW32638   6.808   0.363   0.061
10580SOL    HW132639   6.761   0.451   0.046
10580SOL    HW232640   6.815   0.315   6.996
10581SOL     OW32641   0.107   0.231   3.102
10581SOL    HW132642   0.064   0.222   3.192
10581SOL    HW232643   0.113   0.141   3.058
10582SOL     OW32644   5.286   5.096   0.034
10582SOL    HW132645   5.230   5.035   7.001
10582SOL    HW232646   5.376   5.106   7.015
10583SOL     OW32647   3.821   1.365   5.146
10583SOL    HW132648   3.803   1.298   5.074
10583SOL    HW232649   3.909   1.409   5.128
10584SOL     OW32650   6.655   6.376   1.593
10584SOL    HW132651   6.562   6.398   1.624
10584SOL    HW232652   6.651   6.298   1.531
10585SOL     OW32653   2.142   3.013   5.780
10585SOL    HW132654   2.124   2.926   5.825
10585SOL    HW232655   2.070   3.030   5.712
10586SOL     OW32656   0.228   5.030   4.499
10586SOL    HW132657   0.289   5.107   4.480
10586SOL    HW232658   0.243   4.998   4.593
10587SOL     OW32659   5.917   4.008   6.917
10587SOL    HW132660   5.994   4.009   6.981
10587SOL    HW232661   5.836   3.972   6.963
10588SOL     OW32662   0.287   3.624   3.360
10588SOL    HW132663   0.216   3.614   3.291
10588SOL    HW232664   0.251   3.678   3.437
10589SOL     OW32665   5.929   1.199   4.662
10589SOL    HW132666   6.020   1.220   4.698
10589SOL    HW232667   5.918   1.100   4.655
10590SOL     OW32668   1.064   0.335   1.719
10590SOL    HW132669   1.149   0.351   1.770
10590SOL    HW232670   1.006   0.272   1.770
10591SOL     OW32671   1.056   1.641   6.436
10591SOL    HW132672   1.080   1.662   6.531
10591SOL    HW232673   1.085   1.548   6.415
10592SOL     OW32674   6.217   3.349   1.094
10592SOL    HW132675   6.156   3.271   1.104
10592SOL    HW232676   6.181   3.411   1.024
10593SOL     OW32677   2.087   5.197   0.443
10593SOL    HW132678   2.160   5.136   0.413
10593SOL    HW232679   2.104   5.289   0.408
10594SOL     OW32680   5.178   0.596   1.998
10594SOL    HW132681   5.266   0.618   2.039
10594SOL    HW232682   5.185   0.507   1.952
10595SOL     OW32683   3.791   6.789   5.131
10595SOL    HW132684   3.798   6.725   5.207
10595SOL    HW232685   3.875   6.842   5.123
10596SOL     OW32686   4.802   0.411   6.952
10596SOL    HW132687   4.777   0.314   6.955
10596SOL    HW232688   4.901   0.420   6.957
10597SOL     OW32689   3.530   1.539   4.847
10597SOL    HW132690   3.506   1.473   4.776
10597SOL    HW232691   3.480   1.624   4.832
10598SOL     OW32692   2.997   2.440   6.889
10598SOL    HW132693   2.979   2.374   6.963
10598SOL    HW232694   2.942   2.522   6.904
10599SOL     OW32695   4.727   2.581   6.490
10599SOL    HW132696   4.762   2.674   6.488
10599SOL    HW232697   4.630   2.581   6.516
10600SOL     OW32698   2.009   2.562   0.803
10600SOL    HW132699   1.967   2.475   0.830
10600SOL    HW232700   2.011   2.568   0.703
10601SOL     OW32701   1.458   4.156   6.146
10601SOL    HW132702   1.514   4.217   6.090
10601SOL    HW232703   1.406   4.209   6.213
10602SOL     OW32704   4.855   2.238   3.561
10602SOL    HW132705   4.889   2.179   3.634
10602SOL    HW232706   4.925   2.246   3.490
10603SOL     OW32707   2.736   5.779   4.000
10603SOL    HW132708   2.802   5.744   3.933
10603SOL    HW232709   2.748   5.878   4.009
10604SOL     OW32710   5.718   3.949   5.278
10604SOL    HW132711   5.645   3.960   5.211
10604SOL    HW232712   5.679   3.920   5.366
10605SOL     OW32713   1.772   5.157   1.106
10605SOL    HW132714   1.861   5.190   1.074
10605SOL    HW232715   1.775   5.057   1.116
10606SOL     OW32716   0.051   0.393   1.986
10606SOL    HW132717   6.976   0.370   1.994
10606SOL    HW232718   0.076   0.455   2.061
10607SOL     OW32719   4.061   5.030   6.326
10607SOL    HW132720   4.020   5.018   6.235
10607SOL    HW232721   3.994   5.002   6.396
10608SOL     OW32722   5.172   2.133   5.812
10608SOL    HW132723   5.193   2.224   5.777
10608SOL    HW232724   5.249   2.100   5.867
10609SOL     OW32725   3.009   6.734   1.545
10609SOL    HW132726   3.074   6.783   1.487
10609SOL    HW232727   2.924   6.786   1.551
10610SOL     OW32728   1.192   3.030   5.978
10610SOL    HW132729   1.149   3.063   5.893
10610SOL    HW232730   1.135   2.959   6.019
10611SOL     OW32731   4.216   3.887   6.068
10611SOL    HW132732   4.243   3.934   5.983
10611SOL    HW232733   4.193   3.792   6.047
10612SOL     OW32734   2.936   0.374   5.750
10612SOL    HW132735   2.922   0.307   5.677
10612SOL    HW232736   2.867   0.359   5.821
10613SOL     OW32737   6.295   6.830   5.652
10613SOL    HW132738   6.224   6.801   5.588
10613SOL    HW232739   6.338   6.914   5.618
10614SOL     OW32740   6.642   2.438   4.681
10614SOL    HW132741   6.617   2.468   4.589
10614SOL    HW232742   6.647   2.338   4.684
10615SOL     OW32743   3.216   6.033   5.747
10615SOL    HW132744   3.122   6.049   5.775
10615SOL    HW232745   3.268   6.119   5.754
10616SOL     OW32746   2.722   6.532   0.886
10616SOL    HW132747   2.682   6.445   0.857
10616SOL    HW232748   2.810   6.545   0.840
10617SOL     OW32749   2.419   2.410   0.602
10617SOL    HW132750   2.346   2.397   0.535
10617SOL    HW232751   2.381   2.453   0.684
10618SOL     OW32752   6.863   3.667   6.295
10618SOL    HW132753   6.778   3.680   6.347
10618SOL    HW232754   6.921   3.747   6.306
10619SOL     OW32755   6.860   4.183   2.294
10619SOL    HW132756   6.834   4.178   2.390
10619SOL    HW232757   6.797   4.242   2.245
10620SOL     OW32758   1.521   5.190   5.601
10620SOL    HW132759   1.425   5.161   5.608
10620SOL    HW232760   1.526   5.275   5.549
10621SOL     OW32761   1.236   6.695   1.716
10621SOL    HW132762   1.166   6.690   1.646
10621SOL    HW232763   1.302   6.621   1.703
10622SOL     OW32764   4.840   1.140   1.227
10622SOL    HW132765   4.822   1.117   1.323
10622SOL    HW232766   4.754   1.137   1.176
10623SOL     OW32767   0.032   4.696   4.354
10623SOL    HW132768   0.062   4.740   4.439
10623SOL    HW232769   6.966   4.652   4.369
10624SOL     OW32770   0.586   1.914   4.642
10624SOL    HW132771   0.526   1.994   4.642
10624SOL    HW232772   0.657   1.925   4.573
10625SOL     OW32773   0.628   4.373   0.019
10625SOL    HW132774   0.596   4.287   0.058
10625SOL    HW232775   0.596   4.381   6.947
10626SOL     OW32776   2.399   3.102   1.123
10626SOL    HW132777   2.495   3.125   1.141
10626SOL    HW232778   2.395   3.014   1.076
10627SOL     OW32779   5.448   6.082   0.878
10627SOL    HW132780   5.379   6.021   0.839
10627SOL    HW232781   5.530   6.080   0.820
10628SOL     OW32782   4.792   5.551   0.069
10628SOL    HW132783   4.815   5.499   0.151
10628SOL    HW232784   4.826   5.502   7.011
10629SOL     OW32785   2.719   4.803   4.732
10629SOL    HW132786   2.635   4.795   4.785
10629SOL    HW232787   2.789   4.743   4.771
10630SOL     OW32788   6.607   1.374   3.984
10630SOL    HW132789   6.656   1.451   4.027
10630SOL    HW232790   6.673   1.313   3.941
10631SOL     OW32791   2.292   5.312   5.138
10631SOL    HW132792   2.276   5.234   5.078
10631SOL    HW232793   2.207   5.362   5.151
10632SOL     OW32794   5.667   1.727   3.783
10632SOL    HW132795   5.724   1.717   3.702
10632SOL    HW232796   5.629   1.819   3.786
10633SOL     OW32797   2.626   3.815   1.720
10633SOL    HW132798   2.636   3.715   1.714
10633SOL    HW232799   2.537   3.837   1.758
10634SOL     OW32800   3.018   5.613   1.196
10634SOL    HW132801   2.980   5.569   1.277
10634SOL    HW232802   2.944   5.656   1.144
10635SOL     OW32803   3.597   1.462   1.203
10635SOL    HW132804   3.632   1.410   1.125
10635SOL    HW232805   3.603   1.406   1.286
10636SOL     OW32806   0.812   1.122   1.736
10636SOL    HW132807   0.784   1.041   1.684
10636SOL    HW232808   0.890   1.165   1.690
10637SOL     OW32809   2.919   4.821   5.571
10637SOL    HW132810   2.891   4.725   5.571
10637SOL    HW232811   2.941   4.849   5.478
10638SOL     OW32812   0.286   5.524   2.857
10638SOL    HW132813   0.367   5.577   2.883
10638SOL    HW232814   0.210   5.586   2.837
10639SOL     OW32815   1.114   3.313   2.808
10639SOL    HW132816   1.168   3.229   2.813
10639SOL    HW232817   1.044   3.311   2.879
10640SOL     OW32818   3.955   0.173   5.872
10640SOL    HW132819   3.938   0.267   5.902
10640SOL    HW232820   3.927   0.109   5.943
10641SOL     OW32821   3.745   2.363   0.293
10641SOL    HW132822   3.827   2.370   0.237
10641SOL    HW232823   3.721   2.453   0.328
10642SOL     OW32824   6.575   3.031   1.730
10642SOL    HW132825   6.651   2.977   1.694
10642SOL    HW232826   6.571   3.021   1.829
10643SOL     OW32827   2.290   4.992   5.308
10643SOL    HW132828   2.361   5.062   5.316
10643SOL    HW232829   2.273   4.973   5.211
10644SOL     OW32830   5.715   2.377   3.007
10644SOL    HW132831   5.618   2.362   2.987
10644SOL    HW232832   5.765   2.386   2.921
10645SOL     OW32833   0.642   1.482   5.100
10645SOL    HW132834   0.569   1.489   5.167
10645SOL    HW232835   0.613   1.424   5.024
10646SOL     OW32836   0.253   1.496   6.366
10646SOL    HW132837   0.273   1.436   6.288
10646SOL    HW232838   0.277   1.449   6.451
10647SOL     OW32839   3.615   5.394   6.977
10647SOL    HW132840   3.597   5.355   0.045
10647SOL    HW232841   3.660   5.326   6.919
10648SOL     OW32842   4.912   4.314   6.090
10648SOL    HW132843   4.917   4.289   5.993
10648SOL    HW232844   4.819   4.344   6.112
10649SOL     OW32845   0.688   4.097   3.203
10649SOL    HW132846   0.704   4.176   3.144
10649SOL    HW232847   0.590   4.079   3.209
10650SOL     OW32848   1.274   6.376   2.803
10650SOL    HW132849   1.262   6.465   2.759
10650SOL    HW232850   1.185   6.331   2.813
10651SOL     OW32851   4.650   6.801   6.022
10651SOL    HW132852   4.731   6.857   6.036
10651SOL    HW232853   4.677   6.709   5.994
10652SOL     OW32854   3.773   0.060   6.569
10652SOL    HW132855   3.686   0.047   6.521
10652SOL    HW232856   3.841   7.019   6.532
10653SOL     OW32857   5.589   3.708   4.314
10653SOL    HW132858   5.585   3.700   4.413
10653SOL    HW232859   5.529   3.783   4.284
10654SOL     OW32860   4.268   1.462   0.965
10654SOL    HW132861   4.285   1.560   0.956
10654SOL    HW232862   4.274   1.436   1.062
10655SOL     OW32863   2.902   5.548   1.423
10655SOL    HW132864   2.903   5.639   1.465
10655SOL    HW232865   2.914   5.479   1.493
10656SOL     OW32866   6.106   2.522   0.997
10656SOL    HW132867   6.027   2.475   1.037
10656SOL    HW232868   6.074   2.601   0.944
10657SOL     OW32869   6.763   0.116   6.836
10657SOL    HW132870   6.684   0.133   6.896
10657SOL    HW232871   6.745   0.036   6.779
10658SOL     OW32872   6.221   3.654   4.463
10658SOL    HW132873   6.218   3.616   4.556
10658SOL    HW232874   6.253   3.749   4.467
10659SOL     OW32875   0.030   6.133   0.856
10659SOL    HW132876   0.057   6.193   0.931
10659SOL    HW232877   0.110   6.084   0.821
10660SOL     OW32878   5.315   4.559   6.450
10660SOL    HW132879   5.230   4.608   6.467
10660SOL    HW232880   5.332   4.554   6.352
10661SOL     OW32881   0.118   6.249   2.748
10661SOL    HW132882   0.193   6.194   2.713
10661SOL    HW232883   0.107   6.331   2.690
10662SOL     OW32884   5.796   0.576   2.131
10662SOL    HW132885   5.843   0.595   2.217
10662SOL    HW232886   5.818   0.484   2.099
10663SOL     OW32887   0.575   0.250   1.925
10663SOL    HW132888   0.511   0.297   1.986
10663SOL    HW232889   0.666   0.250   1.966
10664SOL     OW32890   1.713   4.764   4.932
10664SOL    HW132891   1.762   4.773   5.018
10664SOL    HW232892   1.722   4.671   4.897
10665SOL     OW32893   0.815   0.982   0.522
10665SOL    HW132894   0.744   1.039   0.480
10665SOL    HW232895   0.771   0.910   0.577
10666SOL     OW32896   3.199   4.558   0.867
10666SOL    HW132897   3.155   4.639   0.906
10666SOL    HW232898   3.217   4.492   0.941
10667SOL     OW32899   3.851   3.017   5.497
10667SOL    HW132900   3.886   3.095   5.444
10667SOL    HW232901   3.798   2.957   5.437
10668SOL     OW32902   1.393   2.000   5.291
10668SOL    HW132903   1.419   1.936   5.218
10668SOL    HW232904   1.330   2.068   5.253
10669SOL     OW32905   6.018   6.576   0.662
10669SOL    HW132906   5.920   6.593   0.654
10669SOL    HW232907   6.063   6.658   0.699
10670SOL     OW32908   4.830   3.828   5.312
10670SOL    HW132909   4.790   3.754   5.258
10670SOL    HW232910   4.758   3.894   5.337
10671SOL     OW32911   2.657   2.053   2.614
10671SOL    HW132912   2.589   2.016   2.677
10671SOL    HW232913   2.621   2.052   2.521
10672SOL     OW32914   6.778   2.321   0.461
10672SOL    HW132915   6.743   2.414   0.459
10672SOL    HW232916   6.878   2.322   0.462
10673SOL     OW32917   1.287   2.103   0.079
10673SOL    HW132918   1.353   2.111   0.154
10673SOL    HW232919   1.267   2.194   0.042
10674SOL     OW32920   3.276   3.814   1.115
10674SOL    HW132921   3.198   3.784   1.170
10674SOL    HW232922   3.254   3.804   1.018
10675SOL     OW32923   1.613   0.333   5.713
10675SOL    HW132924   1.611   0.431   5.731
10675SOL    HW232925   1.702   0.296   5.742
10676SOL     OW32926   6.138   6.410   6.306
10676SOL    HW132927   6.076   6.403   6.228
10676SOL    HW232928   6.228   6.439   6.276
10677SOL     OW32929   0.829   0.324   2.090
10677SOL    HW132930   0.888   0.244   2.097
10677SOL    HW232931   0.734   0.298   2.109
10678SOL     OW32932   3.709   5.180   2.406
10678SOL    HW132933   3.735   5.084   2.410
10678SOL    HW232934   3.790   5.235   2.383
10679SOL     OW32935   5.090   4.619   5.945
10679SOL    HW132936   5.145   4.540   5.918
10679SOL    HW232937   5.050   4.603   6.035
10680SOL     OW32938   2.086   2.087   3.822
10680SOL    HW132939   1.998   2.039   3.813
10680SOL    HW232940   2.114   2.087   3.918
10681SOL     OW32941   7.009   4.292   6.589
10681SOL    HW132942   7.009   4.266   6.493
10681SOL    HW232943   6.927   4.255   6.634
10682SOL     OW32944   2.129   2.127   3.089
10682SOL    HW132945   2.087   2.213   3.060
10682SOL    HW232946   2.184   2.143   3.171
10683SOL     OW32947   3.632   1.711   3.859
10683SOL    HW132948   3.621   1.744   3.765
10683SOL    HW232949   3.602   1.783   3.923
10684SOL     OW32950   4.797   3.445   0.595
10684SOL    HW132951   4.839   3.535   0.583
10684SOL    HW232952   4.701   3.449   0.568
10685SOL     OW32953   6.088   4.341   2.052
10685SOL    HW132954   6.150   4.263   2.042
10685SOL    HW232955   6.059   4.348   2.148
10686SOL     OW32956   3.775   5.254   6.774
10686SOL    HW132957   3.747   5.288   6.684
10686SOL    HW232958   3.758   5.156   6.779
10687SOL     OW32959   7.007   5.142   1.551
10687SOL    HW132960   0.026   5.233   1.556
10687SOL    HW232961   6.948   5.138   1.470
10688SOL     OW32962   6.517   4.833   2.603
10688SOL    HW132963   6.440   4.787   2.648
10688SOL    HW232964   6.564   4.891   2.669
10689SOL     OW32965   0.422   0.236   3.909
10689SOL    HW132966   0.482   0.156   3.913
10689SOL    HW232967   0.466   0.313   3.955
10690SOL     OW32968   6.242   5.394   4.026
10690SOL    HW132969   6.186   5.381   3.944
10690SOL    HW232970   6.249   5.308   4.076
10691SOL     OW32971   6.985   1.697   2.503
10691SOL    HW132972   6.888   1.709   2.522
10691SOL    HW232973   7.015   1.766   2.437
10692SOL     OW32974   3.531   4.940   3.449
10692SOL    HW132975   3.522   5.036   3.475
10692SOL    HW232976   3.523   4.932   3.350
10693SOL     OW32977   1.644   0.612   1.803
10693SOL    HW132978   1.655   0.652   1.894
10693SOL    HW232979   1.692   0.525   1.799
10694SOL     OW32980   3.503   5.929   1.563
10694SOL    HW132981   3.530   5.835   1.580
10694SOL    HW232982   3.575   5.976   1.512
10695SOL     OW32983   6.159   1.929   2.733
10695SOL    HW132984   6.221   1.966   2.803
10695SOL    HW232985   6.076   1.985   2.729
10696SOL     OW32986   6.689   4.956   2.235
10696SOL    HW132987   6.764   4.890   2.240
10696SOL    HW232988   6.703   5.018   2.157
10697SOL     OW32989   0.072   6.367   4.393
10697SOL    HW132990   0.059   6.394   4.489
10697SOL    HW232991   0.070   6.448   4.335
10698SOL     OW32992   3.602   6.553   4.381
10698SOL    HW132993   3.667   6.500   4.436
10698SOL    HW232994   3.579   6.502   4.298
10699SOL     OW32995   4.101   1.833   2.550
10699SOL    HW132996   4.119   1.735   2.558
10699SOL    HW232997   4.013   1.854   2.594
10700SOL     OW32998   1.290   6.831   0.533
10700SOL    HW132999   1.359   6.788   0.591
10700SOL    HW233000   1.283   6.928   0.556
10701SOL     OW33001   3.857   5.842   0.281
10701SOL    HW133002   3.857   5.748   0.248
10701SOL    HW233003   3.910   5.899   0.219
10702SOL     OW33004   6.396   2.722   2.345
10702SOL    HW133005   6.335   2.732   2.266
10702SOL    HW233006   6.463   2.650   2.326
10703SOL     OW33007   4.058   3.213   4.171
10703SOL    HW133008   4.033   3.179   4.262
10703SOL    HW233009   4.067   3.312   4.173
10704SOL     OW33010   5.278   5.773   1.752
10704SOL    HW133011   5.210   5.823   1.805
10704SOL    HW233012   5.324   5.706   1.810
10705SOL     OW33013   0.378   3.671   1.286
10705SOL    HW133014   0.330   3.688   1.373
10705SOL    HW233015   0.413   3.757   1.250
10706SOL     OW33016   4.304   6.457   2.240
10706SOL    HW133017   4.326   6.550   2.272
10706SOL    HW233018   4.335   6.391   2.308
10707SOL     OW33019   0.517   0.396   4.962
10707SOL    HW133020   0.464   0.332   4.906
10707SOL    HW233021   0.492   0.385   5.058
10708SOL     OW33022   4.807   0.896   1.911
10708SOL    HW133023   4.883   0.951   1.876
10708SOL    HW233024   4.769   0.940   1.992
10709SOL     OW33025   6.779   1.206   5.041
10709SOL    HW133026   6.817   1.177   4.953
10709SOL    HW233027   6.685   1.236   5.029
10710SOL     OW33028   1.115   6.717   4.980
10710SOL    HW133029   1.198   6.682   4.937
10710SOL    HW233030   1.135   6.741   5.075
10711SOL     OW33031   2.181   6.825   3.556
10711SOL    HW133032   2.244   6.850   3.629
10711SOL    HW233033   2.172   6.726   3.551
10712SOL     OW33034   3.835   0.827   2.786
10712SOL    HW133035   3.876   0.915   2.811
10712SOL    HW233036   3.736   0.839   2.775
10713SOL     OW33037   1.588   4.784   2.054
10713SOL    HW133038   1.575   4.801   2.152
10713SOL    HW233039   1.672   4.732   2.040
10714SOL     OW33040   6.939   3.050   5.179
10714SOL    HW133041   6.881   3.109   5.123
10714SOL    HW233042   6.881   2.995   5.240
10715SOL     OW33043   4.523   0.658   2.954
10715SOL    HW133044   4.612   0.615   2.971
10715SOL    HW233045   4.457   0.629   3.023
10716SOL     OW33046   0.142   2.768   3.264
10716SOL    HW133047   0.221   2.730   3.215
10716SOL    HW233048   0.081   2.693   3.292
10717SOL     OW33049   0.766   1.983   0.875
10717SOL    HW133050   0.715   2.016   0.795
10717SOL    HW233051   0.858   2.020   0.874
10718SOL     OW33052   6.293   5.092   6.996
10718SOL    HW133053   6.293   5.113   0.071
10718SOL    HW233054   6.311   4.994   6.983
10719SOL     OW33055   4.560   6.224   1.582
10719SOL    HW133056   4.519   6.153   1.524
10719SOL    HW233057   4.643   6.259   1.539
10720SOL     OW33058   6.654   4.140   6.152
10720SOL    HW133059   6.729   4.088   6.112
10720SOL    HW233060   6.677   4.168   6.245
10721SOL     OW33061   6.690   2.375   4.356
10721SOL    HW133062   6.645   2.292   4.323
10721SOL    HW233063   6.620   2.443   4.379
10722SOL     OW33064   6.815   2.948   0.497
10722SOL    HW133065   6.857   3.038   0.510
10722SOL    HW233066   6.885   2.877   0.510
10723SOL     OW33067   5.643   4.056   6.536
10723SOL    HW133068   5.634   3.957   6.534
10723SOL    HW233069   5.740   4.081   6.532
10724SOL     OW33070   3.491   6.936   5.779
10724SOL    HW133071   3.432   6.858   5.762
10724SOL    HW233072   3.537   6.962   5.694
10725SOL     OW33073   6.921   5.299   4.075
10725SOL    HW133074   6.888   5.273   3.984
10725SOL    HW233075   6.927   5.217   4.132
10726SOL     OW33076   5.910   6.953   5.301
10726SOL    HW133077   5.816   6.925   5.322
10726SOL    HW233078   5.920   0.028   5.322
10727SOL     OW33079   1.798   5.198   5.263
10727SOL    HW133080   1.860   5.202   5.185
10727SOL    HW233081   1.762   5.289   5.282
10728SOL     OW33082   6.064   6.488   2.087
10728SOL    HW133083   6.051   6.491   2.186
10728SOL    HW233084   6.087   6.579   2.053
10729SOL     OW33085   6.775   1.367   2.776
10729SOL    HW133086   6.724   1.434   2.721
10729SOL    HW233087   6.710   1.313   2.830
10730SOL     OW33088   2.473   6.599   1.983
10730SOL    HW133089   2.455   6.516   2.035
10730SOL    HW233090   2.556   6.587   1.928
10731SOL     OW33091   2.704   5.482   0.195
10731SOL    HW133092   2.730   5.432   0.277
10731SOL    HW233093   2.786   5.506   0.143
10732SOL     OW33094   6.668   0.201   3.032
10732SOL    HW133095   6.685   0.237   3.123
10732SOL    HW233096   6.667   0.101   3.035
10733SOL     OW33097   5.833   2.164   7.019
10733SOL    HW133098   5.810   2.073   6.984
10733SOL    HW233099   5.852   2.226   6.943
10734SOL     OW33100   1.041   0.953   6.664
10734SOL    HW133101   0.961   1.007   6.692
10734SOL    HW233102   1.121   1.013   6.657
10735SOL     OW33103   1.068   4.920   2.363
10735SOL    HW133104   1.036   4.858   2.434
10735SOL    HW233105   1.161   4.951   2.384
10736SOL     OW33106   0.645   1.063   3.082
10736SOL    HW133107   0.704   1.123   3.136
10736SOL    HW233108   0.627   0.979   3.133
10737SOL     OW33109   0.876   2.461   0.702
10737SOL    HW133110   0.811   2.525   0.659
10737SOL    HW233111   0.838   2.427   0.788
10738SOL     OW33112   2.555   0.083   2.466
10738SOL    HW133113   2.568   0.057   2.561
10738SOL    HW233114   2.570   0.004   2.407
10739SOL     OW33115   6.964   1.958   2.761
10739SOL    HW133116   7.010   1.993   2.679
10739SOL    HW233117   6.912   1.876   2.738
10740SOL     OW33118   1.388   5.636   5.779
10740SOL    HW133119   1.320   5.670   5.714
10740SOL    HW233120   1.400   5.703   5.853
10741SOL     OW33121   1.605   1.632   3.753
10741SOL    HW133122   1.576   1.537   3.740
10741SOL    HW233123   1.579   1.662   3.845
10742SOL     OW33124   6.178   6.954   2.236
10742SOL    HW133125   6.142   0.005   2.179
10742SOL    HW233126   6.239   6.896   2.182
10743SOL     OW33127   3.004   2.198   4.328
10743SOL    HW133128   2.949   2.266   4.378
10743SOL    HW233129   2.944   2.127   4.293
10744SOL     OW33130   3.232   1.290   2.180
10744SOL    HW133131   3.330   1.300   2.163
10744SOL    HW233132   3.208   1.342   2.262
10745SOL     OW33133   2.106   4.782   0.549
10745SOL    HW133134   2.197   4.766   0.512
10745SOL    HW233135   2.037   4.745   0.487
10746SOL     OW33136   1.912   5.677   1.523
10746SOL    HW133137   2.009   5.659   1.543
10746SOL    HW233138   1.868   5.591   1.496
10747SOL     OW33139   5.374   1.764   3.366
10747SOL    HW133140   5.376   1.669   3.397
10747SOL    HW233141   5.354   1.767   3.268
10748SOL     OW33142   5.472   5.672   1.082
10748SOL    HW133143   5.417   5.588   1.084
10748SOL    HW233144   5.469   5.710   0.990
10749SOL     OW33145   0.081   5.323   2.848
10749SOL    HW133146   0.107   5.249   2.787
10749SOL    HW233147   0.154   5.391   2.853
10750SOL     OW33148   4.829   4.105   4.848
10750SOL    HW133149   4.848   4.031   4.783
10750SOL    HW233150   4.887   4.183   4.827
10751SOL     OW33151   1.196   3.316   4.732
10751SOL    HW133152   1.175   3.346   4.825
10751SOL    HW233153   1.158   3.381   4.666
10752SOL     OW33154   6.187   4.304   6.531
10752SOL    HW133155   6.099   4.348   6.547
10752SOL    HW233156   6.259   4.356   6.578
10753SOL     OW33157   5.797   0.064   4.232
10753SOL    HW133158   5.869   0.047   4.300
10753SOL    HW233159   5.819   0.146   4.180
10754SOL     OW33160   1.970   2.278   2.330
10754SOL    HW133161   1.975   2.284   2.429
10754SOL    HW233162   1.997   2.186   2.301
10755SOL     OW33163   6.740   2.090   0.603
10755SOL    HW133164   6.737   2.170   0.543
10755SOL    HW233165   6.653   2.041   0.598
10756SOL     OW33166   6.198   3.056   0.492
10756SOL    HW133167   6.216   3.124   0.420
10756SOL    HW233168   6.214   2.964   0.456
10757SOL     OW33169   6.937   3.773   0.582
10757SOL    HW133170   0.001   3.728   0.559
10757SOL    HW233171   6.955   3.850   0.643
10758SOL     OW33172   0.614   5.605   5.531
10758SOL    HW133173   0.626   5.510   5.504
10758SOL    HW233174   0.529   5.615   5.583
10759SOL     OW33175   2.062   3.222   6.489
10759SOL    HW133176   2.046   3.197   6.584
10759SOL    HW233177   1.990   3.283   6.457
10760SOL     OW33178   0.102   6.319   1.404
10760SOL    HW133179   0.178   6.359   1.454
10760SOL    HW233180   0.024   6.383   1.405
10761SOL     OW33181   1.189   2.984   6.585
10761SOL    HW133182   1.182   2.919   6.510
10761SOL    HW233183   1.285   2.990   6.615
10762SOL     OW33184   4.764   0.896   5.050
10762SOL    HW133185   4.666   0.905   5.032
10762SOL    HW233186   4.778   0.838   5.131
10763SOL     OW33187   4.199   0.578   1.493
10763SOL    HW133188   4.210   0.645   1.566
10763SOL    HW233189   4.130   0.610   1.428
10764SOL     OW33190   5.115   1.511   6.236
10764SOL    HW133191   5.023   1.520   6.198
10764SOL    HW233192   5.117   1.553   6.327
10765SOL     OW33193   5.744   1.198   1.859
10765SOL    HW133194   5.835   1.213   1.822
10765SOL    HW233195   5.677   1.200   1.785
10766SOL     OW33196   2.269   3.480   0.407
10766SOL    HW133197   2.291   3.525   0.320
10766SOL    HW233198   2.338   3.503   0.475
10767SOL     OW33199   1.372   0.005   0.770
10767SOL    HW133200   1.379   6.979   0.858
10767SOL    HW233201   1.449   0.068   0.761
10768SOL     OW33202   5.715   5.727   0.307
10768SOL    HW133203   5.799   5.718   0.254
10768SOL    HW233204   5.645   5.773   0.252
10769SOL     OW33205   2.619   4.651   5.584
10769SOL    HW133206   2.526   4.645   5.619
10769SOL    HW233207   2.630   4.591   5.506
10770SOL     OW33208   5.449   0.586   4.849
10770SOL    HW133209   5.471   0.497   4.810
10770SOL    HW233210   5.504   0.601   4.931
10771SOL     OW33211   4.504   0.264   5.129
10771SOL    HW133212   4.548   0.307   5.050
10771SOL    HW233213   4.454   0.333   5.180
10772SOL     OW33214   6.910   0.216   3.591
10772SOL    HW133215   6.905   0.316   3.595
10772SOL    HW233216   6.881   0.178   3.679
10773SOL     OW33217   6.889   4.926   6.985
10773SOL    HW133218   6.841   4.844   7.016
10773SOL    HW233219   6.911   4.984   0.041
10774SOL     OW33220   1.349   2.157   1.184
10774SOL    HW133221   1.441   2.188   1.158
10774SOL    HW233222   1.344   2.149   1.284
10775SOL     OW33223   2.346   4.428   0.730
10775SOL    HW133224   2.292   4.359   0.778
10775SOL    HW233225   2.316   4.519   0.757
10776SOL     OW33226   0.076   6.320   1.790
10776SOL    HW133227   0.090   6.294   1.886
10776SOL    HW233228   0.164   6.347   1.750
10777SOL     OW33229   3.870   0.204   3.267
10777SOL    HW133230   3.813   0.182   3.188
10777SOL    HW233231   3.881   0.303   3.273
10778SOL     OW33232   6.867   6.934   4.909
10778SOL    HW133233   6.966   6.939   4.909
10778SOL    HW233234   6.828   0.003   4.915
10779SOL     OW33235   0.073   5.044   2.199
10779SOL    HW133236   0.141   4.980   2.235
10779SOL    HW233237   0.026   5.090   2.275
10780SOL     OW33238   0.414   5.749   3.714
10780SOL    HW133239   0.351   5.697   3.656
10780SOL    HW233240   0.392   5.846   3.710
10781SOL     OW33241   4.535   1.670   4.569
10781SOL    HW133242   4.508   1.580   4.536
10781SOL    HW233243   4.568   1.662   4.663
10782SOL     OW33244   6.316   2.297   3.370
10782SOL    HW133245   6.239   2.358   3.389
10782SOL    HW233246   6.390   2.349   3.328
10783SOL     OW33247   1.976   3.302   2.300
10783SOL    HW133248   1.908   3.346   2.358
10783SOL    HW233249   1.933   3.270   2.216
10784SOL     OW33250   2.312   6.621   1.235
10784SOL    HW133251   2.394   6.615   1.293
10784SOL    HW233252   2.321   6.556   1.159
10785SOL     OW33253   1.827   4.732   1.704
10785SOL    HW133254   1.886   4.716   1.783
10785SOL    HW233255   1.882   4.753   1.624
10786SOL     OW33256   5.384   2.790   2.038
10786SOL    HW133257   5.458   2.803   1.972
10786SOL    HW233258   5.366   2.875   2.086
10787SOL     OW33259   3.414   1.339   4.651
10787SOL    HW133260   3.361   1.281   4.714
10787SOL    HW233261   3.353   1.377   4.582
10788SOL     OW33262   2.220   4.122   0.531
10788SOL    HW133263   2.198   4.201   0.475
10788SOL    HW233264   2.319   4.111   0.538
10789SOL     OW33265   5.890   0.833   0.668
10789SOL    HW133266   5.949   0.754   0.684
10789SOL    HW233267   5.909   0.903   0.736
10790SOL     OW33268   0.460   0.731   5.563
10790SOL    HW133269   0.448   0.793   5.640
10790SOL    HW233270   0.428   0.640   5.587
10791SOL     OW33271   1.549   1.575   2.002
10791SOL    HW133272   1.595   1.496   1.962
10791SOL    HW233273   1.565   1.655   1.945
10792SOL     OW33274   3.185   3.223   1.665
10792SOL    HW133275   3.165   3.190   1.757
10792SOL    HW233276   3.188   3.146   1.602
10793SOL     OW33277   5.642   2.400   3.993
10793SOL    HW133278   5.569   2.348   4.037
10793SOL    HW233279   5.729   2.352   4.004
10794SOL     OW33280   3.725   4.035   2.010
10794SOL    HW133281   3.647   4.094   1.988
10794SOL    HW233282   3.743   4.038   2.108
10795SOL     OW33283   6.304   4.188   2.802
10795SOL    HW133284   6.329   4.189   2.705
10795SOL    HW233285   6.209   4.215   2.811
10796SOL     OW33286   3.487   0.173   6.505
10796SOL    HW133287   3.439   0.139   6.585
10796SOL    HW233288   3.423   0.183   6.428
10797SOL     OW33289   4.062   2.452   0.579
10797SOL    HW133290   3.966   2.425   0.575
10797SOL    HW233291   4.088   2.470   0.674
10798SOL     OW33292   2.169   6.995   0.335
10798SOL    HW133293   2.097   7.018   0.270
10798SOL    HW233294   2.239   6.940   0.289
10799SOL     OW33295   3.545   2.075   2.451
10799SOL    HW133296   3.473   2.142   2.468
10799SOL    HW233297   3.580   2.086   2.358
10800SOL     OW33298   2.020   6.107   0.486
10800SOL    HW133299   1.989   6.177   0.422
10800SOL    HW233300   2.119   6.098   0.480
10801SOL     OW33301   1.753   0.394   3.934
10801SOL    HW133302   1.782   0.339   3.855
10801SOL    HW233303   1.786   0.350   4.018
10802SOL     OW33304   2.230   2.677   5.091
10802SOL    HW133305   2.218   2.713   5.183
10802SOL    HW233306   2.205   2.748   5.024
10803SOL     OW33307   5.046   4.884   5.014
10803SOL    HW133308   5.129   4.925   5.053
10803SOL    HW233309   4.976   4.956   5.003
10804SOL     OW33310   6.859   4.473   0.914
10804SOL    HW133311   6.833   4.500   0.822
10804SOL    HW233312   6.950   4.510   0.935
10805SOL     OW33313   3.513   0.716   6.721
10805SOL    HW133314   3.525   0.629   6.675
10805SOL    HW233315   3.511   0.702   6.820
10806SOL     OW33316   5.691   4.175   0.151
10806SOL    HW133317   5.673   4.258   0.098
10806SOL    HW233318   5.691   4.096   0.090
10807SOL     OW33319   3.239   6.623   3.492
10807SOL    HW133320   3.249   6.714   3.452
10807SOL    HW233321   3.198   6.630   3.583
10808SOL     OW33322   6.635   4.007   0.080
10808SOL    HW133323   6.643   4.104   0.103
10808SOL    HW233324   6.538   3.982   0.077
10809SOL     OW33325   2.879   0.521   4.306
10809SOL    HW133326   2.972   0.542   4.276
10809SOL    HW233327   2.866   0.422   4.307
10810SOL     OW33328   0.938   1.519   6.049
10810SOL    HW133329   0.991   1.603   6.060
10810SOL    HW233330   0.999   1.440   6.047
10811SOL     OW33331   3.917   5.224   5.605
10811SOL    HW133332   3.906   5.234   5.704
10811SOL    HW233333   3.919   5.314   5.562
10812SOL     OW33334   0.473   3.678   1.859
10812SOL    HW133335   0.524   3.593   1.871
10812SOL    HW233336   0.537   3.753   1.845
10813SOL     OW33337   2.708   6.205   0.891
10813SOL    HW133338   2.747   6.114   0.906
10813SOL    HW233339   2.609   6.202   0.907
10814SOL     OW33340   1.091   0.478   5.539
10814SOL    HW133341   1.087   0.392   5.489
10814SOL    HW233342   1.164   0.475   5.607
10815SOL     OW33343   4.963   4.660   3.407
10815SOL    HW133344   4.898   4.735   3.418
10815SOL    HW233345   4.914   4.577   3.380
10816SOL     OW33346   1.834   1.212   2.313
10816SOL    HW133347   1.855   1.302   2.352
10816SOL    HW233348   1.862   1.210   2.217
10817SOL     OW33349   5.735   6.707   2.979
10817SOL    HW133350   5.723   6.607   2.983
10817SOL    HW233351   5.729   6.737   2.884
10818SOL     OW33352   5.992   2.423   5.897
10818SOL    HW133353   5.941   2.453   5.977
10818SOL    HW233354   6.072   2.371   5.926
10819SOL     OW33355   0.592   3.911   6.589
10819SOL    HW133356   0.687   3.934   6.612
10819SOL    HW233357   0.549   3.989   6.545
10820SOL     OW33358   0.113   6.693   4.233
10820SOL    HW133359   0.139   6.790   4.226
10820SOL    HW233360   0.194   6.636   4.224
10821SOL     OW33361   6.111   6.454   3.014
10821SOL    HW133362   6.089   6.396   2.935
10821SOL    HW233363   6.026   6.482   3.059
10822SOL     OW33364   1.458   2.902   2.608
10822SOL    HW133365   1.365   2.892   2.643
10822SOL    HW233366   1.466   2.987   2.557
10823SOL     OW33367   1.839   5.038   1.537
10823SOL    HW133368   1.910   4.993   1.483
10823SOL    HW233369   1.867   5.132   1.558
10824SOL     OW33370   5.039   6.721   3.476
10824SOL    HW133371   4.968   6.651   3.486
10824SOL    HW233372   5.063   6.757   3.566
10825SOL     OW33373   2.846   0.766   0.674
10825SOL    HW133374   2.774   0.802   0.734
10825SOL    HW233375   2.840   0.811   0.585
10826SOL     OW33376   6.545   3.538   3.000
10826SOL    HW133377   6.613   3.498   3.061
10826SOL    HW233378   6.558   3.502   2.908
10827SOL     OW33379   5.975   3.404   3.705
10827SOL    HW133380   5.916   3.458   3.645
10827SOL    HW233381   5.969   3.307   3.679
10828SOL     OW33382   1.200   5.975   2.174
10828SOL    HW133383   1.109   5.937   2.194
10828SOL    HW233384   1.226   5.952   2.080
10829SOL     OW33385   2.969   3.439   1.325
10829SOL    HW133386   2.917   3.471   1.404
10829SOL    HW233387   3.051   3.390   1.356
10830SOL     OW33388   5.119   2.263   3.426
10830SOL    HW133389   5.161   2.275   3.516
10830SOL    HW233390   5.162   2.185   3.379
10831SOL     OW33391   4.953   7.008   1.756
10831SOL    HW133392   4.880   6.950   1.793
10831SOL    HW233393   5.036   6.998   1.810
10832SOL     OW33394   0.526   2.362   0.632
10832SOL    HW133395   0.540   2.457   0.606
10832SOL    HW233396   0.509   2.357   0.731
10833SOL     OW33397   1.953   0.612   3.728
10833SOL    HW133398   2.012   0.634   3.651
10833SOL    HW233399   1.864   0.581   3.694
10834SOL     OW33400   0.737   1.413   5.892
10834SOL    HW133401   0.737   1.456   5.802
10834SOL    HW233402   0.813   1.449   5.946
10835SOL     OW33403   5.594   1.228   1.078
10835SOL    HW133404   5.605   1.149   1.138
10835SOL    HW233405   5.608   1.312   1.131
10836SOL     OW33406   6.915   1.407   5.894
10836SOL    HW133407   6.864   1.340   5.841
10836SOL    HW233408   6.980   1.360   5.954
10837SOL     OW33409   6.626   4.860   0.183
10837SOL    HW133410   6.707   4.918   0.190
10837SOL    HW233411   6.628   4.791   0.255
10838SOL     OW33412   5.985   0.399   5.087
10838SOL    HW133413   5.962   0.495   5.070
10838SOL    HW233414   6.031   0.361   5.007
10839SOL     OW33415   2.909   3.291   0.462
10839SOL    HW133416   2.816   3.275   0.494
10839SOL    HW233417   2.930   3.227   0.388
10840SOL     OW33418   3.660   5.796   1.211
10840SOL    HW133419   3.616   5.711   1.237
10840SOL    HW233420   3.735   5.816   1.275
10841SOL     OW33421   3.193   5.778   5.797
10841SOL    HW133422   3.107   5.728   5.794
10841SOL    HW233423   3.178   5.872   5.768
10842SOL     OW33424   6.030   3.504   0.969
10842SOL    HW133425   5.942   3.487   0.926
10842SOL    HW233426   6.055   3.601   0.957
10843SOL     OW33427   0.445   1.625   1.986
10843SOL    HW133428   0.349   1.653   1.985
10843SOL    HW233429   0.451   1.526   1.969
10844SOL     OW33430   0.460   6.204   4.310
10844SOL    HW133431   0.366   6.170   4.311
10844SOL    HW233432   0.520   6.138   4.355
10845SOL     OW33433   1.980   1.129   1.149
10845SOL    HW133434   1.946   1.035   1.158
10845SOL    HW233435   1.935   1.172   1.071
10846SOL     OW33436   4.701   2.268   0.892
10846SOL    HW133437   4.641   2.213   0.834
10846SOL    HW233438   4.646   2.319   0.958
10847SOL     OW33439   2.665   1.644   6.212
10847SOL    HW133440   2.740   1.625   6.274
10847SOL    HW233441   2.694   1.625   6.118
10848SOL     OW33442   2.924   1.907   6.804
10848SOL    HW133443   2.855   1.885   6.734
10848SOL    HW233444   3.011   1.864   6.779
10849SOL     OW33445   4.025   4.852   4.044
10849SOL    HW133446   3.947   4.804   4.084
10849SOL    HW233447   4.028   4.946   4.078
10850SOL     OW33448   3.612   6.895   6.940
10850SOL    HW133449   3.546   6.828   6.975
10850SOL    HW233450   3.603   6.901   6.840
10851SOL     OW33451   2.849   2.472   6.190
10851SOL    HW133452   2.803   2.394   6.149
10851SOL    HW233453   2.944   2.448   6.212
10852SOL     OW33454   0.533   0.259   6.552
10852SOL    HW133455   0.456   0.226   6.496
10852SOL    HW233456   0.581   0.181   6.592
10853SOL     OW33457   3.919   1.699   4.568
10853SOL    HW133458   4.009   1.663   4.543
10853SOL    HW233459   3.886   1.650   4.649
10854SOL     OW33460   6.162   0.139   6.531
10854SOL    HW133461   6.129   0.053   6.491
10854SOL    HW233462   6.165   0.210   6.461
10855SOL     OW33463   2.778   6.206   2.686
10855SOL    HW133464   2.876   6.194   2.675
10855SOL    HW233465   2.759   6.252   2.773
10856SOL     OW33466   5.852   0.671   0.987
10856SOL    HW133467   5.897   0.652   0.900
10856SOL    HW233468   5.904   0.740   1.038
10857SOL     OW33469   5.943   3.021   3.405
10857SOL    HW133470   5.921   3.082   3.329
10857SOL    HW233471   5.916   3.063   3.491
10858SOL     OW33472   1.680   2.827   6.493
10858SOL    HW133473   1.647   2.871   6.410
10858SOL    HW233474   1.679   2.728   6.481
10859SOL     OW33475   1.824   3.788   3.339
10859SOL    HW133476   1.754   3.734   3.385
10859SOL    HW233477   1.799   3.801   3.243
10860SOL     OW33478   6.450   1.055   6.258
10860SOL    HW133479   6.452   1.121   6.183
10860SOL    HW233480   6.474   1.101   6.343
10861SOL     OW33481   3.697   2.660   1.699
10861SOL    HW133482   3.663   2.736   1.754
10861SOL    HW233483   3.684   2.574   1.750
10862SOL     OW33484   2.405   1.549   6.262
10862SOL    HW133485   2.488   1.598   6.235
10862SOL    HW233486   2.405   1.535   6.361
10863SOL     OW33487   3.508   1.072   2.598
10863SOL    HW133488   3.429   1.045   2.544
10863SOL    HW233489   3.557   1.146   2.553
10864SOL     OW33490   2.069   4.560   1.199
10864SOL    HW133491   1.986   4.609   1.228
10864SOL    HW233492   2.135   4.560   1.274
10865SOL     OW33493   5.908   2.659   3.439
10865SOL    HW133494   5.902   2.609   3.352
10865SOL    HW233495   5.821   2.703   3.459
10866SOL     OW33496   5.725   3.476   1.132
10866SOL    HW133497   5.717   3.388   1.084
10866SOL    HW233498   5.821   3.491   1.158
10867SOL     OW33499   2.242   2.896   0.520
10867SOL    HW133500   2.295   2.964   0.468
10867SOL    HW233501   2.190   2.839   0.456
10868SOL     OW33502   1.616   2.307   3.173
10868SOL    HW133503   1.584   2.262   3.090
10868SOL    HW233504   1.564   2.390   3.190
10869NA      NA33505   0.653   2.295   6.356
10870NA      NA33506   4.381   4.516   5.324
10871NA      NA33507   2.216   4.831   2.461
10872NA      NA33508   5.066   4.609   3.719
10873NA      NA33509   4.263   2.403   5.303
10874NA      NA33510   3.421   4.218   1.478
10875NA      NA33511   1.070   4.689   0.257
10876NA      NA33512   4.047   4.061   1.653
10877NA      NA33513   4.608   4.433   1.036
10878NA      NA33514   3.532   1.054   5.391
10879NA      NA33515   5.312   5.726   1.522
10880NA      NA33516   1.366   0.619   5.538
10881NA      NA33517   4.840   4.811   2.319
10882NA      NA33518   3.700   3.255   0.603
   7.02227   7.02227   7.02227
