Generated by trjconv : CNT in water t= 483.00000
33518
    1C        C    1   2.848   2.775   4.748
    1C        C    2   2.901   2.722   4.868
    1C        C    3   2.844   2.777   4.983
    1C        C    4   2.854   2.778   4.261
    1C        C    5   2.904   2.730   4.384
    1C        C    6   2.843   2.771   4.505
    1C        C    7   3.015   2.645   4.626
    1C        C    8   2.897   2.723   4.626
    1C        C    9   3.082   2.611   4.745
    1C        C   10   3.015   2.638   4.866
    1C        C   11   3.184   2.494   4.977
    1C        C   12   3.061   2.561   4.974
    1C        C   13   2.851   2.775   3.773
    1C        C   14   2.901   2.722   3.894
    1C        C   15   2.849   2.773   4.015
    1C        C   16   3.018   2.647   4.138
    1C        C   17   2.906   2.733   4.138
    1C        C   18   3.082   2.615   4.261
    1C        C   19   3.022   2.652   4.383
    1C        C   20   3.213   2.563   4.504
    1C        C   21   3.080   2.612   4.505
    1C        C   22   3.282   2.537   4.624
    1C        C   23   3.212   2.553   4.746
    1C        C   24   3.414   2.478   4.864
    1C        C   25   3.273   2.504   4.865
    1C        C   26   3.489   2.478   4.982
    1C        C   27   2.856   2.775   3.284
    1C        C   28   2.909   2.728   3.406
    1C        C   29   2.860   2.781   3.528
    1C        C   30   3.023   2.650   3.649
    1C        C   31   2.907   2.730   3.651
    1C        C   32   3.082   2.610   3.772
    1C        C   33   3.019   2.644   3.894
    1C        C   34   3.208   2.551   4.018
    1C        C   35   3.078   2.608   4.017
    1C        C   36   3.279   2.531   4.139
    1C        C   37   3.211   2.558   4.259
    1C        C   38   3.418   2.511   4.381
    1C        C   39   3.279   2.537   4.382
    1C        C   40   3.489   2.500   4.503
    1C        C   41   3.419   2.503   4.625
    1C        C   42   3.632   2.475   4.746
    1C        C   43   3.490   2.475   4.744
    1C        C   44   3.707   2.484   4.866
    1C        C   45   3.628   2.481   4.981
    1C        C   46   2.840   2.759   2.793
    1C        C   47   2.897   2.717   2.916
    1C        C   48   2.848   2.766   3.039
    1C        C   49   3.021   2.643   3.162
    1C        C   50   2.905   2.724   3.161
    1C        C   51   3.084   2.607   3.283
    1C        C   52   3.022   2.644   3.405
    1C        C   53   3.212   2.551   3.528
    1C        C   54   3.084   2.612   3.528
    1C        C   55   3.279   2.529   3.651
    1C        C   56   3.210   2.551   3.772
    1C        C   57   3.414   2.504   3.895
    1C        C   58   3.275   2.530   3.896
    1C        C   59   3.486   2.492   4.016
    1C        C   60   3.417   2.500   4.139
    1C        C   61   3.629   2.493   4.260
    1C        C   62   3.488   2.491   4.261
    1C        C   63   3.701   2.501   4.381
    1C        C   64   3.630   2.501   4.503
    1C        C   65   3.836   2.540   4.624
    1C        C   66   3.701   2.499   4.626
    1C        C   67   3.908   2.561   4.745
    1C        C   68   3.842   2.525   4.865
    1C        C   69   4.053   2.585   4.975
    1C        C   70   3.923   2.532   4.979
    1C        C   71   2.822   2.733   2.307
    1C        C   72   2.883   2.695   2.428
    1C        C   73   2.835   2.747   2.550
    1C        C   74   3.012   2.631   2.674
    1C        C   75   2.894   2.709   2.673
    1C        C   76   3.074   2.600   2.797
    1C        C   77   3.016   2.641   2.919
    1C        C   78   3.209   2.546   3.038
    1C        C   79   3.079   2.603   3.040
    1C        C   80   3.277   2.525   3.159
    1C        C   81   3.211   2.546   3.282
    1C        C   82   3.415   2.498   3.404
    1C        C   83   3.276   2.522   3.406
    1C        C   84   3.486   2.493   3.526
    1C        C   85   3.418   2.503   3.650
    1C        C   86   3.626   2.494   3.772
    1C        C   87   3.485   2.491   3.774
    1C        C   88   3.698   2.505   3.893
    1C        C   89   3.627   2.495   4.015
    1C        C   90   3.834   2.545   4.136
    1C        C   91   3.698   2.505   4.137
    1C        C   92   3.900   2.572   4.258
    1C        C   93   3.836   2.543   4.380
    1C        C   94   4.025   2.636   4.500
    1C        C   95   3.903   2.565   4.502
    1C        C   96   4.090   2.673   4.620
    1C        C   97   4.033   2.627   4.741
    1C        C   98   4.191   2.770   4.864
    1C        C   99   4.100   2.659   4.862
    1C        C  100   4.216   2.843   4.981
    1C        C  101   2.819   2.732   2.069
    1C        C  102   2.989   2.593   2.189
    1C        C  103   2.874   2.677   2.186
    1C        C  104   3.061   2.574   2.310
    1C        C  105   3.000   2.616   2.431
    1C        C  106   3.199   2.534   2.548
    1C        C  107   3.070   2.593   2.551
    1C        C  108   3.269   2.520   2.670
    1C        C  109   3.205   2.549   2.793
    1C        C  110   3.413   2.497   2.915
    1C        C  111   3.275   2.526   2.914
    1C        C  112   3.485   2.492   3.036
    1C        C  113   3.417   2.505   3.160
    1C        C  114   3.628   2.495   3.282
    1C        C  115   3.487   2.495   3.282
    1C        C  116   3.698   2.503   3.404
    1C        C  117   3.627   2.496   3.526
    1C        C  118   3.832   2.541   3.647
    1C        C  119   3.695   2.507   3.649
    1C        C  120   3.899   2.566   3.769
    1C        C  121   3.833   2.547   3.892
    1C        C  122   4.022   2.643   4.013
    1C        C  123   3.899   2.575   4.014
    1C        C  124   4.085   2.677   4.135
    1C        C  125   4.026   2.637   4.258
    1C        C  126   4.188   2.775   4.377
    1C        C  127   4.084   2.680   4.379
    1C        C  128   4.244   2.819   4.499
    1C        C  129   4.196   2.766   4.621
    1C        C  130   4.328   2.935   4.742
    1C        C  131   4.243   2.821   4.742
    1C        C  132   4.353   3.007   4.861
    1C        C  133   4.281   2.965   4.973
    1C        C  134   3.175   2.480   2.078
    1C        C  135   3.040   2.516   2.080
    1C        C  136   3.264   2.490   2.187
    1C        C  137   3.195   2.524   2.305
    1C        C  138   3.405   2.486   2.428
    1C        C  139   3.266   2.510   2.426
    1C        C  140   3.478   2.480   2.549
    1C        C  141   3.407   2.493   2.670
    1C        C  142   3.621   2.486   2.793
    1C        C  143   3.480   2.486   2.791
    1C        C  144   3.695   2.500   2.913
    1C        C  145   3.627   2.493   3.036
    1C        C  146   3.834   2.538   3.156
    1C        C  147   3.697   2.500   3.158
    1C        C  148   3.901   2.559   3.279
    1C        C  149   3.836   2.535   3.402
    1C        C  150   4.027   2.622   3.525
    1C        C  151   3.900   2.560   3.525
    1C        C  152   4.086   2.666   3.646
    1C        C  153   4.023   2.634   3.769
    1C        C  154   4.196   2.761   3.889
    1C        C  155   4.082   2.678   3.890
    1C        C  156   4.247   2.811   4.011
    1C        C  157   4.196   2.763   4.134
    1C        C  158   4.337   2.925   4.253
    1C        C  159   4.245   2.818   4.255
    1C        C  160   4.368   2.991   4.374
    1C        C  161   4.325   2.934   4.496
    1C        C  162   4.435   3.116   4.616
    1C        C  163   4.366   2.993   4.619
    1C        C  164   4.466   3.184   4.736
    1C        C  165   4.431   3.125   4.859
    1C        C  166   4.510   3.321   4.973
    1C        C  167   4.476   3.186   4.976
    1C        C  168   3.478   2.433   2.076
    1C        C  169   3.402   2.462   2.189
    1C        C  170   3.620   2.466   2.308
    1C        C  171   3.477   2.465   2.309
    1C        C  172   3.693   2.484   2.427
    1C        C  173   3.619   2.487   2.548
    1C        C  174   3.828   2.530   2.669
    1C        C  175   3.690   2.500   2.670
    1C        C  176   3.899   2.551   2.789
    1C        C  177   3.833   2.530   2.912
    1C        C  178   4.026   2.621   3.033
    1C        C  179   3.899   2.559   3.033
    1C        C  180   4.085   2.658   3.156
    1C        C  181   4.028   2.621   3.280
    1C        C  182   4.194   2.752   3.400
    1C        C  183   4.086   2.661   3.402
    1C        C  184   4.247   2.802   3.521
    1C        C  185   4.194   2.756   3.644
    1C        C  186   4.333   2.919   3.764
    1C        C  187   4.245   2.808   3.765
    1C        C  188   4.372   2.979   3.885
    1C        C  189   4.335   2.922   4.009
    1C        C  190   4.444   3.105   4.129
    1C        C  191   4.380   2.979   4.130
    1C        C  192   4.467   3.175   4.249
    1C        C  193   4.434   3.116   4.373
    1C        C  194   4.503   3.317   4.493
    1C        C  195   4.462   3.182   4.494
    1C        C  196   4.519   3.389   4.614
    1C        C  197   4.506   3.321   4.736
    1C        C  198   4.556   3.535   4.852
    1C        C  199   4.534   3.393   4.855
    1C        C  200   4.581   3.622   4.962
    1C        C  201   3.618   2.420   2.074
    1C        C  202   3.828   2.514   2.181
    1C        C  203   3.694   2.464   2.187
    1C        C  204   3.899   2.536   2.303
    1C        C  205   3.829   2.524   2.425
    1C        C  206   4.020   2.617   2.543
    1C        C  207   3.895   2.551   2.546
    1C        C  208   4.082   2.655   2.665
    1C        C  209   4.024   2.617   2.788
    1C        C  210   4.195   2.746   2.909
    1C        C  211   4.083   2.660   2.909
    1C        C  212   4.243   2.798   3.031
    1C        C  213   4.192   2.750   3.154
    1C        C  214   4.328   2.912   3.274
    1C        C  215   4.243   2.799   3.276
    1C        C  216   4.366   2.975   3.394
    1C        C  217   4.330   2.916   3.518
    1C        C  218   4.426   3.106   3.641
    1C        C  219   4.366   2.978   3.640
    1C        C  220   4.458   3.170   3.762
    1C        C  221   4.437   3.105   3.886
    1C        C  222   4.498   3.309   4.005
    1C        C  223   4.469   3.171   4.006
    1C        C  224   4.510   3.382   4.126
    1C        C  225   4.503   3.312   4.248
    1C        C  226   4.523   3.525   4.367
    1C        C  227   4.512   3.384   4.369
    1C        C  228   4.525   3.599   4.487
    1C        C  229   4.530   3.530   4.610
    1C        C  230   4.505   3.744   4.726
    1C        C  231   4.534   3.605   4.730
    1C        C  232   4.501   3.821   4.844
    1C        C  233   4.550   3.758   4.959
    1C        C  234   4.021   2.606   2.061
    1C        C  235   3.897   2.543   2.063
    1C        C  236   4.087   2.639   2.180
    1C        C  237   4.025   2.602   2.301
    1C        C  238   4.193   2.738   2.419
    1C        C  239   4.083   2.647   2.421
    1C        C  240   4.243   2.789   2.541
    1C        C  241   4.192   2.743   2.665
    1C        C  242   4.332   2.905   2.788
    1C        C  243   4.244   2.795   2.786
    1C        C  244   4.373   2.967   2.909
    1C        C  245   4.334   2.906   3.031
    1C        C  246   4.433   3.095   3.150
    1C        C  247   4.371   2.968   3.152
    1C        C  248   4.457   3.161   3.273
    1C        C  249   4.432   3.100   3.398
    1C        C  250   4.496   3.306   3.516
    1C        C  251   4.452   3.171   3.519
    1C        C  252   4.505   3.377   3.638
    1C        C  253   4.491   3.308   3.761
    1C        C  254   4.521   3.518   3.879
    1C        C  255   4.507   3.378   3.882
    1C        C  256   4.512   3.592   3.999
    1C        C  257   4.513   3.523   4.123
    1C        C  258   4.496   3.735   4.242
    1C        C  259   4.522   3.596   4.244
    1C        C  260   4.481   3.808   4.362
    1C        C  261   4.494   3.737   4.484
    1C        C  262   4.431   3.943   4.603
    1C        C  263   4.481   3.811   4.604
    1C        C  264   4.402   4.009   4.725
    1C        C  265   4.431   3.944   4.846
    1C        C  266   4.320   4.133   4.962
    1C        C  267   4.386   4.010   4.961
    1C        C  268   4.257   2.780   2.064
    1C        C  269   4.195   2.730   2.179
    1C        C  270   4.341   2.891   2.301
    1C        C  271   4.250   2.783   2.298
    1C        C  272   4.380   2.954   2.421
    1C        C  273   4.336   2.896   2.542
    1C        C  274   4.436   3.084   2.661
    1C        C  275   4.370   2.959   2.663
    1C        C  276   4.468   3.151   2.781
    1C        C  277   4.441   3.090   2.906
    1C        C  278   4.497   3.295   3.026
    1C        C  279   4.464   3.158   3.027
    1C        C  280   4.504   3.366   3.148
    1C        C  281   4.485   3.299   3.271
    1C        C  282   4.511   3.513   3.391
    1C        C  283   4.502   3.372   3.392
    1C        C  284   4.515   3.586   3.512
    1C        C  285   4.512   3.518   3.636
    1C        C  286   4.492   3.729   3.753
    1C        C  287   4.518   3.590   3.757
    1C        C  288   4.480   3.799   3.875
    1C        C  289   4.497   3.732   3.998
    1C        C  290   4.432   3.936   4.119
    1C        C  291   4.481   3.803   4.119
    1C        C  292   4.396   4.001   4.238
    1C        C  293   4.431   3.939   4.361
    1C        C  294   4.333   4.131   4.479
    1C        C  295   4.403   4.008   4.481
    1C        C  296   4.289   4.189   4.600
    1C        C  297   4.332   4.133   4.723
    1C        C  298   4.201   4.311   4.836
    1C        C  299   4.282   4.193   4.841
    1C        C  300   4.171   4.399   4.944
    1C        C  301   4.351   2.882   2.064
    1C        C  302   4.466   3.069   2.177
    1C        C  303   4.399   2.943   2.181
    1C        C  304   4.480   3.142   2.298
    1C        C  305   4.448   3.078   2.419
    1C        C  306   4.503   3.284   2.539
    1C        C  307   4.475   3.146   2.540
    1C        C  308   4.510   3.357   2.660
    1C        C  309   4.501   3.289   2.784
    1C        C  310   4.521   3.504   2.900
    1C        C  311   4.511   3.363   2.903
    1C        C  312   4.514   3.575   3.022
    1C        C  313   4.514   3.507   3.146
    1C        C  314   4.491   3.720   3.264
    1C        C  315   4.512   3.581   3.267
    1C        C  316   4.479   3.792   3.385
    1C        C  317   4.502   3.726   3.508
    1C        C  318   4.432   3.929   3.629
    1C        C  319   4.478   3.795   3.629
    1C        C  320   4.404   3.995   3.751
    1C        C  321   4.433   3.933   3.874
    1C        C  322   4.327   4.118   3.991
    1C        C  323   4.401   3.998   3.996
    1C        C  324   4.283   4.175   4.113
    1C        C  325   4.325   4.123   4.237
    1C        C  326   4.190   4.288   4.354
    1C        C  327   4.290   4.189   4.358
    1C        C  328   4.133   4.334   4.475
    1C        C  329   4.189   4.289   4.597
    1C        C  330   4.023   4.432   4.715
    1C        C  331   4.141   4.351   4.714
    1C        C  332   3.970   4.493   4.830
    1C        C  333   4.053   4.476   4.942
    1C        C  334   4.554   3.267   2.065
    1C        C  335   4.534   3.129   2.066
    1C        C  336   4.539   3.351   2.177
    1C        C  337   4.514   3.280   2.297
    1C        C  338   4.525   3.495   2.413
    1C        C  339   4.517   3.354   2.417
    1C        C  340   4.522   3.569   2.533
    1C        C  341   4.518   3.498   2.655
    1C        C  342   4.491   3.710   2.776
    1C        C  343   4.517   3.571   2.776
    1C        C  344   4.477   3.782   2.897
    1C        C  345   4.489   3.714   3.021
    1C        C  346   4.428   3.921   3.137
    1C        C  347   4.472   3.786   3.141
    1C        C  348   4.397   3.984   3.260
    1C        C  349   4.428   3.924   3.384
    1C        C  350   4.324   4.109   3.504
    1C        C  351   4.400   3.990   3.505
    1C        C  352   4.280   4.168   3.624
    1C        C  353   4.324   4.111   3.746
    1C        C  354   4.184   4.272   3.866
    1C        C  355   4.282   4.170   3.868
    1C        C  356   4.130   4.320   3.987
    1C        C  357   4.186   4.277   4.109
    1C        C  358   4.012   4.398   4.230
    1C        C  359   4.136   4.330   4.230
    1C        C  360   3.951   4.444   4.349
    1C        C  361   4.018   4.415   4.470
    1C        C  362   3.830   4.515   4.593
    1C        C  363   3.957   4.454   4.592
    1C        C  364   3.761   4.549   4.712
    1C        C  365   3.839   4.546   4.830
    1C        C  366   3.630   4.592   4.950
    1C        C  367   3.767   4.570   4.947
    1C        C  368   4.510   3.563   2.055
    1C        C  369   4.528   3.491   2.174
    1C        C  370   4.504   3.708   2.289
    1C        C  371   4.521   3.568   2.293
    1C        C  372   4.490   3.779   2.410
    1C        C  373   4.506   3.710   2.532
    1C        C  374   4.427   3.909   2.650
    1C        C  375   4.477   3.777   2.652
    1C        C  376   4.400   3.978   2.770
    1C        C  377   4.431   3.915   2.893
    1C        C  378   4.327   4.101   3.013
    1C        C  379   4.407   3.985   3.013
    1C        C  380   4.276   4.153   3.135
    1C        C  381   4.324   4.105   3.258
    1C        C  382   4.181   4.262   3.379
    1C        C  383   4.282   4.163   3.380
    1C        C  384   4.126   4.310   3.500
    1C        C  385   4.177   4.265   3.624
    1C        C  386   4.003   4.387   3.744
    1C        C  387   4.124   4.313   3.745
    1C        C  388   3.944   4.427   3.866
    1C        C  389   4.009   4.394   3.987
    1C        C  390   3.816   4.482   4.110
    1C        C  391   3.945   4.425   4.109
    1C        C  392   3.747   4.507   4.231
    1C        C  393   3.821   4.498   4.351
    1C        C  394   3.618   4.557   4.473
    1C        C  395   3.756   4.528   4.473
    1C        C  396   3.547   4.574   4.594
    1C        C  397   3.622   4.571   4.714
    1C        C  398   3.411   4.558   4.838
    1C        C  399   3.550   4.584   4.835
    1C        C  400   3.344   4.520   4.955
    1C        C  401   4.506   3.702   2.054
    1C        C  402   4.456   3.917   2.167
    1C        C  403   4.494   3.781   2.169
    1C        C  404   4.415   3.978   2.287
    1C        C  405   4.438   3.911   2.409
    1C        C  406   4.332   4.099   2.525
    1C        C  407   4.403   3.977   2.529
    1C        C  408   4.282   4.153   2.645
    1C        C  409   4.325   4.098   2.768
    1C        C  410   4.178   4.249   2.888
    1C        C  411   4.283   4.154   2.890
    1C        C  412   4.123   4.293   3.010
    1C        C  413   4.175   4.252   3.135
    1C        C  414   4.003   4.375   3.253
    1C        C  415   4.123   4.301   3.256
    1C        C  416   3.939   4.407   3.375
    1C        C  417   4.002   4.378   3.499
    1C        C  418   3.809   4.468   3.620
    1C        C  419   3.940   4.415   3.621
    1C        C  420   3.744   4.495   3.742
    1C        C  421   3.812   4.476   3.865
    1C        C  422   3.608   4.527   3.985
    1C        C  423   3.747   4.500   3.988
    1C        C  424   3.538   4.533   4.108
    1C        C  425   3.609   4.535   4.230
    1C        C  426   3.402   4.545   4.358
    1C        C  427   3.543   4.550   4.354
    1C        C  428   3.332   4.551   4.481
    1C        C  429   3.406   4.563   4.600
    1C        C  430   3.194   4.522   4.724
    1C        C  431   3.333   4.554   4.721
    1C        C  432   3.124   4.497   4.845
    1C        C  433   3.207   4.496   4.959
    1C        C  434   4.379   4.120   2.048
    1C        C  435   4.444   3.995   2.051
    1C        C  436   4.302   4.160   2.162
    1C        C  437   4.338   4.098   2.284
    1C        C  438   4.183   4.250   2.401
    1C        C  439   4.287   4.154   2.403
    1C        C  440   4.129   4.298   2.523
    1C        C  441   4.184   4.255   2.646
    1C        C  442   4.005   4.373   2.767
    1C        C  443   4.124   4.298   2.766
    1C        C  444   3.941   4.405   2.888
    1C        C  445   4.003   4.368   3.010
    1C        C  446   3.811   4.464   3.131
    1C        C  447   3.941   4.408   3.130
    1C        C  448   3.744   4.486   3.253
    1C        C  449   3.810   4.464   3.376
    1C        C  450   3.605   4.521   3.498
    1C        C  451   3.743   4.491   3.497
    1C        C  452   3.537   4.531   3.621
    1C        C  453   3.606   4.525   3.744
    1C        C  454   3.393   4.541   3.865
    1C        C  455   3.535   4.541   3.865
    1C        C  456   3.327   4.533   3.990
    1C        C  457   3.397   4.539   4.113
    1C        C  458   3.191   4.510   4.239
    1C        C  459   3.330   4.535   4.237
    1C        C  460   3.126   4.488   4.362
    1C        C  461   3.195   4.516   4.482
    1C        C  462   2.996   4.439   4.605
    1C        C  463   3.126   4.495   4.604
    1C        C  464   2.931   4.403   4.725
    1C        C  465   2.991   4.445   4.847
    1C        C  466   2.806   4.336   4.963
    1C        C  467   2.914   4.425   4.966
    1C        C  468   4.122   4.283   2.042
    1C        C  469   4.186   4.245   2.160
    1C        C  470   4.008   4.371   2.278
    1C        C  471   4.128   4.296   2.280
    1C        C  472   3.942   4.400   2.400
    1C        C  473   4.007   4.369   2.522
    1C        C  474   3.811   4.452   2.645
    1C        C  475   3.944   4.405   2.643
    1C        C  476   3.743   4.482   2.765
    1C        C  477   3.811   4.462   2.887
    1C        C  478   3.604   4.509   3.010
    1C        C  479   3.743   4.483   3.009
    1C        C  480   3.535   4.524   3.132
    1C        C  481   3.606   4.516   3.254
    1C        C  482   3.393   4.540   3.377
    1C        C  483   3.534   4.528   3.376
    1C        C  484   3.324   4.530   3.500
    1C        C  485   3.395   4.536   3.622
    1C        C  486   3.184   4.510   3.746
    1C        C  487   3.323   4.536   3.743
    1C        C  488   3.123   4.482   3.870
    1C        C  489   3.189   4.505   3.993
    1C        C  490   3.001   4.419   4.116
    1C        C  491   3.122   4.492   4.117
    1C        C  492   2.945   4.384   4.241
    1C        C  493   2.998   4.428   4.364
    1C        C  494   2.828   4.303   4.487
    1C        C  495   2.934   4.397   4.486
    1C        C  496   2.776   4.257   4.610
    1C        C  497   2.820   4.314   4.732
    1C        C  498   2.664   4.162   4.848
    1C        C  499   2.755   4.270   4.850
    1C        C  500   2.592   4.118   4.960
    1C        C  501   4.002   4.354   2.041
    1C        C  502   3.812   4.460   2.158
    1C        C  503   3.941   4.403   2.158
    1C        C  504   3.740   4.473   2.279
    1C        C  505   3.809   4.448   2.400
    1C        C  506   3.606   4.506   2.521
    1C        C  507   3.744   4.473   2.522
    1C        C  508   3.535   4.513   2.643
    1C        C  509   3.605   4.513   2.765
    1C        C  510   3.394   4.525   2.886
    1C        C  511   3.535   4.523   2.887
    1C        C  512   3.323   4.524   3.008
    1C        C  513   3.394   4.527   3.131
    1C        C  514   3.188   4.494   3.258
    1C        C  515   3.325   4.530   3.254
    1C        C  516   3.117   4.477   3.378
    1C        C  517   3.185   4.503   3.499
    1C        C  518   2.997   4.413   3.624
    1C        C  519   3.121   4.482   3.623
    1C        C  520   2.941   4.375   3.748
    1C        C  521   3.001   4.410   3.870
    1C        C  522   2.836   4.283   3.999
    1C        C  523   2.945   4.373   3.995
    1C        C  524   2.785   4.240   4.123
    1C        C  525   2.835   4.295   4.243
    1C        C  526   2.702   4.132   4.368
    1C        C  527   2.782   4.248   4.366
    1C        C  528   2.660   4.073   4.489
    1C        C  529   2.691   4.144   4.607
    1C        C  530   2.587   3.961   4.730
    1C        C  531   2.642   4.092   4.728
    1C        C  532   2.542   3.899   4.850
    1C        C  533   2.532   3.992   4.959
    1C        C  534   3.617   4.558   2.041
    1C        C  535   3.748   4.508   2.043
    1C        C  536   3.536   4.538   2.157
    1C        C  537   3.602   4.505   2.279
    1C        C  538   3.391   4.516   2.402
    1C        C  539   3.532   4.512   2.401
    1C        C  540   3.320   4.512   2.524
    1C        C  541   3.394   4.517   2.644
    1C        C  542   3.182   4.492   2.768
    1C        C  543   3.322   4.512   2.765
    1C        C  544   3.116   4.471   2.892
    1C        C  545   3.186   4.490   3.013
    1C        C  546   2.992   4.409   3.135
    1C        C  547   3.120   4.469   3.136
    1C        C  548   2.934   4.371   3.258
    1C        C  549   2.993   4.409   3.381
    1C        C  550   2.829   4.278   3.507
    1C        C  551   2.935   4.371   3.504
    1C        C  552   2.781   4.231   3.631
    1C        C  553   2.834   4.282   3.751
    1C        C  554   2.704   4.120   3.877
    1C        C  555   2.789   4.232   3.876
    1C        C  556   2.664   4.064   4.000
    1C        C  557   2.702   4.126   4.122
    1C        C  558   2.606   3.941   4.247
    1C        C  559   2.667   4.069   4.246
    1C        C  560   2.574   3.877   4.368
    1C        C  561   2.594   3.948   4.489
    1C        C  562   2.532   3.749   4.616
    1C        C  563   2.564   3.886   4.612
    1C        C  564   2.517   3.678   4.737
    1C        C  565   2.524   3.757   4.855
    1C        C  566   2.532   3.546   4.980
    1C        C  567   2.523   3.685   4.975
    1C        C  568   3.327   4.479   2.042
    1C        C  569   3.396   4.516   2.159
    1C        C  570   3.182   4.478   2.280
    1C        C  571   3.321   4.510   2.279
    1C        C  572   3.115   4.461   2.403
    1C        C  573   3.182   4.482   2.526
    1C        C  574   2.984   4.407   2.650
    1C        C  575   3.112   4.468   2.648
    1C        C  576   2.928   4.365   2.772
    1C        C  577   2.993   4.402   2.892
    1C        C  578   2.823   4.276   3.017
    1C        C  579   2.933   4.365   3.015
    1C        C  580   2.778   4.224   3.140
    1C        C  581   2.831   4.274   3.262
    1C        C  582   2.693   4.115   3.385
    1C        C  583   2.782   4.224   3.384
    1C        C  584   2.655   4.059   3.509
    1C        C  585   2.697   4.117   3.631
    1C        C  586   2.595   3.936   3.758
    1C        C  587   2.663   4.060   3.756
    1C        C  588   2.574   3.871   3.882
    1C        C  589   2.601   3.938   4.004
    1C        C  590   2.536   3.738   4.127
    1C        C  591   2.576   3.873   4.127
    1C        C  592   2.523   3.670   4.250
    1C        C  593   2.531   3.743   4.371
    1C        C  594   2.507   3.535   4.497
    1C        C  595   2.524   3.675   4.495
    1C        C  596   2.513   3.465   4.619
    1C        C  597   2.511   3.536   4.741
    1C        C  598   2.531   3.327   4.861
    1C        C  599   2.520   3.468   4.865
    1C        C  600   2.530   3.250   4.978
    1C        C  601   3.193   4.446   2.042
    1C        C  602   2.981   4.396   2.162
    1C        C  603   3.116   4.445   2.159
    1C        C  604   2.919   4.367   2.287
    1C        C  605   2.986   4.404   2.406
    1C        C  606   2.818   4.274   2.529
    1C        C  607   2.925   4.367   2.528
    1C        C  608   2.767   4.224   2.651
    1C        C  609   2.821   4.273   2.772
    1C        C  610   2.694   4.107   2.896
    1C        C  611   2.775   4.223   2.896
    1C        C  612   2.654   4.051   3.020
    1C        C  613   2.693   4.111   3.141
    1C        C  614   2.589   3.928   3.266
    1C        C  615   2.651   4.055   3.264
    1C        C  616   2.569   3.864   3.391
    1C        C  617   2.596   3.931   3.512
    1C        C  618   2.527   3.734   3.638
    1C        C  619   2.569   3.869   3.636
    1C        C  620   2.518   3.665   3.761
    1C        C  621   2.535   3.736   3.882
    1C        C  622   2.505   3.528   4.009
    1C        C  623   2.520   3.668   4.005
    1C        C  624   2.507   3.457   4.131
    1C        C  625   2.512   3.529   4.252
    1C        C  626   2.528   3.322   4.378
    1C        C  627   2.511   3.462   4.376
    1C        C  628   2.552   3.253   4.499
    1C        C  629   2.536   3.325   4.619
    1C        C  630   2.593   3.119   4.744
    1C        C  631   2.547   3.254   4.741
    1C        C  632   2.615   3.049   4.865
    1C        C  633   2.564   3.115   4.982
    1C        C  634   2.785   4.299   2.054
    1C        C  635   2.894   4.387   2.049
    1C        C  636   2.751   4.228   2.170
    1C        C  637   2.811   4.274   2.289
    1C        C  638   2.679   4.107   2.410
    1C        C  639   2.766   4.219   2.410
    1C        C  640   2.641   4.049   2.533
    1C        C  641   2.684   4.110   2.653
    1C        C  642   2.587   3.921   2.778
    1C        C  643   2.649   4.048   2.776
    1C        C  644   2.562   3.857   2.901
    1C        C  645   2.590   3.926   3.021
    1C        C  646   2.524   3.726   3.149
    1C        C  647   2.564   3.862   3.144
    1C        C  648   2.509   3.657   3.271
    1C        C  649   2.531   3.728   3.391
    1C        C  650   2.504   3.523   3.518
    1C        C  651   2.515   3.664   3.515
    1C        C  652   2.510   3.455   3.642
    1C        C  653   2.507   3.524   3.765
    1C        C  654   2.529   3.315   3.889
    1C        C  655   2.504   3.454   3.888
    1C        C  656   2.549   3.248   4.011
    1C        C  657   2.533   3.318   4.133
    1C        C  658   2.608   3.124   4.258
    1C        C  659   2.549   3.252   4.257
    1C        C  660   2.639   3.058   4.380
    1C        C  661   2.602   3.121   4.501
    1C        C  662   2.710   2.939   4.623
    1C        C  663   2.629   3.056   4.623
    1C        C  664   2.750   2.878   4.744
    1C        C  665   2.699   2.933   4.864
    1C        C  666   2.742   2.872   4.983
    1C        C  667   2.673   4.025   2.054
    1C        C  668   2.687   4.102   2.170
    1C        C  669   2.588   3.911   2.291
    1C        C  670   2.644   4.042   2.290
    1C        C  671   2.560   3.848   2.414
    1C        C  672   2.583   3.920   2.533
    1C        C  673   2.519   3.719   2.660
    1C        C  674   2.563   3.853   2.656
    1C        C  675   2.511   3.648   2.781
    1C        C  676   2.530   3.719   2.903
    1C        C  677   2.504   3.513   3.028
    1C        C  678   2.518   3.654   3.027
    1C        C  679   2.504   3.444   3.151
    1C        C  680   2.500   3.516   3.273
    1C        C  681   2.531   3.310   3.400
    1C        C  682   2.507   3.449   3.398
    1C        C  683   2.554   3.245   3.523
    1C        C  684   2.539   3.316   3.645
    1C        C  685   2.601   3.115   3.770
    1C        C  686   2.550   3.246   3.767
    1C        C  687   2.633   3.053   3.893
    1C        C  688   2.603   3.117   4.016
    1C        C  689   2.718   2.939   4.136
    1C        C  690   2.644   3.059   4.138
    1C        C  691   2.758   2.882   4.259
    1C        C  692   2.713   2.938   4.381
    1C        C  693   2.753   2.879   4.503
    1C        C  694   2.619   3.896   2.054
    1C        C  695   2.522   3.705   2.176
    1C        C  696   2.575   3.835   2.173
    1C        C  697   2.512   3.635   2.299
    1C        C  698   2.524   3.711   2.417
    1C        C  699   2.484   3.505   2.546
    1C        C  700   2.503   3.645   2.540
    1C        C  701   2.497   3.433   2.666
    1C        C  702   2.505   3.507   2.786
    1C        C  703   2.526   3.298   2.912
    1C        C  704   2.503   3.437   2.909
    1C        C  705   2.543   3.232   3.035
    1C        C  706   2.530   3.305   3.156
    1C        C  707   2.592   3.105   3.281
    1C        C  708   2.545   3.238   3.279
    1C        C  709   2.629   3.044   3.403
    1C        C  710   2.602   3.112   3.524
    1C        C  711   2.718   2.939   3.648
    1C        C  712   2.631   3.051   3.648
    1C        C  713   2.756   2.880   3.770
    1C        C  714   2.710   2.935   3.892
    1C        C  715   2.757   2.880   4.013
    1C        C  716   2.449   3.501   2.064
    1C        C  717   2.488   3.635   2.059
    1C        C  718   2.460   3.423   2.183
    1C        C  719   2.481   3.496   2.303
    1C        C  720   2.510   3.291   2.426
    1C        C  721   2.481   3.429   2.427
    1C        C  722   2.537   3.223   2.547
    1C        C  723   2.520   3.294   2.668
    1C        C  724   2.590   3.094   2.790
    1C        C  725   2.539   3.226   2.791
    1C        C  726   2.621   3.035   2.915
    1C        C  727   2.592   3.100   3.037
    1C        C  728   2.706   2.923   3.159
    1C        C  729   2.623   3.038   3.160
    1C        C  730   2.756   2.875   3.282
    1C        C  731   2.713   2.931   3.404
    1C        C  732   2.759   2.880   3.527
    1C        C  733   2.486   3.198   2.074
    1C        C  734   2.487   3.282   2.187
    1C        C  735   2.575   3.083   2.304
    1C        C  736   2.519   3.214   2.307
    1C        C  737   2.610   3.020   2.426
    1C        C  738   2.590   3.092   2.546
    1C        C  739   2.698   2.911   2.667
    1C        C  740   2.620   3.029   2.669
    1C        C  741   2.744   2.863   2.792
    1C        C  742   2.703   2.920   2.914
    1C        C  743   2.751   2.869   3.037
    1C        C  744   2.535   3.068   2.074
    1C        C  745   2.680   2.896   2.187
    1C        C  746   2.602   3.014   2.184
    1C        C  747   2.728   2.839   2.307
    1C        C  748   2.682   2.899   2.426
    1C        C  749   2.735   2.848   2.547
    1C        C  750   2.737   2.844   2.070
    1C        C  751   3.670   2.303   1.999
    1C        O  752   3.645   2.189   2.044
    1C        O  753   3.652   2.322   1.861
    1C        C  754   4.618   3.057   1.967
    1C        O  755   4.592   3.045   1.844
    1C        O  756   4.758   3.067   1.973
    1C        C  757   4.446   4.223   1.967
    1C        O  758   4.549   4.282   2.009
    1C        O  759   4.433   4.211   1.828
    1C        C  760   3.587   4.664   1.942
    1C        O  761   3.645   4.776   1.945
    1C        O  762   3.534   4.638   1.815
    1C        C  763   2.887   4.498   1.951
    1C        O  764   2.904   4.486   1.827
    1C        O  765   2.801   4.602   1.988
    1C        C  766   2.351   3.466   1.959
    1C        O  767   2.380   3.450   1.837
    1C        O  768   2.214   3.445   1.979
    1C        C  769   4.649   3.583   5.088
    1C        O  770   4.583   3.579   5.195
    1C        O  771   4.788   3.562   5.094
    1C        C  772   4.283   4.451   5.025
    1C        O  773   4.273   4.443   5.150
    1C        O  774   4.341   4.571   4.982
    1C        C  775   4.147   2.496   5.047
    1C        O  776   4.232   2.415   5.002
    1C        O  777   4.162   2.507   5.186
    1C        C  778   2.903   4.523   5.077
    1C        O  779   2.844   4.633   5.054
    1C        O  780   2.956   4.495   5.203
    1C        C  781   2.495   3.035   5.086
    1C        O  782   2.369   3.030   5.089
    1C        O  783   2.539   3.033   5.218
    1C        C  784   2.421   3.993   5.058
    1C        O  785   2.312   4.039   5.016
    1C        O  786   2.456   4.030   5.188
    1C        C  787   2.954   2.417   2.010
    1C        O  788   2.923   2.436   1.890
    1C        O  789   2.858   2.348   2.084
    1C        C  790   3.177   2.371   5.058
    1C        O  791   3.134   2.264   5.008
    1C        O  792   3.196   2.368   5.197
    1C        H  793   4.250   3.037   5.046
    1C        H  794   4.235   2.780   5.066
    1C        H  795   4.524   3.123   5.048
    1C        H  796   4.519   3.366   5.070
    1C        H  797   4.580   3.821   5.041
    1C        H  798   4.395   3.967   5.059
    1C        H  799   4.284   4.167   5.057
    1C        H  800   4.031   4.533   5.029
    1C        H  801   3.809   4.544   5.042
    1C        H  802   3.588   4.632   5.040
    1C        H  803   3.392   4.539   5.049
    1C        H  804   3.159   4.516   5.053
    1C        H  805   3.899   2.462   5.056
    1C        H  806   3.677   2.439   5.066
    1C        H  807   3.013   2.579   5.068
    1C        H  808   3.444   2.500   5.077
    1C        H  809   2.907   2.791   5.069
    1C        H  810   2.677   2.872   5.067
    1C        H  811   2.489   3.291   5.068
    1C        H  812   2.530   3.505   5.079
    1C        H  813   2.504   3.735   5.068
    1C        H  814   2.586   4.182   5.046
    1C        H  815   2.793   4.282   5.054
    1C        H  816   2.771   2.913   1.996
    1C        H  817   2.822   2.677   1.978
    1C        H  818   3.221   2.473   1.982
    1C        H  819   3.438   2.457   1.979
    1C        H  820   3.874   2.490   1.973
    1C        H  821   4.081   2.588   1.974
    1C        H  822   4.228   2.741   1.968
    1C        H  823   4.406   2.899   1.973
    1C        H  824   4.570   3.310   1.968
    1C        H  825   4.453   3.514   1.978
    1C        H  826   4.530   3.749   1.961
    1C        H  827   3.816   4.576   1.996
    1C        H  828   3.955   4.360   1.945
    1C        H  829   4.174   4.283   1.948
    1C        H  830   4.494   3.967   1.961
    1C        H  831   2.626   3.844   1.961
    1C        H  832   2.754   4.037   1.984
    1C        H  833   2.731   4.281   1.963
    1C        H  834   3.381   4.416   1.975
    1C        H  835   3.142   4.472   1.952
    1C        H  836   2.514   3.007   1.988
    1C        H  837   2.428   3.229   1.990
    1C        H  838   2.506   3.680   1.963
    2V3OU   H29  839   2.800   3.551   5.378
    2V3OU   C27  840   2.784   3.502   5.477
    2V3OU   H27  841   2.728   3.565   5.551
    2V3OU   H28  842   2.727   3.405   5.473
    2V3OU   O11  843   2.909   3.475   5.540
    2V3OU   C15  844   2.920   3.395   5.652
    2V3OU   C13  845   3.051   3.377   5.700
    2V3OU   C14  846   3.076   3.268   5.786
    2V3OU   C16  847   2.970   3.190   5.829
    2V3OU    H6  848   2.993   3.107   5.897
    2V3OU   C12  849   3.215   3.229   5.817
    2V3OU    O2  850   3.239   3.132   5.891
    2V3OU   C10  851   3.326   3.312   5.768
    2V3OU    C8  852   3.458   3.270   5.780
    2V3OU   O10  853   3.498   3.150   5.831
    2V3OU   H26  854   3.410   3.118   5.855
    2V3OU    C6  855   3.564   3.351   5.727
    2V3OU    C5  856   3.540   3.470   5.660
    2V3OU    C4  857   3.703   3.300   5.712
    2V3OU    H4  858   3.724   3.228   5.797
    2V3OU    H5  859   3.711   3.235   5.620
    2V3OU    C2  860   3.817   3.402   5.713
    2V3OU    O6  861   3.813   3.477   5.835
    2V3OU   H21  862   3.761   3.556   5.814
    2V3OU    C3  863   3.777   3.494   5.597
    2V3OU    H2  864   3.856   3.572   5.592
    2V3OU    H3  865   3.775   3.440   5.499
    2V3OU   C25  866   3.954   3.335   5.699
    2V3OU    O7  867   4.001   3.297   5.591
    2V3OU   C26  868   4.031   3.293   5.823
    2V3OU   H22  869   4.066   3.385   5.876
    2V3OU   H23  870   4.122   3.233   5.793
    2V3OU    O8  871   3.959   3.205   5.906
    2V3OU   H24  872   3.926   3.260   5.979
    2V3OU    C1  873   3.646   3.568   5.620
    2V3OU    H1  874   3.618   3.620   5.523
    2V3OU    O3  875   3.662   3.654   5.733
    2V3OU   C19  876   3.619   3.791   5.730
    2V3OU    H9  877   3.525   3.796   5.667
    2V3OU    O4  878   3.715   3.851   5.646
    2V3OU   C20  879   3.843   3.880   5.702
    2V3OU   H10  880   3.893   3.782   5.730
    2V3OU   C24  881   3.614   3.859   5.867
    2V3OU   H16  882   3.546   3.797   5.931
    2V3OU   H17  883   3.571   3.960   5.845
    2V3OU   C23  884   3.753   3.873   5.930
    2V3OU   H15  885   3.795   3.770   5.952
    2V3OU    N1  886   3.742   3.949   6.054
    2V3OU   H19  887   3.814   3.928   6.119
    2V3OU   H20  888   3.651   3.929   6.091
    2V3OU   C21  889   3.850   3.951   5.837
    2V3OU   H11  890   3.951   3.930   5.884
    2V3OU    O5  891   3.830   4.091   5.850
    2V3OU   H18  892   3.784   4.105   5.934
    2V3OU   C22  893   3.911   3.951   5.587
    2V3OU   H12  894   3.862   4.049   5.566
    2V3OU   H13  895   3.906   3.888   5.494
    2V3OU   H14  896   4.021   3.961   5.609
    2V3OU   C11  897   3.161   3.471   5.676
    2V3OU    O1  898   3.137   3.590   5.644
    2V3OU    C9  899   3.302   3.427   5.688
    2V3OU    C7  900   3.403   3.504   5.633
    2V3OU    O9  901   3.388   3.623   5.563
    2V3OU   H25  902   3.292   3.629   5.551
    2V3OU   C17  903   2.817   3.310   5.696
    2V3OU    H7  904   2.717   3.343   5.666
    2V3OU   C18  905   2.838   3.209   5.790
    2V3OU    H8  906   2.760   3.152   5.842
    3SOL     OW  907   3.802   2.916   3.760
    3SOL    HW1  908   3.794   2.844   3.830
    3SOL    HW2  909   3.787   2.877   3.670
    4SOL     OW  910   6.380   6.159   0.740
    4SOL    HW1  911   6.435   6.191   0.663
    4SOL    HW2  912   6.289   6.132   0.707
    5SOL     OW  913   5.099   1.667   0.689
    5SOL    HW1  914   5.163   1.660   0.612
    5SOL    HW2  915   5.149   1.652   0.775
    6SOL     OW  916   5.356   1.515   2.884
    6SOL    HW1  917   5.312   1.480   2.802
    6SOL    HW2  918   5.287   1.554   2.945
    7SOL     OW  919   1.974   4.044   4.089
    7SOL    HW1  920   1.892   3.989   4.072
    7SOL    HW2  921   2.001   4.034   4.185
    8SOL     OW  922   0.800   3.244   4.791
    8SOL    HW1  923   0.862   3.173   4.826
    8SOL    HW2  924   0.853   3.327   4.772
    9SOL     OW  925   6.792   0.917   6.839
    9SOL    HW1  926   6.846   0.916   6.755
    9SOL    HW2  927   6.703   0.874   6.823
   10SOL     OW  928   5.421   4.458   1.685
   10SOL    HW1  929   5.472   4.512   1.619
   10SOL    HW2  930   5.380   4.519   1.753
   11SOL     OW  931   2.214   2.362   0.216
   11SOL    HW1  932   2.158   2.290   0.258
   11SOL    HW2  933   2.288   2.386   0.279
   12SOL     OW  934   3.780   5.287   2.681
   12SOL    HW1  935   3.838   5.339   2.743
   12SOL    HW2  936   3.781   5.190   2.706
   13SOL     OW  937   5.897   6.229   1.339
   13SOL    HW1  938   5.938   6.306   1.290
   13SOL    HW2  939   5.864   6.260   1.428
   14SOL     OW  940   4.444   6.229   5.825
   14SOL    HW1  941   4.470   6.153   5.765
   14SOL    HW2  942   4.507   6.233   5.902
   15SOL     OW  943   0.705   6.382   5.833
   15SOL    HW1  944   0.692   6.455   5.900
   15SOL    HW2  945   0.731   6.422   5.745
   16SOL     OW  946   2.193   4.614   4.793
   16SOL    HW1  947   2.129   4.690   4.802
   16SOL    HW2  948   2.285   4.646   4.816
   17SOL     OW  949   6.116   1.013   5.756
   17SOL    HW1  950   6.166   0.986   5.839
   17SOL    HW2  951   6.070   1.100   5.773
   18SOL     OW  952   3.092   1.077   5.916
   18SOL    HW1  953   3.062   1.172   5.928
   18SOL    HW2  954   3.030   1.029   5.854
   19SOL     OW  955   2.646   6.806   2.814
   19SOL    HW1  956   2.592   6.791   2.731
   19SOL    HW2  957   2.696   6.892   2.806
   20SOL     OW  958   6.369   1.619   4.871
   20SOL    HW1  959   6.269   1.618   4.881
   20SOL    HW2  960   6.402   1.525   4.860
   21SOL     OW  961   2.426   4.343   2.727
   21SOL    HW1  962   2.358   4.290   2.677
   21SOL    HW2  963   2.485   4.391   2.662
   22SOL     OW  964   1.319   0.570   6.731
   22SOL    HW1  965   1.327   0.608   6.824
   22SOL    HW2  966   1.357   0.477   6.730
   23SOL     OW  967   5.529   4.886   1.281
   23SOL    HW1  968   5.473   4.947   1.225
   23SOL    HW2  969   5.607   4.938   1.319
   24SOL     OW  970   4.374   1.192   0.720
   24SOL    HW1  971   4.316   1.214   0.799
   24SOL    HW2  972   4.470   1.201   0.745
   25SOL     OW  973   1.752   0.568   4.622
   25SOL    HW1  974   1.821   0.635   4.596
   25SOL    HW2  975   1.730   0.579   4.719
   26SOL     OW  976   0.541   2.518   6.719
   26SOL    HW1  977   0.584   2.428   6.704
   26SOL    HW2  978   0.443   2.511   6.703
   27SOL     OW  979   6.389   0.574   1.988
   27SOL    HW1  980   6.458   0.525   2.040
   27SOL    HW2  981   6.313   0.512   1.966
   28SOL     OW  982   2.477   0.563   5.231
   28SOL    HW1  983   2.563   0.529   5.267
   28SOL    HW2  984   2.494   0.645   5.176
   29SOL     OW  985   6.996   6.941   0.980
   29SOL    HW1  986   0.018   6.971   1.063
   29SOL    HW2  987   0.032   6.882   0.927
   30SOL     OW  988   4.796   0.465   5.224
   30SOL    HW1  989   4.702   0.451   5.196
   30SOL    HW2  990   4.826   0.390   5.283
   31SOL     OW  991   0.742   3.643   5.198
   31SOL    HW1  992   0.793   3.621   5.282
   31SOL    HW2  993   0.650   3.605   5.205
   32SOL     OW  994   3.727   0.533   1.074
   32SOL    HW1  995   3.735   0.626   1.037
   32SOL    HW2  996   3.803   0.515   1.135
   33SOL     OW  997   1.901   5.496   6.340
   33SOL    HW1  998   1.974   5.469   6.276
   33SOL    HW2  999   1.835   5.555   6.292
   34SOL     OW 1000   3.028   5.332   5.259
   34SOL    HW1 1001   3.000   5.236   5.261
   34SOL    HW2 1002   3.050   5.359   5.165
   35SOL     OW 1003   1.836   3.567   6.837
   35SOL    HW1 1004   1.839   3.501   6.913
   35SOL    HW2 1005   1.748   3.613   6.836
   36SOL     OW 1006   4.168   1.505   3.454
   36SOL    HW1 1007   4.222   1.442   3.399
   36SOL    HW2 1008   4.219   1.528   3.537
   37SOL     OW 1009   2.285   0.187   4.103
   37SOL    HW1 1010   2.315   0.119   4.035
   37SOL    HW2 1011   2.336   0.174   4.188
   38SOL     OW 1012   1.062   3.636   2.807
   38SOL    HW1 1013   1.134   3.705   2.796
   38SOL    HW2 1014   1.081   3.558   2.747
   39SOL     OW 1015   6.614   3.940   0.900
   39SOL    HW1 1016   6.637   4.019   0.843
   39SOL    HW2 1017   6.528   3.957   0.948
   40SOL     OW 1018   4.454   1.777   1.105
   40SOL    HW1 1019   4.446   1.835   1.023
   40SOL    HW2 1020   4.459   1.835   1.186
   41SOL     OW 1021   5.113   4.317   1.735
   41SOL    HW1 1022   5.079   4.241   1.792
   41SOL    HW2 1023   5.116   4.287   1.640
   42SOL     OW 1024   2.248   4.602   0.037
   42SOL    HW1 1025   2.296   4.626   6.977
   42SOL    HW2 1026   2.275   4.664   0.111
   43SOL     OW 1027   4.333   0.173   4.541
   43SOL    HW1 1028   4.277   0.247   4.503
   43SOL    HW2 1029   4.421   0.209   4.571
   44SOL     OW 1030   6.325   1.096   5.539
   44SOL    HW1 1031   6.369   1.162   5.600
   44SOL    HW2 1032   6.249   1.052   5.587
   45SOL     OW 1033   2.412   4.851   5.996
   45SOL    HW1 1034   2.368   4.941   5.993
   45SOL    HW2 1035   2.430   4.826   6.091
   46SOL     OW 1036   1.183   3.314   4.629
   46SOL    HW1 1037   1.143   3.282   4.543
   46SOL    HW2 1038   1.283   3.307   4.624
   47SOL     OW 1039   6.111   4.065   0.557
   47SOL    HW1 1040   6.144   4.137   0.496
   47SOL    HW2 1041   6.130   4.090   0.652
   48SOL     OW 1042   6.087   3.175   0.447
   48SOL    HW1 1043   6.115   3.268   0.473
   48SOL    HW2 1044   6.168   3.116   0.442
   49SOL     OW 1045   3.018   3.577   6.890
   49SOL    HW1 1046   3.042   3.667   6.925
   49SOL    HW2 1047   2.931   3.547   6.931
   50SOL     OW 1048   5.955   2.424   0.351
   50SOL    HW1 1049   5.888   2.413   0.278
   50SOL    HW2 1050   5.923   2.493   0.416
   51SOL     OW 1051   1.384   5.311   2.432
   51SOL    HW1 1052   1.421   5.239   2.490
   51SOL    HW2 1053   1.340   5.381   2.490
   52SOL     OW 1054   5.639   2.867   1.853
   52SOL    HW1 1055   5.588   2.860   1.939
   52SOL    HW2 1056   5.597   2.808   1.784
   53SOL     OW 1057   3.671   0.757   2.060
   53SOL    HW1 1058   3.615   0.754   2.142
   53SOL    HW2 1059   3.761   0.717   2.079
   54SOL     OW 1060   5.344   0.420   6.378
   54SOL    HW1 1061   5.358   0.321   6.382
   54SOL    HW2 1062   5.342   0.450   6.283
   55SOL     OW 1063   1.403   3.725   6.411
   55SOL    HW1 1064   1.471   3.736   6.338
   55SOL    HW2 1065   1.329   3.791   6.398
   56SOL     OW 1066   0.756   2.343   6.885
   56SOL    HW1 1067   0.771   2.442   6.880
   56SOL    HW2 1068   0.751   2.306   6.792
   57SOL     OW 1069   4.184   6.582   0.792
   57SOL    HW1 1070   4.203   6.537   0.705
   57SOL    HW2 1071   4.241   6.541   0.863
   58SOL     OW 1072   1.249   0.256   0.228
   58SOL    HW1 1073   1.224   0.209   0.313
   58SOL    HW2 1074   1.233   0.195   0.151
   59SOL     OW 1075   4.555   3.042   5.352
   59SOL    HW1 1076   4.553   3.012   5.448
   59SOL    HW2 1077   4.513   3.132   5.345
   60SOL     OW 1078   5.865   2.275   1.756
   60SOL    HW1 1079   5.870   2.228   1.668
   60SOL    HW2 1080   5.802   2.352   1.749
   61SOL     OW 1081   1.445   5.901   4.586
   61SOL    HW1 1082   1.541   5.885   4.609
   61SOL    HW2 1083   1.414   5.829   4.524
   62SOL     OW 1084   6.030   3.480   2.868
   62SOL    HW1 1085   5.949   3.429   2.897
   62SOL    HW2 1086   6.096   3.482   2.943
   63SOL     OW 1087   4.055   0.537   6.014
   63SOL    HW1 1088   3.964   0.558   5.978
   63SOL    HW2 1089   4.045   0.489   6.102
   64SOL     OW 1090   1.128   3.562   5.251
   64SOL    HW1 1091   1.067   3.554   5.330
   64SOL    HW2 1092   1.217   3.523   5.274
   65SOL     OW 1093   0.848   5.518   4.621
   65SOL    HW1 1094   0.811   5.524   4.713
   65SOL    HW2 1095   0.773   5.517   4.555
   66SOL     OW 1096   3.801   1.244   2.083
   66SOL    HW1 1097   3.817   1.146   2.078
   66SOL    HW2 1098   3.716   1.262   2.132
   67SOL     OW 1099   6.950   3.414   1.296
   67SOL    HW1 1100   6.901   3.438   1.213
   67SOL    HW2 1101   6.915   3.328   1.333
   68SOL     OW 1102   6.939   1.465   6.326
   68SOL    HW1 1103   6.889   1.395   6.376
   68SOL    HW2 1104   6.875   1.526   6.280
   69SOL     OW 1105   1.371   6.133   6.610
   69SOL    HW1 1106   1.370   6.108   6.707
   69SOL    HW2 1107   1.449   6.193   6.592
   70SOL     OW 1108   5.454   3.750   3.639
   70SOL    HW1 1109   5.485   3.655   3.633
   70SOL    HW2 1110   5.442   3.786   3.546
   71SOL     OW 1111   5.312   2.061   3.815
   71SOL    HW1 1112   5.375   2.076   3.891
   71SOL    HW2 1113   5.334   2.123   3.740
   72SOL     OW 1114   0.632   1.134   3.005
   72SOL    HW1 1115   0.639   1.234   2.995
   72SOL    HW2 1116   0.599   1.094   2.919
   73SOL     OW 1117   3.251   0.379   0.408
   73SOL    HW1 1118   3.298   0.291   0.395
   73SOL    HW2 1119   3.228   0.389   0.505
   74SOL     OW 1120   2.498   2.027   0.576
   74SOL    HW1 1121   2.591   2.002   0.605
   74SOL    HW2 1122   2.456   2.085   0.647
   75SOL     OW 1123   2.726   3.215   0.441
   75SOL    HW1 1124   2.674   3.264   0.372
   75SOL    HW2 1125   2.692   3.122   0.449
   76SOL     OW 1126   3.647   5.038   5.704
   76SOL    HW1 1127   3.559   5.037   5.751
   76SOL    HW2 1128   3.691   5.127   5.716
   77SOL     OW 1129   0.892   5.374   4.287
   77SOL    HW1 1130   0.834   5.298   4.313
   77SOL    HW2 1131   0.985   5.357   4.319
   78SOL     OW 1132   4.791   1.771   1.485
   78SOL    HW1 1133   4.862   1.783   1.556
   78SOL    HW2 1134   4.755   1.860   1.459
   79SOL     OW 1135   1.412   4.718   3.112
   79SOL    HW1 1136   1.340   4.674   3.058
   79SOL    HW2 1137   1.399   4.698   3.209
   80SOL     OW 1138   3.636   1.371   4.818
   80SOL    HW1 1139   3.629   1.378   4.917
   80SOL    HW2 1140   3.659   1.277   4.792
   81SOL     OW 1141   4.379   5.037   1.496
   81SOL    HW1 1142   4.437   4.972   1.545
   81SOL    HW2 1143   4.378   5.124   1.545
   82SOL     OW 1144   2.580   5.878   2.414
   82SOL    HW1 1145   2.482   5.878   2.436
   82SOL    HW2 1146   2.596   5.822   2.333
   83SOL     OW 1147   5.145   1.388   4.062
   83SOL    HW1 1148   5.189   1.476   4.080
   83SOL    HW2 1149   5.205   1.314   4.089
   84SOL     OW 1150   5.659   3.024   2.227
   84SOL    HW1 1151   5.645   3.121   2.208
   84SOL    HW2 1152   5.669   3.010   2.325
   85SOL     OW 1153   2.571   6.733   4.155
   85SOL    HW1 1154   2.645   6.668   4.173
   85SOL    HW2 1155   2.518   6.748   4.238
   86SOL     OW 1156   5.628   6.886   0.076
   86SOL    HW1 1157   5.561   6.846   0.139
   86SOL    HW2 1158   5.580   6.932   0.001
   87SOL     OW 1159   2.097   3.970   6.292
   87SOL    HW1 1160   2.168   4.021   6.244
   87SOL    HW2 1161   2.030   4.034   6.330
   88SOL     OW 1162   3.250   3.486   1.264
   88SOL    HW1 1163   3.186   3.533   1.203
   88SOL    HW2 1164   3.258   3.537   1.349
   89SOL     OW 1165   3.167   3.498   3.659
   89SOL    HW1 1166   3.233   3.534   3.593
   89SOL    HW2 1167   3.212   3.487   3.748
   90SOL     OW 1168   5.330   3.765   1.595
   90SOL    HW1 1169   5.279   3.839   1.551
   90SOL    HW2 1170   5.289   3.744   1.683
   91SOL     OW 1171   4.734   5.499   5.649
   91SOL    HW1 1172   4.773   5.425   5.595
   91SOL    HW2 1173   4.719   5.579   5.590
   92SOL     OW 1174   4.959   4.028   0.008
   92SOL    HW1 1175   4.879   4.086   7.018
   92SOL    HW2 1176   4.970   3.968   6.954
   93SOL     OW 1177   2.829   3.429   2.085
   93SOL    HW1 1178   2.744   3.432   2.138
   93SOL    HW2 1179   2.819   3.363   2.011
   94SOL     OW 1180   2.926   2.082   4.396
   94SOL    HW1 1181   2.960   2.035   4.477
   94SOL    HW2 1182   2.866   2.021   4.344
   95SOL     OW 1183   0.221   0.005   3.827
   95SOL    HW1 1184   0.240   0.041   3.918
   95SOL    HW2 1185   0.123   7.020   3.814
   96SOL     OW 1186   6.980   5.096   6.963
   96SOL    HW1 1187   6.911   5.161   6.929
   96SOL    HW2 1188   6.981   5.015   6.904
   97SOL     OW 1189   2.298   4.315   5.471
   97SOL    HW1 1190   2.286   4.383   5.544
   97SOL    HW2 1191   2.394   4.287   5.467
   98SOL     OW 1192   1.197   2.012   3.535
   98SOL    HW1 1193   1.105   2.051   3.528
   98SOL    HW2 1194   1.253   2.070   3.595
   99SOL     OW 1195   3.251   3.937   5.007
   99SOL    HW1 1196   3.309   3.888   4.942
   99SOL    HW2 1197   3.170   3.971   4.959
  100SOL     OW 1198   0.199   0.629   4.805
  100SOL    HW1 1199   0.135   0.638   4.881
  100SOL    HW2 1200   0.279   0.687   4.822
  101SOL     OW 1201   5.771   4.170   2.308
  101SOL    HW1 1202   5.845   4.107   2.282
  101SOL    HW2 1203   5.683   4.124   2.299
  102SOL     OW 1204   4.299   0.598   0.054
  102SOL    HW1 1205   4.275   0.654   0.133
  102SOL    HW2 1206   4.218   0.550   0.021
  103SOL     OW 1207   1.803   1.343   1.940
  103SOL    HW1 1208   1.877   1.278   1.925
  103SOL    HW2 1209   1.760   1.367   1.853
  104SOL     OW 1210   6.273   4.867   2.100
  104SOL    HW1 1211   6.255   4.836   2.006
  104SOL    HW2 1212   6.192   4.915   2.135
  105SOL     OW 1213   6.815   0.899   5.868
  105SOL    HW1 1214   6.771   0.984   5.841
  105SOL    HW2 1215   6.912   0.916   5.886
  106SOL     OW 1216   4.407   3.240   1.233
  106SOL    HW1 1217   4.481   3.217   1.170
  106SOL    HW2 1218   4.445   3.286   1.313
  107SOL     OW 1219   5.603   0.303   1.778
  107SOL    HW1 1220   5.576   0.316   1.873
  107SOL    HW2 1221   5.689   0.351   1.761
  108SOL     OW 1222   2.663   1.305   4.297
  108SOL    HW1 1223   2.638   1.298   4.394
  108SOL    HW2 1224   2.581   1.315   4.242
  109SOL     OW 1225   1.710   1.306   4.540
  109SOL    HW1 1226   1.675   1.309   4.447
  109SOL    HW2 1227   1.651   1.359   4.601
  110SOL     OW 1228   3.190   4.189   5.556
  110SOL    HW1 1229   3.190   4.101   5.510
  110SOL    HW2 1230   3.181   4.263   5.489
  111SOL     OW 1231   6.047   2.737   0.479
  111SOL    HW1 1232   5.954   2.710   0.455
  111SOL    HW2 1233   6.045   2.794   0.561
  112SOL     OW 1234   5.248   6.742   6.617
  112SOL    HW1 1235   5.295   6.760   6.704
  112SOL    HW2 1236   5.314   6.745   6.542
  113SOL     OW 1237   0.200   5.346   2.420
  113SOL    HW1 1238   0.193   5.440   2.385
  113SOL    HW2 1239   0.244   5.348   2.510
  114SOL     OW 1240   0.122   2.257   1.961
  114SOL    HW1 1241   0.117   2.282   1.865
  114SOL    HW2 1242   0.215   2.275   1.995
  115SOL     OW 1243   5.513   0.017   3.677
  115SOL    HW1 1244   5.590   7.009   3.621
  115SOL    HW2 1245   5.427   7.024   3.629
  116SOL     OW 1246   0.424   5.008   0.358
  116SOL    HW1 1247   0.488   5.080   0.383
  116SOL    HW2 1248   0.420   4.940   0.431
  117SOL     OW 1249   2.333   3.031   6.930
  117SOL    HW1 1250   2.322   3.113   6.986
  117SOL    HW2 1251   2.297   2.952   6.980
  118SOL     OW 1252   0.851   2.321   2.470
  118SOL    HW1 1253   0.882   2.229   2.447
  118SOL    HW2 1254   0.768   2.343   2.419
  119SOL     OW 1255   6.214   6.583   5.252
  119SOL    HW1 1256   6.197   6.535   5.338
  119SOL    HW2 1257   6.138   6.645   5.233
  120SOL     OW 1258   5.102   1.649   4.478
  120SOL    HW1 1259   5.197   1.678   4.489
  120SOL    HW2 1260   5.070   1.675   4.387
  121SOL     OW 1261   0.649   5.201   7.001
  121SOL    HW1 1262   0.620   5.121   0.028
  121SOL    HW2 1263   0.689   5.173   6.914
  122SOL     OW 1264   6.694   4.698   6.252
  122SOL    HW1 1265   6.680   4.600   6.235
  122SOL    HW2 1266   6.791   4.714   6.272
  123SOL     OW 1267   0.583   2.454   1.434
  123SOL    HW1 1268   0.483   2.462   1.433
  123SOL    HW2 1269   0.624   2.545   1.432
  124SOL     OW 1270   1.386   2.825   6.849
  124SOL    HW1 1271   1.327   2.800   6.925
  124SOL    HW2 1272   1.433   2.744   6.814
  125SOL     OW 1273   4.550   3.000   0.626
  125SOL    HW1 1274   4.505   2.931   0.681
  125SOL    HW2 1275   4.607   2.956   0.556
  126SOL     OW 1276   3.682   2.916   4.505
  126SOL    HW1 1277   3.603   2.912   4.443
  126SOL    HW2 1278   3.765   2.933   4.452
  127SOL     OW 1279   0.364   5.729   5.769
  127SOL    HW1 1280   0.328   5.668   5.840
  127SOL    HW2 1281   0.336   5.823   5.789
  128SOL     OW 1282   4.860   3.845   6.715
  128SOL    HW1 1283   4.814   3.757   6.724
  128SOL    HW2 1284   4.944   3.845   6.769
  129SOL     OW 1285   1.048   5.296   2.564
  129SOL    HW1 1286   1.061   5.203   2.598
  129SOL    HW2 1287   1.125   5.353   2.593
  130SOL     OW 1288   6.180   3.120   4.023
  130SOL    HW1 1289   6.084   3.122   3.997
  130SOL    HW2 1290   6.189   3.148   4.119
  131SOL     OW 1291   0.474   2.262   3.173
  131SOL    HW1 1292   0.502   2.320   3.249
  131SOL    HW2 1293   0.549   2.200   3.148
  132SOL     OW 1294   3.172   2.850   1.074
  132SOL    HW1 1295   3.177   2.921   1.003
  132SOL    HW2 1296   3.189   2.891   1.163
  133SOL     OW 1297   5.951   6.306   6.334
  133SOL    HW1 1298   5.977   6.326   6.429
  133SOL    HW2 1299   5.939   6.392   6.284
  134SOL     OW 1300   5.680   1.600   1.276
  134SOL    HW1 1301   5.738   1.592   1.195
  134SOL    HW2 1302   5.680   1.695   1.308
  135SOL     OW 1303   5.016   3.707   3.796
  135SOL    HW1 1304   5.093   3.762   3.828
  135SOL    HW2 1305   5.024   3.614   3.832
  136SOL     OW 1306   3.313   0.630   6.507
  136SOL    HW1 1307   3.239   0.666   6.449
  136SOL    HW2 1308   3.384   0.591   6.449
  137SOL     OW 1309   2.740   3.786   6.290
  137SOL    HW1 1310   2.641   3.781   6.306
  137SOL    HW2 1311   2.775   3.874   6.321
  138SOL     OW 1312   1.359   5.043   6.501
  138SOL    HW1 1313   1.427   5.039   6.427
  138SOL    HW2 1314   1.269   5.017   6.465
  139SOL     OW 1315   1.276   0.210   0.773
  139SOL    HW1 1316   1.332   0.226   0.855
  139SOL    HW2 1317   1.288   0.287   0.710
  140SOL     OW 1318   3.842   0.404   1.492
  140SOL    HW1 1319   3.800   0.482   1.445
  140SOL    HW2 1320   3.807   0.319   1.454
  141SOL     OW 1321   0.515   2.957   0.518
  141SOL    HW1 1322   0.533   2.982   0.613
  141SOL    HW2 1323   0.561   3.021   0.457
  142SOL     OW 1324   2.016   3.453   0.867
  142SOL    HW1 1325   2.036   3.427   0.962
  142SOL    HW2 1326   1.921   3.432   0.845
  143SOL     OW 1327   4.536   6.554   2.401
  143SOL    HW1 1328   4.600   6.609   2.456
  143SOL    HW2 1329   4.513   6.471   2.451
  144SOL     OW 1330   3.125   5.575   3.396
  144SOL    HW1 1331   3.150   5.555   3.491
  144SOL    HW2 1332   3.207   5.598   3.344
  145SOL     OW 1333   6.919   4.541   3.728
  145SOL    HW1 1334   6.903   4.583   3.638
  145SOL    HW2 1335   6.987   4.468   3.719
  146SOL     OW 1336   4.632   1.074   6.168
  146SOL    HW1 1337   4.692   1.055   6.246
  146SOL    HW2 1338   4.570   0.997   6.155
  147SOL     OW 1339   4.811   0.768   5.014
  147SOL    HW1 1340   4.806   0.709   5.094
  147SOL    HW2 1341   4.727   0.822   5.008
  148SOL     OW 1342   1.772   5.784   1.459
  148SOL    HW1 1343   1.773   5.842   1.377
  148SOL    HW2 1344   1.861   5.789   1.505
  149SOL     OW 1345   2.053   2.379   4.838
  149SOL    HW1 1346   2.036   2.395   4.740
  149SOL    HW2 1347   2.143   2.415   4.863
  150SOL     OW 1348   4.117   1.785   4.905
  150SOL    HW1 1349   4.187   1.717   4.928
  150SOL    HW2 1350   4.149   1.842   4.830
  151SOL     OW 1351   4.592   2.707   0.968
  151SOL    HW1 1352   4.532   2.635   1.003
  151SOL    HW2 1353   4.595   2.782   1.034
  152SOL     OW 1354   0.229   2.394   1.055
  152SOL    HW1 1355   0.150   2.449   1.083
  152SOL    HW2 1356   0.268   2.349   1.135
  153SOL     OW 1357   2.306   1.098   3.620
  153SOL    HW1 1358   2.240   1.162   3.581
  153SOL    HW2 1359   2.258   1.019   3.657
  154SOL     OW 1360   6.480   2.416   2.568
  154SOL    HW1 1361   6.518   2.334   2.525
  154SOL    HW2 1362   6.462   2.485   2.498
  155SOL     OW 1363   6.936   5.595   2.824
  155SOL    HW1 1364   6.958   5.646   2.741
  155SOL    HW2 1365   6.927   5.659   2.901
  156SOL     OW 1366   5.184   3.046   0.250
  156SOL    HW1 1367   5.279   3.077   0.249
  156SOL    HW2 1368   5.130   3.105   0.309
  157SOL     OW 1369   5.019   6.049   0.901
  157SOL    HW1 1370   5.016   6.144   0.930
  157SOL    HW2 1371   5.001   5.989   0.979
  158SOL     OW 1372   0.731   2.638   3.757
  158SOL    HW1 1373   0.764   2.647   3.851
  158SOL    HW2 1374   0.809   2.637   3.694
  159SOL     OW 1375   6.272   5.815   0.518
  159SOL    HW1 1376   6.234   5.729   0.551
  159SOL    HW2 1377   6.354   5.837   0.570
  160SOL     OW 1378   5.542   0.051   1.670
  160SOL    HW1 1379   5.585   0.137   1.698
  160SOL    HW2 1380   5.444   0.055   1.690
  161SOL     OW 1381   7.021   6.570   1.159
  161SOL    HW1 1382   0.000   6.668   1.179
  161SOL    HW2 1383   0.059   6.549   1.084
  162SOL     OW 1384   4.579   6.723   6.302
  162SOL    HW1 1385   4.514   6.792   6.268
  162SOL    HW2 1386   4.668   6.738   6.260
  163SOL     OW 1387   0.861   3.758   2.960
  163SOL    HW1 1388   0.774   3.796   2.930
  163SOL    HW2 1389   0.905   3.711   2.884
  164SOL     OW 1390   2.765   1.835   3.792
  164SOL    HW1 1391   2.704   1.910   3.817
  164SOL    HW2 1392   2.749   1.758   3.854
  165SOL     OW 1393   0.424   6.608   3.722
  165SOL    HW1 1394   0.435   6.512   3.699
  165SOL    HW2 1395   0.481   6.630   3.801
  166SOL     OW 1396   6.812   4.073   3.396
  166SOL    HW1 1397   6.847   4.063   3.489
  166SOL    HW2 1398   6.810   4.170   3.371
  167SOL     OW 1399   2.726   1.823   6.458
  167SOL    HW1 1400   2.703   1.726   6.454
  167SOL    HW2 1401   2.645   1.875   6.485
  168SOL     OW 1402   3.882   3.700   1.400
  168SOL    HW1 1403   3.878   3.688   1.499
  168SOL    HW2 1404   3.974   3.728   1.373
  169SOL     OW 1405   4.699   1.947   1.262
  169SOL    HW1 1406   4.734   2.009   1.333
  169SOL    HW2 1407   4.627   1.890   1.301
  170SOL     OW 1408   6.111   5.668   1.928
  170SOL    HW1 1409   6.046   5.730   1.884
  170SOL    HW2 1410   6.065   5.619   2.002
  171SOL     OW 1411   3.434   3.280   0.804
  171SOL    HW1 1412   3.363   3.274   0.734
  171SOL    HW2 1413   3.480   3.192   0.812
  172SOL     OW 1414   0.799   1.941   6.656
  172SOL    HW1 1415   0.812   1.913   6.751
  172SOL    HW2 1416   0.706   1.974   6.643
  173SOL     OW 1417   6.412   1.180   3.877
  173SOL    HW1 1418   6.481   1.187   3.804
  173SOL    HW2 1419   6.327   1.142   3.839
  174SOL     OW 1420   5.600   4.457   4.515
  174SOL    HW1 1421   5.668   4.521   4.551
  174SOL    HW2 1422   5.593   4.378   4.577
  175SOL     OW 1423   0.314   0.067   2.233
  175SOL    HW1 1424   0.299   0.155   2.188
  175SOL    HW2 1425   0.272   0.068   2.323
  176SOL     OW 1426   5.888   3.990   1.867
  176SOL    HW1 1427   5.893   4.052   1.789
  176SOL    HW2 1428   5.792   3.971   1.887
  177SOL     OW 1429   5.701   2.025   3.831
  177SOL    HW1 1430   5.796   2.054   3.840
  177SOL    HW2 1431   5.683   1.949   3.894
  178SOL     OW 1432   2.892   5.913   5.049
  178SOL    HW1 1433   2.854   5.981   4.987
  178SOL    HW2 1434   2.819   5.854   5.084
  179SOL     OW 1435   3.376   4.211   1.578
  179SOL    HW1 1436   3.396   4.147   1.651
  179SOL    HW2 1437   3.367   4.303   1.615
  180SOL     OW 1438   3.865   1.140   0.213
  180SOL    HW1 1439   3.769   1.145   0.187
  180SOL    HW2 1440   3.877   1.069   0.282
  181SOL     OW 1441   3.039   2.018   5.339
  181SOL    HW1 1442   3.136   2.037   5.353
  181SOL    HW2 1443   2.984   2.083   5.392
  182SOL     OW 1444   3.243   2.685   6.173
  182SOL    HW1 1445   3.320   2.675   6.110
  182SOL    HW2 1446   3.261   2.758   6.238
  183SOL     OW 1447   3.247   0.202   3.462
  183SOL    HW1 1448   3.267   0.299   3.451
  183SOL    HW2 1449   3.234   0.160   3.373
  184SOL     OW 1450   4.976   5.853   3.944
  184SOL    HW1 1451   4.971   5.785   3.871
  184SOL    HW2 1452   4.907   5.923   3.929
  185SOL     OW 1453   0.007   0.457   4.498
  185SOL    HW1 1454   6.947   0.407   4.520
  185SOL    HW2 1455   7.015   0.555   4.507
  186SOL     OW 1456   4.277   6.302   4.808
  186SOL    HW1 1457   4.191   6.294   4.859
  186SOL    HW2 1458   4.351   6.259   4.860
  187SOL     OW 1459   4.237   6.177   1.502
  187SOL    HW1 1460   4.227   6.174   1.602
  187SOL    HW2 1461   4.147   6.166   1.459
  188SOL     OW 1462   1.406   2.999   2.727
  188SOL    HW1 1463   1.432   2.928   2.792
  188SOL    HW2 1464   1.444   2.978   2.637
  189SOL     OW 1465   5.831   5.128   5.831
  189SOL    HW1 1466   5.756   5.189   5.858
  189SOL    HW2 1467   5.916   5.161   5.870
  190SOL     OW 1468   5.571   0.759   0.134
  190SOL    HW1 1469   5.666   0.776   0.160
  190SOL    HW2 1470   5.512   0.778   0.212
  191SOL     OW 1471   0.009   1.205   5.799
  191SOL    HW1 1472   0.043   1.298   5.811
  191SOL    HW2 1473   6.959   1.205   5.733
  192SOL     OW 1474   0.007   5.257   1.215
  192SOL    HW1 1475   0.096   5.258   1.170
  192SOL    HW2 1476   6.979   5.179   1.183
  193SOL     OW 1477   2.648   6.385   0.140
  193SOL    HW1 1478   2.657   6.426   0.049
  193SOL    HW2 1479   2.607   6.294   0.131
  194SOL     OW 1480   4.084   5.924   2.493
  194SOL    HW1 1481   4.077   5.854   2.563
  194SOL    HW2 1482   4.180   5.948   2.479
  195SOL     OW 1483   3.553   1.220   1.420
  195SOL    HW1 1484   3.596   1.225   1.510
  195SOL    HW2 1485   3.511   1.130   1.407
  196SOL     OW 1486   3.104   2.285   0.295
  196SOL    HW1 1487   3.153   2.342   0.229
  196SOL    HW2 1488   3.006   2.299   0.284
  197SOL     OW 1489   1.808   6.501   0.270
  197SOL    HW1 1490   1.747   6.424   0.252
  197SOL    HW2 1491   1.819   6.514   0.368
  198SOL     OW 1492   4.376   0.243   6.818
  198SOL    HW1 1493   4.415   0.329   6.849
  198SOL    HW2 1494   4.332   0.257   6.729
  199SOL     OW 1495   0.346   0.356   2.493
  199SOL    HW1 1496   0.430   0.369   2.544
  199SOL    HW2 1497   0.346   0.414   2.412
  200SOL     OW 1498   0.629   3.908   2.920
  200SOL    HW1 1499   0.661   3.959   3.000
  200SOL    HW2 1500   0.555   3.959   2.876
  201SOL     OW 1501   4.684   1.046   6.626
  201SOL    HW1 1502   4.607   1.077   6.570
  201SOL    HW2 1503   4.754   1.005   6.567
  202SOL     OW 1504   3.364   1.025   2.515
  202SOL    HW1 1505   3.395   1.119   2.505
  202SOL    HW2 1506   3.338   1.008   2.610
  203SOL     OW 1507   5.569   2.742   0.023
  203SOL    HW1 1508   5.621   2.769   6.967
  203SOL    HW2 1509   5.475   2.776   0.015
  204SOL     OW 1510   2.780   6.115   1.461
  204SOL    HW1 1511   2.769   6.210   1.489
  204SOL    HW2 1512   2.695   6.065   1.477
  205SOL     OW 1513   6.158   0.904   0.474
  205SOL    HW1 1514   6.185   0.962   0.550
  205SOL    HW2 1515   6.211   0.819   0.476
  206SOL     OW 1516   0.410   4.697   1.984
  206SOL    HW1 1517   0.429   4.631   2.056
  206SOL    HW2 1518   0.367   4.778   2.024
  207SOL     OW 1519   4.850   1.179   5.451
  207SOL    HW1 1520   4.894   1.125   5.524
  207SOL    HW2 1521   4.804   1.258   5.492
  208SOL     OW 1522   3.244   4.377   6.220
  208SOL    HW1 1523   3.181   4.450   6.245
  208SOL    HW2 1524   3.334   4.416   6.198
  209SOL     OW 1525   6.454   5.452   5.732
  209SOL    HW1 1526   6.480   5.365   5.691
  209SOL    HW2 1527   6.400   5.505   5.667
  210SOL     OW 1528   3.649   2.035   2.273
  210SOL    HW1 1529   3.592   2.052   2.353
  210SOL    HW2 1530   3.628   2.101   2.202
  211SOL     OW 1531   1.227   1.880   1.732
  211SOL    HW1 1532   1.291   1.813   1.770
  211SOL    HW2 1533   1.133   1.851   1.751
  212SOL     OW 1534   0.533   4.728   3.658
  212SOL    HW1 1535   0.617   4.691   3.618
  212SOL    HW2 1536   0.481   4.654   3.701
  213SOL     OW 1537   3.874   2.373   0.060
  213SOL    HW1 1538   3.801   2.327   0.009
  213SOL    HW2 1539   3.852   2.372   0.158
  214SOL     OW 1540   1.086   6.633   2.902
  214SOL    HW1 1541   1.009   6.575   2.874
  214SOL    HW2 1542   1.144   6.651   2.823
  215SOL     OW 1543   3.397   3.453   2.713
  215SOL    HW1 1544   3.361   3.417   2.799
  215SOL    HW2 1545   3.364   3.397   2.637
  216SOL     OW 1546   1.374   6.049   5.642
  216SOL    HW1 1547   1.464   6.020   5.674
  216SOL    HW2 1548   1.312   6.057   5.720
  217SOL     OW 1549   0.032   2.821   3.720
  217SOL    HW1 1550   0.105   2.757   3.695
  217SOL    HW2 1551   6.987   2.772   3.774
  218SOL     OW 1552   1.362   3.824   5.464
  218SOL    HW1 1553   1.401   3.808   5.373
  218SOL    HW2 1554   1.271   3.783   5.469
  219SOL     OW 1555   4.792   5.360   0.292
  219SOL    HW1 1556   4.714   5.299   0.303
  219SOL    HW2 1557   4.778   5.418   0.211
  220SOL     OW 1558   1.662   4.514   1.165
  220SOL    HW1 1559   1.693   4.452   1.238
  220SOL    HW2 1560   1.563   4.508   1.156
  221SOL     OW 1561   6.899   2.671   3.893
  221SOL    HW1 1562   6.938   2.620   3.970
  221SOL    HW2 1563   6.807   2.636   3.873
  222SOL     OW 1564   1.448   6.516   5.269
  222SOL    HW1 1565   1.382   6.509   5.344
  222SOL    HW2 1566   1.497   6.429   5.260
  223SOL     OW 1567   6.055   4.113   2.053
  223SOL    HW1 1568   5.980   4.076   1.998
  223SOL    HW2 1569   6.032   4.206   2.082
  224SOL     OW 1570   3.407   2.082   2.012
  224SOL    HW1 1571   3.335   2.130   1.963
  224SOL    HW2 1572   3.490   2.138   2.015
  225SOL     OW 1573   0.583   0.181   0.682
  225SOL    HW1 1574   0.597   0.136   0.594
  225SOL    HW2 1575   0.502   0.240   0.676
  226SOL     OW 1576   0.211   5.232   1.007
  226SOL    HW1 1577   0.236   5.207   0.913
  226SOL    HW2 1578   0.215   5.331   1.017
  227SOL     OW 1579   1.752   2.961   3.308
  227SOL    HW1 1580   1.703   3.001   3.231
  227SOL    HW2 1581   1.762   2.863   3.294
  228SOL     OW 1582   3.811   0.004   2.976
  228SOL    HW1 1583   3.758   0.088   2.981
  228SOL    HW2 1584   3.857   7.012   3.063
  229SOL     OW 1585   5.936   5.723   2.774
  229SOL    HW1 1586   5.908   5.651   2.710
  229SOL    HW2 1587   5.963   5.805   2.723
  230SOL     OW 1588   1.694   4.349   5.537
  230SOL    HW1 1589   1.622   4.409   5.501
  230SOL    HW2 1590   1.737   4.300   5.462
  231SOL     OW 1591   0.621   1.902   0.052
  231SOL    HW1 1592   0.539   1.848   0.033
  231SOL    HW2 1593   0.665   1.868   0.135
  232SOL     OW 1594   2.086   4.960   6.819
  232SOL    HW1 1595   2.156   5.029   6.834
  232SOL    HW2 1596   2.106   4.910   6.735
  233SOL     OW 1597   3.000   1.156   6.398
  233SOL    HW1 1598   2.905   1.179   6.374
  233SOL    HW2 1599   3.053   1.142   6.315
  234SOL     OW 1600   2.969   5.697   0.132
  234SOL    HW1 1601   2.928   5.625   0.188
  234SOL    HW2 1602   2.916   5.781   0.140
  235SOL     OW 1603   3.331   3.010   5.180
  235SOL    HW1 1604   3.412   2.966   5.141
  235SOL    HW2 1605   3.360   3.092   5.230
  236SOL     OW 1606   6.886   2.081   5.550
  236SOL    HW1 1607   6.971   2.126   5.579
  236SOL    HW2 1608   6.808   2.127   5.594
  237SOL     OW 1609   0.163   0.132   1.744
  237SOL    HW1 1610   0.261   0.133   1.762
  237SOL    HW2 1611   0.121   0.215   1.782
  238SOL     OW 1612   6.634   2.203   2.009
  238SOL    HW1 1613   6.711   2.198   2.073
  238SOL    HW2 1614   6.563   2.263   2.045
  239SOL     OW 1615   0.519   5.204   0.657
  239SOL    HW1 1616   0.587   5.258   0.706
  239SOL    HW2 1617   0.540   5.203   0.559
  240SOL     OW 1618   6.721   3.463   5.633
  240SOL    HW1 1619   6.729   3.474   5.534
  240SOL    HW2 1620   6.625   3.454   5.658
  241SOL     OW 1621   6.507   1.474   3.828
  241SOL    HW1 1622   6.585   1.442   3.883
  241SOL    HW2 1623   6.509   1.429   3.739
  242SOL     OW 1624   2.186   2.444   3.234
  242SOL    HW1 1625   2.258   2.385   3.269
  242SOL    HW2 1626   2.100   2.423   3.280
  243SOL     OW 1627   4.416   1.206   5.379
  243SOL    HW1 1628   4.334   1.261   5.393
  243SOL    HW2 1629   4.435   1.153   5.462
  244SOL     OW 1630   0.024   0.501   5.914
  244SOL    HW1 1631   0.053   0.434   5.846
  244SOL    HW2 1632   6.982   0.563   5.873
  245SOL     OW 1633   5.657   2.462   3.533
  245SOL    HW1 1634   5.628   2.366   3.536
  245SOL    HW2 1635   5.753   2.467   3.506
  246SOL     OW 1636   4.884   3.203   3.874
  246SOL    HW1 1637   4.882   3.292   3.829
  246SOL    HW2 1638   4.978   3.169   3.877
  247SOL     OW 1639   3.308   0.455   3.463
  247SOL    HW1 1640   3.323   0.549   3.433
  247SOL    HW2 1641   3.304   0.451   3.562
  248SOL     OW 1642   5.704   1.769   2.506
  248SOL    HW1 1643   5.747   1.856   2.483
  248SOL    HW2 1644   5.655   1.778   2.593
  249SOL     OW 1645   2.328   6.571   4.015
  249SOL    HW1 1646   2.332   6.472   4.028
  249SOL    HW2 1647   2.409   6.614   4.056
  250SOL     OW 1648   5.391   3.543   6.302
  250SOL    HW1 1649   5.438   3.530   6.390
  250SOL    HW2 1650   5.318   3.476   6.294
  251SOL     OW 1651   2.245   2.501   0.639
  251SOL    HW1 1652   2.164   2.445   0.650
  251SOL    HW2 1653   2.260   2.518   0.541
  252SOL     OW 1654   0.148   1.740   6.904
  252SOL    HW1 1655   0.198   1.667   6.857
  252SOL    HW2 1656   0.070   1.701   6.952
  253SOL     OW 1657   1.835   4.154   5.227
  253SOL    HW1 1658   1.889   4.232   5.257
  253SOL    HW2 1659   1.888   4.099   5.162
  254SOL     OW 1660   5.347   3.925   5.550
  254SOL    HW1 1661   5.325   3.965   5.638
  254SOL    HW2 1662   5.316   3.830   5.548
  255SOL     OW 1663   3.363   2.097   3.301
  255SOL    HW1 1664   3.291   2.028   3.308
  255SOL    HW2 1665   3.407   2.108   3.390
  256SOL     OW 1666   6.584   5.892   0.399
  256SOL    HW1 1667   6.648   5.959   0.437
  256SOL    HW2 1668   6.542   5.930   0.316
  257SOL     OW 1669   3.287   5.268   6.398
  257SOL    HW1 1670   3.289   5.321   6.483
  257SOL    HW2 1671   3.193   5.249   6.372
  258SOL     OW 1672   5.358   3.812   4.234
  258SOL    HW1 1673   5.371   3.734   4.296
  258SOL    HW2 1674   5.277   3.796   4.177
  259SOL     OW 1675   1.295   2.109   3.287
  259SOL    HW1 1676   1.214   2.099   3.345
  259SOL    HW2 1677   1.375   2.070   3.334
  260SOL     OW 1678   6.632   6.910   5.599
  260SOL    HW1 1679   6.539   6.902   5.565
  260SOL    HW2 1680   6.652   7.006   5.618
  261SOL     OW 1681   1.237   1.633   2.904
  261SOL    HW1 1682   1.163   1.625   2.971
  261SOL    HW2 1683   1.245   1.728   2.875
  262SOL     OW 1684   1.903   4.906   1.763
  262SOL    HW1 1685   1.848   4.830   1.799
  262SOL    HW2 1686   1.856   4.993   1.780
  263SOL     OW 1687   6.897   1.827   5.490
  263SOL    HW1 1688   6.895   1.775   5.576
  263SOL    HW2 1689   6.899   1.925   5.510
  264SOL     OW 1690   3.096   4.004   6.336
  264SOL    HW1 1691   3.004   4.008   6.297
  264SOL    HW2 1692   3.158   3.961   6.269
  265SOL     OW 1693   5.712   5.489   5.791
  265SOL    HW1 1694   5.797   5.468   5.742
  265SOL    HW2 1695   5.675   5.406   5.833
  266SOL     OW 1696   3.413   2.323   6.654
  266SOL    HW1 1697   3.343   2.393   6.662
  266SOL    HW2 1698   3.381   2.239   6.698
  267SOL     OW 1699   1.288   1.466   5.915
  267SOL    HW1 1700   1.288   1.550   5.860
  267SOL    HW2 1701   1.375   1.417   5.901
  268SOL     OW 1702   3.229   5.838   3.837
  268SOL    HW1 1703   3.323   5.834   3.871
  268SOL    HW2 1704   3.216   5.922   3.784
  269SOL     OW 1705   1.583   1.297   5.311
  269SOL    HW1 1706   1.534   1.228   5.364
  269SOL    HW2 1707   1.680   1.275   5.310
  270SOL     OW 1708   5.398   6.786   4.623
  270SOL    HW1 1709   5.344   6.737   4.554
  270SOL    HW2 1710   5.489   6.805   4.587
  271SOL     OW 1711   1.546   1.504   6.988
  271SOL    HW1 1712   1.449   1.517   7.007
  271SOL    HW2 1713   1.567   1.406   6.991
  272SOL     OW 1714   4.970   5.836   2.230
  272SOL    HW1 1715   4.970   5.829   2.131
  272SOL    HW2 1716   5.047   5.893   2.259
  273SOL     OW 1717   3.312   6.644   4.714
  273SOL    HW1 1718   3.311   6.667   4.812
  273SOL    HW2 1719   3.332   6.725   4.661
  274SOL     OW 1720   5.742   1.591   0.998
  274SOL    HW1 1721   5.710   1.502   1.031
  274SOL    HW2 1722   5.706   1.606   0.905
  275SOL     OW 1723   5.630   5.847   5.279
  275SOL    HW1 1724   5.618   5.748   5.284
  275SOL    HW2 1725   5.699   5.869   5.210
  276SOL     OW 1726   0.397   6.324   3.732
  276SOL    HW1 1727   0.446   6.306   3.647
  276SOL    HW2 1728   0.311   6.273   3.732
  277SOL     OW 1729   4.716   2.213   5.666
  277SOL    HW1 1730   4.705   2.297   5.719
  277SOL    HW2 1731   4.628   2.168   5.658
  278SOL     OW 1732   5.744   3.436   3.080
  278SOL    HW1 1733   5.793   3.384   3.150
  278SOL    HW2 1734   5.754   3.390   2.991
  279SOL     OW 1735   0.973   3.940   4.506
  279SOL    HW1 1736   0.995   3.974   4.598
  279SOL    HW2 1737   0.904   3.999   4.465
  280SOL     OW 1738   3.296   0.940   3.321
  280SOL    HW1 1739   3.255   0.920   3.231
  280SOL    HW2 1740   3.368   1.008   3.310
  281SOL     OW 1741   5.501   6.583   4.794
  281SOL    HW1 1742   5.473   6.668   4.748
  281SOL    HW2 1743   5.585   6.549   4.753
  282SOL     OW 1744   1.533   2.748   0.111
  282SOL    HW1 1745   1.496   2.662   0.079
  282SOL    HW2 1746   1.626   2.760   0.076
  283SOL     OW 1747   6.108   2.627   4.614
  283SOL    HW1 1748   6.197   2.593   4.584
  283SOL    HW2 1749   6.101   2.620   4.713
  284SOL     OW 1750   4.617   5.387   2.920
  284SOL    HW1 1751   4.562   5.319   2.872
  284SOL    HW2 1752   4.711   5.383   2.887
  285SOL     OW 1753   4.570   0.359   5.558
  285SOL    HW1 1754   4.515   0.384   5.478
  285SOL    HW2 1755   4.587   0.441   5.613
  286SOL     OW 1756   2.549   4.845   5.755
  286SOL    HW1 1757   2.508   4.856   5.846
  286SOL    HW2 1758   2.618   4.916   5.741
  287SOL     OW 1759   3.233   0.424   6.674
  287SOL    HW1 1760   3.277   0.489   6.612
  287SOL    HW2 1761   3.152   0.466   6.714
  288SOL     OW 1762   4.122   0.959   1.092
  288SOL    HW1 1763   4.065   1.042   1.091
  288SOL    HW2 1764   4.095   0.902   1.170
  289SOL     OW 1765   6.368   5.797   3.663
  289SOL    HW1 1766   6.306   5.727   3.627
  289SOL    HW2 1767   6.364   5.878   3.604
  290SOL     OW 1768   3.557   0.950   6.348
  290SOL    HW1 1769   3.627   0.952   6.420
  290SOL    HW2 1770   3.473   0.991   6.382
  291SOL     OW 1771   3.536   0.480   5.360
  291SOL    HW1 1772   3.533   0.439   5.268
  291SOL    HW2 1773   3.631   0.492   5.387
  292SOL     OW 1774   4.862   0.755   3.950
  292SOL    HW1 1775   4.897   0.781   4.040
  292SOL    HW2 1776   4.777   0.804   3.932
  293SOL     OW 1777   5.806   6.620   2.182
  293SOL    HW1 1778   5.860   6.704   2.184
  293SOL    HW2 1779   5.769   6.602   2.273
  294SOL     OW 1780   5.652   1.171   6.126
  294SOL    HW1 1781   5.623   1.266   6.117
  294SOL    HW2 1782   5.741   1.159   6.081
  295SOL     OW 1783   1.671   0.882   4.839
  295SOL    HW1 1784   1.737   0.820   4.796
  295SOL    HW2 1785   1.581   0.840   4.840
  296SOL     OW 1786   0.736   2.322   1.153
  296SOL    HW1 1787   0.727   2.347   1.250
  296SOL    HW2 1788   0.820   2.270   1.140
  297SOL     OW 1789   5.247   3.618   3.398
  297SOL    HW1 1790   5.240   3.713   3.426
  297SOL    HW2 1791   5.255   3.560   3.479
  298SOL     OW 1792   4.639   0.558   6.202
  298SOL    HW1 1793   4.651   0.621   6.278
  298SOL    HW2 1794   4.676   0.598   6.118
  299SOL     OW 1795   0.909   0.427   0.044
  299SOL    HW1 1796   0.858   0.448   6.985
  299SOL    HW2 1797   0.899   0.330   0.066
  300SOL     OW 1798   3.878   7.000   3.533
  300SOL    HW1 1799   3.807   6.936   3.502
  300SOL    HW2 1800   3.842   0.029   3.609
  301SOL     OW 1801   6.732   4.950   0.364
  301SOL    HW1 1802   6.669   5.007   0.311
  301SOL    HW2 1803   6.803   5.007   0.405
  302SOL     OW 1804   7.016   5.345   2.024
  302SOL    HW1 1805   6.972   5.391   2.100
  302SOL    HW2 1806   6.951   5.285   1.978
  303SOL     OW 1807   5.367   5.853   3.298
  303SOL    HW1 1808   5.318   5.862   3.212
  303SOL    HW2 1809   5.310   5.804   3.364
  304SOL     OW 1810   2.641   5.752   5.012
  304SOL    HW1 1811   2.657   5.661   5.051
  304SOL    HW2 1812   2.665   5.751   4.915
  305SOL     OW 1813   0.915   2.678   1.624
  305SOL    HW1 1814   0.915   2.601   1.687
  305SOL    HW2 1815   1.008   2.694   1.591
  306SOL     OW 1816   0.040   6.844   3.050
  306SOL    HW1 1817   0.083   6.801   2.971
  306SOL    HW2 1818   0.022   6.941   3.030
  307SOL     OW 1819   3.245   3.120   4.842
  307SOL    HW1 1820   3.272   3.127   4.938
  307SOL    HW2 1821   3.145   3.127   4.835
  308SOL     OW 1822   6.020   2.100   2.950
  308SOL    HW1 1823   5.924   2.076   2.936
  308SOL    HW2 1824   6.069   2.023   2.991
  309SOL     OW 1825   1.822   5.863   6.528
  309SOL    HW1 1826   1.913   5.823   6.522
  309SOL    HW2 1827   1.763   5.823   6.457
  310SOL     OW 1828   5.201   0.044   5.219
  310SOL    HW1 1829   5.231   6.979   5.186
  310SOL    HW2 1830   5.205   0.045   5.319
  311SOL     OW 1831   1.777   5.592   2.495
  311SOL    HW1 1832   1.870   5.630   2.495
  311SOL    HW2 1833   1.717   5.650   2.440
  312SOL     OW 1834   3.599   0.519   3.672
  312SOL    HW1 1835   3.580   0.485   3.580
  312SOL    HW2 1836   3.521   0.570   3.706
  313SOL     OW 1837   3.267   3.803   2.819
  313SOL    HW1 1838   3.276   3.893   2.863
  313SOL    HW2 1839   3.171   3.775   2.820
  314SOL     OW 1840   3.209   5.476   6.103
  314SOL    HW1 1841   3.158   5.505   6.184
  314SOL    HW2 1842   3.303   5.508   6.109
  315SOL     OW 1843   6.511   0.785   4.419
  315SOL    HW1 1844   6.480   0.831   4.336
  315SOL    HW2 1845   6.567   0.847   4.474
  316SOL     OW 1846   4.219   1.194   6.543
  316SOL    HW1 1847   4.184   1.118   6.596
  316SOL    HW2 1848   4.174   1.195   6.453
  317SOL     OW 1849   1.181   1.856   1.202
  317SOL    HW1 1850   1.230   1.773   1.175
  317SOL    HW2 1851   1.245   1.920   1.244
  318SOL     OW 1852   0.421   0.345   4.888
  318SOL    HW1 1853   0.456   0.439   4.896
  318SOL    HW2 1854   0.342   0.334   4.948
  319SOL     OW 1855   0.868   1.370   3.409
  319SOL    HW1 1856   0.870   1.468   3.390
  319SOL    HW2 1857   0.787   1.330   3.367
  320SOL     OW 1858   5.832   2.510   6.115
  320SOL    HW1 1859   5.751   2.540   6.064
  320SOL    HW2 1860   5.901   2.476   6.051
  321SOL     OW 1861   4.500   2.915   0.272
  321SOL    HW1 1862   4.429   2.984   0.292
  321SOL    HW2 1863   4.576   2.927   0.336
  322SOL     OW 1864   3.239   3.410   6.207
  322SOL    HW1 1865   3.250   3.476   6.281
  322SOL    HW2 1866   3.142   3.404   6.182
  323SOL     OW 1867   1.611   3.768   2.256
  323SOL    HW1 1868   1.711   3.771   2.245
  323SOL    HW2 1869   1.571   3.850   2.216
  324SOL     OW 1870   0.954   0.572   3.266
  324SOL    HW1 1871   0.963   0.583   3.167
  324SOL    HW2 1872   0.924   0.479   3.286
  325SOL     OW 1873   6.735   3.820   1.154
  325SOL    HW1 1874   6.828   3.857   1.148
  325SOL    HW2 1875   6.670   3.888   1.119
  326SOL     OW 1876   0.932   6.410   6.386
  326SOL    HW1 1877   0.878   6.328   6.406
  326SOL    HW2 1878   0.923   6.433   6.290
  327SOL     OW 1879   5.071   5.408   4.515
  327SOL    HW1 1880   5.118   5.476   4.571
  327SOL    HW2 1881   5.127   5.386   4.435
  328SOL     OW 1882   1.766   4.081   3.063
  328SOL    HW1 1883   1.808   4.045   2.979
  328SOL    HW2 1884   1.836   4.092   3.133
  329SOL     OW 1885   3.092   2.916   1.752
  329SOL    HW1 1886   3.175   2.970   1.737
  329SOL    HW2 1887   3.107   2.822   1.721
  330SOL     OW 1888   3.093   5.002   0.863
  330SOL    HW1 1889   2.995   4.990   0.880
  330SOL    HW2 1890   3.142   4.923   0.900
  331SOL     OW 1891   6.542   5.251   6.238
  331SOL    HW1 1892   6.544   5.180   6.308
  331SOL    HW2 1893   6.455   5.300   6.243
  332SOL     OW 1894   5.934   2.375   3.144
  332SOL    HW1 1895   6.005   2.376   3.075
  332SOL    HW2 1896   5.871   2.452   3.129
  333SOL     OW 1897   3.627   0.774   5.267
  333SOL    HW1 1898   3.628   0.871   5.243
  333SOL    HW2 1899   3.546   0.754   5.322
  334SOL     OW 1900   3.638   3.730   3.141
  334SOL    HW1 1901   3.683   3.649   3.105
  334SOL    HW2 1902   3.706   3.802   3.157
  335SOL     OW 1903   3.869   1.706   1.266
  335SOL    HW1 1904   3.927   1.711   1.184
  335SOL    HW2 1905   3.780   1.670   1.241
  336SOL     OW 1906   2.903   1.782   4.252
  336SOL    HW1 1907   2.819   1.729   4.252
  336SOL    HW2 1908   2.954   1.764   4.336
  337SOL     OW 1909   1.016   0.864   5.383
  337SOL    HW1 1910   0.937   0.819   5.423
  337SOL    HW2 1911   1.013   0.962   5.404
  338SOL     OW 1912   4.174   1.667   1.582
  338SOL    HW1 1913   4.180   1.589   1.519
  338SOL    HW2 1914   4.266   1.695   1.610
  339SOL     OW 1915   4.031   6.150   5.299
  339SOL    HW1 1916   4.095   6.107   5.362
  339SOL    HW2 1917   4.065   6.242   5.276
  340SOL     OW 1918   5.183   2.021   4.526
  340SOL    HW1 1919   5.199   2.114   4.558
  340SOL    HW2 1920   5.227   2.008   4.437
  341SOL     OW 1921   6.272   7.023   3.132
  341SOL    HW1 1922   6.224   6.953   3.186
  341SOL    HW2 1923   6.366   0.006   3.164
  342SOL     OW 1924   4.494   2.285   2.530
  342SOL    HW1 1925   4.579   2.315   2.484
  342SOL    HW2 1926   4.477   2.345   2.608
  343SOL     OW 1927   6.690   6.484   2.403
  343SOL    HW1 1928   6.732   6.424   2.472
  343SOL    HW2 1929   6.619   6.539   2.447
  344SOL     OW 1930   0.851   1.843   0.857
  344SOL    HW1 1931   0.794   1.901   0.799
  344SOL    HW2 1932   0.886   1.897   0.933
  345SOL     OW 1933   6.427   3.402   4.096
  345SOL    HW1 1934   6.327   3.401   4.093
  345SOL    HW2 1935   6.462   3.340   4.026
  346SOL     OW 1936   1.737   6.639   3.857
  346SOL    HW1 1937   1.674   6.670   3.928
  346SOL    HW2 1938   1.697   6.561   3.808
  347SOL     OW 1939   2.238   5.000   0.399
  347SOL    HW1 1940   2.255   4.901   0.395
  347SOL    HW2 1941   2.162   5.018   0.462
  348SOL     OW 1942   4.314   5.342   1.374
  348SOL    HW1 1943   4.303   5.246   1.402
  348SOL    HW2 1944   4.244   5.364   1.306
  349SOL     OW 1945   5.919   4.402   1.551
  349SOL    HW1 1946   5.898   4.363   1.461
  349SOL    HW2 1947   5.911   4.501   1.546
  350SOL     OW 1948   3.360   2.583   0.349
  350SOL    HW1 1949   3.455   2.590   0.381
  350SOL    HW2 1950   3.338   2.666   0.296
  351SOL     OW 1951   3.008   4.616   1.069
  351SOL    HW1 1952   2.996   4.646   1.164
  351SOL    HW2 1953   3.015   4.516   1.066
  352SOL     OW 1954   4.161   0.492   3.011
  352SOL    HW1 1955   4.221   0.492   2.931
  352SOL    HW2 1956   4.096   0.417   3.004
  353SOL     OW 1957   2.014   6.651   6.091
  353SOL    HW1 1958   1.977   6.710   6.162
  353SOL    HW2 1959   2.113   6.653   6.094
  354SOL     OW 1960   0.263   2.835   0.497
  354SOL    HW1 1961   0.326   2.912   0.487
  354SOL    HW2 1962   0.313   2.755   0.531
  355SOL     OW 1963   1.667   1.508   2.886
  355SOL    HW1 1964   1.680   1.607   2.885
  355SOL    HW2 1965   1.729   1.466   2.820
  356SOL     OW 1966   1.611   0.822   6.010
  356SOL    HW1 1967   1.512   0.806   6.005
  356SOL    HW2 1968   1.659   0.740   5.981
  357SOL     OW 1969   4.987   0.147   5.102
  357SOL    HW1 1970   5.076   0.134   5.145
  357SOL    HW2 1971   4.990   0.228   5.044
  358SOL     OW 1972   3.854   5.861   6.575
  358SOL    HW1 1973   3.895   5.852   6.666
  358SOL    HW2 1974   3.785   5.789   6.562
  359SOL     OW 1975   2.111   2.080   2.621
  359SOL    HW1 1976   2.067   2.087   2.531
  359SOL    HW2 1977   2.109   2.169   2.666
  360SOL     OW 1978   0.966   4.237   4.485
  360SOL    HW1 1979   1.009   4.268   4.570
  360SOL    HW2 1980   0.973   4.308   4.416
  361SOL     OW 1981   6.359   1.849   2.840
  361SOL    HW1 1982   6.458   1.851   2.852
  361SOL    HW2 1983   6.331   1.758   2.810
  362SOL     OW 1984   3.653   4.575   0.886
  362SOL    HW1 1985   3.564   4.590   0.928
  362SOL    HW2 1986   3.688   4.661   0.850
  363SOL     OW 1987   5.188   5.385   1.518
  363SOL    HW1 1988   5.226   5.478   1.520
  363SOL    HW2 1989   5.089   5.390   1.528
  364SOL     OW 1990   0.982   6.366   6.062
  364SOL    HW1 1991   0.973   6.273   6.099
  364SOL    HW2 1992   1.077   6.381   6.034
  365SOL     OW 1993   4.578   1.700   3.514
  365SOL    HW1 1994   4.676   1.718   3.509
  365SOL    HW2 1995   4.537   1.717   3.424
  366SOL     OW 1996   5.222   1.840   0.133
  366SOL    HW1 1997   5.177   1.925   0.106
  366SOL    HW2 1998   5.253   1.847   0.228
  367SOL     OW 1999   5.535   1.563   5.555
  367SOL    HW1 2000   5.463   1.495   5.538
  367SOL    HW2 2001   5.624   1.523   5.534
  368SOL     OW 2002   6.636   2.141   5.667
  368SOL    HW1 2003   6.581   2.195   5.604
  368SOL    HW2 2004   6.593   2.051   5.680
  369SOL     OW 2005   6.698   3.325   1.901
  369SOL    HW1 2006   6.610   3.355   1.863
  369SOL    HW2 2007   6.759   3.298   1.827
  370SOL     OW 2008   1.130   3.160   3.705
  370SOL    HW1 2009   1.144   3.186   3.610
  370SOL    HW2 2010   1.097   3.066   3.710
  371SOL     OW 2011   1.036   4.704   0.053
  371SOL    HW1 2012   0.951   4.695   0.105
  371SOL    HW2 2013   1.075   4.795   0.067
  372SOL     OW 2014   3.795   6.094   6.002
  372SOL    HW1 2015   3.862   6.062   6.068
  372SOL    HW2 2016   3.831   6.082   5.909
  373SOL     OW 2017   5.625   5.509   3.790
  373SOL    HW1 2018   5.599   5.536   3.697
  373SOL    HW2 2019   5.611   5.586   3.852
  374SOL     OW 2020   2.895   1.700   3.366
  374SOL    HW1 2021   2.815   1.690   3.426
  374SOL    HW2 2022   2.955   1.772   3.401
  375SOL     OW 2023   1.135   5.290   4.393
  375SOL    HW1 2024   1.185   5.366   4.351
  375SOL    HW2 2025   1.181   5.203   4.370
  376SOL     OW 2026   2.917   0.872   3.973
  376SOL    HW1 2027   2.871   0.954   3.938
  376SOL    HW2 2028   2.852   0.795   3.973
  377SOL     OW 2029   0.760   1.737   6.434
  377SOL    HW1 2030   0.796   1.795   6.507
  377SOL    HW2 2031   0.829   1.671   6.407
  378SOL     OW 2032   4.170   1.006   2.248
  378SOL    HW1 2033   4.135   1.100   2.240
  378SOL    HW2 2034   4.107   0.943   2.204
  379SOL     OW 2035   5.727   1.741   6.508
  379SOL    HW1 2036   5.723   1.710   6.413
  379SOL    HW2 2037   5.758   1.666   6.567
  380SOL     OW 2038   4.151   2.224   0.635
  380SOL    HW1 2039   4.058   2.262   0.631
  380SOL    HW2 2040   4.192   2.249   0.723
  381SOL     OW 2041   1.662   3.767   2.859
  381SOL    HW1 2042   1.605   3.793   2.781
  381SOL    HW2 2043   1.695   3.674   2.846
  382SOL     OW 2044   4.902   0.804   0.139
  382SOL    HW1 2045   4.938   0.710   0.133
  382SOL    HW2 2046   4.946   0.861   0.069
  383SOL     OW 2047   4.637   2.303   0.899
  383SOL    HW1 2048   4.728   2.304   0.857
  383SOL    HW2 2049   4.635   2.236   0.974
  384SOL     OW 2050   5.734   3.809   4.646
  384SOL    HW1 2051   5.762   3.853   4.561
  384SOL    HW2 2052   5.681   3.726   4.625
  385SOL     OW 2053   4.461   3.839   0.491
  385SOL    HW1 2054   4.370   3.866   0.462
  385SOL    HW2 2055   4.518   3.920   0.505
  386SOL     OW 2056   3.793   6.573   3.711
  386SOL    HW1 2057   3.873   6.555   3.652
  386SOL    HW2 2058   3.726   6.500   3.698
  387SOL     OW 2059   2.575   6.646   3.684
  387SOL    HW1 2060   2.616   6.556   3.701
  387SOL    HW2 2061   2.606   6.710   3.754
  388SOL     OW 2062   1.928   4.238   6.350
  388SOL    HW1 2063   1.914   4.205   6.257
  388SOL    HW2 2064   1.852   4.298   6.376
  389SOL     OW 2065   2.907   3.416   3.383
  389SOL    HW1 2066   2.987   3.469   3.354
  389SOL    HW2 2067   2.898   3.422   3.482
  390SOL     OW 2068   2.213   1.076   4.044
  390SOL    HW1 2069   2.172   1.006   3.986
  390SOL    HW2 2070   2.162   1.162   4.033
  391SOL     OW 2071   1.050   3.206   6.961
  391SOL    HW1 2072   0.998   3.291   6.962
  391SOL    HW2 2073   1.052   3.169   6.868
  392SOL     OW 2074   2.156   5.504   2.483
  392SOL    HW1 2075   2.139   5.527   2.387
  392SOL    HW2 2076   2.097   5.559   2.541
  393SOL     OW 2077   6.034   4.272   5.102
  393SOL    HW1 2078   6.036   4.268   5.202
  393SOL    HW2 2079   6.083   4.353   5.071
  394SOL     OW 2080   2.527   0.512   6.970
  394SOL    HW1 2081   2.482   0.429   7.003
  394SOL    HW2 2082   2.457   0.582   6.952
  395SOL     OW 2083   6.249   3.681   1.218
  395SOL    HW1 2084   6.257   3.620   1.297
  395SOL    HW2 2085   6.297   3.766   1.237
  396SOL     OW 2086   3.345   3.943   3.859
  396SOL    HW1 2087   3.320   3.853   3.825
  396SOL    HW2 2088   3.366   4.004   3.783
  397SOL     OW 2089   4.348   2.495   5.987
  397SOL    HW1 2090   4.277   2.425   5.992
  397SOL    HW2 2091   4.438   2.453   5.999
  398SOL     OW 2092   0.899   5.031   2.117
  398SOL    HW1 2093   0.932   5.091   2.044
  398SOL    HW2 2094   0.888   5.085   2.201
  399SOL     OW 2095   4.984   5.108   1.800
  399SOL    HW1 2096   5.001   5.032   1.738
  399SOL    HW2 2097   4.894   5.148   1.781
  400SOL     OW 2098   1.304   5.593   5.154
  400SOL    HW1 2099   1.275   5.573   5.247
  400SOL    HW2 2100   1.226   5.587   5.092
  401SOL     OW 2101   4.771   1.535   0.083
  401SOL    HW1 2102   4.724   1.597   0.146
  401SOL    HW2 2103   4.712   1.456   0.065
  402SOL     OW 2104   5.416   5.100   1.144
  402SOL    HW1 2105   5.351   5.150   1.202
  402SOL    HW2 2106   5.482   5.164   1.105
  403SOL     OW 2107   4.949   2.700   6.041
  403SOL    HW1 2108   5.026   2.641   6.066
  403SOL    HW2 2109   4.863   2.658   6.070
  404SOL     OW 2110   0.676   0.470   4.407
  404SOL    HW1 2111   0.591   0.419   4.419
  404SOL    HW2 2112   0.740   0.445   4.480
  405SOL     OW 2113   0.422   2.172   0.740
  405SOL    HW1 2114   0.334   2.201   0.778
  405SOL    HW2 2115   0.447   2.231   0.663
  406SOL     OW 2116   1.842   2.965   3.849
  406SOL    HW1 2117   1.832   2.997   3.943
  406SOL    HW2 2118   1.927   3.001   3.810
  407SOL     OW 2119   2.972   0.797   4.655
  407SOL    HW1 2120   2.920   0.729   4.603
  407SOL    HW2 2121   3.027   0.751   4.725
  408SOL     OW 2122   1.809   0.441   3.657
  408SOL    HW1 2123   1.847   0.425   3.566
  408SOL    HW2 2124   1.730   0.503   3.649
  409SOL     OW 2125   6.117   3.248   3.625
  409SOL    HW1 2126   6.102   3.162   3.575
  409SOL    HW2 2127   6.214   3.272   3.621
  410SOL     OW 2128   2.551   1.021   6.804
  410SOL    HW1 2129   2.630   1.058   6.754
  410SOL    HW2 2130   2.550   0.921   6.794
  411SOL     OW 2131   6.176   4.578   5.552
  411SOL    HW1 2132   6.170   4.656   5.615
  411SOL    HW2 2133   6.223   4.607   5.468
  412SOL     OW 2134   3.753   0.727   2.764
  412SOL    HW1 2135   3.784   0.697   2.855
  412SOL    HW2 2136   3.709   0.816   2.772
  413SOL     OW 2137   3.022   6.452   0.503
  413SOL    HW1 2138   2.936   6.448   0.453
  413SOL    HW2 2139   3.008   6.416   0.596
  414SOL     OW 2140   4.059   3.904   0.539
  414SOL    HW1 2141   4.070   3.823   0.597
  414SOL    HW2 2142   3.962   3.929   0.534
  415SOL     OW 2143   2.165   6.816   1.125
  415SOL    HW1 2144   2.116   6.900   1.107
  415SOL    HW2 2145   2.132   6.775   1.211
  416SOL     OW 2146   4.152   5.818   5.003
  416SOL    HW1 2147   4.064   5.859   5.026
  416SOL    HW2 2148   4.150   5.720   5.021
  417SOL     OW 2149   4.296   6.240   1.806
  417SOL    HW1 2150   4.320   6.145   1.784
  417SOL    HW2 2151   4.200   6.244   1.835
  418SOL     OW 2152   4.977   5.248   1.203
  418SOL    HW1 2153   4.999   5.327   1.146
  418SOL    HW2 2154   4.905   5.193   1.159
  419SOL     OW 2155   6.787   6.714   1.252
  419SOL    HW1 2156   6.728   6.763   1.189
  419SOL    HW2 2157   6.842   6.646   1.202
  420SOL     OW 2158   4.786   4.932   0.498
  420SOL    HW1 2159   4.854   4.983   0.552
  420SOL    HW2 2160   4.709   4.908   0.557
  421SOL     OW 2161   2.402   6.327   6.347
  421SOL    HW1 2162   2.393   6.406   6.407
  421SOL    HW2 2163   2.326   6.264   6.363
  422SOL     OW 2164   5.309   4.207   6.600
  422SOL    HW1 2165   5.210   4.221   6.602
  422SOL    HW2 2166   5.355   4.295   6.588
  423SOL     OW 2167   0.061   3.394   0.141
  423SOL    HW1 2168   0.097   3.460   0.075
  423SOL    HW2 2169   6.989   3.414   0.159
  424SOL     OW 2170   3.085   4.125   0.333
  424SOL    HW1 2171   3.104   4.222   0.342
  424SOL    HW2 2172   3.068   4.102   0.238
  425SOL     OW 2173   3.177   1.733   0.488
  425SOL    HW1 2174   3.229   1.744   0.573
  425SOL    HW2 2175   3.208   1.651   0.440
  426SOL     OW 2176   5.287   4.205   6.062
  426SOL    HW1 2177   5.196   4.164   6.060
  426SOL    HW2 2178   5.329   4.188   6.151
  427SOL     OW 2179   5.524   3.665   1.025
  427SOL    HW1 2180   5.489   3.574   1.049
  427SOL    HW2 2181   5.544   3.668   0.927
  428SOL     OW 2182   4.005   0.952   5.224
  428SOL    HW1 2183   4.019   0.879   5.157
  428SOL    HW2 2184   3.979   0.912   5.312
  429SOL     OW 2185   1.533   4.780   0.106
  429SOL    HW1 2186   1.481   4.859   0.072
  429SOL    HW2 2187   1.631   4.800   0.101
  430SOL     OW 2188   1.447   0.281   5.183
  430SOL    HW1 2189   1.386   0.348   5.224
  430SOL    HW2 2190   1.508   0.243   5.253
  431SOL     OW 2191   3.283   1.689   0.838
  431SOL    HW1 2192   3.370   1.733   0.860
  431SOL    HW2 2193   3.294   1.590   0.841
  432SOL     OW 2194   0.024   1.484   1.101
  432SOL    HW1 2195   0.003   1.556   1.168
  432SOL    HW2 2196   6.969   1.425   1.091
  433SOL     OW 2197   3.167   6.413   5.212
  433SOL    HW1 2198   3.108   6.339   5.180
  433SOL    HW2 2199   3.223   6.382   5.288
  434SOL     OW 2200   6.643   3.631   1.653
  434SOL    HW1 2201   6.651   3.651   1.555
  434SOL    HW2 2202   6.565   3.681   1.691
  435SOL     OW 2203   2.933   4.487   0.105
  435SOL    HW1 2204   2.890   4.411   0.155
  435SOL    HW2 2205   2.981   4.452   0.025
  436SOL     OW 2206   1.888   0.565   0.723
  436SOL    HW1 2207   1.887   0.633   0.796
  436SOL    HW2 2208   1.982   0.536   0.705
  437SOL     OW 2209   6.932   0.205   6.476
  437SOL    HW1 2210   7.006   0.180   6.539
  437SOL    HW2 2211   6.876   0.276   6.518
  438SOL     OW 2212   1.181   2.651   1.582
  438SOL    HW1 2213   1.221   2.712   1.513
  438SOL    HW2 2214   1.241   2.648   1.662
  439SOL     OW 2215   6.435   4.983   2.861
  439SOL    HW1 2216   6.387   5.064   2.894
  439SOL    HW2 2217   6.517   4.968   2.916
  440SOL     OW 2218   1.086   2.753   4.171
  440SOL    HW1 2219   1.166   2.773   4.227
  440SOL    HW2 2220   1.090   2.658   4.140
  441SOL     OW 2221   1.239   1.660   3.235
  441SOL    HW1 2222   1.203   1.581   3.184
  441SOL    HW2 2223   1.337   1.668   3.218
  442SOL     OW 2224   0.151   3.691   0.048
  442SOL    HW1 2225   0.237   3.671   0.095
  442SOL    HW2 2226   0.087   3.734   0.112
  443SOL     OW 2227   1.051   4.210   5.232
  443SOL    HW1 2228   1.025   4.286   5.172
  443SOL    HW2 2229   1.085   4.247   5.319
  444SOL     OW 2230   4.382   2.598   6.349
  444SOL    HW1 2231   4.463   2.590   6.406
  444SOL    HW2 2232   4.352   2.506   6.322
  445SOL     OW 2233   2.329   4.269   3.512
  445SOL    HW1 2234   2.332   4.169   3.508
  445SOL    HW2 2235   2.248   4.301   3.462
  446SOL     OW 2236   4.125   4.936   3.981
  446SOL    HW1 2237   4.143   4.916   3.885
  446SOL    HW2 2238   4.153   5.031   4.000
  447SOL     OW 2239   6.737   5.407   0.338
  447SOL    HW1 2240   6.787   5.385   0.422
  447SOL    HW2 2241   6.801   5.434   0.267
  448SOL     OW 2242   4.142   0.899   4.640
  448SOL    HW1 2243   4.222   0.946   4.676
  448SOL    HW2 2244   4.136   0.915   4.541
  449SOL     OW 2245   5.615   1.196   4.638
  449SOL    HW1 2246   5.577   1.288   4.624
  449SOL    HW2 2247   5.632   1.181   4.736
  450SOL     OW 2248   0.442   5.880   3.627
  450SOL    HW1 2249   0.343   5.884   3.638
  450SOL    HW2 2250   0.476   5.791   3.656
  451SOL     OW 2251   0.290   2.109   2.789
  451SOL    HW1 2252   0.281   2.206   2.767
  451SOL    HW2 2253   0.382   2.078   2.768
  452SOL     OW 2254   0.409   4.501   6.822
  452SOL    HW1 2255   0.396   4.448   6.906
  452SOL    HW2 2256   0.503   4.535   6.819
  453SOL     OW 2257   3.341   1.404   6.680
  453SOL    HW1 2258   3.342   1.408   6.580
  453SOL    HW2 2259   3.315   1.493   6.717
  454SOL     OW 2260   1.137   6.293   6.700
  454SOL    HW1 2261   1.071   6.240   6.754
  454SOL    HW2 2262   1.182   6.233   6.634
  455SOL     OW 2263   6.132   0.886   4.740
  455SOL    HW1 2264   6.211   0.852   4.791
  455SOL    HW2 2265   6.129   0.842   4.650
  456SOL     OW 2266   4.581   5.798   6.198
  456SOL    HW1 2267   4.658   5.746   6.234
  456SOL    HW2 2268   4.555   5.869   6.264
  457SOL     OW 2269   2.381   4.825   3.295
  457SOL    HW1 2270   2.294   4.836   3.248
  457SOL    HW2 2271   2.430   4.746   3.257
  458SOL     OW 2272   6.307   5.355   5.496
  458SOL    HW1 2273   6.285   5.453   5.486
  458SOL    HW2 2274   6.224   5.304   5.516
  459SOL     OW 2275   1.673   0.734   2.275
  459SOL    HW1 2276   1.646   0.688   2.190
  459SOL    HW2 2277   1.702   0.828   2.253
  460SOL     OW 2278   6.618   2.140   2.625
  460SOL    HW1 2279   6.547   2.126   2.556
  460SOL    HW2 2280   6.688   2.202   2.589
  461SOL     OW 2281   4.834   6.506   5.299
  461SOL    HW1 2282   4.874   6.420   5.331
  461SOL    HW2 2283   4.841   6.575   5.371
  462SOL     OW 2284   3.333   3.094   6.586
  462SOL    HW1 2285   3.244   3.094   6.539
  462SOL    HW2 2286   3.327   3.036   6.667
  463SOL     OW 2287   6.941   5.090   2.685
  463SOL    HW1 2288   7.005   5.015   2.700
  463SOL    HW2 2289   6.866   5.084   2.751
  464SOL     OW 2290   1.610   1.337   6.296
  464SOL    HW1 2291   1.551   1.257   6.292
  464SOL    HW2 2292   1.702   1.313   6.265
  465SOL     OW 2293   0.200   2.330   4.147
  465SOL    HW1 2294   0.170   2.403   4.086
  465SOL    HW2 2295   0.146   2.332   4.231
  466SOL     OW 2296   1.310   6.679   4.282
  466SOL    HW1 2297   1.408   6.683   4.303
  466SOL    HW2 2298   1.297   6.660   4.185
  467SOL     OW 2299   1.876   0.717   5.911
  467SOL    HW1 2300   1.881   0.805   5.864
  467SOL    HW2 2301   1.795   0.667   5.880
  468SOL     OW 2302   3.809   5.277   1.020
  468SOL    HW1 2303   3.807   5.296   1.118
  468SOL    HW2 2304   3.747   5.340   0.972
  469SOL     OW 2305   2.083   5.600   6.811
  469SOL    HW1 2306   2.035   5.651   6.882
  469SOL    HW2 2307   2.122   5.517   6.851
  470SOL     OW 2308   4.120   0.938   2.600
  470SOL    HW1 2309   4.027   0.933   2.636
  470SOL    HW2 2310   4.120   0.911   2.504
  471SOL     OW 2311   2.206   2.891   4.619
  471SOL    HW1 2312   2.268   2.893   4.697
  471SOL    HW2 2313   2.257   2.870   4.536
  472SOL     OW 2314   4.547   5.655   5.966
  472SOL    HW1 2315   4.469   5.592   5.957
  472SOL    HW2 2316   4.546   5.696   6.057
  473SOL     OW 2317   1.185   3.176   2.376
  473SOL    HW1 2318   1.123   3.236   2.326
  473SOL    HW2 2319   1.263   3.229   2.410
  474SOL     OW 2320   3.998   5.248   5.053
  474SOL    HW1 2321   4.035   5.198   5.131
  474SOL    HW2 2322   3.900   5.262   5.065
  475SOL     OW 2323   7.022   6.725   6.190
  475SOL    HW1 2324   6.976   6.783   6.257
  475SOL    HW2 2325   0.090   6.703   6.223
  476SOL     OW 2326   6.450   4.957   2.604
  476SOL    HW1 2327   6.380   5.027   2.589
  476SOL    HW2 2328   6.447   4.928   2.700
  477SOL     OW 2329   2.157   5.440   3.802
  477SOL    HW1 2330   2.073   5.468   3.755
  477SOL    HW2 2331   2.141   5.354   3.850
  478SOL     OW 2332   3.742   5.652   3.582
  478SOL    HW1 2333   3.745   5.616   3.676
  478SOL    HW2 2334   3.755   5.751   3.583
  479SOL     OW 2335   3.211   2.642   0.579
  479SOL    HW1 2336   3.267   2.627   0.497
  479SOL    HW2 2337   3.243   2.582   0.652
  480SOL     OW 2338   0.886   6.788   2.648
  480SOL    HW1 2339   0.795   6.825   2.666
  480SOL    HW2 2340   0.946   6.862   2.614
  481SOL     OW 2341   3.088   0.258   1.458
  481SOL    HW1 2342   2.999   0.236   1.418
  481SOL    HW2 2343   3.086   0.350   1.496
  482SOL     OW 2344   5.931   4.924   2.815
  482SOL    HW1 2345   5.960   5.005   2.866
  482SOL    HW2 2346   5.957   4.842   2.866
  483SOL     OW 2347   5.634   1.779   1.910
  483SOL    HW1 2348   5.688   1.719   1.851
  483SOL    HW2 2349   5.668   1.873   1.903
  484SOL     OW 2350   0.521   3.080   4.166
  484SOL    HW1 2351   0.484   3.165   4.128
  484SOL    HW2 2352   0.617   3.094   4.192
  485SOL     OW 2353   3.404   5.018   2.046
  485SOL    HW1 2354   3.341   4.941   2.032
  485SOL    HW2 2355   3.353   5.104   2.043
  486SOL     OW 2356   0.833   0.752   0.088
  486SOL    HW1 2357   0.892   0.819   0.044
  486SOL    HW2 2358   0.886   0.672   0.115
  487SOL     OW 2359   0.580   2.497   0.108
  487SOL    HW1 2360   0.658   2.558   0.090
  487SOL    HW2 2361   0.605   2.403   0.084
  488SOL     OW 2362   0.033   1.998   1.938
  488SOL    HW1 2363   0.061   2.093   1.954
  488SOL    HW2 2364   6.967   1.997   1.895
  489SOL     OW 2365   3.352   6.219   0.130
  489SOL    HW1 2366   3.396   6.226   0.040
  489SOL    HW2 2367   3.260   6.258   0.125
  490SOL     OW 2368   6.323   6.255   4.201
  490SOL    HW1 2369   6.363   6.330   4.147
  490SOL    HW2 2370   6.320   6.172   4.145
  491SOL     OW 2371   1.113   2.667   2.560
  491SOL    HW1 2372   1.118   2.579   2.608
  491SOL    HW2 2373   1.159   2.737   2.614
  492SOL     OW 2374   2.796   0.076   6.119
  492SOL    HW1 2375   2.872   0.060   6.182
  492SOL    HW2 2376   2.734   0.145   6.158
  493SOL     OW 2377   6.324   4.297   5.384
  493SOL    HW1 2378   6.412   4.288   5.337
  493SOL    HW2 2379   6.337   4.349   5.468
  494SOL     OW 2380   0.459   6.942   0.305
  494SOL    HW1 2381   0.398   6.981   0.375
  494SOL    HW2 2382   0.446   6.992   0.219
  495SOL     OW 2383   4.811   4.414   1.793
  495SOL    HW1 2384   4.911   4.413   1.803
  495SOL    HW2 2385   4.771   4.460   1.873
  496SOL     OW 2386   5.306   3.495   2.962
  496SOL    HW1 2387   5.377   3.562   2.940
  496SOL    HW2 2388   5.240   3.534   3.026
  497SOL     OW 2389   3.494   0.899   4.603
  497SOL    HW1 2390   3.543   0.868   4.521
  497SOL    HW2 2391   3.425   0.967   4.577
  498SOL     OW 2392   0.279   2.793   2.482
  498SOL    HW1 2393   0.240   2.837   2.563
  498SOL    HW2 2394   0.374   2.768   2.500
  499SOL     OW 2395   3.795   0.312   4.947
  499SOL    HW1 2396   3.809   0.283   5.042
  499SOL    HW2 2397   3.747   0.400   4.946
  500SOL     OW 2398   0.574   3.427   2.848
  500SOL    HW1 2399   0.502   3.381   2.797
  500SOL    HW2 2400   0.535   3.471   2.929
  501SOL     OW 2401   1.810   3.144   6.505
  501SOL    HW1 2402   1.823   3.083   6.583
  501SOL    HW2 2403   1.714   3.142   6.477
  502SOL     OW 2404   4.337   4.989   6.909
  502SOL    HW1 2405   4.264   4.921   6.898
  502SOL    HW2 2406   4.366   5.021   6.819
  503SOL     OW 2407   5.813   4.756   5.572
  503SOL    HW1 2408   5.868   4.790   5.495
  503SOL    HW2 2409   5.863   4.684   5.620
  504SOL     OW 2410   2.353   6.122   4.450
  504SOL    HW1 2411   2.390   6.190   4.513
  504SOL    HW2 2412   2.253   6.118   4.460
  505SOL     OW 2413   4.794   0.286   5.775
  505SOL    HW1 2414   4.862   0.323   5.711
  505SOL    HW2 2415   4.706   0.278   5.728
  506SOL     OW 2416   1.695   4.378   5.224
  506SOL    HW1 2417   1.768   4.442   5.199
  506SOL    HW2 2418   1.721   4.285   5.197
  507SOL     OW 2419   3.485   0.144   5.009
  507SOL    HW1 2420   3.581   0.134   4.983
  507SOL    HW2 2421   3.428   0.129   4.928
  508SOL     OW 2422   6.783   3.762   3.042
  508SOL    HW1 2423   6.764   3.826   2.967
  508SOL    HW2 2424   6.795   3.670   3.004
  509SOL     OW 2425   4.747   1.167   2.004
  509SOL    HW1 2426   4.734   1.111   1.922
  509SOL    HW2 2427   4.659   1.206   2.032
  510SOL     OW 2428   6.760   4.574   5.031
  510SOL    HW1 2429   6.801   4.656   5.071
  510SOL    HW2 2430   6.679   4.599   4.979
  511SOL     OW 2431   0.588   6.429   0.364
  511SOL    HW1 2432   0.583   6.397   0.270
  511SOL    HW2 2433   0.555   6.523   0.369
  512SOL     OW 2434   1.256   3.611   0.084
  512SOL    HW1 2435   1.190   3.641   0.153
  512SOL    HW2 2436   1.330   3.561   0.129
  513SOL     OW 2437   6.496   5.960   3.845
  513SOL    HW1 2438   6.437   5.904   3.786
  513SOL    HW2 2439   6.552   5.900   3.902
  514SOL     OW 2440   6.366   1.872   4.195
  514SOL    HW1 2441   6.302   1.920   4.136
  514SOL    HW2 2442   6.411   1.799   4.144
  515SOL     OW 2443   2.157   6.870   5.657
  515SOL    HW1 2444   2.197   6.786   5.695
  515SOL    HW2 2445   2.196   6.949   5.703
  516SOL     OW 2446   2.013   4.678   1.238
  516SOL    HW1 2447   2.029   4.755   1.300
  516SOL    HW2 2448   2.021   4.710   1.143
  517SOL     OW 2449   4.759   6.909   1.612
  517SOL    HW1 2450   4.746   6.979   1.541
  517SOL    HW2 2451   4.825   6.942   1.679
  518SOL     OW 2452   2.554   2.444   1.399
  518SOL    HW1 2453   2.502   2.529   1.407
  518SOL    HW2 2454   2.571   2.407   1.491
  519SOL     OW 2455   0.462   0.382   6.142
  519SOL    HW1 2456   0.432   0.370   6.236
  519SOL    HW2 2457   0.399   0.442   6.093
  520SOL     OW 2458   5.561   4.994   6.004
  520SOL    HW1 2459   5.550   4.928   5.930
  520SOL    HW2 2460   5.587   4.946   6.088
  521SOL     OW 2461   0.026   1.791   6.570
  521SOL    HW1 2462   0.074   1.863   6.620
  521SOL    HW2 2463   0.053   1.794   6.474
  522SOL     OW 2464   3.998   3.175   4.708
  522SOL    HW1 2465   3.901   3.197   4.698
  522SOL    HW2 2466   4.014   3.134   4.798
  523SOL     OW 2467   6.739   0.111   4.193
  523SOL    HW1 2468   6.807   0.069   4.133
  523SOL    HW2 2469   6.684   0.040   4.236
  524SOL     OW 2470   2.953   0.924   6.540
  524SOL    HW1 2471   3.029   0.894   6.599
  524SOL    HW2 2472   2.973   1.015   6.505
  525SOL     OW 2473   2.764   3.979   6.646
  525SOL    HW1 2474   2.733   3.953   6.738
  525SOL    HW2 2475   2.825   3.908   6.610
  526SOL     OW 2476   3.336   5.318   4.315
  526SOL    HW1 2477   3.371   5.252   4.248
  526SOL    HW2 2478   3.396   5.399   4.315
  527SOL     OW 2479   0.096   1.453   6.553
  527SOL    HW1 2480   0.069   1.498   6.468
  527SOL    HW2 2481   0.017   1.451   6.616
  528SOL     OW 2482   2.204   1.478   4.928
  528SOL    HW1 2483   2.138   1.416   4.886
  528SOL    HW2 2484   2.176   1.573   4.913
  529SOL     OW 2485   1.242   5.045   4.377
  529SOL    HW1 2486   1.198   5.017   4.462
  529SOL    HW2 2487   1.341   5.031   4.384
  530SOL     OW 2488   2.331   3.033   5.414
  530SOL    HW1 2489   2.271   2.975   5.359
  530SOL    HW2 2490   2.408   3.064   5.357
  531SOL     OW 2491   0.797   0.374   1.228
  531SOL    HW1 2492   0.838   0.437   1.294
  531SOL    HW2 2493   0.745   0.425   1.160
  532SOL     OW 2494   1.065   1.134   5.498
  532SOL    HW1 2495   1.129   1.096   5.565
  532SOL    HW2 2496   1.077   1.234   5.494
  533SOL     OW 2497   5.692   6.442   5.050
  533SOL    HW1 2498   5.667   6.468   4.957
  533SOL    HW2 2499   5.734   6.351   5.049
  534SOL     OW 2500   4.537   5.153   2.803
  534SOL    HW1 2501   4.575   5.110   2.721
  534SOL    HW2 2502   4.445   5.118   2.819
  535SOL     OW 2503   0.287   4.212   3.590
  535SOL    HW1 2504   0.303   4.227   3.687
  535SOL    HW2 2505   0.356   4.150   3.553
  536SOL     OW 2506   1.622   5.627   1.299
  536SOL    HW1 2507   1.685   5.679   1.355
  536SOL    HW2 2508   1.535   5.617   1.348
  537SOL     OW 2509   2.117   0.192   2.270
  537SOL    HW1 2510   2.206   0.147   2.275
  537SOL    HW2 2511   2.101   0.245   2.353
  538SOL     OW 2512   0.815   6.051   2.947
  538SOL    HW1 2513   0.717   6.069   2.947
  538SOL    HW2 2514   0.850   6.058   3.040
  539SOL     OW 2515   1.718   4.977   2.133
  539SOL    HW1 2516   1.812   4.989   2.101
  539SOL    HW2 2517   1.679   4.894   2.093
  540SOL     OW 2518   1.786   2.576   2.381
  540SOL    HW1 2519   1.819   2.637   2.309
  540SOL    HW2 2520   1.700   2.612   2.418
  541SOL     OW 2521   3.251   5.823   5.777
  541SOL    HW1 2522   3.211   5.735   5.751
  541SOL    HW2 2523   3.210   5.895   5.721
  542SOL     OW 2524   5.910   5.538   6.948
  542SOL    HW1 2525   5.888   5.614   6.888
  542SOL    HW2 2526   5.876   5.557   0.016
  543SOL     OW 2527   1.164   4.769   6.799
  543SOL    HW1 2528   1.176   4.868   6.791
  543SOL    HW2 2529   1.175   4.741   6.894
  544SOL     OW 2530   0.751   4.850   0.689
  544SOL    HW1 2531   0.665   4.871   0.736
  544SOL    HW2 2532   0.777   4.756   0.710
  545SOL     OW 2533   3.849   1.338   3.046
  545SOL    HW1 2534   3.946   1.361   3.036
  545SOL    HW2 2535   3.804   1.407   3.103
  546SOL     OW 2536   1.482   3.416   0.977
  546SOL    HW1 2537   1.576   3.383   0.969
  546SOL    HW2 2538   1.449   3.402   1.070
  547SOL     OW 2539   2.564   3.313   0.122
  547SOL    HW1 2540   2.467   3.293   0.106
  547SOL    HW2 2541   2.572   3.396   0.178
  548SOL     OW 2542   3.543   2.908   4.175
  548SOL    HW1 2543   3.598   2.989   4.193
  548SOL    HW2 2544   3.552   2.882   4.079
  549SOL     OW 2545   5.716   3.618   1.261
  549SOL    HW1 2546   5.650   3.579   1.197
  549SOL    HW2 2547   5.799   3.645   1.212
  550SOL     OW 2548   6.599   3.446   2.366
  550SOL    HW1 2549   6.647   3.366   2.330
  550SOL    HW2 2550   6.635   3.468   2.457
  551SOL     OW 2551   6.354   1.873   0.593
  551SOL    HW1 2552   6.429   1.841   0.652
  551SOL    HW2 2553   6.291   1.928   0.648
  552SOL     OW 2554   3.573   5.398   0.505
  552SOL    HW1 2555   3.572   5.301   0.477
  552SOL    HW2 2556   3.530   5.407   0.595
  553SOL     OW 2557   2.044   1.126   1.465
  553SOL    HW1 2558   2.032   1.221   1.493
  553SOL    HW2 2559   2.142   1.106   1.457
  554SOL     OW 2560   6.153   6.434   5.464
  554SOL    HW1 2561   6.070   6.454   5.517
  554SOL    HW2 2562   6.219   6.385   5.520
  555SOL     OW 2563   1.547   4.583   4.306
  555SOL    HW1 2564   1.570   4.664   4.251
  555SOL    HW2 2565   1.608   4.508   4.281
  556SOL     OW 2566   5.665   2.610   3.879
  556SOL    HW1 2567   5.626   2.557   3.803
  556SOL    HW2 2568   5.761   2.632   3.858
  557SOL     OW 2569   0.245   6.649   6.320
  557SOL    HW1 2570   0.275   6.606   6.234
  557SOL    HW2 2571   0.175   6.591   6.363
  558SOL     OW 2572   4.014   3.873   5.199
  558SOL    HW1 2573   4.080   3.878   5.124
  558SOL    HW2 2574   3.923   3.892   5.164
  559SOL     OW 2575   0.056   6.479   6.437
  559SOL    HW1 2576   0.058   6.381   6.453
  559SOL    HW2 2577   6.991   6.505   6.401
  560SOL     OW 2578   4.439   0.312   0.427
  560SOL    HW1 2579   4.473   0.398   0.463
  560SOL    HW2 2580   4.339   0.310   0.434
  561SOL     OW 2581   5.694   6.935   0.591
  561SOL    HW1 2582   5.698   6.967   0.497
  561SOL    HW2 2583   5.629   6.991   0.643
  562SOL     OW 2584   5.138   1.463   5.483
  562SOL    HW1 2585   5.056   1.485   5.430
  562SOL    HW2 2586   5.219   1.497   5.435
  563SOL     OW 2587   3.287   6.376   4.259
  563SOL    HW1 2588   3.192   6.404   4.273
  563SOL    HW2 2589   3.348   6.447   4.295
  564SOL     OW 2590   6.776   1.316   6.469
  564SOL    HW1 2591   6.819   1.330   6.558
  564SOL    HW2 2592   6.695   1.373   6.461
  565SOL     OW 2593   4.545   4.085   5.293
  565SOL    HW1 2594   4.447   4.094   5.276
  565SOL    HW2 2595   4.561   4.083   5.392
  566SOL     OW 2596   4.753   4.557   2.856
  566SOL    HW1 2597   4.722   4.463   2.839
  566SOL    HW2 2598   4.777   4.601   2.769
  567SOL     OW 2599   3.282   3.192   4.589
  567SOL    HW1 2600   3.269   3.145   4.676
  567SOL    HW2 2601   3.373   3.232   4.586
  568SOL     OW 2602   2.279   1.961   0.112
  568SOL    HW1 2603   2.345   1.886   0.109
  568SOL    HW2 2604   2.278   2.001   0.203
  569SOL     OW 2605   2.096   2.917   0.938
  569SOL    HW1 2606   2.191   2.926   0.910
  569SOL    HW2 2607   2.091   2.875   1.029
  570SOL     OW 2608   0.136   6.056   0.978
  570SOL    HW1 2609   0.045   6.040   0.939
  570SOL    HW2 2610   0.126   6.074   1.076
  571SOL     OW 2611   4.118   5.082   2.786
  571SOL    HW1 2612   4.120   5.003   2.724
  571SOL    HW2 2613   4.183   5.068   2.860
  572SOL     OW 2614   1.344   3.833   4.949
  572SOL    HW1 2615   1.417   3.876   4.895
  572SOL    HW2 2616   1.315   3.897   5.021
  573SOL     OW 2617   3.566   1.878   5.549
  573SOL    HW1 2618   3.585   1.846   5.642
  573SOL    HW2 2619   3.537   1.801   5.493
  574SOL     OW 2620   2.008   1.853   4.308
  574SOL    HW1 2621   1.972   1.940   4.340
  574SOL    HW2 2622   2.105   1.864   4.284
  575SOL     OW 2623   5.719   2.451   0.192
  575SOL    HW1 2624   5.785   2.446   0.117
  575SOL    HW2 2625   5.711   2.546   0.223
  576SOL     OW 2626   1.207   1.384   2.595
  576SOL    HW1 2627   1.292   1.366   2.644
  576SOL    HW2 2628   1.129   1.360   2.654
  577SOL     OW 2629   3.156   1.820   3.481
  577SOL    HW1 2630   3.150   1.910   3.524
  577SOL    HW2 2631   3.150   1.749   3.550
  578SOL     OW 2632   0.456   3.589   3.815
  578SOL    HW1 2633   0.413   3.599   3.726
  578SOL    HW2 2634   0.545   3.545   3.805
  579SOL     OW 2635   4.495   2.550   6.737
  579SOL    HW1 2636   4.467   2.454   6.743
  579SOL    HW2 2637   4.573   2.565   6.798
  580SOL     OW 2638   1.642   5.620   6.433
  580SOL    HW1 2639   1.604   5.624   6.525
  580SOL    HW2 2640   1.644   5.525   6.402
  581SOL     OW 2641   4.055   3.189   2.690
  581SOL    HW1 2642   4.005   3.103   2.676
  581SOL    HW2 2643   4.088   3.193   2.784
  582SOL     OW 2644   5.274   3.500   2.252
  582SOL    HW1 2645   5.275   3.448   2.337
  582SOL    HW2 2646   5.301   3.442   2.176
  583SOL     OW 2647   2.591   4.272   0.347
  583SOL    HW1 2648   2.650   4.347   0.380
  583SOL    HW2 2649   2.512   4.264   0.407
  584SOL     OW 2650   6.810   4.903   4.897
  584SOL    HW1 2651   6.907   4.887   4.915
  584SOL    HW2 2652   6.798   4.929   4.801
  585SOL     OW 2653   6.881   1.599   6.683
  585SOL    HW1 2654   6.940   1.668   6.641
  585SOL    HW2 2655   6.886   1.607   6.783
  586SOL     OW 2656   2.644   6.590   0.540
  586SOL    HW1 2657   2.566   6.633   0.585
  586SOL    HW2 2658   2.721   6.653   0.539
  587SOL     OW 2659   0.889   3.617   5.428
  587SOL    HW1 2660   0.805   3.662   5.460
  587SOL    HW2 2661   0.967   3.650   5.482
  588SOL     OW 2662   3.154   6.426   1.448
  588SOL    HW1 2663   3.238   6.372   1.453
  588SOL    HW2 2664   3.169   6.515   1.491
  589SOL     OW 2665   4.222   5.192   2.353
  589SOL    HW1 2666   4.258   5.127   2.420
  589SOL    HW2 2667   4.128   5.217   2.377
  590SOL     OW 2668   6.996   1.538   1.917
  590SOL    HW1 2669   0.020   1.603   1.976
  590SOL    HW2 2670   7.022   1.555   1.822
  591SOL     OW 2671   3.556   6.948   3.251
  591SOL    HW1 2672   3.527   6.954   3.346
  591SOL    HW2 2673   3.628   6.880   3.242
  592SOL     OW 2674   5.024   0.979   0.411
  592SOL    HW1 2675   5.026   1.042   0.488
  592SOL    HW2 2676   4.948   0.914   0.422
  593SOL     OW 2677   5.061   2.541   3.832
  593SOL    HW1 2678   5.043   2.630   3.790
  593SOL    HW2 2679   5.157   2.516   3.818
  594SOL     OW 2680   3.771   3.051   1.546
  594SOL    HW1 2681   3.709   3.076   1.620
  594SOL    HW2 2682   3.862   3.032   1.583
  595SOL     OW 2683   3.787   6.188   3.504
  595SOL    HW1 2684   3.745   6.207   3.415
  595SOL    HW2 2685   3.864   6.126   3.491
  596SOL     OW 2686   1.290   4.336   3.186
  596SOL    HW1 2687   1.376   4.290   3.207
  596SOL    HW2 2688   1.241   4.355   3.272
  597SOL     OW 2689   3.732   1.523   5.406
  597SOL    HW1 2690   3.801   1.451   5.404
  597SOL    HW2 2691   3.730   1.570   5.318
  598SOL     OW 2692   4.021   4.523   1.048
  598SOL    HW1 2693   3.971   4.478   1.122
  598SOL    HW2 2694   4.014   4.469   0.965
  599SOL     OW 2695   6.143   6.533   2.657
  599SOL    HW1 2696   6.221   6.479   2.687
  599SOL    HW2 2697   6.133   6.527   2.557
  600SOL     OW 2698   2.074   6.889   0.233
  600SOL    HW1 2699   2.059   6.987   0.224
  600SOL    HW2 2700   2.053   6.844   0.146
  601SOL     OW 2701   3.381   5.471   3.927
  601SOL    HW1 2702   3.411   5.383   3.965
  601SOL    HW2 2703   3.355   5.458   3.831
  602SOL     OW 2704   2.537   0.665   1.122
  602SOL    HW1 2705   2.541   0.693   1.027
  602SOL    HW2 2706   2.568   0.740   1.181
  603SOL     OW 2707   4.142   2.055   3.401
  603SOL    HW1 2708   4.126   1.994   3.324
  603SOL    HW2 2709   4.142   2.150   3.369
  604SOL     OW 2710   0.539   4.118   6.315
  604SOL    HW1 2711   0.596   4.178   6.372
  604SOL    HW2 2712   0.449   4.108   6.358
  605SOL     OW 2713   5.769   0.350   4.308
  605SOL    HW1 2714   5.781   0.436   4.357
  605SOL    HW2 2715   5.851   0.331   4.253
  606SOL     OW 2716   2.999   0.173   3.548
  606SOL    HW1 2717   2.950   0.148   3.465
  606SOL    HW2 2718   3.098   0.168   3.531
  607SOL     OW 2719   5.154   0.961   4.291
  607SOL    HW1 2720   5.179   0.991   4.383
  607SOL    HW2 2721   5.163   1.038   4.228
  608SOL     OW 2722   4.089   1.338   1.765
  608SOL    HW1 2723   4.138   1.316   1.681
  608SOL    HW2 2724   4.056   1.433   1.760
  609SOL     OW 2725   3.789   3.801   4.538
  609SOL    HW1 2726   3.700   3.827   4.501
  609SOL    HW2 2727   3.861   3.826   4.473
  610SOL     OW 2728   5.193   2.293   4.460
  610SOL    HW1 2729   5.146   2.376   4.430
  610SOL    HW2 2730   5.252   2.259   4.387
  611SOL     OW 2731   0.895   6.943   0.507
  611SOL    HW1 2732   0.906   6.977   0.601
  611SOL    HW2 2733   0.884   6.844   0.509
  612SOL     OW 2734   3.303   5.331   5.752
  612SOL    HW1 2735   3.242   5.364   5.825
  612SOL    HW2 2736   3.257   5.259   5.700
  613SOL     OW 2737   3.244   1.941   0.095
  613SOL    HW1 2738   3.322   1.962   0.154
  613SOL    HW2 2739   3.165   1.917   0.152
  614SOL     OW 2740   4.877   4.756   1.159
  614SOL    HW1 2741   4.976   4.768   1.165
  614SOL    HW2 2742   4.853   4.726   1.066
  615SOL     OW 2743   6.453   0.218   0.759
  615SOL    HW1 2744   6.431   0.274   0.839
  615SOL    HW2 2745   6.551   0.203   0.754
  616SOL     OW 2746   5.757   1.864   4.586
  616SOL    HW1 2747   5.796   1.799   4.651
  616SOL    HW2 2748   5.809   1.949   4.588
  617SOL     OW 2749   0.194   5.308   5.772
  617SOL    HW1 2750   0.183   5.211   5.790
  617SOL    HW2 2751   0.176   5.326   5.675
  618SOL     OW 2752   6.553   3.819   0.671
  618SOL    HW1 2753   6.524   3.888   0.604
  618SOL    HW2 2754   6.584   3.864   0.754
  619SOL     OW 2755   2.479   0.294   6.700
  619SOL    HW1 2756   2.542   0.362   6.738
  619SOL    HW2 2757   2.498   0.205   6.742
  620SOL     OW 2758   6.718   1.436   2.563
  620SOL    HW1 2759   6.702   1.375   2.641
  620SOL    HW2 2760   6.809   1.476   2.570
  621SOL     OW 2761   3.350   0.970   6.815
  621SOL    HW1 2762   3.318   1.061   6.840
  621SOL    HW2 2763   3.384   0.922   6.896
  622SOL     OW 2764   0.993   1.426   5.121
  622SOL    HW1 2765   0.969   1.511   5.076
  622SOL    HW2 2766   0.923   1.404   5.190
  623SOL     OW 2767   6.157   6.790   4.496
  623SOL    HW1 2768   6.119   6.860   4.435
  623SOL    HW2 2769   6.220   6.733   4.443
  624SOL     OW 2770   6.200   1.003   6.470
  624SOL    HW1 2771   6.226   0.953   6.388
  624SOL    HW2 2772   6.108   1.042   6.459
  625SOL     OW 2773   2.363   1.541   0.634
  625SOL    HW1 2774   2.271   1.578   0.648
  625SOL    HW2 2775   2.364   1.444   0.659
  626SOL     OW 2776   0.177   4.962   3.803
  626SOL    HW1 2777   0.150   4.866   3.803
  626SOL    HW2 2778   0.274   4.969   3.781
  627SOL     OW 2779   6.688   0.174   6.777
  627SOL    HW1 2780   6.688   0.074   6.783
  627SOL    HW2 2781   6.755   0.212   6.841
  628SOL     OW 2782   4.550   4.926   5.896
  628SOL    HW1 2783   4.458   4.915   5.936
  628SOL    HW2 2784   4.589   4.835   5.880
  629SOL     OW 2785   0.577   6.713   6.332
  629SOL    HW1 2786   0.664   6.666   6.324
  629SOL    HW2 2787   0.510   6.653   6.375
  630SOL     OW 2788   6.837   0.841   1.259
  630SOL    HW1 2789   6.890   0.885   1.331
  630SOL    HW2 2790   6.877   0.752   1.237
  631SOL     OW 2791   1.758   2.647   4.671
  631SOL    HW1 2792   1.833   2.710   4.691
  631SOL    HW2 2793   1.692   2.650   4.747
  632SOL     OW 2794   3.449   3.662   6.654
  632SOL    HW1 2795   3.547   3.654   6.673
  632SOL    HW2 2796   3.404   3.576   6.679
  633SOL     OW 2797   2.017   6.325   1.264
  633SOL    HW1 2798   2.020   6.245   1.324
  633SOL    HW2 2799   2.102   6.330   1.211
  634SOL     OW 2800   3.077   3.125   4.217
  634SOL    HW1 2801   3.060   3.190   4.291
  634SOL    HW2 2802   3.127   3.046   4.253
  635SOL     OW 2803   5.592   1.048   6.622
  635SOL    HW1 2804   5.631   1.074   6.710
  635SOL    HW2 2805   5.595   1.126   6.560
  636SOL     OW 2806   2.884   0.893   6.083
  636SOL    HW1 2807   2.891   0.903   5.984
  636SOL    HW2 2808   2.945   0.820   6.113
  637SOL     OW 2809   6.269   1.581   2.450
  637SOL    HW1 2810   6.222   1.508   2.402
  637SOL    HW2 2811   6.239   1.584   2.545
  638SOL     OW 2812   6.189   3.426   4.437
  638SOL    HW1 2813   6.191   3.473   4.526
  638SOL    HW2 2814   6.098   3.437   4.397
  639SOL     OW 2815   5.224   4.767   2.518
  639SOL    HW1 2816   5.300   4.703   2.509
  639SOL    HW2 2817   5.140   4.724   2.486
  640SOL     OW 2818   0.783   1.960   1.667
  640SOL    HW1 2819   0.734   1.904   1.600
  640SOL    HW2 2820   0.779   2.056   1.639
  641SOL     OW 2821   2.246   5.192   4.338
  641SOL    HW1 2822   2.177   5.233   4.278
  641SOL    HW2 2823   2.207   5.114   4.386
  642SOL     OW 2824   0.645   3.746   4.776
  642SOL    HW1 2825   0.689   3.740   4.686
  642SOL    HW2 2826   0.685   3.676   4.837
  643SOL     OW 2827   4.971   5.506   6.994
  643SOL    HW1 2828   5.031   5.428   6.976
  643SOL    HW2 2829   4.981   5.534   0.065
  644SOL     OW 2830   6.949   6.593   4.941
  644SOL    HW1 2831   6.898   6.678   4.925
  644SOL    HW2 2832   0.016   6.601   4.903
  645SOL     OW 2833   3.840   5.196   1.936
  645SOL    HW1 2834   3.794   5.236   2.016
  645SOL    HW2 2835   3.775   5.137   1.887
  646SOL     OW 2836   3.651   1.380   5.117
  646SOL    HW1 2837   3.672   1.477   5.131
  646SOL    HW2 2838   3.724   1.324   5.155
  647SOL     OW 2839   4.362   2.757   5.932
  647SOL    HW1 2840   4.453   2.785   5.962
  647SOL    HW2 2841   4.353   2.658   5.940
  648SOL     OW 2842   5.754   1.251   3.116
  648SOL    HW1 2843   5.679   1.203   3.161
  648SOL    HW2 2844   5.836   1.248   3.173
  649SOL     OW 2845   2.502   5.873   0.455
  649SOL    HW1 2846   2.490   5.775   0.469
  649SOL    HW2 2847   2.513   5.891   0.357
  650SOL     OW 2848   0.250   4.266   1.083
  650SOL    HW1 2849   0.155   4.271   1.054
  650SOL    HW2 2850   0.304   4.219   1.013
  651SOL     OW 2851   1.641   0.161   4.883
  651SOL    HW1 2852   1.621   0.259   4.875
  651SOL    HW2 2853   1.719   0.148   4.944
  652SOL     OW 2854   3.638   6.214   2.029
  652SOL    HW1 2855   3.636   6.137   1.965
  652SOL    HW2 2856   3.707   6.198   2.099
  653SOL     OW 2857   1.230   6.807   1.950
  653SOL    HW1 2858   1.205   6.773   2.041
  653SOL    HW2 2859   1.306   6.753   1.914
  654SOL     OW 2860   0.315   0.052   4.592
  654SOL    HW1 2861   0.391   7.013   4.575
  654SOL    HW2 2862   0.232   7.024   4.611
  655SOL     OW 2863   6.636   3.971   2.478
  655SOL    HW1 2864   6.560   3.906   2.483
  655SOL    HW2 2865   6.723   3.922   2.483
  656SOL     OW 2866   3.761   6.128   0.432
  656SOL    HW1 2867   3.728   6.088   0.347
  656SOL    HW2 2868   3.728   6.222   0.439
  657SOL     OW 2869   3.748   3.210   2.091
  657SOL    HW1 2870   3.751   3.308   2.073
  657SOL    HW2 2871   3.674   3.190   2.155
  658SOL     OW 2872   1.570   2.833   4.597
  658SOL    HW1 2873   1.528   2.896   4.663
  658SOL    HW2 2874   1.651   2.791   4.639
  659SOL     OW 2875   2.219   6.157   6.056
  659SOL    HW1 2876   2.162   6.219   6.109
  659SOL    HW2 2877   2.212   6.065   6.093
  660SOL     OW 2878   5.255   4.481   2.368
  660SOL    HW1 2879   5.311   4.554   2.328
  660SOL    HW2 2880   5.288   4.461   2.461
  661SOL     OW 2881   4.874   4.393   4.281
  661SOL    HW1 2882   4.835   4.316   4.332
  661SOL    HW2 2883   4.815   4.473   4.292
  662SOL     OW 2884   4.870   3.624   0.244
  662SOL    HW1 2885   4.782   3.581   0.268
  662SOL    HW2 2886   4.871   3.645   0.146
  663SOL     OW 2887   0.622   4.132   0.564
  663SOL    HW1 2888   0.642   4.223   0.528
  663SOL    HW2 2889   0.523   4.119   0.568
  664SOL     OW 2890   2.078   6.779   7.023
  664SOL    HW1 2891   2.101   6.756   6.928
  664SOL    HW2 2892   2.100   6.701   0.057
  665SOL     OW 2893   4.026   5.157   1.313
  665SOL    HW1 2894   4.094   5.113   1.254
  665SOL    HW2 2895   4.043   5.255   1.316
  666SOL     OW 2896   3.019   1.411   0.154
  666SOL    HW1 2897   3.098   1.449   0.202
  666SOL    HW2 2898   2.939   1.469   0.168
  667SOL     OW 2899   1.060   3.226   3.016
  667SOL    HW1 2900   1.143   3.218   2.961
  667SOL    HW2 2901   1.043   3.139   3.062
  668SOL     OW 2902   5.147   6.868   0.487
  668SOL    HW1 2903   5.227   6.829   0.532
  668SOL    HW2 2904   5.171   6.955   0.445
  669SOL     OW 2905   2.024   6.022   3.050
  669SOL    HW1 2906   2.060   6.021   3.143
  669SOL    HW2 2907   2.007   5.929   3.020
  670SOL     OW 2908   3.377   2.929   3.343
  670SOL    HW1 2909   3.340   2.909   3.252
  670SOL    HW2 2910   3.346   3.019   3.372
  671SOL     OW 2911   1.819   0.128   6.039
  671SOL    HW1 2912   1.731   0.109   5.995
  671SOL    HW2 2913   1.819   0.088   6.131
  672SOL     OW 2914   2.549   2.595   3.811
  672SOL    HW1 2915   2.559   2.683   3.764
  672SOL    HW2 2916   2.485   2.605   3.886
  673SOL     OW 2917   6.060   0.029   1.178
  673SOL    HW1 2918   6.068   0.128   1.192
  673SOL    HW2 2919   6.033   7.009   1.264
  674SOL     OW 2920   0.371   2.210   3.730
  674SOL    HW1 2921   0.415   2.210   3.641
  674SOL    HW2 2922   0.438   2.229   3.801
  675SOL     OW 2923   6.158   2.778   5.173
  675SOL    HW1 2924   6.107   2.735   5.099
  675SOL    HW2 2925   6.253   2.745   5.171
  676SOL     OW 2926   1.929   4.466   4.536
  676SOL    HW1 2927   2.025   4.487   4.550
  676SOL    HW2 2928   1.873   4.545   4.563
  677SOL     OW 2929   6.186   6.836   0.538
  677SOL    HW1 2930   6.154   6.930   0.526
  677SOL    HW2 2931   6.144   6.797   0.620
  678SOL     OW 2932   2.354   1.429   6.647
  678SOL    HW1 2933   2.396   1.396   6.732
  678SOL    HW2 2934   2.342   1.352   6.585
  679SOL     OW 2935   5.344   7.017   2.901
  679SOL    HW1 2936   5.267   0.052   2.879
  679SOL    HW2 2937   5.363   6.957   2.823
  680SOL     OW 2938   4.589   4.287   5.115
  680SOL    HW1 2939   4.555   4.231   5.190
  680SOL    HW2 2940   4.636   4.367   5.152
  681SOL     OW 2941   0.851   6.935   2.039
  681SOL    HW1 2942   0.861   6.943   1.940
  681SOL    HW2 2943   0.773   6.989   2.069
  682SOL     OW 2944   1.691   6.041   1.020
  682SOL    HW1 2945   1.764   6.015   0.957
  682SOL    HW2 2946   1.678   6.140   1.017
  683SOL     OW 2947   5.255   1.219   0.541
  683SOL    HW1 2948   5.290   1.290   0.480
  683SOL    HW2 2949   5.157   1.232   0.555
  684SOL     OW 2950   7.020   5.960   6.114
  684SOL    HW1 2951   6.982   5.982   6.204
  684SOL    HW2 2952   6.952   5.908   6.062
  685SOL     OW 2953   6.126   0.573   5.530
  685SOL    HW1 2954   6.062   0.528   5.592
  685SOL    HW2 2955   6.108   0.671   5.529
  686SOL     OW 2956   5.498   4.946   2.863
  686SOL    HW1 2957   5.434   4.869   2.864
  686SOL    HW2 2958   5.570   4.928   2.796
  687SOL     OW 2959   6.387   3.411   5.495
  687SOL    HW1 2960   6.332   3.492   5.474
  687SOL    HW2 2961   6.352   3.333   5.441
  688SOL     OW 2962   6.942   4.128   5.399
  688SOL    HW1 2963   6.912   4.203   5.340
  688SOL    HW2 2964   6.863   4.072   5.424
  689SOL     OW 2965   5.911   4.232   5.957
  689SOL    HW1 2966   5.882   4.228   6.053
  689SOL    HW2 2967   5.951   4.144   5.931
  690SOL     OW 2968   1.175   1.896   3.174
  690SOL    HW1 2969   1.240   1.962   3.212
  690SOL    HW2 2970   1.205   1.803   3.194
  691SOL     OW 2971   0.800   3.051   6.468
  691SOL    HW1 2972   0.778   3.002   6.553
  691SOL    HW2 2973   0.726   3.041   6.403
  692SOL     OW 2974   1.928   0.176   3.095
  692SOL    HW1 2975   1.843   0.184   3.044
  692SOL    HW2 2976   2.005   0.204   3.037
  693SOL     OW 2977   0.056   1.689   2.119
  693SOL    HW1 2978   0.135   1.660   2.173
  693SOL    HW2 2979   0.082   1.767   2.061
  694SOL     OW 2980   1.774   0.354   1.449
  694SOL    HW1 2981   1.748   0.257   1.448
  694SOL    HW2 2982   1.873   0.362   1.458
  695SOL     OW 2983   4.305   6.502   5.805
  695SOL    HW1 2984   4.346   6.411   5.810
  695SOL    HW2 2985   4.287   6.536   5.897
  696SOL     OW 2986   4.268   5.652   2.311
  696SOL    HW1 2987   4.254   5.638   2.409
  696SOL    HW2 2988   4.181   5.674   2.268
  697SOL     OW 2989   1.286   4.119   3.700
  697SOL    HW1 2990   1.347   4.092   3.626
  697SOL    HW2 2991   1.199   4.150   3.662
  698SOL     OW 2992   4.592   0.177   3.573
  698SOL    HW1 2993   4.678   0.137   3.604
  698SOL    HW2 2994   4.515   0.125   3.611
  699SOL     OW 2995   1.874   4.559   0.974
  699SOL    HW1 2996   1.806   4.534   1.042
  699SOL    HW2 2997   1.945   4.488   0.970
  700SOL     OW 2998   2.045   1.379   4.477
  700SOL    HW1 2999   2.029   1.478   4.478
  700SOL    HW2 3000   2.142   1.361   4.486
  701SOL     OW 3001   0.053   4.162   5.981
  701SOL    HW1 3002   0.093   4.220   5.910
  701SOL    HW2 3003   0.123   4.142   6.051
  702SOL     OW 3004   5.465   5.716   4.721
  702SOL    HW1 3005   5.421   5.796   4.680
  702SOL    HW2 3006   5.397   5.643   4.733
  703SOL     OW 3007   3.955   3.927   6.622
  703SOL    HW1 3008   4.012   3.847   6.642
  703SOL    HW2 3009   3.923   3.922   6.527
  704SOL     OW 3010   2.353   0.050   0.133
  704SOL    HW1 3011   2.358   0.014   0.226
  704SOL    HW2 3012   2.330   7.001   0.069
  705SOL     OW 3013   6.056   2.550   2.284
  705SOL    HW1 3014   6.006   2.465   2.270
  705SOL    HW2 3015   6.077   2.561   2.381
  706SOL     OW 3016   3.545   1.845   3.857
  706SOL    HW1 3017   3.563   1.754   3.819
  706SOL    HW2 3018   3.629   1.899   3.855
  707SOL     OW 3019   5.330   0.915   1.554
  707SOL    HW1 3020   5.392   0.920   1.632
  707SOL    HW2 3021   5.256   0.851   1.574
  708SOL     OW 3022   4.180   0.733   1.875
  708SOL    HW1 3023   4.190   0.640   1.839
  708SOL    HW2 3024   4.172   0.798   1.800
  709SOL     OW 3025   0.793   4.778   0.195
  709SOL    HW1 3026   0.804   4.747   0.289
  709SOL    HW2 3027   0.706   4.745   0.159
  710SOL     OW 3028   2.907   3.768   2.777
  710SOL    HW1 3029   2.906   3.868   2.770
  710SOL    HW2 3030   2.923   3.729   2.686
  711SOL     OW 3031   0.408   0.649   3.999
  711SOL    HW1 3032   0.411   0.590   3.919
  711SOL    HW2 3033   0.494   0.699   4.008
  712SOL     OW 3034   1.755   3.835   1.703
  712SOL    HW1 3035   1.812   3.915   1.720
  712SOL    HW2 3036   1.706   3.810   1.786
  713SOL     OW 3037   3.858   3.011   2.819
  713SOL    HW1 3038   3.781   3.074   2.821
  713SOL    HW2 3039   3.847   2.949   2.741
  714SOL     OW 3040   4.592   5.224   4.875
  714SOL    HW1 3041   4.523   5.152   4.883
  714SOL    HW2 3042   4.590   5.261   4.782
  715SOL     OW 3043   4.423   0.143   6.377
  715SOL    HW1 3044   4.366   0.165   6.457
  715SOL    HW2 3045   4.413   0.215   6.309
  716SOL     OW 3046   0.131   4.587   1.644
  716SOL    HW1 3047   0.089   4.497   1.632
  716SOL    HW2 3048   0.100   4.627   1.730
  717SOL     OW 3049   6.316   2.459   0.264
  717SOL    HW1 3050   6.399   2.403   0.267
  717SOL    HW2 3051   6.334   2.547   0.309
  718SOL     OW 3052   3.926   3.742   6.387
  718SOL    HW1 3053   3.973   3.780   6.307
  718SOL    HW2 3054   3.839   3.703   6.359
  719SOL     OW 3055   5.852   4.052   0.820
  719SOL    HW1 3056   5.797   4.079   0.899
  719SOL    HW2 3057   5.839   3.955   0.802
  720SOL     OW 3058   2.655   1.230   6.416
  720SOL    HW1 3059   2.706   1.241   6.331
  720SOL    HW2 3060   2.557   1.230   6.397
  721SOL     OW 3061   1.579   0.095   5.897
  721SOL    HW1 3062   1.504   0.073   5.960
  721SOL    HW2 3063   1.585   0.025   5.827
  722SOL     OW 3064   4.154   0.069   4.715
  722SOL    HW1 3065   4.175   7.000   4.744
  722SOL    HW2 3066   4.234   0.110   4.673
  723SOL     OW 3067   1.101   3.112   1.972
  723SOL    HW1 3068   1.077   3.056   2.051
  723SOL    HW2 3069   1.020   3.162   1.940
  724SOL     OW 3070   0.145   1.178   5.161
  724SOL    HW1 3071   0.076   1.218   5.100
  724SOL    HW2 3072   0.234   1.179   5.115
  725SOL     OW 3073   2.324   4.961   1.524
  725SOL    HW1 3074   2.245   4.904   1.548
  725SOL    HW2 3075   2.337   5.031   1.594
  726SOL     OW 3076   4.014   0.058   6.518
  726SOL    HW1 3077   3.937   0.122   6.508
  726SOL    HW2 3078   4.073   0.088   6.593
  727SOL     OW 3079   3.026   5.074   4.308
  727SOL    HW1 3080   2.988   5.096   4.218
  727SOL    HW2 3081   3.124   5.058   4.299
  728SOL     OW 3082   6.836   3.701   5.165
  728SOL    HW1 3083   6.910   3.767   5.181
  728SOL    HW2 3084   6.816   3.653   5.251
  729SOL     OW 3085   2.489   0.032   1.562
  729SOL    HW1 3086   2.464   0.098   1.492
  729SOL    HW2 3087   2.576   7.013   1.537
  730SOL     OW 3088   5.781   0.484   3.871
  730SOL    HW1 3089   5.771   0.402   3.815
  730SOL    HW2 3090   5.690   0.515   3.900
  731SOL     OW 3091   5.829   3.598   3.827
  731SOL    HW1 3092   5.854   3.548   3.910
  731SOL    HW2 3093   5.910   3.641   3.788
  732SOL     OW 3094   6.272   2.651   1.334
  732SOL    HW1 3095   6.299   2.575   1.394
  732SOL    HW2 3096   6.318   2.641   1.246
  733SOL     OW 3097   4.884   4.271   4.007
  733SOL    HW1 3098   4.920   4.178   4.007
  733SOL    HW2 3099   4.887   4.309   4.099
  734SOL     OW 3100   6.406   4.663   0.905
  734SOL    HW1 3101   6.503   4.689   0.901
  734SOL    HW2 3102   6.399   4.563   0.908
  735SOL     OW 3103   1.688   4.362   6.332
  735SOL    HW1 3104   1.618   4.294   6.352
  735SOL    HW2 3105   1.679   4.392   6.237
  736SOL     OW 3106   6.302   1.184   3.445
  736SOL    HW1 3107   6.363   1.118   3.400
  736SOL    HW2 3108   6.291   1.265   3.386
  737SOL     OW 3109   5.003   3.261   0.359
  737SOL    HW1 3110   5.019   3.360   0.354
  737SOL    HW2 3111   4.932   3.243   0.426
  738SOL     OW 3112   0.938   3.820   4.081
  738SOL    HW1 3113   0.847   3.860   4.082
  738SOL    HW2 3114   0.997   3.871   4.018
  739SOL     OW 3115   4.494   6.235   6.425
  739SOL    HW1 3116   4.507   6.331   6.402
  739SOL    HW2 3117   4.538   6.215   6.512
  740SOL     OW 3118   6.334   6.471   1.684
  740SOL    HW1 3119   6.368   6.456   1.777
  740SOL    HW2 3120   6.311   6.382   1.644
  741SOL     OW 3121   2.034   0.429   2.423
  741SOL    HW1 3122   2.116   0.485   2.431
  741SOL    HW2 3123   1.968   0.474   2.362
  742SOL     OW 3124   1.038   6.958   3.443
  742SOL    HW1 3125   1.092   0.012   3.475
  742SOL    HW2 3126   0.965   6.991   3.383
  743SOL     OW 3127   2.208   4.162   4.617
  743SOL    HW1 3128   2.307   4.173   4.619
  743SOL    HW2 3129   2.165   4.252   4.630
  744SOL     OW 3130   0.123   5.423   0.444
  744SOL    HW1 3131   0.179   5.379   0.514
  744SOL    HW2 3132   0.124   5.522   0.457
  745SOL     OW 3133   1.577   5.951   2.376
  745SOL    HW1 3134   1.578   5.859   2.337
  745SOL    HW2 3135   1.574   5.945   2.475
  746SOL     OW 3136   1.478   0.895   5.334
  746SOL    HW1 3137   1.533   0.812   5.346
  746SOL    HW2 3138   1.480   0.923   5.238
  747SOL     OW 3139   5.089   4.873   2.955
  747SOL    HW1 3140   4.993   4.881   2.927
  747SOL    HW2 3141   5.102   4.914   3.045
  748SOL     OW 3142   4.733   3.479   1.532
  748SOL    HW1 3143   4.800   3.470   1.459
  748SOL    HW2 3144   4.779   3.472   1.621
  749SOL     OW 3145   6.619   1.805   5.449
  749SOL    HW1 3146   6.564   1.722   5.442
  749SOL    HW2 3147   6.710   1.782   5.484
  750SOL     OW 3148   2.379   4.217   0.534
  750SOL    HW1 3149   2.298   4.168   0.567
  750SOL    HW2 3150   2.459   4.189   0.586
  751SOL     OW 3151   4.380   1.013   0.159
  751SOL    HW1 3152   4.322   1.084   0.199
  751SOL    HW2 3153   4.476   1.039   0.170
  752SOL     OW 3154   4.751   2.225   1.732
  752SOL    HW1 3155   4.678   2.276   1.687
  752SOL    HW2 3156   4.778   2.272   1.816
  753SOL     OW 3157   1.906   2.452   3.986
  753SOL    HW1 3158   1.950   2.362   3.994
  753SOL    HW2 3159   1.974   2.524   4.002
  754SOL     OW 3160   4.080   5.719   6.884
  754SOL    HW1 3161   4.075   5.794   6.818
  754SOL    HW2 3162   4.065   5.632   6.836
  755SOL     OW 3163   0.091   6.110   0.299
  755SOL    HW1 3164   0.075   6.064   0.212
  755SOL    HW2 3165   0.157   6.056   0.353
  756SOL     OW 3166   4.962   0.587   2.778
  756SOL    HW1 3167   5.003   0.656   2.837
  756SOL    HW2 3168   4.910   0.522   2.833
  757SOL     OW 3169   0.235   6.763   3.864
  757SOL    HW1 3170   0.308   6.720   3.811
  757SOL    HW2 3171   0.215   6.853   3.825
  758SOL     OW 3172   3.784   2.288   1.024
  758SOL    HW1 3173   3.754   2.332   1.109
  758SOL    HW2 3174   3.801   2.191   1.040
  759SOL     OW 3175   1.244   1.207   6.963
  759SOL    HW1 3176   1.192   1.275   6.912
  759SOL    HW2 3177   1.254   1.236   0.034
  760SOL     OW 3178   4.746   1.640   5.699
  760SOL    HW1 3179   4.748   1.614   5.796
  760SOL    HW2 3180   4.750   1.558   5.642
  761SOL     OW 3181   5.805   2.354   6.591
  761SOL    HW1 3182   5.719   2.355   6.642
  761SOL    HW2 3183   5.861   2.277   6.622
  762SOL     OW 3184   2.425   6.799   4.382
  762SOL    HW1 3185   2.474   6.886   4.367
  762SOL    HW2 3186   2.343   6.797   4.325
  763SOL     OW 3187   4.106   5.935   6.739
  763SOL    HW1 3188   4.064   6.021   6.765
  763SOL    HW2 3189   4.151   5.946   6.650
  764SOL     OW 3190   4.205   1.360   2.357
  764SOL    HW1 3191   4.210   1.459   2.371
  764SOL    HW2 3192   4.156   1.341   2.272
  765SOL     OW 3193   7.014   0.113   3.048
  765SOL    HW1 3194   7.023   0.175   3.126
  765SOL    HW2 3195   6.978   0.163   2.970
  766SOL     OW 3196   0.439   6.064   0.192
  766SOL    HW1 3197   0.356   6.120   0.200
  766SOL    HW2 3198   0.515   6.111   0.237
  767SOL     OW 3199   6.039   6.635   2.912
  767SOL    HW1 3200   6.052   6.559   2.847
  767SOL    HW2 3201   6.121   6.645   2.968
  768SOL     OW 3202   2.849   6.341   2.768
  768SOL    HW1 3203   2.757   6.323   2.805
  768SOL    HW2 3204   2.883   6.427   2.804
  769SOL     OW 3205   4.325   0.947   5.313
  769SOL    HW1 3206   4.370   1.036   5.316
  769SOL    HW2 3207   4.240   0.954   5.260
  770SOL     OW 3208   3.102   4.851   4.103
  770SOL    HW1 3209   3.155   4.844   4.188
  770SOL    HW2 3210   3.165   4.859   4.026
  771SOL     OW 3211   0.853   5.353   3.225
  771SOL    HW1 3212   0.873   5.315   3.316
  771SOL    HW2 3213   0.835   5.278   3.161
  772SOL     OW 3214   0.073   3.864   6.130
  772SOL    HW1 3215   0.006   3.791   6.137
  772SOL    HW2 3216   0.166   3.825   6.134
  773SOL     OW 3217   0.116   3.812   2.179
  773SOL    HW1 3218   0.098   3.758   2.097
  773SOL    HW2 3219   0.201   3.782   2.222
  774SOL     OW 3220   1.462   1.016   1.354
  774SOL    HW1 3221   1.400   1.020   1.432
  774SOL    HW2 3222   1.528   1.092   1.360
  775SOL     OW 3223   1.372   2.289   4.744
  775SOL    HW1 3224   1.471   2.272   4.747
  775SOL    HW2 3225   1.331   2.265   4.832
  776SOL     OW 3226   2.512   0.523   6.029
  776SOL    HW1 3227   2.459   0.608   6.031
  776SOL    HW2 3228   2.449   0.445   6.033
  777SOL     OW 3229   4.161   1.439   1.248
  777SOL    HW1 3230   4.152   1.521   1.192
  777SOL    HW2 3231   4.257   1.412   1.254
  778SOL     OW 3232   4.395   6.443   3.881
  778SOL    HW1 3233   4.474   6.500   3.858
  778SOL    HW2 3234   4.419   6.379   3.954
  779SOL     OW 3235   1.144   1.499   2.221
  779SOL    HW1 3236   1.229   1.540   2.187
  779SOL    HW2 3237   1.153   1.478   2.318
  780SOL     OW 3238   6.084   3.579   5.132
  780SOL    HW1 3239   6.076   3.489   5.088
  780SOL    HW2 3240   6.163   3.627   5.095
  781SOL     OW 3241   6.727   0.706   6.084
  781SOL    HW1 3242   6.760   0.612   6.087
  781SOL    HW2 3243   6.775   0.755   6.011
  782SOL     OW 3244   6.780   2.798   1.002
  782SOL    HW1 3245   6.850   2.823   0.935
  782SOL    HW2 3246   6.760   2.700   0.994
  783SOL     OW 3247   2.664   5.123   0.417
  783SOL    HW1 3248   2.757   5.090   0.432
  783SOL    HW2 3249   2.638   5.186   0.490
  784SOL     OW 3250   4.613   1.131   5.213
  784SOL    HW1 3251   4.707   1.164   5.218
  784SOL    HW2 3252   4.565   1.156   5.297
  785SOL     OW 3253   6.376   2.095   3.428
  785SOL    HW1 3254   6.431   2.067   3.507
  785SOL    HW2 3255   6.296   2.145   3.459
  786SOL     OW 3256   0.055   6.671   0.096
  786SOL    HW1 3257   6.991   6.625   0.086
  786SOL    HW2 3258   0.109   6.623   0.165
  787SOL     OW 3259   3.001   2.149   6.118
  787SOL    HW1 3260   2.967   2.202   6.040
  787SOL    HW2 3261   3.055   2.072   6.085
  788SOL     OW 3262   1.336   3.482   4.008
  788SOL    HW1 3263   1.321   3.492   3.909
  788SOL    HW2 3264   1.364   3.388   4.028
  789SOL     OW 3265   5.364   4.186   1.654
  789SOL    HW1 3266   5.398   4.280   1.660
  789SOL    HW2 3267   5.295   4.181   1.582
  790SOL     OW 3268   2.917   1.299   3.687
  790SOL    HW1 3269   2.875   1.208   3.678
  790SOL    HW2 3270   2.863   1.354   3.750
  791SOL     OW 3271   3.131   1.471   4.317
  791SOL    HW1 3272   3.128   1.561   4.360
  791SOL    HW2 3273   3.039   1.446   4.287
  792SOL     OW 3274   5.640   0.536   3.431
  792SOL    HW1 3275   5.720   0.504   3.382
  792SOL    HW2 3276   5.665   0.612   3.491
  793SOL     OW 3277   5.553   0.316   0.104
  793SOL    HW1 3278   5.538   0.406   0.064
  793SOL    HW2 3279   5.465   0.276   0.131
  794SOL     OW 3280   2.268   5.450   5.968
  794SOL    HW1 3281   2.355   5.401   5.964
  794SOL    HW2 3282   2.245   5.484   5.876
  795SOL     OW 3283   4.505   4.321   6.298
  795SOL    HW1 3284   4.409   4.298   6.282
  795SOL    HW2 3285   4.532   4.394   6.235
  796SOL     OW 3286   0.325   2.289   7.002
  796SOL    HW1 3287   0.304   2.366   0.038
  796SOL    HW2 3288   0.421   2.263   7.015
  797SOL     OW 3289   6.185   2.862   3.924
  797SOL    HW1 3290   6.193   2.960   3.942
  797SOL    HW2 3291   6.273   2.826   3.894
  798SOL     OW 3292   4.945   1.246   6.311
  798SOL    HW1 3293   5.021   1.292   6.358
  798SOL    HW2 3294   4.980   1.200   6.229
  799SOL     OW 3295   6.871   2.558   2.691
  799SOL    HW1 3296   6.781   2.564   2.734
  799SOL    HW2 3297   6.942   2.565   2.762
  800SOL     OW 3298   6.191   1.306   2.378
  800SOL    HW1 3299   6.161   1.225   2.429
  800SOL    HW2 3300   6.207   1.281   2.283
  801SOL     OW 3301   0.196   2.495   2.831
  801SOL    HW1 3302   0.152   2.583   2.812
  801SOL    HW2 3303   0.125   2.428   2.853
  802SOL     OW 3304   5.509   1.076   0.576
  802SOL    HW1 3305   5.537   1.077   0.480
  802SOL    HW2 3306   5.417   1.115   0.583
  803SOL     OW 3307   6.602   6.242   4.668
  803SOL    HW1 3308   6.506   6.217   4.656
  803SOL    HW2 3309   6.653   6.163   4.702
  804SOL     OW 3310   0.730   6.562   0.024
  804SOL    HW1 3311   0.725   6.635   6.980
  804SOL    HW2 3312   0.769   6.597   0.109
  805SOL     OW 3313   2.852   3.212   6.164
  805SOL    HW1 3314   2.820   3.200   6.258
  805SOL    HW2 3315   2.936   3.159   6.150
  806SOL     OW 3316   5.246   0.978   0.246
  806SOL    HW1 3317   5.156   1.000   0.284
  806SOL    HW2 3318   5.271   1.045   0.176
  807SOL     OW 3319   1.293   0.466   3.490
  807SOL    HW1 3320   1.277   0.394   3.557
  807SOL    HW2 3321   1.249   0.551   3.521
  808SOL     OW 3322   5.425   3.339   5.644
  808SOL    HW1 3323   5.347   3.389   5.605
  808SOL    HW2 3324   5.510   3.382   5.615
  809SOL     OW 3325   0.306   4.087   6.480
  809SOL    HW1 3326   0.243   4.016   6.512
  809SOL    HW2 3327   0.295   4.169   6.536
  810SOL     OW 3328   5.641   3.864   0.097
  810SOL    HW1 3329   5.719   3.870   0.034
  810SOL    HW2 3330   5.622   3.769   0.118
  811SOL     OW 3331   5.324   4.829   3.863
  811SOL    HW1 3332   5.414   4.790   3.845
  811SOL    HW2 3333   5.333   4.920   3.904
  812SOL     OW 3334   0.178   0.054   1.465
  812SOL    HW1 3335   0.161   0.139   1.415
  812SOL    HW2 3336   0.181   0.072   1.563
  813SOL     OW 3337   5.090   5.212   2.521
  813SOL    HW1 3338   5.057   5.204   2.615
  813SOL    HW2 3339   5.015   5.196   2.458
  814SOL     OW 3340   5.893   6.107   2.001
  814SOL    HW1 3341   5.952   6.132   1.924
  814SOL    HW2 3342   5.867   6.190   2.051
  815SOL     OW 3343   6.496   1.929   0.949
  815SOL    HW1 3344   6.580   1.930   1.003
  815SOL    HW2 3345   6.451   2.018   0.955
  816SOL     OW 3346   6.528   6.108   0.995
  816SOL    HW1 3347   6.485   6.126   0.906
  816SOL    HW2 3348   6.476   6.153   1.067
  817SOL     OW 3349   1.868   3.117   2.353
  817SOL    HW1 3350   1.954   3.123   2.302
  817SOL    HW2 3351   1.794   3.091   2.290
  818SOL     OW 3352   6.017   1.046   0.850
  818SOL    HW1 3353   6.102   0.994   0.836
  818SOL    HW2 3354   6.038   1.131   0.899
  819SOL     OW 3355   6.845   3.359   4.008
  819SOL    HW1 3356   6.774   3.424   4.037
  819SOL    HW2 3357   6.856   3.365   3.909
  820SOL     OW 3358   1.111   3.212   4.874
  820SOL    HW1 3359   1.134   3.283   4.807
  820SOL    HW2 3360   1.154   3.233   4.961
  821SOL     OW 3361   1.282   3.297   0.043
  821SOL    HW1 3362   1.324   3.212   0.073
  821SOL    HW2 3363   1.190   3.279   0.008
  822SOL     OW 3364   1.617   3.576   4.829
  822SOL    HW1 3365   1.630   3.573   4.730
  822SOL    HW2 3366   1.655   3.661   4.865
  823SOL     OW 3367   3.948   4.307   6.892
  823SOL    HW1 3368   3.915   4.270   6.978
  823SOL    HW2 3369   4.017   4.245   6.853
  824SOL     OW 3370   5.176   2.507   5.677
  824SOL    HW1 3371   5.093   2.485   5.728
  824SOL    HW2 3372   5.189   2.440   5.603
  825SOL     OW 3373   2.043   3.884   2.605
  825SOL    HW1 3374   2.016   3.973   2.640
  825SOL    HW2 3375   1.964   3.837   2.566
  826SOL     OW 3376   6.780   3.722   6.822
  826SOL    HW1 3377   6.780   3.729   6.722
  826SOL    HW2 3378   6.687   3.733   6.857
  827SOL     OW 3379   3.499   5.845   0.104
  827SOL    HW1 3380   3.542   5.926   0.144
  827SOL    HW2 3381   3.550   5.818   0.022
  828SOL     OW 3382   5.586   0.322   5.682
  828SOL    HW1 3383   5.655   0.283   5.621
  828SOL    HW2 3384   5.594   0.421   5.683
  829SOL     OW 3385   3.041   3.228   4.462
  829SOL    HW1 3386   2.958   3.217   4.517
  829SOL    HW2 3387   3.121   3.220   4.521
  830SOL     OW 3388   4.515   4.324   5.481
  830SOL    HW1 3389   4.584   4.369   5.424
  830SOL    HW2 3390   4.427   4.369   5.469
  831SOL     OW 3391   6.858   1.154   5.549
  831SOL    HW1 3392   6.890   1.101   5.471
  831SOL    HW2 3393   6.772   1.115   5.582
  832SOL     OW 3394   2.352   1.687   6.556
  832SOL    HW1 3395   2.315   1.766   6.605
  832SOL    HW2 3396   2.304   1.604   6.587
  833SOL     OW 3397   6.636   6.855   6.181
  833SOL    HW1 3398   6.643   6.954   6.165
  833SOL    HW2 3399   6.694   6.807   6.115
  834SOL     OW 3400   2.943   3.680   4.404
  834SOL    HW1 3401   2.962   3.760   4.348
  834SOL    HW2 3402   2.928   3.708   4.499
  835SOL     OW 3403   3.450   6.918   3.527
  835SOL    HW1 3404   3.450   7.011   3.565
  835SOL    HW2 3405   3.497   6.856   3.589
  836SOL     OW 3406   2.997   1.013   0.673
  836SOL    HW1 3407   2.940   1.020   0.591
  836SOL    HW2 3408   2.956   1.065   0.748
  837SOL     OW 3409   5.046   1.347   5.694
  837SOL    HW1 3410   5.061   1.402   5.612
  837SOL    HW2 3411   5.009   1.404   5.767
  838SOL     OW 3412   2.127   5.534   3.441
  838SOL    HW1 3413   2.028   5.545   3.438
  838SOL    HW2 3414   2.157   5.472   3.368
  839SOL     OW 3415   2.861   1.833   3.107
  839SOL    HW1 3416   2.951   1.816   3.068
  839SOL    HW2 3417   2.844   1.767   3.181
  840SOL     OW 3418   1.016   1.405   0.132
  840SOL    HW1 3419   0.935   1.423   0.076
  840SOL    HW2 3420   1.083   1.478   0.118
  841SOL     OW 3421   0.725   3.474   6.533
  841SOL    HW1 3422   0.650   3.534   6.506
  841SOL    HW2 3423   0.791   3.467   6.458
  842SOL     OW 3424   3.736   4.853   2.811
  842SOL    HW1 3425   3.815   4.825   2.866
  842SOL    HW2 3426   3.655   4.802   2.840
  843SOL     OW 3427   6.526   1.931   1.935
  843SOL    HW1 3428   6.453   1.883   1.984
  843SOL    HW2 3429   6.507   2.029   1.934
  844SOL     OW 3430   4.880   5.997   0.684
  844SOL    HW1 3431   4.943   5.987   0.761
  844SOL    HW2 3432   4.873   5.910   0.635
  845SOL     OW 3433   0.457   4.776   4.963
  845SOL    HW1 3434   0.534   4.713   4.978
  845SOL    HW2 3435   0.446   4.834   5.043
  846SOL     OW 3436   6.382   1.424   6.495
  846SOL    HW1 3437   6.472   1.456   6.524
  846SOL    HW2 3438   6.330   1.502   6.460
  847SOL     OW 3439   4.895   3.508   2.193
  847SOL    HW1 3440   4.814   3.543   2.146
  847SOL    HW2 3441   4.974   3.514   2.133
  848SOL     OW 3442   5.886   0.828   6.015
  848SOL    HW1 3443   5.980   0.864   6.021
  848SOL    HW2 3444   5.855   0.802   6.107
  849SOL     OW 3445   0.528   5.243   4.805
  849SOL    HW1 3446   0.573   5.272   4.720
  849SOL    HW2 3447   0.496   5.149   4.794
  850SOL     OW 3448   3.777   1.083   3.062
  850SOL    HW1 3449   3.802   1.179   3.064
  850SOL    HW2 3450   3.679   1.074   3.043
  851SOL     OW 3451   1.757   0.309   0.114
  851SOL    HW1 3452   1.686   0.251   0.074
  851SOL    HW2 3453   1.801   0.260   0.189
  852SOL     OW 3454   1.789   3.691   6.350
  852SOL    HW1 3455   1.855   3.723   6.417
  852SOL    HW2 3456   1.730   3.622   6.391
  853SOL     OW 3457   0.942   3.889   1.712
  853SOL    HW1 3458   0.850   3.907   1.746
  853SOL    HW2 3459   0.946   3.908   1.614
  854SOL     OW 3460   5.110   5.352   1.857
  854SOL    HW1 3461   5.194   5.365   1.804
  854SOL    HW2 3462   5.074   5.261   1.840
  855SOL     OW 3463   5.277   0.015   1.964
  855SOL    HW1 3464   5.211   7.002   2.030
  855SOL    HW2 3465   5.370   0.002   1.999
  856SOL     OW 3466   2.438   6.594   5.208
  856SOL    HW1 3467   2.419   6.667   5.142
  856SOL    HW2 3468   2.400   6.618   5.297
  857SOL     OW 3469   6.271   3.348   1.516
  857SOL    HW1 3470   6.278   3.411   1.593
  857SOL    HW2 3471   6.180   3.305   1.516
  858SOL     OW 3472   3.073   4.528   1.373
  858SOL    HW1 3473   3.072   4.430   1.390
  858SOL    HW2 3474   3.167   4.562   1.380
  859SOL     OW 3475   6.726   4.682   0.013
  859SOL    HW1 3476   6.772   4.764   0.045
  859SOL    HW2 3477   6.793   4.614   7.007
  860SOL     OW 3478   2.081   5.005   1.140
  860SOL    HW1 3479   2.045   4.939   1.075
  860SOL    HW2 3480   2.055   4.978   1.233
  861SOL     OW 3481   3.792   5.609   5.556
  861SOL    HW1 3482   3.860   5.648   5.618
  861SOL    HW2 3483   3.723   5.560   5.609
  862SOL     OW 3484   4.776   4.187   4.396
  862SOL    HW1 3485   4.809   4.121   4.463
  862SOL    HW2 3486   4.746   4.139   4.313
  863SOL     OW 3487   5.885   1.246   1.199
  863SOL    HW1 3488   5.967   1.299   1.174
  863SOL    HW2 3489   5.886   1.159   1.150
  864SOL     OW 3490   6.053   3.846   2.604
  864SOL    HW1 3491   6.032   3.929   2.655
  864SOL    HW2 3492   5.974   3.784   2.608
  865SOL     OW 3493   1.837   6.284   4.668
  865SOL    HW1 3494   1.877   6.358   4.722
  865SOL    HW2 3495   1.836   6.309   4.572
  866SOL     OW 3496   3.025   1.974   1.935
  866SOL    HW1 3497   3.101   1.914   1.960
  866SOL    HW2 3498   2.979   1.937   1.854
  867SOL     OW 3499   2.106   2.962   6.179
  867SOL    HW1 3500   2.038   3.024   6.218
  867SOL    HW2 3501   2.062   2.900   6.114
  868SOL     OW 3502   5.316   2.481   3.496
  868SOL    HW1 3503   5.224   2.472   3.459
  868SOL    HW2 3504   5.370   2.542   3.438
  869SOL     OW 3505   6.285   5.447   2.601
  869SOL    HW1 3506   6.193   5.437   2.637
  869SOL    HW2 3507   6.348   5.470   2.675
  870SOL     OW 3508   6.974   1.144   1.156
  870SOL    HW1 3509   6.981   1.049   1.127
  870SOL    HW2 3510   0.033   1.170   1.204
  871SOL     OW 3511   6.125   2.388   0.956
  871SOL    HW1 3512   6.097   2.294   0.937
  871SOL    HW2 3513   6.172   2.426   0.876
  872SOL     OW 3514   6.097   2.178   3.314
  872SOL    HW1 3515   6.040   2.247   3.270
  872SOL    HW2 3516   6.158   2.136   3.247
  873SOL     OW 3517   4.379   6.942   5.435
  873SOL    HW1 3518   4.441   7.003   5.484
  873SOL    HW2 3519   4.430   6.896   5.362
  874SOL     OW 3520   0.594   3.238   5.700
  874SOL    HW1 3521   0.665   3.294   5.743
  874SOL    HW2 3522   0.600   3.246   5.601
  875SOL     OW 3523   6.350   4.353   0.131
  875SOL    HW1 3524   6.414   4.428   0.143
  875SOL    HW2 3525   6.398   4.265   0.136
  876SOL     OW 3526   0.377   3.312   2.056
  876SOL    HW1 3527   0.354   3.373   1.980
  876SOL    HW2 3528   0.476   3.299   2.059
  877SOL     OW 3529   5.892   5.845   0.825
  877SOL    HW1 3530   5.987   5.857   0.852
  877SOL    HW2 3531   5.886   5.782   0.748
  878SOL     OW 3532   2.867   4.801   0.345
  878SOL    HW1 3533   2.901   4.893   0.363
  878SOL    HW2 3534   2.945   4.738   0.339
  879SOL     OW 3535   4.877   2.373   2.183
  879SOL    HW1 3536   4.847   2.367   2.088
  879SOL    HW2 3537   4.975   2.353   2.189
  880SOL     OW 3538   3.828   5.341   0.166
  880SOL    HW1 3539   3.838   5.314   0.262
  880SOL    HW2 3540   3.738   5.383   0.153
  881SOL     OW 3541   4.115   5.069   5.331
  881SOL    HW1 3542   4.174   4.999   5.291
  881SOL    HW2 3543   4.041   5.025   5.383
  882SOL     OW 3544   1.372   1.172   4.854
  882SOL    HW1 3545   1.298   1.118   4.816
  882SOL    HW2 3546   1.365   1.266   4.822
  883SOL     OW 3547   3.015   5.174   6.386
  883SOL    HW1 3548   3.016   5.091   6.330
  883SOL    HW2 3549   2.947   5.238   6.350
  884SOL     OW 3550   4.690   3.730   1.451
  884SOL    HW1 3551   4.702   3.635   1.478
  884SOL    HW2 3552   4.677   3.735   1.352
  885SOL     OW 3553   4.432   6.473   0.098
  885SOL    HW1 3554   4.409   6.391   0.150
  885SOL    HW2 3555   4.466   6.544   0.160
  886SOL     OW 3556   4.301   1.938   6.165
  886SOL    HW1 3557   4.357   1.994   6.105
  886SOL    HW2 3558   4.288   1.985   6.252
  887SOL     OW 3559   4.380   0.398   6.531
  887SOL    HW1 3560   4.479   0.414   6.524
  887SOL    HW2 3561   4.345   0.445   6.612
  888SOL     OW 3562   6.188   6.084   3.034
  888SOL    HW1 3563   6.254   6.050   2.967
  888SOL    HW2 3564   6.135   6.158   2.994
  889SOL     OW 3565   0.780   6.712   4.825
  889SOL    HW1 3566   0.862   6.705   4.768
  889SOL    HW2 3567   0.805   6.701   4.921
  890SOL     OW 3568   2.648   4.597   2.191
  890SOL    HW1 3569   2.552   4.607   2.166
  890SOL    HW2 3570   2.704   4.592   2.108
  891SOL     OW 3571   5.215   3.334   6.684
  891SOL    HW1 3572   5.216   3.247   6.733
  891SOL    HW2 3573   5.121   3.364   6.672
  892SOL     OW 3574   2.105   4.434   1.300
  892SOL    HW1 3575   2.100   4.418   1.399
  892SOL    HW2 3576   2.071   4.526   1.280
  893SOL     OW 3577   1.583   0.098   0.173
  893SOL    HW1 3578   1.513   0.136   0.112
  893SOL    HW2 3579   1.541   0.073   0.260
  894SOL     OW 3580   0.688   5.527   3.654
  894SOL    HW1 3581   0.600   5.568   3.676
  894SOL    HW2 3582   0.712   5.459   3.724
  895SOL     OW 3583   2.752   6.529   5.299
  895SOL    HW1 3584   2.676   6.518   5.236
  895SOL    HW2 3585   2.789   6.621   5.291
  896SOL     OW 3586   5.576   6.687   3.231
  896SOL    HW1 3587   5.545   6.765   3.286
  896SOL    HW2 3588   5.650   6.640   3.280
  897SOL     OW 3589   5.438   2.363   5.817
  897SOL    HW1 3590   5.435   2.333   5.912
  897SOL    HW2 3591   5.411   2.459   5.811
  898SOL     OW 3592   5.863   6.504   4.008
  898SOL    HW1 3593   5.953   6.545   3.991
  898SOL    HW2 3594   5.795   6.576   4.020
  899SOL     OW 3595   0.817   4.793   5.421
  899SOL    HW1 3596   0.820   4.880   5.471
  899SOL    HW2 3597   0.738   4.740   5.451
  900SOL     OW 3598   0.590   5.872   3.396
  900SOL    HW1 3599   0.667   5.824   3.436
  900SOL    HW2 3600   0.514   5.873   3.461
  901SOL     OW 3601   6.134   2.064   3.572
  901SOL    HW1 3602   6.087   2.137   3.621
  901SOL    HW2 3603   6.096   2.056   3.480
  902SOL     OW 3604   0.400   6.314   6.953
  902SOL    HW1 3605   0.323   6.290   7.012
  902SOL    HW2 3606   0.378   6.398   6.902
  903SOL     OW 3607   1.347   5.422   0.595
  903SOL    HW1 3608   1.429   5.439   0.650
  903SOL    HW2 3609   1.340   5.324   0.575
  904SOL     OW 3610   1.942   1.378   3.372
  904SOL    HW1 3611   1.867   1.431   3.333
  904SOL    HW2 3612   1.916   1.347   3.464
  905SOL     OW 3613   5.224   2.336   5.091
  905SOL    HW1 3614   5.160   2.409   5.115
  905SOL    HW2 3615   5.318   2.368   5.102
  906SOL     OW 3616   5.812   4.314   5.521
  906SOL    HW1 3617   5.766   4.386   5.469
  906SOL    HW2 3618   5.877   4.267   5.461
  907SOL     OW 3619   6.482   3.125   2.249
  907SOL    HW1 3620   6.473   3.044   2.192
  907SOL    HW2 3621   6.450   3.206   2.199
  908SOL     OW 3622   1.957   0.747   4.094
  908SOL    HW1 3623   1.885   0.729   4.028
  908SOL    HW2 3624   1.919   0.793   4.175
  909SOL     OW 3625   3.406   1.192   1.881
  909SOL    HW1 3626   3.384   1.288   1.896
  909SOL    HW2 3627   3.459   1.157   1.959
  910SOL     OW 3628   2.056   2.047   1.296
  910SOL    HW1 3629   2.020   2.123   1.350
  910SOL    HW2 3630   2.143   2.074   1.254
  911SOL     OW 3631   0.099   4.183   1.356
  911SOL    HW1 3632   0.028   4.113   1.368
  911SOL    HW2 3633   0.059   4.274   1.367
  912SOL     OW 3634   1.162   0.258   5.657
  912SOL    HW1 3635   1.166   0.222   5.564
  912SOL    HW2 3636   1.201   0.350   5.660
  913SOL     OW 3637   2.755   1.216   1.894
  913SOL    HW1 3638   2.830   1.153   1.875
  913SOL    HW2 3639   2.758   1.244   1.990
  914SOL     OW 3640   3.214   6.511   2.938
  914SOL    HW1 3641   3.144   6.455   2.893
  914SOL    HW2 3642   3.226   6.596   2.887
  915SOL     OW 3643   0.832   2.552   0.300
  915SOL    HW1 3644   0.926   2.587   0.306
  915SOL    HW2 3645   0.775   2.601   0.366
  916SOL     OW 3646   2.129   3.146   3.129
  916SOL    HW1 3647   2.119   3.241   3.100
  916SOL    HW2 3648   2.139   3.087   3.049
  917SOL     OW 3649   3.443   2.006   6.880
  917SOL    HW1 3650   3.474   1.985   6.973
  917SOL    HW2 3651   3.360   1.954   6.860
  918SOL     OW 3652   1.442   0.651   6.185
  918SOL    HW1 3653   1.383   0.661   6.104
  918SOL    HW2 3654   1.533   0.621   6.155
  919SOL     OW 3655   2.393   5.751   2.208
  919SOL    HW1 3656   2.297   5.729   2.189
  919SOL    HW2 3657   2.421   5.705   2.293
  920SOL     OW 3658   2.223   0.470   4.023
  920SOL    HW1 3659   2.288   0.402   4.058
  920SOL    HW2 3660   2.197   0.532   4.096
  921SOL     OW 3661   5.294   4.875   5.462
  921SOL    HW1 3662   5.280   4.974   5.464
  921SOL    HW2 3663   5.313   4.845   5.368
  922SOL     OW 3664   2.284   3.726   0.029
  922SOL    HW1 3665   2.279   3.678   0.116
  922SOL    HW2 3666   2.265   3.662   6.979
  923SOL     OW 3667   3.972   0.504   6.758
  923SOL    HW1 3668   3.999   0.475   6.850
  923SOL    HW2 3669   4.047   0.486   6.694
  924SOL     OW 3670   5.946   3.353   3.250
  924SOL    HW1 3671   5.980   3.263   3.276
  924SOL    HW2 3672   6.023   3.414   3.232
  925SOL     OW 3673   6.494   1.618   3.131
  925SOL    HW1 3674   6.500   1.620   3.031
  925SOL    HW2 3675   6.511   1.710   3.167
  926SOL     OW 3676   5.097   6.333   1.141
  926SOL    HW1 3677   5.142   6.340   1.052
  926SOL    HW2 3678   5.059   6.422   1.167
  927SOL     OW 3679   3.855   5.263   5.515
  927SOL    HW1 3680   3.883   5.173   5.482
  927SOL    HW2 3681   3.916   5.292   5.589
  928SOL     OW 3682   0.498   1.062   1.464
  928SOL    HW1 3683   0.518   1.049   1.367
  928SOL    HW2 3684   0.467   1.155   1.479
  929SOL     OW 3685   1.116   2.485   2.094
  929SOL    HW1 3686   1.049   2.558   2.109
  929SOL    HW2 3687   1.207   2.526   2.084
  930SOL     OW 3688   4.998   6.246   3.921
  930SOL    HW1 3689   4.949   6.160   3.907
  930SOL    HW2 3690   4.954   6.318   3.867
  931SOL     OW 3691   1.211   2.946   1.796
  931SOL    HW1 3692   1.129   2.932   1.741
  931SOL    HW2 3693   1.190   3.008   1.872
  932SOL     OW 3694   4.719   6.748   1.360
  932SOL    HW1 3695   4.697   6.711   1.450
  932SOL    HW2 3696   4.803   6.802   1.365
  933SOL     OW 3697   2.312   6.152   2.895
  933SOL    HW1 3698   2.310   6.070   2.954
  933SOL    HW2 3699   2.382   6.141   2.825
  934SOL     OW 3700   3.122   1.314   5.247
  934SOL    HW1 3701   3.085   1.405   5.231
  934SOL    HW2 3702   3.201   1.320   5.308
  935SOL     OW 3703   3.273   3.575   6.433
  935SOL    HW1 3704   3.343   3.646   6.445
  935SOL    HW2 3705   3.313   3.485   6.451
  936SOL     OW 3706   0.433   1.329   1.478
  936SOL    HW1 3707   0.468   1.403   1.420
  936SOL    HW2 3708   0.400   1.368   1.564
  937SOL     OW 3709   4.767   2.342   4.174
  937SOL    HW1 3710   4.690   2.297   4.128
  937SOL    HW2 3711   4.772   2.309   4.269
  938SOL     OW 3712   0.238   2.802   0.219
  938SOL    HW1 3713   0.248   2.814   0.318
  938SOL    HW2 3714   0.317   2.842   0.172
  939SOL     OW 3715   6.336   1.125   6.134
  939SOL    HW1 3716   6.264   1.194   6.128
  939SOL    HW2 3717   6.406   1.156   6.199
  940SOL     OW 3718   0.510   1.082   4.223
  940SOL    HW1 3719   0.501   1.118   4.130
  940SOL    HW2 3720   0.603   1.098   4.255
  941SOL     OW 3721   5.595   2.817   4.797
  941SOL    HW1 3722   5.601   2.899   4.853
  941SOL    HW2 3723   5.516   2.762   4.826
  942SOL     OW 3724   5.361   6.944   4.871
  942SOL    HW1 3725   5.282   6.928   4.812
  942SOL    HW2 3726   5.438   6.889   4.839
  943SOL     OW 3727   4.894   1.815   0.617
  943SOL    HW1 3728   4.976   1.760   0.634
  943SOL    HW2 3729   4.918   1.891   0.557
  944SOL     OW 3730   6.066   3.864   4.984
  944SOL    HW1 3731   6.015   3.836   5.065
  944SOL    HW2 3732   6.005   3.910   4.920
  945SOL     OW 3733   5.196   4.117   4.815
  945SOL    HW1 3734   5.195   4.217   4.820
  945SOL    HW2 3735   5.243   4.080   4.896
  946SOL     OW 3736   5.652   2.699   5.415
  946SOL    HW1 3737   5.671   2.722   5.319
  946SOL    HW2 3738   5.553   2.686   5.427
  947SOL     OW 3739   1.971   3.231   5.642
  947SOL    HW1 3740   1.974   3.215   5.544
  947SOL    HW2 3741   1.979   3.329   5.660
  948SOL     OW 3742   3.445   1.965   0.313
  948SOL    HW1 3743   3.486   1.895   0.370
  948SOL    HW2 3744   3.414   2.041   0.370
  949SOL     OW 3745   5.602   6.339   6.332
  949SOL    HW1 3746   5.593   6.416   6.268
  949SOL    HW2 3747   5.616   6.374   6.424
  950SOL     OW 3748   4.065   5.368   1.634
  950SOL    HW1 3749   4.060   5.376   1.534
  950SOL    HW2 3750   4.022   5.448   1.676
  951SOL     OW 3751   1.066   2.119   3.038
  951SOL    HW1 3752   1.101   2.033   3.074
  951SOL    HW2 3753   1.032   2.175   3.114
  952SOL     OW 3754   5.096   2.158   1.827
  952SOL    HW1 3755   5.068   2.069   1.861
  952SOL    HW2 3756   5.117   2.152   1.729
  953SOL     OW 3757   3.892   6.874   6.689
  953SOL    HW1 3758   3.958   6.945   6.711
  953SOL    HW2 3759   3.859   6.886   6.596
  954SOL     OW 3760   6.125   6.105   0.623
  954SOL    HW1 3761   6.046   6.151   0.664
  954SOL    HW2 3762   6.101   6.012   0.598
  955SOL     OW 3763   6.535   6.681   2.555
  955SOL    HW1 3764   6.492   6.640   2.635
  955SOL    HW2 3765   6.586   6.763   2.583
  956SOL     OW 3766   0.649   2.280   0.890
  956SOL    HW1 3767   0.562   2.241   0.860
  956SOL    HW2 3768   0.639   2.315   0.983
  957SOL     OW 3769   2.543   5.989   5.149
  957SOL    HW1 3770   2.452   6.030   5.142
  957SOL    HW2 3771   2.546   5.907   5.092
  958SOL     OW 3772   5.245   2.536   0.662
  958SOL    HW1 3773   5.174   2.603   0.640
  958SOL    HW2 3774   5.304   2.522   0.583
  959SOL     OW 3775   1.774   4.348   2.681
  959SOL    HW1 3776   1.870   4.337   2.655
  959SOL    HW2 3777   1.753   4.445   2.692
  960SOL     OW 3778   1.750   5.629   5.286
  960SOL    HW1 3779   1.687   5.600   5.358
  960SOL    HW2 3780   1.706   5.618   5.197
  961SOL     OW 3781   3.639   7.010   2.066
  961SOL    HW1 3782   3.725   6.959   2.079
  961SOL    HW2 3783   3.573   6.980   2.135
  962SOL     OW 3784   1.666   6.910   4.765
  962SOL    HW1 3785   1.630   6.939   4.676
  962SOL    HW2 3786   1.668   6.988   4.827
  963SOL     OW 3787   6.502   6.645   0.786
  963SOL    HW1 3788   6.504   6.744   0.795
  963SOL    HW2 3789   6.534   6.603   0.871
  964SOL     OW 3790   5.340   3.989   1.846
  964SOL    HW1 3791   5.346   4.064   1.781
  964SOL    HW2 3792   5.245   3.957   1.851
  965SOL     OW 3793   0.511   1.962   0.892
  965SOL    HW1 3794   0.457   1.881   0.867
  965SOL    HW2 3795   0.467   2.044   0.856
  966SOL     OW 3796   0.392   2.311   2.066
  966SOL    HW1 3797   0.442   2.273   1.988
  966SOL    HW2 3798   0.412   2.257   2.148
  967SOL     OW 3799   0.984   5.994   1.969
  967SOL    HW1 3800   1.074   6.028   1.941
  967SOL    HW2 3801   0.946   6.052   2.040
  968SOL     OW 3802   5.448   3.274   2.864
  968SOL    HW1 3803   5.469   3.206   2.934
  968SOL    HW2 3804   5.400   3.351   2.905
  969SOL     OW 3805   4.668   5.967   5.456
  969SOL    HW1 3806   4.732   5.890   5.455
  969SOL    HW2 3807   4.659   6.004   5.364
  970SOL     OW 3808   4.251   2.172   5.302
  970SOL    HW1 3809   4.215   2.106   5.237
  970SOL    HW2 3810   4.187   2.184   5.378
  971SOL     OW 3811   6.583   1.726   1.772
  971SOL    HW1 3812   6.621   1.658   1.834
  971SOL    HW2 3813   6.546   1.803   1.825
  972SOL     OW 3814   6.529   5.253   0.641
  972SOL    HW1 3815   6.601   5.212   0.696
  972SOL    HW2 3816   6.524   5.351   0.658
  973SOL     OW 3817   5.439   4.312   5.823
  973SOL    HW1 3818   5.538   4.330   5.822
  973SOL    HW2 3819   5.406   4.311   5.918
  974SOL     OW 3820   2.945   1.346   4.164
  974SOL    HW1 3821   2.870   1.353   4.231
  974SOL    HW2 3822   2.914   1.383   4.076
  975SOL     OW 3823   3.816   6.618   5.573
  975SOL    HW1 3824   3.795   6.525   5.542
  975SOL    HW2 3825   3.904   6.617   5.621
  976SOL     OW 3826   0.140   4.672   3.843
  976SOL    HW1 3827   0.043   4.651   3.857
  976SOL    HW2 3828   0.173   4.726   3.920
  977SOL     OW 3829   2.056   1.287   4.001
  977SOL    HW1 3830   2.056   1.342   3.918
  977SOL    HW2 3831   1.987   1.322   4.064
  978SOL     OW 3832   6.188   3.155   4.286
  978SOL    HW1 3833   6.104   3.119   4.327
  978SOL    HW2 3834   6.224   3.228   4.344
  979SOL     OW 3835   5.807   0.773   3.791
  979SOL    HW1 3836   5.795   0.683   3.832
  979SOL    HW2 3837   5.813   0.842   3.863
  980SOL     OW 3838   6.503   1.015   4.611
  980SOL    HW1 3839   6.549   1.091   4.656
  980SOL    HW2 3840   6.445   1.049   4.538
  981SOL     OW 3841   0.004   2.769   5.645
  981SOL    HW1 3842   6.992   2.701   5.710
  981SOL    HW2 3843   0.056   2.838   5.695
  982SOL     OW 3844   1.899   2.689   1.082
  982SOL    HW1 3845   1.850   2.758   1.136
  982SOL    HW2 3846   1.848   2.603   1.084
  983SOL     OW 3847   5.602   1.609   3.047
  983SOL    HW1 3848   5.685   1.577   3.001
  983SOL    HW2 3849   5.522   1.585   2.992
  984SOL     OW 3850   4.811   1.343   4.701
  984SOL    HW1 3851   4.835   1.301   4.788
  984SOL    HW2 3852   4.792   1.272   4.633
  985SOL     OW 3853   3.181   5.411   0.381
  985SOL    HW1 3854   3.221   5.360   0.305
  985SOL    HW2 3855   3.230   5.498   0.392
  986SOL     OW 3856   4.653   4.816   6.508
  986SOL    HW1 3857   4.590   4.742   6.532
  986SOL    HW2 3858   4.643   4.890   6.574
  987SOL     OW 3859   4.120   6.985   2.727
  987SOL    HW1 3860   4.085   0.045   2.768
  987SOL    HW2 3861   4.186   6.943   2.789
  988SOL     OW 3862   3.301   3.723   1.876
  988SOL    HW1 3863   3.218   3.777   1.874
  988SOL    HW2 3864   3.359   3.754   1.952
  989SOL     OW 3865   0.364   6.848   5.907
  989SOL    HW1 3866   0.395   6.756   5.885
  989SOL    HW2 3867   0.264   6.850   5.909
  990SOL     OW 3868   4.785   6.638   4.014
  990SOL    HW1 3869   4.790   6.690   4.099
  990SOL    HW2 3870   4.874   6.598   3.993
  991SOL     OW 3871   6.486   1.361   4.845
  991SOL    HW1 3872   6.571   1.404   4.815
  991SOL    HW2 3873   6.444   1.314   4.767
  992SOL     OW 3874   0.791   3.358   0.395
  992SOL    HW1 3875   0.718   3.294   0.419
  992SOL    HW2 3876   0.811   3.417   0.474
  993SOL     OW 3877   3.427   5.225   3.174
  993SOL    HW1 3878   3.417   5.127   3.188
  993SOL    HW2 3879   3.386   5.251   3.086
  994SOL     OW 3880   2.923   3.390   3.069
  994SOL    HW1 3881   2.919   3.486   3.038
  994SOL    HW2 3882   2.927   3.388   3.169
  995SOL     OW 3883   1.085   1.716   4.813
  995SOL    HW1 3884   1.063   1.811   4.792
  995SOL    HW2 3885   1.164   1.713   4.875
  996SOL     OW 3886   1.532   3.858   2.646
  996SOL    HW1 3887   1.530   3.957   2.654
  996SOL    HW2 3888   1.440   3.821   2.656
  997SOL     OW 3889   6.628   0.901   1.449
  997SOL    HW1 3890   6.687   0.903   1.367
  997SOL    HW2 3891   6.671   0.953   1.522
  998SOL     OW 3892   5.241   0.408   3.187
  998SOL    HW1 3893   5.222   0.339   3.118
  998SOL    HW2 3894   5.328   0.388   3.232
  999SOL     OW 3895   0.285   4.795   1.379
  999SOL    HW1 3896   0.359   4.783   1.446
  999SOL    HW2 3897   0.282   4.891   1.350
 1000SOL     OW 3898   3.733   1.451   4.162
 1000SOL    HW1 3899   3.760   1.453   4.259
 1000SOL    HW2 3900   3.660   1.518   4.147
 1001SOL     OW 3901   4.980   0.398   5.595
 1001SOL    HW1 3902   4.962   0.368   5.501
 1001SOL    HW2 3903   5.050   0.470   5.594
 1002SOL     OW 3904   6.479   1.201   1.109
 1002SOL    HW1 3905   6.516   1.172   1.020
 1002SOL    HW2 3906   6.520   1.288   1.135
 1003SOL     OW 3907   3.810   5.749   2.830
 1003SOL    HW1 3908   3.868   5.669   2.817
 1003SOL    HW2 3909   3.867   5.831   2.837
 1004SOL     OW 3910   5.625   6.319   7.023
 1004SOL    HW1 3911   5.701   6.378   0.026
 1004SOL    HW2 3912   5.566   6.369   6.960
 1005SOL     OW 3913   0.033   6.499   3.398
 1005SOL    HW1 3914   0.131   6.515   3.389
 1005SOL    HW2 3915   7.011   6.527   3.314
 1006SOL     OW 3916   2.013   4.796   0.975
 1006SOL    HW1 3917   1.961   4.716   0.949
 1006SOL    HW2 3918   2.107   4.788   0.940
 1007SOL     OW 3919   0.061   0.870   3.791
 1007SOL    HW1 3920   0.146   0.863   3.738
 1007SOL    HW2 3921   0.063   0.804   3.866
 1008SOL     OW 3922   2.115   3.316   3.481
 1008SOL    HW1 3923   2.141   3.386   3.415
 1008SOL    HW2 3924   2.050   3.253   3.439
 1009SOL     OW 3925   1.294   6.215   5.438
 1009SOL    HW1 3926   1.299   6.162   5.523
 1009SOL    HW2 3927   1.270   6.310   5.458
 1010SOL     OW 3928   4.731   2.056   7.004
 1010SOL    HW1 3929   4.699   2.151   7.005
 1010SOL    HW2 3930   4.731   2.022   6.910
 1011SOL     OW 3931   3.434   6.357   3.267
 1011SOL    HW1 3932   3.469   6.405   3.187
 1011SOL    HW2 3933   3.336   6.339   3.255
 1012SOL     OW 3934   5.277   5.919   6.743
 1012SOL    HW1 3935   5.219   5.979   6.688
 1012SOL    HW2 3936   5.320   5.972   6.816
 1013SOL     OW 3937   0.709   1.223   1.692
 1013SOL    HW1 3938   0.663   1.137   1.669
 1013SOL    HW2 3939   0.735   1.271   1.608
 1014SOL     OW 3940   4.767   0.050   5.897
 1014SOL    HW1 3941   4.752   0.131   5.841
 1014SOL    HW2 3942   4.858   0.054   5.939
 1015SOL     OW 3943   3.486   5.696   4.034
 1015SOL    HW1 3944   3.506   5.775   3.975
 1015SOL    HW2 3945   3.426   5.633   3.986
 1016SOL     OW 3946   3.768   2.624   1.050
 1016SOL    HW1 3947   3.729   2.542   1.092
 1016SOL    HW2 3948   3.794   2.603   0.956
 1017SOL     OW 3949   4.212   1.981   6.651
 1017SOL    HW1 3950   4.137   1.915   6.653
 1017SOL    HW2 3951   4.246   1.996   6.743
 1018SOL     OW 3952   1.571   3.333   3.036
 1018SOL    HW1 3953   1.552   3.374   2.946
 1018SOL    HW2 3954   1.667   3.349   3.060
 1019SOL     OW 3955   6.765   1.412   0.125
 1019SOL    HW1 3956   6.674   1.411   0.082
 1019SOL    HW2 3957   6.774   1.494   0.182
 1020SOL     OW 3958   2.865   1.575   1.371
 1020SOL    HW1 3959   2.786   1.566   1.433
 1020SOL    HW2 3960   2.839   1.630   1.292
 1021SOL     OW 3961   6.574   1.464   1.111
 1021SOL    HW1 3962   6.660   1.440   1.155
 1021SOL    HW2 3963   6.591   1.489   1.016
 1022SOL     OW 3964   4.192   3.739   6.687
 1022SOL    HW1 3965   4.114   3.691   6.726
 1022SOL    HW2 3966   4.251   3.773   6.760
 1023SOL     OW 3967   5.355   1.208   2.914
 1023SOL    HW1 3968   5.289   1.143   2.876
 1023SOL    HW2 3969   5.310   1.263   2.984
 1024SOL     OW 3970   6.490   1.394   3.565
 1024SOL    HW1 3971   6.431   1.316   3.542
 1024SOL    HW2 3972   6.533   1.429   3.481
 1025SOL     OW 3973   3.194   4.987   1.432
 1025SOL    HW1 3974   3.235   5.058   1.488
 1025SOL    HW2 3975   3.137   4.928   1.489
 1026SOL     OW 3976   1.228   2.431   0.405
 1026SOL    HW1 3977   1.323   2.430   0.372
 1026SOL    HW2 3978   1.182   2.513   0.372
 1027SOL     OW 3979   2.742   4.683   2.432
 1027SOL    HW1 3980   2.726   4.688   2.334
 1027SOL    HW2 3981   2.840   4.667   2.448
 1028SOL     OW 3982   1.323   6.146   0.912
 1028SOL    HW1 3983   1.364   6.066   0.956
 1028SOL    HW2 3984   1.284   6.119   0.824
 1029SOL     OW 3985   2.539   0.465   6.454
 1029SOL    HW1 3986   2.478   0.407   6.399
 1029SOL    HW2 3987   2.489   0.501   6.532
 1030SOL     OW 3988   4.136   3.720   4.846
 1030SOL    HW1 3989   4.134   3.666   4.762
 1030SOL    HW2 3990   4.185   3.805   4.830
 1031SOL     OW 3991   2.572   5.588   1.993
 1031SOL    HW1 3992   2.555   5.534   1.910
 1031SOL    HW2 3993   2.485   5.600   2.042
 1032SOL     OW 3994   1.933   0.758   4.545
 1032SOL    HW1 3995   1.926   0.844   4.596
 1032SOL    HW2 3996   1.899   0.771   4.453
 1033SOL     OW 3997   2.739   5.948   2.622
 1033SOL    HW1 3998   2.700   5.919   2.535
 1033SOL    HW2 3999   2.820   5.894   2.643
 1034SOL     OW 4000   1.216   4.525   3.810
 1034SOL    HW1 4001   1.287   4.519   3.740
 1034SOL    HW2 4002   1.258   4.538   3.899
 1035SOL     OW 4003   2.348   1.423   4.404
 1035SOL    HW1 4004   2.418   1.417   4.475
 1035SOL    HW2 4005   2.361   1.348   4.338
 1036SOL     OW 4006   4.316   2.256   0.413
 1036SOL    HW1 4007   4.266   2.207   0.342
 1036SOL    HW2 4008   4.264   2.251   0.499
 1037SOL     OW 4009   2.072   2.131   6.789
 1037SOL    HW1 4010   2.131   2.124   6.708
 1037SOL    HW2 4011   2.126   2.167   6.866
 1038SOL     OW 4012   1.955   0.963   4.870
 1038SOL    HW1 4013   2.033   0.966   4.807
 1038SOL    HW2 4014   1.870   0.964   4.818
 1039SOL     OW 4015   3.767   1.777   3.467
 1039SOL    HW1 4016   3.743   1.850   3.402
 1039SOL    HW2 4017   3.685   1.725   3.490
 1040SOL     OW 4018   6.574   4.277   3.084
 1040SOL    HW1 4019   6.567   4.331   3.168
 1040SOL    HW2 4020   6.493   4.219   3.075
 1041SOL     OW 4021   1.257   0.700   4.385
 1041SOL    HW1 4022   1.171   0.649   4.388
 1041SOL    HW2 4023   1.309   0.682   4.468
 1042SOL     OW 4024   5.384   4.666   0.936
 1042SOL    HW1 4025   5.426   4.696   1.021
 1042SOL    HW2 4026   5.289   4.699   0.932
 1043SOL     OW 4027   2.821   1.536   6.225
 1043SOL    HW1 4028   2.738   1.521   6.279
 1043SOL    HW2 4029   2.900   1.500   6.274
 1044SOL     OW 4030   4.311   3.433   1.727
 1044SOL    HW1 4031   4.215   3.430   1.700
 1044SOL    HW2 4032   4.344   3.341   1.745
 1045SOL     OW 4033   3.086   1.577   3.215
 1045SOL    HW1 4034   3.054   1.614   3.128
 1045SOL    HW2 4035   3.020   1.598   3.287
 1046SOL     OW 4036   4.248   0.446   2.063
 1046SOL    HW1 4037   4.279   0.416   2.153
 1046SOL    HW2 4038   4.324   0.439   1.998
 1047SOL     OW 4039   1.128   4.535   2.675
 1047SOL    HW1 4040   1.226   4.517   2.679
 1047SOL    HW2 4041   1.083   4.491   2.753
 1048SOL     OW 4042   4.982   4.578   5.304
 1048SOL    HW1 4043   5.037   4.509   5.352
 1048SOL    HW2 4044   4.985   4.559   5.206
 1049SOL     OW 4045   0.197   3.197   4.807
 1049SOL    HW1 4046   0.191   3.107   4.849
 1049SOL    HW2 4047   0.160   3.194   4.714
 1050SOL     OW 4048   3.335   0.768   0.414
 1050SOL    HW1 4049   3.288   0.848   0.451
 1050SOL    HW2 4050   3.434   0.780   0.423
 1051SOL     OW 4051   4.844   4.133   1.328
 1051SOL    HW1 4052   4.783   4.151   1.252
 1051SOL    HW2 4053   4.818   4.191   1.406
 1052SOL     OW 4054   3.696   0.105   4.787
 1052SOL    HW1 4055   3.728   0.199   4.788
 1052SOL    HW2 4056   3.760   0.047   4.838
 1053SOL     OW 4057   4.463   4.853   3.681
 1053SOL    HW1 4058   4.411   4.914   3.622
 1053SOL    HW2 4059   4.474   4.764   3.636
 1054SOL     OW 4060   3.387   6.063   4.327
 1054SOL    HW1 4061   3.462   6.123   4.356
 1054SOL    HW2 4062   3.301   6.099   4.362
 1055SOL     OW 4063   4.299   5.444   4.914
 1055SOL    HW1 4064   4.239   5.418   4.839
 1055SOL    HW2 4065   4.392   5.457   4.880
 1056SOL     OW 4066   1.927   6.354   5.219
 1056SOL    HW1 4067   1.898   6.417   5.147
 1056SOL    HW2 4068   2.026   6.357   5.228
 1057SOL     OW 4069   3.340   4.004   2.096
 1057SOL    HW1 4070   3.411   3.933   2.098
 1057SOL    HW2 4071   3.252   3.963   2.072
 1058SOL     OW 4072   3.792   0.999   1.979
 1058SOL    HW1 4073   3.836   1.047   1.903
 1058SOL    HW2 4074   3.783   0.902   1.956
 1059SOL     OW 4075   3.843   2.021   1.039
 1059SOL    HW1 4076   3.829   1.941   0.979
 1059SOL    HW2 4077   3.939   2.028   1.063
 1060SOL     OW 4078   2.549   2.002   5.629
 1060SOL    HW1 4079   2.514   2.095   5.619
 1060SOL    HW2 4080   2.561   1.981   5.726
 1061SOL     OW 4081   2.863   5.630   1.726
 1061SOL    HW1 4082   2.837   5.545   1.680
 1061SOL    HW2 4083   2.923   5.609   1.803
 1062SOL     OW 4084   5.598   5.097   4.613
 1062SOL    HW1 4085   5.655   5.054   4.682
 1062SOL    HW2 4086   5.572   5.030   4.544
 1063SOL     OW 4087   2.162   2.357   6.375
 1063SOL    HW1 4088   2.172   2.349   6.276
 1063SOL    HW2 4089   2.071   2.393   6.396
 1064SOL     OW 4090   6.722   2.791   1.703
 1064SOL    HW1 4091   6.687   2.881   1.728
 1064SOL    HW2 4092   6.652   2.722   1.722
 1065SOL     OW 4093   6.552   6.479   4.914
 1065SOL    HW1 4094   6.638   6.430   4.897
 1065SOL    HW2 4095   6.564   6.541   4.991
 1066SOL     OW 4096   3.896   0.530   3.407
 1066SOL    HW1 4097   3.874   0.627   3.418
 1066SOL    HW2 4098   3.995   0.517   3.411
 1067SOL     OW 4099   1.729   3.356   1.509
 1067SOL    HW1 4100   1.764   3.446   1.533
 1067SOL    HW2 4101   1.655   3.366   1.442
 1068SOL     OW 4102   0.695   3.868   1.880
 1068SOL    HW1 4103   0.624   3.929   1.914
 1068SOL    HW2 4104   0.658   3.776   1.868
 1069SOL     OW 4105   3.821   3.952   1.269
 1069SOL    HW1 4106   3.853   3.990   1.355
 1069SOL    HW2 4107   3.865   3.864   1.253
 1070SOL     OW 4108   2.332   0.722   0.034
 1070SOL    HW1 4109   2.416   0.776   0.027
 1070SOL    HW2 4110   2.336   0.666   0.117
 1071SOL     OW 4111   4.413   6.697   3.169
 1071SOL    HW1 4112   4.423   6.649   3.256
 1071SOL    HW2 4113   4.450   6.789   3.177
 1072SOL     OW 4114   3.864   5.625   3.152
 1072SOL    HW1 4115   3.874   5.561   3.228
 1072SOL    HW2 4116   3.953   5.664   3.128
 1073SOL     OW 4117   2.386   4.757   2.867
 1073SOL    HW1 4118   2.342   4.682   2.817
 1073SOL    HW2 4119   2.405   4.729   2.961
 1074SOL     OW 4120   1.394   5.628   1.925
 1074SOL    HW1 4121   1.445   5.714   1.927
 1074SOL    HW2 4122   1.298   5.645   1.948
 1075SOL     OW 4123   0.051   4.158   4.210
 1075SOL    HW1 4124   0.011   4.126   4.123
 1075SOL    HW2 4125   0.006   4.242   4.238
 1076SOL     OW 4126   6.981   4.772   3.502
 1076SOL    HW1 4127   6.941   4.858   3.468
 1076SOL    HW2 4128   0.056   4.780   3.502
 1077SOL     OW 4129   4.763   0.325   0.562
 1077SOL    HW1 4130   4.724   0.233   0.556
 1077SOL    HW2 4131   4.744   0.375   0.477
 1078SOL     OW 4132   0.597   2.050   1.337
 1078SOL    HW1 4133   0.583   1.967   1.392
 1078SOL    HW2 4134   0.684   2.045   1.290
 1079SOL     OW 4135   2.613   5.502   3.029
 1079SOL    HW1 4136   2.574   5.460   3.111
 1079SOL    HW2 4137   2.603   5.440   2.951
 1080SOL     OW 4138   1.821   5.265   4.387
 1080SOL    HW1 4139   1.906   5.287   4.339
 1080SOL    HW2 4140   1.817   5.167   4.405
 1081SOL     OW 4141   1.815   0.566   6.808
 1081SOL    HW1 4142   1.830   0.576   6.906
 1081SOL    HW2 4143   1.833   0.471   6.781
 1082SOL     OW 4144   2.355   6.920   6.090
 1082SOL    HW1 4145   2.349   6.846   6.023
 1082SOL    HW2 4146   2.272   6.921   6.147
 1083SOL     OW 4147   4.171   3.117   1.336
 1083SOL    HW1 4148   4.261   3.160   1.326
 1083SOL    HW2 4149   4.103   3.187   1.354
 1084SOL     OW 4150   6.420   4.038   0.583
 1084SOL    HW1 4151   6.441   4.132   0.557
 1084SOL    HW2 4152   6.337   4.037   0.639
 1085SOL     OW 4153   2.160   3.714   4.074
 1085SOL    HW1 4154   2.156   3.785   4.004
 1085SOL    HW2 4155   2.138   3.626   4.033
 1086SOL     OW 4156   4.111   4.741   2.046
 1086SOL    HW1 4157   4.071   4.682   1.976
 1086SOL    HW2 4158   4.039   4.798   2.086
 1087SOL     OW 4159   4.371   2.813   5.376
 1087SOL    HW1 4160   4.272   2.813   5.383
 1087SOL    HW2 4161   4.404   2.907   5.367
 1088SOL     OW 4162   4.922   3.651   3.363
 1088SOL    HW1 4163   4.908   3.743   3.398
 1088SOL    HW2 4164   4.857   3.633   3.289
 1089SOL     OW 4165   6.681   0.386   3.195
 1089SOL    HW1 4166   6.608   0.452   3.212
 1089SOL    HW2 4167   6.769   0.431   3.204
 1090SOL     OW 4168   0.522   2.076   5.585
 1090SOL    HW1 4169   0.489   2.055   5.677
 1090SOL    HW2 4170   0.618   2.047   5.576
 1091SOL     OW 4171   0.858   1.616   4.972
 1091SOL    HW1 4172   0.823   1.685   5.036
 1091SOL    HW2 4173   0.904   1.661   4.896
 1092SOL     OW 4174   1.975   4.291   1.057
 1092SOL    HW1 4175   2.009   4.210   1.010
 1092SOL    HW2 4176   2.052   4.339   1.099
 1093SOL     OW 4177   0.666   1.890   2.210
 1093SOL    HW1 4178   0.579   1.846   2.189
 1093SOL    HW2 4179   0.723   1.892   2.127
 1094SOL     OW 4180   0.345   6.224   1.830
 1094SOL    HW1 4181   0.281   6.237   1.754
 1094SOL    HW2 4182   0.325   6.137   1.876
 1095SOL     OW 4183   5.649   3.978   6.291
 1095SOL    HW1 4184   5.612   4.011   6.378
 1095SOL    HW2 4185   5.660   3.879   6.294
 1096SOL     OW 4186   3.392   4.451   1.721
 1096SOL    HW1 4187   3.295   4.465   1.743
 1096SOL    HW2 4188   3.446   4.524   1.763
 1097SOL     OW 4189   1.653   5.138   5.552
 1097SOL    HW1 4190   1.706   5.220   5.575
 1097SOL    HW2 4191   1.677   5.064   5.615
 1098SOL     OW 4192   4.321   2.071   2.696
 1098SOL    HW1 4193   4.357   1.997   2.640
 1098SOL    HW2 4194   4.232   2.045   2.734
 1099SOL     OW 4195   3.565   1.818   2.809
 1099SOL    HW1 4196   3.580   1.916   2.795
 1099SOL    HW2 4197   3.612   1.789   2.892
 1100SOL     OW 4198   1.112   0.507   0.215
 1100SOL    HW1 4199   1.037   0.499   0.149
 1100SOL    HW2 4200   1.150   0.417   0.233
 1101SOL     OW 4201   5.625   2.803   0.858
 1101SOL    HW1 4202   5.539   2.835   0.818
 1101SOL    HW2 4203   5.614   2.709   0.889
 1102SOL     OW 4204   0.847   5.005   3.290
 1102SOL    HW1 4205   0.807   4.922   3.329
 1102SOL    HW2 4206   0.887   4.984   3.201
 1103SOL     OW 4207   0.363   3.106   1.253
 1103SOL    HW1 4208   0.303   3.181   1.225
 1103SOL    HW2 4209   0.342   3.024   1.200
 1104SOL     OW 4210   2.760   5.072   6.281
 1104SOL    HW1 4211   2.834   5.007   6.300
 1104SOL    HW2 4212   2.798   5.165   6.274
 1105SOL     OW 4213   4.237   5.288   7.016
 1105SOL    HW1 4214   4.213   5.223   0.064
 1105SOL    HW2 4215   4.329   5.270   6.984
 1106SOL     OW 4216   0.583   2.182   0.003
 1106SOL    HW1 4217   0.651   2.234   6.977
 1106SOL    HW2 4218   0.608   2.085   0.001
 1107SOL     OW 4219   1.384   0.558   0.900
 1107SOL    HW1 4220   1.479   0.569   0.871
 1107SOL    HW2 4221   1.382   0.513   0.989
 1108SOL     OW 4222   0.712   2.119   4.939
 1108SOL    HW1 4223   0.722   2.113   5.039
 1108SOL    HW2 4224   0.683   2.211   4.914
 1109SOL     OW 4225   5.275   1.069   3.960
 1109SOL    HW1 4226   5.361   1.046   3.915
 1109SOL    HW2 4227   5.293   1.119   4.044
 1110SOL     OW 4228   3.524   2.922   2.172
 1110SOL    HW1 4229   3.526   2.903   2.271
 1110SOL    HW2 4230   3.430   2.942   2.144
 1111SOL     OW 4231   5.652   0.165   6.930
 1111SOL    HW1 4232   5.595   0.083   6.941
 1111SOL    HW2 4233   5.610   0.241   6.979
 1112SOL     OW 4234   6.309   0.855   2.651
 1112SOL    HW1 4235   6.266   0.936   2.611
 1112SOL    HW2 4236   6.404   0.876   2.673
 1113SOL     OW 4237   6.487   3.789   2.038
 1113SOL    HW1 4238   6.505   3.692   2.051
 1113SOL    HW2 4239   6.562   3.842   2.079
 1114SOL     OW 4240   4.843   1.205   4.940
 1114SOL    HW1 4241   4.884   1.241   5.023
 1114SOL    HW2 4242   4.871   1.110   4.928
 1115SOL     OW 4243   2.523   3.040   0.950
 1115SOL    HW1 4244   2.623   3.040   0.943
 1115SOL    HW2 4245   2.486   3.115   0.895
 1116SOL     OW 4246   4.809   6.419   4.374
 1116SOL    HW1 4247   4.714   6.411   4.345
 1116SOL    HW2 4248   4.869   6.403   4.295
 1117SOL     OW 4249   2.622   3.275   1.235
 1117SOL    HW1 4250   2.576   3.278   1.323
 1117SOL    HW2 4251   2.662   3.185   1.221
 1118SOL     OW 4252   2.050   3.636   3.449
 1118SOL    HW1 4253   2.060   3.666   3.543
 1118SOL    HW2 4254   1.953   3.617   3.430
 1119SOL     OW 4255   3.675   4.130   2.075
 1119SOL    HW1 4256   3.602   4.128   2.143
 1119SOL    HW2 4257   3.743   4.060   2.097
 1120SOL     OW 4258   4.383   0.847   4.106
 1120SOL    HW1 4259   4.286   0.873   4.102
 1120SOL    HW2 4260   4.390   0.749   4.121
 1121SOL     OW 4261   5.339   3.421   1.995
 1121SOL    HW1 4262   5.414   3.485   2.010
 1121SOL    HW2 4263   5.356   3.369   1.911
 1122SOL     OW 4264   5.078   4.302   6.898
 1122SOL    HW1 4265   5.058   4.324   6.803
 1122SOL    HW2 4266   5.001   4.250   6.937
 1123SOL     OW 4267   3.286   0.692   2.658
 1123SOL    HW1 4268   3.311   0.610   2.608
 1123SOL    HW2 4269   3.362   0.757   2.656
 1124SOL     OW 4270   0.770   4.418   4.732
 1124SOL    HW1 4271   0.722   4.332   4.746
 1124SOL    HW2 4272   0.803   4.453   4.821
 1125SOL     OW 4273   3.708   3.346   4.989
 1125SOL    HW1 4274   3.720   3.266   5.048
 1125SOL    HW2 4275   3.676   3.317   4.899
 1126SOL     OW 4276   5.424   6.342   1.951
 1126SOL    HW1 4277   5.515   6.380   1.971
 1126SOL    HW2 4278   5.431   6.243   1.943
 1127SOL     OW 4279   1.362   5.152   0.124
 1127SOL    HW1 4280   1.434   5.208   0.166
 1127SOL    HW2 4281   1.312   5.207   0.057
 1128SOL     OW 4282   2.658   1.832   4.766
 1128SOL    HW1 4283   2.582   1.771   4.745
 1128SOL    HW2 4284   2.629   1.927   4.750
 1129SOL     OW 4285   5.789   0.498   6.951
 1129SOL    HW1 4286   5.848   0.577   6.931
 1129SOL    HW2 4287   5.819   0.420   6.894
 1130SOL     OW 4288   6.765   4.334   6.675
 1130SOL    HW1 4289   6.686   4.383   6.638
 1130SOL    HW2 4290   6.744   4.301   6.767
 1131SOL     OW 4291   0.785   5.193   6.303
 1131SOL    HW1 4292   0.730   5.277   6.304
 1131SOL    HW2 4293   0.829   5.183   6.214
 1132SOL     OW 4294   5.117   0.123   5.510
 1132SOL    HW1 4295   5.163   0.203   5.549
 1132SOL    HW2 4296   5.155   0.040   5.551
 1133SOL     OW 4297   0.384   3.473   1.816
 1133SOL    HW1 4298   0.380   3.385   1.769
 1133SOL    HW2 4299   0.341   3.543   1.758
 1134SOL     OW 4300   5.581   3.229   6.092
 1134SOL    HW1 4301   5.612   3.135   6.077
 1134SOL    HW2 4302   5.661   3.290   6.095
 1135SOL     OW 4303   3.744   2.103   3.044
 1135SOL    HW1 4304   3.737   2.119   2.946
 1135SOL    HW2 4305   3.834   2.131   3.077
 1136SOL     OW 4306   3.589   4.922   3.888
 1136SOL    HW1 4307   3.654   4.851   3.916
 1136SOL    HW2 4308   3.628   5.012   3.908
 1137SOL     OW 4309   1.934   1.221   5.632
 1137SOL    HW1 4310   1.989   1.254   5.708
 1137SOL    HW2 4311   1.892   1.298   5.585
 1138SOL     OW 4312   1.106   4.259   5.505
 1138SOL    HW1 4313   1.136   4.164   5.508
 1138SOL    HW2 4314   1.175   4.318   5.547
 1139SOL     OW 4315   1.544   6.228   1.691
 1139SOL    HW1 4316   1.525   6.234   1.789
 1139SOL    HW2 4317   1.548   6.320   1.652
 1140SOL     OW 4318   3.465   1.785   3.502
 1140SOL    HW1 4319   3.432   1.727   3.427
 1140SOL    HW2 4320   3.436   1.746   3.589
 1141SOL     OW 4321   6.693   5.690   5.775
 1141SOL    HW1 4322   6.639   5.623   5.825
 1141SOL    HW2 4323   6.634   5.764   5.744
 1142SOL     OW 4324   6.452   0.968   4.207
 1142SOL    HW1 4325   6.470   0.930   4.117
 1142SOL    HW2 4326   6.468   1.066   4.207
 1143SOL     OW 4327   4.002   2.157   3.119
 1143SOL    HW1 4328   4.034   2.065   3.139
 1143SOL    HW2 4329   4.074   2.206   3.069
 1144SOL     OW 4330   6.974   6.064   5.232
 1144SOL    HW1 4331   6.996   5.976   5.191
 1144SOL    HW2 4332   7.012   6.137   5.175
 1145SOL     OW 4333   1.017   5.301   5.077
 1145SOL    HW1 4334   1.047   5.395   5.090
 1145SOL    HW2 4335   1.065   5.261   4.999
 1146SOL     OW 4336   5.528   2.123   0.658
 1146SOL    HW1 4337   5.432   2.109   0.684
 1146SOL    HW2 4338   5.543   2.085   0.567
 1147SOL     OW 4339   6.356   2.418   1.469
 1147SOL    HW1 4340   6.301   2.339   1.495
 1147SOL    HW2 4341   6.451   2.404   1.498
 1148SOL     OW 4342   4.051   0.177   0.627
 1148SOL    HW1 4343   3.982   0.188   0.555
 1148SOL    HW2 4344   4.047   0.083   0.662
 1149SOL     OW 4345   6.738   3.192   2.279
 1149SOL    HW1 4346   6.639   3.182   2.269
 1149SOL    HW2 4347   6.781   3.102   2.269
 1150SOL     OW 4348   1.451   4.702   6.450
 1150SOL    HW1 4349   1.544   4.670   6.468
 1150SOL    HW2 4350   1.449   4.802   6.446
 1151SOL     OW 4351   4.740   5.115   0.085
 1151SOL    HW1 4352   4.816   5.091   0.023
 1151SOL    HW2 4353   4.774   5.117   0.179
 1152SOL     OW 4354   0.603   0.252   4.711
 1152SOL    HW1 4355   0.534   0.301   4.764
 1152SOL    HW2 4356   0.607   0.157   4.741
 1153SOL     OW 4357   2.292   5.269   2.396
 1153SOL    HW1 4358   2.376   5.242   2.441
 1153SOL    HW2 4359   2.252   5.348   2.443
 1154SOL     OW 4360   1.484   5.348   1.522
 1154SOL    HW1 4361   1.581   5.354   1.497
 1154SOL    HW2 4362   1.442   5.438   1.512
 1155SOL     OW 4363   3.567   5.892   2.090
 1155SOL    HW1 4364   3.597   5.864   2.181
 1155SOL    HW2 4365   3.484   5.948   2.097
 1156SOL     OW 4366   2.304   0.558   4.447
 1156SOL    HW1 4367   2.247   0.599   4.376
 1156SOL    HW2 4368   2.250   0.548   4.531
 1157SOL     OW 4369   0.840   2.830   3.943
 1157SOL    HW1 4370   0.894   2.891   4.000
 1157SOL    HW2 4371   0.743   2.851   3.953
 1158SOL     OW 4372   4.665   5.290   5.108
 1158SOL    HW1 4373   4.637   5.256   5.018
 1158SOL    HW2 4374   4.583   5.310   5.162
 1159SOL     OW 4375   5.120   5.044   3.157
 1159SOL    HW1 4376   5.046   5.081   3.214
 1159SOL    HW2 4377   5.187   5.116   3.140
 1160SOL     OW 4378   3.057   3.711   0.377
 1160SOL    HW1 4379   3.113   3.628   0.377
 1160SOL    HW2 4380   2.972   3.694   0.425
 1161SOL     OW 4381   5.191   0.459   3.882
 1161SOL    HW1 4382   5.198   0.458   3.783
 1161SOL    HW2 4383   5.197   0.554   3.915
 1162SOL     OW 4384   3.719   4.240   1.816
 1162SOL    HW1 4385   3.645   4.305   1.798
 1162SOL    HW2 4386   3.713   4.207   1.910
 1163SOL     OW 4387   4.870   2.664   3.012
 1163SOL    HW1 4388   4.896   2.601   2.938
 1163SOL    HW2 4389   4.809   2.734   2.976
 1164SOL     OW 4390   5.745   3.160   3.581
 1164SOL    HW1 4391   5.771   3.257   3.580
 1164SOL    HW2 4392   5.827   3.103   3.573
 1165SOL     OW 4393   1.350   5.037   2.261
 1165SOL    HW1 4394   1.380   5.116   2.315
 1165SOL    HW2 4395   1.415   4.962   2.273
 1166SOL     OW 4396   3.844   3.076   6.928
 1166SOL    HW1 4397   3.927   3.028   6.955
 1166SOL    HW2 4398   3.777   3.009   6.894
 1167SOL     OW 4399   4.925   1.244   5.194
 1167SOL    HW1 4400   4.903   1.202   5.282
 1167SOL    HW2 4401   5.018   1.280   5.196
 1168SOL     OW 4402   5.782   6.296   3.630
 1168SOL    HW1 4403   5.736   6.237   3.696
 1168SOL    HW2 4404   5.880   6.299   3.651
 1169SOL     OW 4405   0.988   3.505   1.922
 1169SOL    HW1 4406   1.085   3.518   1.901
 1169SOL    HW2 4407   0.934   3.570   1.869
 1170SOL     OW 4408   2.742   0.303   1.207
 1170SOL    HW1 4409   2.793   0.238   1.263
 1170SOL    HW2 4410   2.683   0.359   1.265
 1171SOL     OW 4411   2.207   6.509   0.393
 1171SOL    HW1 4412   2.165   6.535   0.480
 1171SOL    HW2 4413   2.254   6.421   0.405
 1172SOL     OW 4414   3.165   3.441   5.282
 1172SOL    HW1 4415   3.168   3.472   5.377
 1172SOL    HW2 4416   3.072   3.414   5.258
 1173SOL     OW 4417   4.119   0.385   6.408
 1173SOL    HW1 4418   4.219   0.381   6.398
 1173SOL    HW2 4419   4.093   0.475   6.443
 1174SOL     OW 4420   3.142   6.185   0.782
 1174SOL    HW1 4421   3.073   6.256   0.766
 1174SOL    HW2 4422   3.130   6.112   0.714
 1175SOL     OW 4423   6.465   4.830   5.787
 1175SOL    HW1 4424   6.488   4.796   5.696
 1175SOL    HW2 4425   6.392   4.898   5.781
 1176SOL     OW 4426   6.167   4.309   0.736
 1176SOL    HW1 4427   6.244   4.267   0.784
 1176SOL    HW2 4428   6.201   4.385   0.680
 1177SOL     OW 4429   6.334   2.410   6.751
 1177SOL    HW1 4430   6.247   2.400   6.703
 1177SOL    HW2 4431   6.322   2.468   6.831
 1178SOL     OW 4432   5.688   4.297   1.991
 1178SOL    HW1 4433   5.707   4.375   1.931
 1178SOL    HW2 4434   5.765   4.282   2.053
 1179SOL     OW 4435   2.799   5.600   6.284
 1179SOL    HW1 4436   2.756   5.591   6.373
 1179SOL    HW2 4437   2.829   5.694   6.270
 1180SOL     OW 4438   2.308   1.918   4.203
 1180SOL    HW1 4439   2.376   1.969   4.151
 1180SOL    HW2 4440   2.341   1.825   4.220
 1181SOL     OW 4441   2.437   4.449   2.992
 1181SOL    HW1 4442   2.383   4.395   3.057
 1181SOL    HW2 4443   2.424   4.413   2.900
 1182SOL     OW 4444   1.494   4.120   3.185
 1182SOL    HW1 4445   1.462   4.026   3.200
 1182SOL    HW2 4446   1.584   4.118   3.142
 1183SOL     OW 4447   4.697   5.951   1.552
 1183SOL    HW1 4448   4.789   5.920   1.578
 1183SOL    HW2 4449   4.684   5.937   1.453
 1184SOL     OW 4450   2.968   3.081   5.339
 1184SOL    HW1 4451   2.898   3.019   5.376
 1184SOL    HW2 4452   3.011   3.039   5.259
 1185SOL     OW 4453   1.863   1.287   6.623
 1185SOL    HW1 4454   1.901   1.217   6.683
 1185SOL    HW2 4455   1.912   1.373   6.637
 1186SOL     OW 4456   4.361   1.617   4.975
 1186SOL    HW1 4457   4.390   1.649   4.885
 1186SOL    HW2 4458   4.404   1.528   4.994
 1187SOL     OW 4459   7.011   0.846   5.540
 1187SOL    HW1 4460   6.953   0.820   5.462
 1187SOL    HW2 4461   0.032   0.933   5.519
 1188SOL     OW 4462   1.349   7.007   5.583
 1188SOL    HW1 4463   1.324   0.080   5.579
 1188SOL    HW2 4464   1.444   6.999   5.613
 1189SOL     OW 4465   5.991   1.211   1.748
 1189SOL    HW1 4466   6.029   1.144   1.812
 1189SOL    HW2 4467   6.021   1.190   1.655
 1190SOL     OW 4468   4.396   5.076   3.076
 1190SOL    HW1 4469   4.397   4.977   3.091
 1190SOL    HW2 4470   4.381   5.123   3.163
 1191SOL     OW 4471   3.374   5.070   6.585
 1191SOL    HW1 4472   3.432   4.990   6.570
 1191SOL    HW2 4473   3.318   5.086   6.504
 1192SOL     OW 4474   4.976   5.227   2.808
 1192SOL    HW1 4475   4.917   5.274   2.874
 1192SOL    HW2 4476   5.051   5.182   2.857
 1193SOL     OW 4477   4.404   0.381   3.534
 1193SOL    HW1 4478   4.323   0.360   3.589
 1193SOL    HW2 4479   4.483   0.332   3.571
 1194SOL     OW 4480   6.008   0.387   0.603
 1194SOL    HW1 4481   6.017   0.431   0.692
 1194SOL    HW2 4482   5.933   0.320   0.606
 1195SOL     OW 4483   4.097   0.672   6.502
 1195SOL    HW1 4484   4.123   0.684   6.598
 1195SOL    HW2 4485   4.064   0.759   6.465
 1196SOL     OW 4486   0.611   5.277   2.447
 1196SOL    HW1 4487   0.569   5.270   2.356
 1196SOL    HW2 4488   0.706   5.246   2.441
 1197SOL     OW 4489   3.268   4.969   6.310
 1197SOL    HW1 4490   3.261   5.054   6.258
 1197SOL    HW2 4491   3.364   4.940   6.313
 1198SOL     OW 4492   3.038   1.645   2.964
 1198SOL    HW1 4493   3.080   1.718   2.909
 1198SOL    HW2 4494   3.081   1.558   2.941
 1199SOL     OW 4495   4.068   3.783   2.961
 1199SOL    HW1 4496   4.092   3.701   2.910
 1199SOL    HW2 4497   4.059   3.860   2.898
 1200SOL     OW 4498   3.381   4.191   0.327
 1200SOL    HW1 4499   3.354   4.286   0.344
 1200SOL    HW2 4500   3.306   4.130   0.353
 1201SOL     OW 4501   1.244   0.633   4.991
 1201SOL    HW1 4502   1.158   0.583   4.978
 1201SOL    HW2 4503   1.243   0.679   5.080
 1202SOL     OW 4504   6.026   6.687   4.698
 1202SOL    HW1 4505   6.013   6.591   4.724
 1202SOL    HW2 4506   6.075   6.691   4.611
 1203SOL     OW 4507   5.960   0.211   1.835
 1203SOL    HW1 4508   6.060   0.208   1.840
 1203SOL    HW2 4509   5.928   0.302   1.863
 1204SOL     OW 4510   3.015   0.135   0.796
 1204SOL    HW1 4511   3.015   0.233   0.817
 1204SOL    HW2 4512   2.946   0.089   0.851
 1205SOL     OW 4513   0.561   2.797   5.920
 1205SOL    HW1 4514   0.593   2.879   5.872
 1205SOL    HW2 4515   0.635   2.729   5.923
 1206SOL     OW 4516   1.344   1.438   4.789
 1206SOL    HW1 4517   1.272   1.459   4.723
 1206SOL    HW2 4518   1.433   1.450   4.745
 1207SOL     OW 4519   5.538   6.593   6.957
 1207SOL    HW1 4520   5.578   6.561   6.871
 1207SOL    HW2 4521   5.598   6.663   6.996
 1208SOL     OW 4522   3.923   3.147   3.535
 1208SOL    HW1 4523   3.952   3.116   3.626
 1208SOL    HW2 4524   3.869   3.075   3.492
 1209SOL     OW 4525   6.167   5.449   4.369
 1209SOL    HW1 4526   6.107   5.461   4.448
 1209SOL    HW2 4527   6.151   5.359   4.328
 1210SOL     OW 4528   3.541   6.867   2.614
 1210SOL    HW1 4529   3.619   6.807   2.635
 1210SOL    HW2 4530   3.552   6.953   2.664
 1211SOL     OW 4531   1.068   4.005   4.784
 1211SOL    HW1 4532   1.165   4.028   4.778
 1211SOL    HW2 4533   1.022   4.070   4.845
 1212SOL     OW 4534   2.110   3.915   4.616
 1212SOL    HW1 4535   2.141   3.867   4.534
 1212SOL    HW2 4536   2.139   4.010   4.613
 1213SOL     OW 4537   5.803   2.557   5.586
 1213SOL    HW1 4538   5.736   2.593   5.521
 1213SOL    HW2 4539   5.873   2.626   5.603
 1214SOL     OW 4540   2.142   2.657   3.608
 1214SOL    HW1 4541   2.146   2.573   3.555
 1214SOL    HW2 4542   2.070   2.716   3.572
 1215SOL     OW 4543   0.720   4.847   1.928
 1215SOL    HW1 4544   0.728   4.913   1.853
 1215SOL    HW2 4545   0.797   4.858   1.990
 1216SOL     OW 4546   2.605   0.125   2.221
 1216SOL    HW1 4547   2.642   0.041   2.182
 1216SOL    HW2 4548   2.675   0.172   2.274
 1217SOL     OW 4549   1.271   0.742   2.123
 1217SOL    HW1 4550   1.247   0.806   2.050
 1217SOL    HW2 4551   1.202   0.670   2.128
 1218SOL     OW 4552   0.641   3.567   3.566
 1218SOL    HW1 4553   0.684   3.553   3.476
 1218SOL    HW2 4554   0.542   3.567   3.556
 1219SOL     OW 4555   3.021   6.324   2.361
 1219SOL    HW1 4556   2.952   6.278   2.417
 1219SOL    HW2 4557   2.988   6.332   2.267
 1220SOL     OW 4558   6.378   3.279   2.943
 1220SOL    HW1 4559   6.466   3.300   2.984
 1220SOL    HW2 4560   6.322   3.362   2.940
 1221SOL     OW 4561   4.644   3.089   0.042
 1221SOL    HW1 4562   4.623   3.182   0.070
 1221SOL    HW2 4563   4.645   3.029   0.122
 1222SOL     OW 4564   6.739   6.215   1.123
 1222SOL    HW1 4565   6.664   6.157   1.091
 1222SOL    HW2 4566   6.724   6.309   1.093
 1223SOL     OW 4567   6.137   6.211   5.292
 1223SOL    HW1 4568   6.091   6.128   5.323
 1223SOL    HW2 4569   6.129   6.281   5.363
 1224SOL     OW 4570   5.603   5.059   2.022
 1224SOL    HW1 4571   5.664   5.106   1.958
 1224SOL    HW2 4572   5.509   5.090   2.007
 1225SOL     OW 4573   5.085   2.051   0.009
 1225SOL    HW1 4574   5.003   2.083   0.056
 1225SOL    HW2 4575   5.079   2.074   6.936
 1226SOL     OW 4576   5.399   5.253   0.812
 1226SOL    HW1 4577   5.315   5.298   0.781
 1226SOL    HW2 4578   5.469   5.259   0.740
 1227SOL     OW 4579   4.901   4.023   6.499
 1227SOL    HW1 4580   4.863   3.957   6.563
 1227SOL    HW2 4581   4.838   4.101   6.492
 1228SOL     OW 4582   3.877   3.393   3.166
 1228SOL    HW1 4583   3.951   3.461   3.163
 1228SOL    HW2 4584   3.913   3.307   3.202
 1229SOL     OW 4585   2.079   5.393   2.791
 1229SOL    HW1 4586   2.095   5.403   2.890
 1229SOL    HW2 4587   2.139   5.457   2.742
 1230SOL     OW 4588   5.648   4.664   1.623
 1230SOL    HW1 4589   5.629   4.672   1.525
 1230SOL    HW2 4590   5.746   4.667   1.639
 1231SOL     OW 4591   1.926   1.889   6.516
 1231SOL    HW1 4592   1.887   1.981   6.508
 1231SOL    HW2 4593   1.996   1.876   6.446
 1232SOL     OW 4594   3.176   0.602   5.714
 1232SOL    HW1 4595   3.229   0.517   5.710
 1232SOL    HW2 4596   3.237   0.680   5.696
 1233SOL     OW 4597   1.177   5.631   5.413
 1233SOL    HW1 4598   1.099   5.569   5.402
 1233SOL    HW2 4599   1.147   5.715   5.458
 1234SOL     OW 4600   0.341   3.168   0.338
 1234SOL    HW1 4601   0.243   3.152   0.324
 1234SOL    HW2 4602   0.361   3.170   0.436
 1235SOL     OW 4603   6.028   4.861   1.203
 1235SOL    HW1 4604   6.104   4.858   1.137
 1235SOL    HW2 4605   5.977   4.946   1.192
 1236SOL     OW 4606   1.835   1.476   2.657
 1236SOL    HW1 4607   1.838   1.426   2.571
 1236SOL    HW2 4608   1.912   1.449   2.714
 1237SOL     OW 4609   0.448   0.170   5.243
 1237SOL    HW1 4610   0.415   0.262   5.223
 1237SOL    HW2 4611   0.509   0.140   5.170
 1238SOL     OW 4612   0.307   0.680   4.394
 1238SOL    HW1 4613   0.269   0.591   4.418
 1238SOL    HW2 4614   0.245   0.728   4.332
 1239SOL     OW 4615   5.533   5.062   4.889
 1239SOL    HW1 4616   5.511   5.090   4.796
 1239SOL    HW2 4617   5.451   5.067   4.946
 1240SOL     OW 4618   6.976   4.226   2.721
 1240SOL    HW1 4619   6.889   4.264   2.753
 1240SOL    HW2 4620   7.015   4.287   2.651
 1241SOL     OW 4621   4.977   4.863   5.137
 1241SOL    HW1 4622   4.946   4.958   5.146
 1241SOL    HW2 4623   4.903   4.808   5.098
 1242SOL     OW 4624   1.157   4.955   0.115
 1242SOL    HW1 4625   1.233   5.016   0.139
 1242SOL    HW2 4626   1.078   5.009   0.086
 1243SOL     OW 4627   1.252   4.230   4.754
 1243SOL    HW1 4628   1.322   4.239   4.824
 1243SOL    HW2 4629   1.197   4.313   4.751
 1244SOL     OW 4630   5.890   0.117   5.367
 1244SOL    HW1 4631   5.958   0.044   5.366
 1244SOL    HW2 4632   5.909   0.180   5.292
 1245SOL     OW 4633   4.787   7.005   0.797
 1245SOL    HW1 4634   4.821   6.932   0.738
 1245SOL    HW2 4635   4.720   0.035   0.746
 1246SOL     OW 4636   5.217   0.926   6.855
 1246SOL    HW1 4637   5.183   0.843   6.809
 1246SOL    HW2 4638   5.141   0.989   6.871
 1247SOL     OW 4639   6.758   0.077   3.232
 1247SOL    HW1 4640   6.832   0.017   3.201
 1247SOL    HW2 4641   6.776   0.170   3.200
 1248SOL     OW 4642   1.397   6.518   4.010
 1248SOL    HW1 4643   1.391   6.604   3.960
 1248SOL    HW2 4644   1.317   6.462   3.987
 1249SOL     OW 4645   5.500   5.617   6.913
 1249SOL    HW1 4646   5.519   5.642   7.008
 1249SOL    HW2 4647   5.501   5.518   6.904
 1250SOL     OW 4648   6.611   3.130   5.017
 1250SOL    HW1 4649   6.710   3.142   5.009
 1250SOL    HW2 4650   6.585   3.041   4.980
 1251SOL     OW 4651   3.056   0.789   2.883
 1251SOL    HW1 4652   2.983   0.794   2.951
 1251SOL    HW2 4653   3.025   0.833   2.798
 1252SOL     OW 4654   1.860   6.119   6.600
 1252SOL    HW1 4655   1.859   6.168   6.513
 1252SOL    HW2 4656   1.840   6.022   6.585
 1253SOL     OW 4657   3.283   0.682   0.879
 1253SOL    HW1 4658   3.266   0.672   0.781
 1253SOL    HW2 4659   3.367   0.632   0.904
 1254SOL     OW 4660   6.072   0.569   2.385
 1254SOL    HW1 4661   6.028   0.532   2.467
 1254SOL    HW2 4662   6.155   0.618   2.412
 1255SOL     OW 4663   5.899   1.587   5.710
 1255SOL    HW1 4664   5.976   1.525   5.701
 1255SOL    HW2 4665   5.838   1.576   5.632
 1256SOL     OW 4666   1.112   5.413   3.979
 1256SOL    HW1 4667   1.200   5.364   3.980
 1256SOL    HW2 4668   1.041   5.353   3.944
 1257SOL     OW 4669   0.823   6.597   4.253
 1257SOL    HW1 4670   0.904   6.640   4.293
 1257SOL    HW2 4671   0.783   6.535   4.321
 1258SOL     OW 4672   4.526   6.388   4.682
 1258SOL    HW1 4673   4.541   6.456   4.611
 1258SOL    HW2 4674   4.429   6.388   4.708
 1259SOL     OW 4675   6.115   0.215   4.393
 1259SOL    HW1 4676   6.074   0.278   4.327
 1259SOL    HW2 4677   6.207   0.246   4.416
 1260SOL     OW 4678   2.315   0.967   1.713
 1260SOL    HW1 4679   2.412   0.982   1.729
 1260SOL    HW2 4680   2.280   1.035   1.649
 1261SOL     OW 4681   6.313   4.270   5.985
 1261SOL    HW1 4682   6.222   4.298   6.014
 1261SOL    HW2 4683   6.323   4.285   5.886
 1262SOL     OW 4684   4.400   5.128   0.564
 1262SOL    HW1 4685   4.316   5.075   0.555
 1262SOL    HW2 4686   4.462   5.107   0.489
 1263SOL     OW 4687   6.516   1.934   1.256
 1263SOL    HW1 4688   6.502   1.835   1.242
 1263SOL    HW2 4689   6.608   1.950   1.290
 1264SOL     OW 4690   0.380   3.603   3.511
 1264SOL    HW1 4691   0.299   3.651   3.545
 1264SOL    HW2 4692   0.371   3.589   3.412
 1265SOL     OW 4693   6.615   5.512   4.764
 1265SOL    HW1 4694   6.656   5.427   4.797
 1265SOL    HW2 4695   6.685   5.565   4.716
 1266SOL     OW 4696   1.941   1.722   4.553
 1266SOL    HW1 4697   2.021   1.674   4.589
 1266SOL    HW2 4698   1.967   1.773   4.471
 1267SOL     OW 4699   6.951   5.251   2.438
 1267SOL    HW1 4700   6.948   5.213   2.530
 1267SOL    HW2 4701   0.013   5.298   2.423
 1268SOL     OW 4702   6.498   3.069   6.994
 1268SOL    HW1 4703   6.586   3.032   6.963
 1268SOL    HW2 4704   6.507   3.101   0.064
 1269SOL     OW 4705   7.013   5.604   5.670
 1269SOL    HW1 4706   0.053   5.547   5.619
 1269SOL    HW2 4707   0.024   5.620   5.762
 1270SOL     OW 4708   1.865   3.145   4.703
 1270SOL    HW1 4709   1.879   3.183   4.612
 1270SOL    HW2 4710   1.829   3.216   4.764
 1271SOL     OW 4711   4.987   0.785   2.964
 1271SOL    HW1 4712   4.945   0.869   2.929
 1271SOL    HW2 4713   4.927   0.745   3.033
 1272SOL     OW 4714   0.716   6.129   1.602
 1272SOL    HW1 4715   0.653   6.061   1.639
 1272SOL    HW2 4716   0.807   6.089   1.593
 1273SOL     OW 4717   2.849   6.498   6.452
 1273SOL    HW1 4718   2.804   6.454   6.375
 1273SOL    HW2 4719   2.790   6.492   6.533
 1274SOL     OW 4720   6.881   2.365   1.683
 1274SOL    HW1 4721   6.922   2.442   1.634
 1274SOL    HW2 4722   6.805   2.398   1.739
 1275SOL     OW 4723   3.244   2.140   4.148
 1275SOL    HW1 4724   3.293   2.151   4.235
 1275SOL    HW2 4725   3.301   2.089   4.084
 1276SOL     OW 4726   6.614   0.254   3.490
 1276SOL    HW1 4727   6.596   0.254   3.392
 1276SOL    HW2 4728   6.712   0.258   3.507
 1277SOL     OW 4729   0.250   0.877   5.109
 1277SOL    HW1 4730   0.181   0.905   5.176
 1277SOL    HW2 4731   0.288   0.958   5.065
 1278SOL     OW 4732   1.895   1.645   5.875
 1278SOL    HW1 4733   1.929   1.681   5.962
 1278SOL    HW2 4734   1.963   1.584   5.835
 1279SOL     OW 4735   2.730   5.334   6.817
 1279SOL    HW1 4736   2.795   5.407   6.839
 1279SOL    HW2 4737   2.653   5.338   6.880
 1280SOL     OW 4738   1.919   0.004   3.343
 1280SOL    HW1 4739   1.936   0.066   3.267
 1280SOL    HW2 4740   1.988   6.956   3.343
 1281SOL     OW 4741   1.211   5.946   3.454
 1281SOL    HW1 4742   1.114   5.935   3.475
 1281SOL    HW2 4743   1.265   5.890   3.517
 1282SOL     OW 4744   0.355   0.622   1.843
 1282SOL    HW1 4745   0.383   0.543   1.897
 1282SOL    HW2 4746   0.291   0.592   1.771
 1283SOL     OW 4747   5.307   5.471   6.112
 1283SOL    HW1 4748   5.381   5.407   6.133
 1283SOL    HW2 4749   5.226   5.445   6.165
 1284SOL     OW 4750   2.661   2.375   1.928
 1284SOL    HW1 4751   2.627   2.435   2.001
 1284SOL    HW2 4752   2.758   2.355   1.943
 1285SOL     OW 4753   4.390   2.438   5.393
 1285SOL    HW1 4754   4.298   2.464   5.420
 1285SOL    HW2 4755   4.457   2.492   5.444
 1286SOL     OW 4756   6.155   5.246   1.711
 1286SOL    HW1 4757   6.125   5.160   1.752
 1286SOL    HW2 4758   6.246   5.234   1.672
 1287SOL     OW 4759   6.907   5.264   6.605
 1287SOL    HW1 4760   6.833   5.221   6.657
 1287SOL    HW2 4761   6.868   5.322   6.534
 1288SOL     OW 4762   6.366   3.331   2.112
 1288SOL    HW1 4763   6.286   3.325   2.053
 1288SOL    HW2 4764   6.425   3.405   2.081
 1289SOL     OW 4765   0.558   5.882   2.490
 1289SOL    HW1 4766   0.598   5.952   2.548
 1289SOL    HW2 4767   0.514   5.812   2.547
 1290SOL     OW 4768   0.678   6.257   1.352
 1290SOL    HW1 4769   0.664   6.202   1.434
 1290SOL    HW2 4770   0.722   6.344   1.376
 1291SOL     OW 4771   2.359   6.156   6.603
 1291SOL    HW1 4772   2.389   6.069   6.642
 1291SOL    HW2 4773   2.305   6.138   6.521
 1292SOL     OW 4774   1.021   6.020   0.601
 1292SOL    HW1 4775   1.001   6.046   0.696
 1292SOL    HW2 4776   1.100   6.072   0.568
 1293SOL     OW 4777   0.203   2.238   6.204
 1293SOL    HW1 4778   0.247   2.225   6.293
 1293SOL    HW2 4779   0.268   2.278   6.140
 1294SOL     OW 4780   1.100   2.245   2.225
 1294SOL    HW1 4781   1.115   2.308   2.149
 1294SOL    HW2 4782   1.134   2.287   2.310
 1295SOL     OW 4783   6.037   3.013   1.512
 1295SOL    HW1 4784   6.090   2.954   1.573
 1295SOL    HW2 4785   5.997   3.088   1.565
 1296SOL     OW 4786   3.573   1.757   5.806
 1296SOL    HW1 4787   3.564   1.746   5.905
 1296SOL    HW2 4788   3.615   1.676   5.766
 1297SOL     OW 4789   6.191   1.369   5.963
 1297SOL    HW1 4790   6.255   1.414   5.900
 1297SOL    HW2 4791   6.106   1.347   5.914
 1298SOL     OW 4792   5.391   2.851   3.106
 1298SOL    HW1 4793   5.413   2.947   3.117
 1298SOL    HW2 4794   5.297   2.842   3.072
 1299SOL     OW 4795   0.708   4.177   4.075
 1299SOL    HW1 4796   0.711   4.114   4.154
 1299SOL    HW2 4797   0.696   4.124   3.991
 1300SOL     OW 4798   3.414   3.086   1.448
 1300SOL    HW1 4799   3.435   3.021   1.521
 1300SOL    HW2 4800   3.378   3.170   1.487
 1301SOL     OW 4801   1.202   0.267   3.640
 1301SOL    HW1 4802   1.240   0.175   3.645
 1301SOL    HW2 4803   1.148   0.286   3.722
 1302SOL     OW 4804   3.431   6.344   5.038
 1302SOL    HW1 4805   3.449   6.268   5.100
 1302SOL    HW2 4806   3.332   6.360   5.032
 1303SOL     OW 4807   3.643   1.597   1.180
 1303SOL    HW1 4808   3.580   1.530   1.141
 1303SOL    HW2 4809   3.605   1.689   1.169
 1304SOL     OW 4810   3.163   0.722   0.142
 1304SOL    HW1 4811   3.128   0.637   0.102
 1304SOL    HW2 4812   3.192   0.705   0.236
 1305SOL     OW 4813   4.599   6.932   5.086
 1305SOL    HW1 4814   4.534   6.867   5.125
 1305SOL    HW2 4815   4.685   6.929   5.138
 1306SOL     OW 4816   0.851   4.496   4.474
 1306SOL    HW1 4817   0.769   4.500   4.416
 1306SOL    HW2 4818   0.825   4.470   4.567
 1307SOL     OW 4819   1.206   2.199   4.534
 1307SOL    HW1 4820   1.267   2.227   4.608
 1307SOL    HW2 4821   1.240   2.114   4.493
 1308SOL     OW 4822   4.707   5.793   3.406
 1308SOL    HW1 4823   4.721   5.745   3.492
 1308SOL    HW2 4824   4.679   5.887   3.423
 1309SOL     OW 4825   6.129   3.031   4.707
 1309SOL    HW1 4826   6.167   2.946   4.743
 1309SOL    HW2 4827   6.053   3.061   4.764
 1310SOL     OW 4828   5.266   3.604   4.789
 1310SOL    HW1 4829   5.233   3.577   4.880
 1310SOL    HW2 4830   5.271   3.522   4.731
 1311SOL     OW 4831   6.161   5.864   5.388
 1311SOL    HW1 4832   6.101   5.940   5.415
 1311SOL    HW2 4833   6.116   5.810   5.317
 1312SOL     OW 4834   0.799   6.263   0.460
 1312SOL    HW1 4835   0.860   6.315   0.401
 1312SOL    HW2 4836   0.706   6.301   0.453
 1313SOL     OW 4837   3.442   5.228   4.736
 1313SOL    HW1 4838   3.374   5.284   4.689
 1313SOL    HW2 4839   3.534   5.251   4.703
 1314SOL     OW 4840   0.209   1.821   4.923
 1314SOL    HW1 4841   0.162   1.890   4.978
 1314SOL    HW2 4842   0.299   1.855   4.897
 1315SOL     OW 4843   2.321   1.380   2.551
 1315SOL    HW1 4844   2.344   1.477   2.543
 1315SOL    HW2 4845   2.398   1.324   2.519
 1316SOL     OW 4846   2.913   6.758   3.183
 1316SOL    HW1 4847   2.833   6.699   3.196
 1316SOL    HW2 4848   2.993   6.716   3.226
 1317SOL     OW 4849   6.963   5.651   3.817
 1317SOL    HW1 4850   6.933   5.556   3.824
 1317SOL    HW2 4851   0.030   5.661   3.857
 1318SOL     OW 4852   0.275   6.697   0.534
 1318SOL    HW1 4853   0.340   6.636   0.581
 1318SOL    HW2 4854   0.229   6.754   0.602
 1319SOL     OW 4855   6.399   1.041   6.787
 1319SOL    HW1 4856   6.379   1.137   6.767
 1319SOL    HW2 4857   6.316   0.994   6.815
 1320SOL     OW 4858   5.392   5.566   6.404
 1320SOL    HW1 4859   5.415   5.641   6.467
 1320SOL    HW2 4860   5.405   5.597   6.309
 1321SOL     OW 4861   3.498   2.689   6.749
 1321SOL    HW1 4862   3.555   2.608   6.741
 1321SOL    HW2 4863   3.462   2.696   6.842
 1322SOL     OW 4864   6.342   1.552   4.298
 1322SOL    HW1 4865   6.440   1.540   4.312
 1322SOL    HW2 4866   6.320   1.538   4.201
 1323SOL     OW 4867   6.851   1.612   4.992
 1323SOL    HW1 4868   6.871   1.707   4.969
 1323SOL    HW2 4869   6.755   1.603   5.016
 1324SOL     OW 4870   1.467   3.674   1.195
 1324SOL    HW1 4871   1.392   3.727   1.235
 1324SOL    HW2 4872   1.551   3.727   1.199
 1325SOL     OW 4873   3.127   5.837   2.279
 1325SOL    HW1 4874   3.173   5.750   2.297
 1325SOL    HW2 4875   3.187   5.896   2.226
 1326SOL     OW 4876   5.523   3.275   4.844
 1326SOL    HW1 4877   5.464   3.279   4.764
 1326SOL    HW2 4878   5.467   3.274   4.927
 1327SOL     OW 4879   3.746   5.307   3.040
 1327SOL    HW1 4880   3.715   5.261   3.123
 1327SOL    HW2 4881   3.823   5.256   3.000
 1328SOL     OW 4882   2.299   2.580   6.464
 1328SOL    HW1 4883   2.326   2.594   6.559
 1328SOL    HW2 4884   2.212   2.530   6.461
 1329SOL     OW 4885   0.794   0.585   0.577
 1329SOL    HW1 4886   0.770   0.668   0.628
 1329SOL    HW2 4887   0.862   0.608   0.508
 1330SOL     OW 4888   6.149   6.823   1.367
 1330SOL    HW1 4889   6.181   6.858   1.455
 1330SOL    HW2 4890   6.224   6.826   1.301
 1331SOL     OW 4891   5.416   0.260   2.495
 1331SOL    HW1 4892   5.484   0.207   2.545
 1331SOL    HW2 4893   5.334   0.204   2.481
 1332SOL     OW 4894   4.451   1.199   1.519
 1332SOL    HW1 4895   4.463   1.260   1.440
 1332SOL    HW2 4896   4.483   1.244   1.602
 1333SOL     OW 4897   3.825   4.229   5.241
 1333SOL    HW1 4898   3.924   4.242   5.247
 1333SOL    HW2 4899   3.805   4.160   5.171
 1334SOL     OW 4900   0.091   3.788   4.575
 1334SOL    HW1 4901   0.175   3.841   4.570
 1334SOL    HW2 4902   0.058   3.787   4.670
 1335SOL     OW 4903   2.609   4.980   3.189
 1335SOL    HW1 4904   2.519   4.945   3.214
 1335SOL    HW2 4905   2.676   4.907   3.196
 1336SOL     OW 4906   0.638   0.523   4.906
 1336SOL    HW1 4907   0.606   0.523   5.001
 1336SOL    HW2 4908   0.656   0.616   4.876
 1337SOL     OW 4909   2.245   1.649   6.301
 1337SOL    HW1 4910   2.247   1.746   6.325
 1337SOL    HW2 4911   2.277   1.594   6.378
 1338SOL     OW 4912   4.026   5.512   0.369
 1338SOL    HW1 4913   4.041   5.528   0.271
 1338SOL    HW2 4914   4.114   5.519   0.417
 1339SOL     OW 4915   6.725   3.999   5.296
 1339SOL    HW1 4916   6.725   4.006   5.196
 1339SOL    HW2 4917   6.751   3.906   5.323
 1340SOL     OW 4918   1.457   1.808   0.010
 1340SOL    HW1 4919   1.499   1.726   6.997
 1340SOL    HW2 4920   1.369   1.824   6.989
 1341SOL     OW 4921   3.530   1.082   3.904
 1341SOL    HW1 4922   3.562   1.022   3.977
 1341SOL    HW2 4923   3.490   1.164   3.944
 1342SOL     OW 4924   0.206   6.313   0.951
 1342SOL    HW1 4925   0.174   6.218   0.955
 1342SOL    HW2 4926   0.284   6.324   1.012
 1343SOL     OW 4927   4.240   5.229   3.362
 1343SOL    HW1 4928   4.143   5.226   3.338
 1343SOL    HW2 4929   4.287   5.290   3.298
 1344SOL     OW 4930   6.230   1.504   3.007
 1344SOL    HW1 4931   6.322   1.543   2.998
 1344SOL    HW2 4932   6.180   1.555   3.077
 1345SOL     OW 4933   0.226   0.406   3.071
 1345SOL    HW1 4934   0.160   0.441   3.004
 1345SOL    HW2 4935   0.185   0.328   3.120
 1346SOL     OW 4936   0.312   1.013   4.040
 1346SOL    HW1 4937   0.374   1.004   4.118
 1346SOL    HW2 4938   0.362   0.995   3.955
 1347SOL     OW 4939   6.123   0.322   3.324
 1347SOL    HW1 4940   6.156   0.398   3.380
 1347SOL    HW2 4941   6.024   0.328   3.314
 1348SOL     OW 4942   5.555   4.635   5.035
 1348SOL    HW1 4943   5.507   4.601   5.116
 1348SOL    HW2 4944   5.597   4.558   4.987
 1349SOL     OW 4945   3.955   3.299   6.798
 1349SOL    HW1 4946   3.920   3.243   6.872
 1349SOL    HW2 4947   3.937   3.254   6.710
 1350SOL     OW 4948   3.059   0.708   6.379
 1350SOL    HW1 4949   3.012   0.791   6.407
 1350SOL    HW2 4950   2.998   0.629   6.389
 1351SOL     OW 4951   0.610   0.692   4.248
 1351SOL    HW1 4952   0.644   0.622   4.310
 1351SOL    HW2 4953   0.557   0.759   4.300
 1352SOL     OW 4954   0.279   0.771   3.653
 1352SOL    HW1 4955   0.358   0.723   3.692
 1352SOL    HW2 4956   0.312   0.843   3.591
 1353SOL     OW 4957   1.270   4.250   3.966
 1353SOL    HW1 4958   1.214   4.332   3.951
 1353SOL    HW2 4959   1.291   4.207   3.878
 1354SOL     OW 4960   0.485   6.493   2.135
 1354SOL    HW1 4961   0.387   6.515   2.129
 1354SOL    HW2 4962   0.533   6.569   2.179
 1355SOL     OW 4963   4.325   3.115   6.846
 1355SOL    HW1 4964   4.352   3.148   6.936
 1355SOL    HW2 4965   4.392   3.049   6.813
 1356SOL     OW 4966   2.934   3.644   3.008
 1356SOL    HW1 4967   2.881   3.679   2.930
 1356SOL    HW2 4968   2.998   3.715   3.039
 1357SOL     OW 4969   2.745   2.956   5.437
 1357SOL    HW1 4970   2.748   2.881   5.503
 1357SOL    HW2 4971   2.654   2.961   5.395
 1358SOL     OW 4972   1.991   1.705   6.120
 1358SOL    HW1 4973   1.984   1.804   6.131
 1358SOL    HW2 4974   2.072   1.672   6.168
 1359SOL     OW 4975   5.968   1.645   0.107
 1359SOL    HW1 4976   6.067   1.661   0.107
 1359SOL    HW2 4977   5.930   1.673   0.196
 1360SOL     OW 4978   3.521   3.839   4.038
 1360SOL    HW1 4979   3.441   3.863   3.982
 1360SOL    HW2 4980   3.534   3.740   4.035
 1361SOL     OW 4981   0.678   6.031   0.388
 1361SOL    HW1 4982   0.717   6.123   0.396
 1361SOL    HW2 4983   0.638   6.004   0.475
 1362SOL     OW 4984   2.585   3.220   6.086
 1362SOL    HW1 4985   2.681   3.206   6.108
 1362SOL    HW2 4986   2.552   3.304   6.128
 1363SOL     OW 4987   5.774   6.304   2.159
 1363SOL    HW1 4988   5.718   6.367   2.105
 1363SOL    HW2 4989   5.779   6.336   2.253
 1364SOL     OW 4990   6.740   3.371   1.603
 1364SOL    HW1 4991   6.710   3.462   1.630
 1364SOL    HW2 4992   6.692   3.344   1.519
 1365SOL     OW 4993   0.944   4.088   6.095
 1365SOL    HW1 4994   0.870   4.057   6.035
 1365SOL    HW2 4995   0.940   4.039   6.182
 1366SOL     OW 4996   6.084   1.163   0.574
 1366SOL    HW1 4997   6.011   1.207   0.520
 1366SOL    HW2 4998   6.043   1.114   0.651
 1367SOL     OW 4999   1.008   5.742   4.471
 1367SOL    HW1 5000   1.012   5.782   4.563
 1367SOL    HW2 5001   1.060   5.657   4.470
 1368SOL     OW 5002   0.756   6.257   5.282
 1368SOL    HW1 5003   0.852   6.278   5.303
 1368SOL    HW2 5004   0.697   6.322   5.330
 1369SOL     OW 5005   2.765   6.508   3.151
 1369SOL    HW1 5006   2.678   6.465   3.175
 1369SOL    HW2 5007   2.828   6.439   3.117
 1370SOL     OW 5008   6.408   2.334   3.011
 1370SOL    HW1 5009   6.508   2.341   3.002
 1370SOL    HW2 5010   6.367   2.335   2.920
 1371SOL     OW 5011   6.114   1.973   5.028
 1371SOL    HW1 5012   6.155   2.057   5.065
 1371SOL    HW2 5013   6.154   1.953   4.938
 1372SOL     OW 5014   6.917   2.288   7.011
 1372SOL    HW1 5015   6.983   2.333   0.047
 1372SOL    HW2 5016   6.840   2.349   6.995
 1373SOL     OW 5017   4.742   2.514   1.564
 1373SOL    HW1 5018   4.840   2.535   1.571
 1373SOL    HW2 5019   4.722   2.485   1.470
 1374SOL     OW 5020   4.227   4.530   0.144
 1374SOL    HW1 5021   4.210   4.520   0.242
 1374SOL    HW2 5022   4.317   4.571   0.130
 1375SOL     OW 5023   5.707   5.736   4.449
 1375SOL    HW1 5024   5.714   5.659   4.513
 1375SOL    HW2 5025   5.659   5.812   4.494
 1376SOL     OW 5026   2.472   5.258   6.051
 1376SOL    HW1 5027   2.551   5.267   5.992
 1376SOL    HW2 5028   2.487   5.311   6.135
 1377SOL     OW 5029   1.442   1.086   2.978
 1377SOL    HW1 5030   1.520   1.081   2.916
 1377SOL    HW2 5031   1.418   1.181   2.995
 1378SOL     OW 5032   4.980   2.319   4.758
 1378SOL    HW1 5033   4.932   2.291   4.674
 1378SOL    HW2 5034   4.996   2.239   4.815
 1379SOL     OW 5035   4.891   5.405   1.473
 1379SOL    HW1 5036   4.818   5.342   1.497
 1379SOL    HW2 5037   4.923   5.385   1.380
 1380SOL     OW 5038   0.293   5.567   1.568
 1380SOL    HW1 5039   0.368   5.507   1.596
 1380SOL    HW2 5040   0.290   5.572   1.468
 1381SOL     OW 5041   5.925   2.493   5.832
 1381SOL    HW1 5042   6.015   2.536   5.840
 1381SOL    HW2 5043   5.859   2.561   5.799
 1382SOL     OW 5044   4.159   2.502   0.381
 1382SOL    HW1 5045   4.220   2.423   0.382
 1382SOL    HW2 5046   4.212   2.586   0.394
 1383SOL     OW 5047   0.145   0.983   2.009
 1383SOL    HW1 5048   0.061   0.933   2.031
 1383SOL    HW2 5049   0.151   1.065   2.066
 1384SOL     OW 5050   5.582   0.924   1.709
 1384SOL    HW1 5051   5.632   0.969   1.636
 1384SOL    HW2 5052   5.549   0.992   1.774
 1385SOL     OW 5053   1.131   5.592   2.046
 1385SOL    HW1 5054   1.081   5.673   2.076
 1385SOL    HW2 5055   1.131   5.523   2.118
 1386SOL     OW 5056   3.107   5.857   4.407
 1386SOL    HW1 5057   3.055   5.772   4.415
 1386SOL    HW2 5058   3.188   5.841   4.350
 1387SOL     OW 5059   3.417   5.530   2.140
 1387SOL    HW1 5060   3.499   5.492   2.099
 1387SOL    HW2 5061   3.348   5.546   2.070
 1388SOL     OW 5062   6.406   0.165   1.468
 1388SOL    HW1 5063   6.421   0.066   1.463
 1388SOL    HW2 5064   6.317   0.187   1.427
 1389SOL     OW 5065   5.965   1.130   2.773
 1389SOL    HW1 5066   5.888   1.134   2.710
 1389SOL    HW2 5067   5.947   1.062   2.844
 1390SOL     OW 5068   6.773   1.736   6.138
 1390SOL    HW1 5069   6.684   1.766   6.102
 1390SOL    HW2 5070   6.846   1.769   6.078
 1391SOL     OW 5071   0.457   2.728   3.014
 1391SOL    HW1 5072   0.430   2.632   3.013
 1391SOL    HW2 5073   0.441   2.768   2.924
 1392SOL     OW 5074   5.026   5.257   5.318
 1392SOL    HW1 5075   5.108   5.280   5.266
 1392SOL    HW2 5076   4.953   5.230   5.256
 1393SOL     OW 5077   4.219   0.171   5.716
 1393SOL    HW1 5078   4.233   0.233   5.639
 1393SOL    HW2 5079   4.206   0.078   5.681
 1394SOL     OW 5080   3.078   5.694   5.612
 1394SOL    HW1 5081   3.123   5.657   5.530
 1394SOL    HW2 5082   3.010   5.762   5.584
 1395SOL     OW 5083   3.665   4.640   5.818
 1395SOL    HW1 5084   3.593   4.579   5.785
 1395SOL    HW2 5085   3.632   4.692   5.896
 1396SOL     OW 5086   5.909   6.021   4.605
 1396SOL    HW1 5087   5.929   5.932   4.565
 1396SOL    HW2 5088   5.860   6.007   4.691
 1397SOL     OW 5089   4.865   6.202   4.596
 1397SOL    HW1 5090   4.844   6.241   4.686
 1397SOL    HW2 5091   4.831   6.264   4.525
 1398SOL     OW 5092   1.273   1.346   5.060
 1398SOL    HW1 5093   1.262   1.290   5.142
 1398SOL    HW2 5094   1.261   1.289   4.979
 1399SOL     OW 5095   3.128   6.101   1.641
 1399SOL    HW1 5096   3.128   6.161   1.720
 1399SOL    HW2 5097   3.063   6.026   1.656
 1400SOL     OW 5098   0.178   0.349   2.160
 1400SOL    HW1 5099   0.087   0.325   2.193
 1400SOL    HW2 5100   0.173   0.371   2.062
 1401SOL     OW 5101   0.180   1.251   4.712
 1401SOL    HW1 5102   0.223   1.171   4.670
 1401SOL    HW2 5103   0.231   1.334   4.686
 1402SOL     OW 5104   6.923   3.009   0.848
 1402SOL    HW1 5105   6.982   2.938   0.809
 1402SOL    HW2 5106   6.856   3.038   0.779
 1403SOL     OW 5107   2.676   6.837   2.228
 1403SOL    HW1 5108   2.720   6.749   2.245
 1403SOL    HW2 5109   2.685   6.895   2.309
 1404SOL     OW 5110   5.520   0.548   6.987
 1404SOL    HW1 5111   5.610   0.537   6.944
 1404SOL    HW2 5112   5.525   0.620   0.032
 1405SOL     OW 5113   2.021   3.831   0.685
 1405SOL    HW1 5114   2.060   3.750   0.729
 1405SOL    HW2 5115   2.056   3.839   0.592
 1406SOL     OW 5116   0.951   4.020   1.462
 1406SOL    HW1 5117   1.047   4.043   1.453
 1406SOL    HW2 5118   0.904   4.092   1.514
 1407SOL     OW 5119   6.936   1.691   2.390
 1407SOL    HW1 5120   6.998   1.718   2.317
 1407SOL    HW2 5121   6.842   1.718   2.367
 1408SOL     OW 5122   5.250   0.882   6.178
 1408SOL    HW1 5123   5.347   0.904   6.189
 1408SOL    HW2 5124   5.216   0.842   6.264
 1409SOL     OW 5125   0.483   0.884   4.415
 1409SOL    HW1 5126   0.403   0.825   4.425
 1409SOL    HW2 5127   0.479   0.931   4.327
 1410SOL     OW 5128   0.708   3.039   6.746
 1410SOL    HW1 5129   0.659   2.955   6.723
 1410SOL    HW2 5130   0.696   3.059   6.843
 1411SOL     OW 5131   1.752   6.660   2.277
 1411SOL    HW1 5132   1.734   6.725   2.351
 1411SOL    HW2 5133   1.809   6.586   2.312
 1412SOL     OW 5134   1.335   2.844   0.293
 1412SOL    HW1 5135   1.300   2.876   0.205
 1412SOL    HW2 5136   1.424   2.800   0.279
 1413SOL     OW 5137   2.170   0.649   4.229
 1413SOL    HW1 5138   2.225   0.732   4.238
 1413SOL    HW2 5139   2.078   0.673   4.199
 1414SOL     OW 5140   2.425   1.748   1.841
 1414SOL    HW1 5141   2.424   1.842   1.806
 1414SOL    HW2 5142   2.430   1.684   1.764
 1415SOL     OW 5143   4.100   6.679   5.205
 1415SOL    HW1 5144   4.018   6.628   5.180
 1415SOL    HW2 5145   4.170   6.616   5.238
 1416SOL     OW 5146   4.359   4.707   2.171
 1416SOL    HW1 5147   4.399   4.794   2.143
 1416SOL    HW2 5148   4.264   4.702   2.142
 1417SOL     OW 5149   2.430   2.055   6.894
 1417SOL    HW1 5150   2.351   2.075   6.952
 1417SOL    HW2 5151   2.474   2.140   6.866
 1418SOL     OW 5152   3.198   4.088   2.913
 1418SOL    HW1 5153   3.297   4.096   2.902
 1418SOL    HW2 5154   3.153   4.107   2.826
 1419SOL     OW 5155   3.630   6.522   4.950
 1419SOL    HW1 5156   3.632   6.535   4.851
 1419SOL    HW2 5157   3.562   6.453   4.973
 1420SOL     OW 5158   1.248   5.940   2.106
 1420SOL    HW1 5159   1.203   5.987   2.183
 1420SOL    HW2 5160   1.228   5.989   2.021
 1421SOL     OW 5161   2.727   2.321   2.627
 1421SOL    HW1 5162   2.710   2.306   2.530
 1421SOL    HW2 5163   2.712   2.418   2.649
 1422SOL     OW 5164   2.023   4.933   1.387
 1422SOL    HW1 5165   2.050   4.869   1.459
 1422SOL    HW2 5166   1.962   5.002   1.425
 1423SOL     OW 5167   4.884   6.803   2.682
 1423SOL    HW1 5168   4.846   6.893   2.706
 1423SOL    HW2 5169   4.810   6.743   2.652
 1424SOL     OW 5170   6.154   4.873   5.174
 1424SOL    HW1 5171   6.121   4.890   5.081
 1424SOL    HW2 5172   6.213   4.949   5.202
 1425SOL     OW 5173   1.942   6.803   4.177
 1425SOL    HW1 5174   1.994   6.874   4.129
 1425SOL    HW2 5175   1.845   6.823   4.170
 1426SOL     OW 5176   1.334   1.583   5.641
 1426SOL    HW1 5177   1.413   1.550   5.590
 1426SOL    HW2 5178   1.254   1.529   5.616
 1427SOL     OW 5179   6.241   0.662   3.982
 1427SOL    HW1 5180   6.292   0.578   3.999
 1427SOL    HW2 5181   6.168   0.644   3.916
 1428SOL     OW 5182   5.611   2.167   0.107
 1428SOL    HW1 5183   5.677   2.118   0.050
 1428SOL    HW2 5184   5.608   2.263   0.079
 1429SOL     OW 5185   6.577   0.579   0.712
 1429SOL    HW1 5186   6.627   0.637   0.777
 1429SOL    HW2 5187   6.489   0.555   0.751
 1430SOL     OW 5188   1.900   4.494   3.814
 1430SOL    HW1 5189   1.938   4.438   3.888
 1430SOL    HW2 5190   1.964   4.496   3.737
 1431SOL     OW 5191   2.577   0.993   1.746
 1431SOL    HW1 5192   2.618   1.072   1.791
 1431SOL    HW2 5193   2.592   0.911   1.802
 1432SOL     OW 5194   2.157   0.744   2.756
 1432SOL    HW1 5195   2.128   0.669   2.814
 1432SOL    HW2 5196   2.214   0.807   2.809
 1433SOL     OW 5197   4.285   0.398   3.770
 1433SOL    HW1 5198   4.233   0.470   3.816
 1433SOL    HW2 5199   4.273   0.311   3.818
 1434SOL     OW 5200   0.551   0.951   5.618
 1434SOL    HW1 5201   0.555   0.884   5.692
 1434SOL    HW2 5202   0.474   0.930   5.558
 1435SOL     OW 5203   5.748   1.615   2.751
 1435SOL    HW1 5204   5.696   1.692   2.788
 1435SOL    HW2 5205   5.810   1.580   2.822
 1436SOL     OW 5206   4.198   3.936   0.308
 1436SOL    HW1 5207   4.156   3.909   0.394
 1436SOL    HW2 5208   4.171   4.029   0.285
 1437SOL     OW 5209   2.846   1.391   3.095
 1437SOL    HW1 5210   2.924   1.453   3.104
 1437SOL    HW2 5211   2.785   1.424   3.023
 1438SOL     OW 5212   3.036   6.707   1.067
 1438SOL    HW1 5213   3.094   6.640   1.020
 1438SOL    HW2 5214   3.011   6.673   1.157
 1439SOL     OW 5215   0.076   5.811   2.179
 1439SOL    HW1 5216   0.107   5.726   2.136
 1439SOL    HW2 5217   0.155   5.866   2.205
 1440SOL     OW 5218   3.198   3.986   0.907
 1440SOL    HW1 5219   3.179   3.889   0.893
 1440SOL    HW2 5220   3.130   4.041   0.859
 1441SOL     OW 5221   5.957   6.770   1.149
 1441SOL    HW1 5222   5.983   6.857   1.107
 1441SOL    HW2 5223   6.039   6.716   1.167
 1442SOL     OW 5224   5.708   5.816   0.371
 1442SOL    HW1 5225   5.750   5.903   0.398
 1442SOL    HW2 5226   5.652   5.782   0.446
 1443SOL     OW 5227   1.132   2.623   2.947
 1443SOL    HW1 5228   1.041   2.581   2.940
 1443SOL    HW2 5229   1.201   2.552   2.933
 1444SOL     OW 5230   6.101   6.128   6.961
 1444SOL    HW1 5231   6.071   6.134   0.032
 1444SOL    HW2 5232   6.135   6.217   6.931
 1445SOL     OW 5233   0.593   3.408   2.424
 1445SOL    HW1 5234   0.640   3.322   2.406
 1445SOL    HW2 5235   0.635   3.453   2.503
 1446SOL     OW 5236   6.527   6.873   6.431
 1446SOL    HW1 5237   6.474   6.803   6.478
 1446SOL    HW2 5238   6.554   6.840   6.341
 1447SOL     OW 5239   6.138   5.178   4.352
 1447SOL    HW1 5240   6.130   5.127   4.266
 1447SOL    HW2 5241   6.077   5.138   4.421
 1448SOL     OW 5242   0.766   2.622   5.612
 1448SOL    HW1 5243   0.842   2.670   5.566
 1448SOL    HW2 5244   0.680   2.649   5.569
 1449SOL     OW 5245   1.657   3.640   4.566
 1449SOL    HW1 5246   1.748   3.639   4.526
 1449SOL    HW2 5247   1.616   3.730   4.553
 1450SOL     OW 5248   1.855   2.053   5.168
 1450SOL    HW1 5249   1.813   2.110   5.239
 1450SOL    HW2 5250   1.852   1.957   5.196
 1451SOL     OW 5251   2.653   6.461   1.866
 1451SOL    HW1 5252   2.665   6.472   1.767
 1451SOL    HW2 5253   2.715   6.390   1.899
 1452SOL     OW 5254   4.689   3.539   6.049
 1452SOL    HW1 5255   4.634   3.457   6.033
 1452SOL    HW2 5256   4.642   3.618   6.010
 1453SOL     OW 5257   0.691   4.183   5.639
 1453SOL    HW1 5258   0.718   4.087   5.650
 1453SOL    HW2 5259   0.726   4.219   5.553
 1454SOL     OW 5260   2.841   2.045   3.622
 1454SOL    HW1 5261   2.804   1.960   3.659
 1454SOL    HW2 5262   2.854   2.036   3.524
 1455SOL     OW 5263   1.343   5.695   2.287
 1455SOL    HW1 5264   1.336   5.730   2.381
 1455SOL    HW2 5265   1.278   5.744   2.229
 1456SOL     OW 5266   6.355   5.303   5.929
 1456SOL    HW1 5267   6.365   5.338   5.836
 1456SOL    HW2 5268   6.421   5.229   5.944
 1457SOL     OW 5269   0.946   3.987   6.401
 1457SOL    HW1 5270   0.862   3.939   6.423
 1457SOL    HW2 5271   1.009   3.982   6.479
 1458SOL     OW 5272   6.294   5.062   5.694
 1458SOL    HW1 5273   6.218   5.076   5.630
 1458SOL    HW2 5274   6.369   5.124   5.672
 1459SOL     OW 5275   4.778   6.514   5.016
 1459SOL    HW1 5276   4.680   6.527   5.000
 1459SOL    HW2 5277   4.797   6.524   5.114
 1460SOL     OW 5278   2.264   6.096   5.387
 1460SOL    HW1 5279   2.222   6.148   5.462
 1460SOL    HW2 5280   2.227   6.003   5.387
 1461SOL     OW 5281   0.105   2.618   2.127
 1461SOL    HW1 5282   0.202   2.591   2.126
 1461SOL    HW2 5283   0.083   2.658   2.216
 1462SOL     OW 5284   0.782   6.944   1.022
 1462SOL    HW1 5285   0.823   7.003   1.092
 1462SOL    HW2 5286   0.704   6.990   0.980
 1463SOL     OW 5287   1.661   6.071   6.954
 1463SOL    HW1 5288   1.564   6.047   6.956
 1463SOL    HW2 5289   1.715   5.987   6.948
 1464SOL     OW 5290   0.012   4.105   4.527
 1464SOL    HW1 5291   0.011   4.072   4.621
 1464SOL    HW2 5292   0.087   4.061   4.477
 1465SOL     OW 5293   1.501   1.520   3.404
 1465SOL    HW1 5294   1.580   1.489   3.350
 1465SOL    HW2 5295   1.524   1.605   3.449
 1466SOL     OW 5296   4.044   2.456   1.669
 1466SOL    HW1 5297   3.976   2.389   1.696
 1466SOL    HW2 5298   4.006   2.548   1.677
 1467SOL     OW 5299   1.364   0.825   3.950
 1467SOL    HW1 5300   1.391   0.858   4.041
 1467SOL    HW2 5301   1.302   0.747   3.961
 1468SOL     OW 5302   2.663   6.224   2.042
 1468SOL    HW1 5303   2.701   6.158   2.107
 1468SOL    HW2 5304   2.655   6.180   1.952
 1469SOL     OW 5305   6.194   5.809   3.411
 1469SOL    HW1 5306   6.178   5.805   3.312
 1469SOL    HW2 5307   6.136   5.880   3.451
 1470SOL     OW 5308   6.200   2.547   0.734
 1470SOL    HW1 5309   6.143   2.628   0.716
 1470SOL    HW2 5310   6.209   2.493   0.651
 1471SOL     OW 5311   5.680   6.825   1.656
 1471SOL    HW1 5312   5.665   6.922   1.674
 1471SOL    HW2 5313   5.626   6.797   1.577
 1472SOL     OW 5314   2.267   0.043   5.849
 1472SOL    HW1 5315   2.324   0.037   5.931
 1472SOL    HW2 5316   2.172   0.023   5.874
 1473SOL     OW 5317   3.304   4.966   4.619
 1473SOL    HW1 5318   3.323   5.064   4.632
 1473SOL    HW2 5319   3.367   4.912   4.675
 1474SOL     OW 5320   4.517   4.312   1.390
 1474SOL    HW1 5321   4.534   4.236   1.453
 1474SOL    HW2 5322   4.440   4.366   1.423
 1475SOL     OW 5323   5.107   0.356   0.424
 1475SOL    HW1 5324   5.096   0.454   0.444
 1475SOL    HW2 5325   5.033   0.326   0.364
 1476SOL     OW 5326   4.347   1.406   1.879
 1476SOL    HW1 5327   4.251   1.411   1.854
 1476SOL    HW2 5328   4.368   1.317   1.918
 1477SOL     OW 5329   4.462   5.474   1.182
 1477SOL    HW1 5330   4.427   5.410   1.251
 1477SOL    HW2 5331   4.447   5.567   1.214
 1478SOL     OW 5332   5.102   5.718   5.462
 1478SOL    HW1 5333   5.183   5.719   5.520
 1478SOL    HW2 5334   5.060   5.809   5.462
 1479SOL     OW 5335   3.620   3.531   1.443
 1479SOL    HW1 5336   3.565   3.541   1.360
 1479SOL    HW2 5337   3.694   3.465   1.426
 1480SOL     OW 5338   2.977   0.694   5.032
 1480SOL    HW1 5339   2.913   0.770   5.034
 1480SOL    HW2 5340   2.958   0.636   4.952
 1481SOL     OW 5341   5.003   2.458   5.239
 1481SOL    HW1 5342   4.984   2.369   5.281
 1481SOL    HW2 5343   4.933   2.524   5.266
 1482SOL     OW 5344   4.375   0.746   0.607
 1482SOL    HW1 5345   4.379   0.839   0.572
 1482SOL    HW2 5346   4.279   0.721   0.625
 1483SOL     OW 5347   4.188   0.926   6.331
 1483SOL    HW1 5348   4.184   0.856   6.259
 1483SOL    HW2 5349   4.181   1.017   6.289
 1484SOL     OW 5350   2.949   5.640   4.390
 1484SOL    HW1 5351   2.871   5.659   4.331
 1484SOL    HW2 5352   2.985   5.549   4.370
 1485SOL     OW 5353   5.270   2.662   2.863
 1485SOL    HW1 5354   5.330   2.733   2.826
 1485SOL    HW2 5355   5.175   2.689   2.852
 1486SOL     OW 5356   5.255   6.554   3.681
 1486SOL    HW1 5357   5.312   6.608   3.744
 1486SOL    HW2 5358   5.277   6.457   3.692
 1487SOL     OW 5359   6.774   0.296   0.379
 1487SOL    HW1 5360   6.686   0.342   0.395
 1487SOL    HW2 5361   6.812   0.265   0.466
 1488SOL     OW 5362   6.407   1.102   3.041
 1488SOL    HW1 5363   6.378   1.008   3.059
 1488SOL    HW2 5364   6.357   1.137   2.961
 1489SOL     OW 5365   4.383   4.961   6.638
 1489SOL    HW1 5366   4.393   5.040   6.578
 1489SOL    HW2 5367   4.314   4.899   6.600
 1490SOL     OW 5368   0.669   2.307   1.939
 1490SOL    HW1 5369   0.744   2.274   1.882
 1490SOL    HW2 5370   0.683   2.404   1.960
 1491SOL     OW 5371   0.245   2.857   1.999
 1491SOL    HW1 5372   0.195   2.898   1.923
 1491SOL    HW2 5373   0.192   2.782   2.038
 1492SOL     OW 5374   6.259   1.408   3.293
 1492SOL    HW1 5375   6.258   1.480   3.362
 1492SOL    HW2 5376   6.306   1.441   3.211
 1493SOL     OW 5377   4.525   2.090   5.972
 1493SOL    HW1 5378   4.450   2.097   5.907
 1493SOL    HW2 5379   4.612   2.082   5.923
 1494SOL     OW 5380   5.762   3.394   6.193
 1494SOL    HW1 5381   5.853   3.366   6.161
 1494SOL    HW2 5382   5.734   3.336   6.268
 1495SOL     OW 5383   5.927   3.835   4.040
 1495SOL    HW1 5384   5.913   3.921   3.990
 1495SOL    HW2 5385   5.847   3.816   4.097
 1496SOL     OW 5386   0.089   6.079   6.797
 1496SOL    HW1 5387   0.140   6.165   6.804
 1496SOL    HW2 5388   0.064   6.047   6.888
 1497SOL     OW 5389   5.598   3.061   2.701
 1497SOL    HW1 5390   5.526   3.115   2.746
 1497SOL    HW2 5391   5.628   3.109   2.618
 1498SOL     OW 5392   3.283   4.989   1.153
 1498SOL    HW1 5393   3.242   4.921   1.092
 1498SOL    HW2 5394   3.225   4.999   1.234
 1499SOL     OW 5395   0.327   4.098   5.662
 1499SOL    HW1 5396   0.323   4.051   5.750
 1499SOL    HW2 5397   0.386   4.179   5.671
 1500SOL     OW 5398   0.590   5.354   1.033
 1500SOL    HW1 5399   0.595   5.267   1.082
 1500SOL    HW2 5400   0.683   5.383   1.008
 1501SOL     OW 5401   5.382   1.668   6.054
 1501SOL    HW1 5402   5.376   1.719   5.969
 1501SOL    HW2 5403   5.456   1.600   6.047
 1502SOL     OW 5404   6.667   0.483   6.350
 1502SOL    HW1 5405   6.730   0.464   6.274
 1502SOL    HW2 5406   6.715   0.472   6.437
 1503SOL     OW 5407   0.665   4.028   2.207
 1503SOL    HW1 5408   0.751   3.978   2.211
 1503SOL    HW2 5409   0.599   3.976   2.152
 1504SOL     OW 5410   0.580   0.696   3.337
 1504SOL    HW1 5411   0.539   0.615   3.295
 1504SOL    HW2 5412   0.634   0.746   3.268
 1505SOL     OW 5413   5.860   6.055   4.947
 1505SOL    HW1 5414   5.940   6.109   4.921
 1505SOL    HW2 5415   5.777   6.105   4.924
 1506SOL     OW 5416   1.431   1.303   0.489
 1506SOL    HW1 5417   1.522   1.345   0.494
 1506SOL    HW2 5418   1.385   1.314   0.577
 1507SOL     OW 5419   1.527   2.639   4.416
 1507SOL    HW1 5420   1.472   2.556   4.432
 1507SOL    HW2 5421   1.560   2.674   4.504
 1508SOL     OW 5422   0.952   0.669   0.379
 1508SOL    HW1 5423   0.983   0.609   0.305
 1508SOL    HW2 5424   1.031   0.717   0.417
 1509SOL     OW 5425   5.104   0.745   4.587
 1509SOL    HW1 5426   5.098   0.844   4.576
 1509SOL    HW2 5427   5.042   0.715   4.660
 1510SOL     OW 5428   3.940   6.463   3.974
 1510SOL    HW1 5429   3.997   6.457   3.891
 1510SOL    HW2 5430   3.866   6.529   3.958
 1511SOL     OW 5431   3.798   3.590   4.212
 1511SOL    HW1 5432   3.805   3.515   4.277
 1511SOL    HW2 5433   3.889   3.616   4.180
 1512SOL     OW 5434   6.426   5.752   1.239
 1512SOL    HW1 5435   6.459   5.666   1.277
 1512SOL    HW2 5436   6.502   5.817   1.233
 1513SOL     OW 5437   3.086   0.197   5.959
 1513SOL    HW1 5438   3.123   0.217   5.868
 1513SOL    HW2 5439   2.993   0.233   5.965
 1514SOL     OW 5440   3.726   2.256   5.398
 1514SOL    HW1 5441   3.693   2.193   5.328
 1514SOL    HW2 5442   3.815   2.292   5.370
 1515SOL     OW 5443   6.809   2.066   2.175
 1515SOL    HW1 5444   6.750   2.007   2.230
 1515SOL    HW2 5445   6.904   2.036   2.184
 1516SOL     OW 5446   6.015   6.429   4.793
 1516SOL    HW1 5447   6.067   6.453   4.875
 1516SOL    HW2 5448   6.074   6.380   4.729
 1517SOL     OW 5449   4.126   6.385   3.487
 1517SOL    HW1 5450   4.112   6.319   3.413
 1517SOL    HW2 5451   4.071   6.467   3.470
 1518SOL     OW 5452   0.166   2.231   0.842
 1518SOL    HW1 5453   0.082   2.277   0.816
 1518SOL    HW2 5454   0.199   2.268   0.928
 1519SOL     OW 5455   6.906   3.971   0.614
 1519SOL    HW1 5456   6.820   3.987   0.662
 1519SOL    HW2 5457   6.927   3.874   0.615
 1520SOL     OW 5458   0.283   5.595   1.279
 1520SOL    HW1 5459   0.283   5.534   1.200
 1520SOL    HW2 5460   0.376   5.603   1.315
 1521SOL     OW 5461   2.270   5.214   6.261
 1521SOL    HW1 5462   2.198   5.275   6.228
 1521SOL    HW2 5463   2.338   5.202   6.188
 1522SOL     OW 5464   4.911   5.330   4.704
 1522SOL    HW1 5465   4.830   5.277   4.679
 1522SOL    HW2 5466   4.973   5.335   4.627
 1523SOL     OW 5467   3.370   6.197   6.857
 1523SOL    HW1 5468   3.428   6.166   6.782
 1523SOL    HW2 5469   3.280   6.153   6.850
 1524SOL     OW 5470   1.987   2.171   2.379
 1524SOL    HW1 5471   1.946   2.126   2.300
 1524SOL    HW2 5472   2.019   2.262   2.354
 1525SOL     OW 5473   5.332   2.838   0.733
 1525SOL    HW1 5474   5.331   2.772   0.657
 1525SOL    HW2 5475   5.238   2.868   0.752
 1526SOL     OW 5476   0.956   1.388   0.689
 1526SOL    HW1 5477   0.888   1.356   0.756
 1526SOL    HW2 5478   0.953   1.488   0.684
 1527SOL     OW 5479   3.585   1.328   4.473
 1527SOL    HW1 5480   3.592   1.262   4.548
 1527SOL    HW2 5481   3.502   1.383   4.485
 1528SOL     OW 5482   4.982   3.892   0.831
 1528SOL    HW1 5483   4.973   3.800   0.869
 1528SOL    HW2 5484   5.020   3.953   0.902
 1529SOL     OW 5485   4.764   1.449   6.207
 1529SOL    HW1 5486   4.794   1.355   6.224
 1529SOL    HW2 5487   4.760   1.499   6.293
 1530SOL     OW 5488   3.758   6.705   1.464
 1530SOL    HW1 5489   3.853   6.733   1.455
 1530SOL    HW2 5490   3.737   6.686   1.560
 1531SOL     OW 5491   3.699   6.903   4.123
 1531SOL    HW1 5492   3.626   6.969   4.141
 1531SOL    HW2 5493   3.766   6.943   4.061
 1532SOL     OW 5494   3.006   4.917   6.247
 1532SOL    HW1 5495   2.997   4.937   6.150
 1532SOL    HW2 5496   3.103   4.920   6.273
 1533SOL     OW 5497   5.450   5.467   1.478
 1533SOL    HW1 5498   5.450   5.469   1.378
 1533SOL    HW2 5499   5.484   5.379   1.510
 1534SOL     OW 5500   4.006   6.174   6.439
 1534SOL    HW1 5501   3.941   6.193   6.512
 1534SOL    HW2 5502   4.099   6.190   6.473
 1535SOL     OW 5503   6.338   6.594   4.358
 1535SOL    HW1 5504   6.358   6.641   4.272
 1535SOL    HW2 5505   6.423   6.565   4.401
 1536SOL     OW 5506   4.104   4.142   6.491
 1536SOL    HW1 5507   4.123   4.048   6.519
 1536SOL    HW2 5508   4.007   4.162   6.506
 1537SOL     OW 5509   3.309   5.261   3.451
 1537SOL    HW1 5510   3.328   5.309   3.365
 1537SOL    HW2 5511   3.332   5.320   3.528
 1538SOL     OW 5512   3.448   1.617   0.219
 1538SOL    HW1 5513   3.492   1.652   0.302
 1538SOL    HW2 5514   3.517   1.595   0.151
 1539SOL     OW 5515   5.601   3.332   1.139
 1539SOL    HW1 5516   5.600   3.267   1.215
 1539SOL    HW2 5517   5.678   3.310   1.078
 1540SOL     OW 5518   2.635   0.107   4.671
 1540SOL    HW1 5519   2.734   0.094   4.670
 1540SOL    HW2 5520   2.609   0.156   4.754
 1541SOL     OW 5521   3.083   3.032   5.098
 1541SOL    HW1 5522   3.181   3.031   5.117
 1541SOL    HW2 5523   3.054   2.941   5.067
 1542SOL     OW 5524   6.514   0.224   2.308
 1542SOL    HW1 5525   6.550   0.309   2.349
 1542SOL    HW2 5526   6.442   0.187   2.367
 1543SOL     OW 5527   2.899   5.055   6.619
 1543SOL    HW1 5528   2.923   5.112   6.540
 1543SOL    HW2 5529   2.858   4.970   6.586
 1544SOL     OW 5530   3.812   2.922   3.399
 1544SOL    HW1 5531   3.880   2.856   3.367
 1544SOL    HW2 5532   3.722   2.898   3.363
 1545SOL     OW 5533   6.211   0.131   2.153
 1545SOL    HW1 5534   6.217   0.116   2.252
 1545SOL    HW2 5535   6.187   0.045   2.108
 1546SOL     OW 5536   5.250   6.385   5.726
 1546SOL    HW1 5537   5.334   6.372   5.777
 1546SOL    HW2 5538   5.267   6.446   5.649
 1547SOL     OW 5539   1.501   4.246   0.250
 1547SOL    HW1 5540   1.420   4.217   0.200
 1547SOL    HW2 5541   1.504   4.346   0.254
 1548SOL     OW 5542   5.986   2.166   7.013
 1548SOL    HW1 5543   5.975   2.133   0.082
 1548SOL    HW2 5544   6.079   2.200   7.000
 1549SOL     OW 5545   4.064   1.526   4.552
 1549SOL    HW1 5546   4.087   1.456   4.619
 1549SOL    HW2 5547   4.135   1.597   4.552
 1550SOL     OW 5548   3.673   3.335   2.432
 1550SOL    HW1 5549   3.744   3.393   2.392
 1550SOL    HW2 5550   3.593   3.336   2.373
 1551SOL     OW 5551   0.581   5.164   6.684
 1551SOL    HW1 5552   0.495   5.162   6.734
 1551SOL    HW2 5553   0.656   5.134   6.744
 1552SOL     OW 5554   2.497   4.490   1.576
 1552SOL    HW1 5555   2.515   4.507   1.673
 1552SOL    HW2 5556   2.483   4.577   1.529
 1553SOL     OW 5557   6.689   1.627   5.760
 1553SOL    HW1 5558   6.734   1.715   5.744
 1553SOL    HW2 5559   6.748   1.570   5.817
 1554SOL     OW 5560   2.890   2.054   3.349
 1554SOL    HW1 5561   2.838   2.138   3.330
 1554SOL    HW2 5562   2.935   2.023   3.265
 1555SOL     OW 5563   6.678   3.454   6.026
 1555SOL    HW1 5564   6.702   3.415   6.116
 1555SOL    HW2 5565   6.603   3.518   6.037
 1556SOL     OW 5566   2.306   1.139   6.081
 1556SOL    HW1 5567   2.301   1.075   6.005
 1556SOL    HW2 5568   2.274   1.229   6.051
 1557SOL     OW 5569   1.347   3.263   6.757
 1557SOL    HW1 5570   1.336   3.277   6.855
 1557SOL    HW2 5571   1.266   3.298   6.709
 1558SOL     OW 5572   0.106   0.178   4.945
 1558SOL    HW1 5573   0.114   0.095   4.890
 1558SOL    HW2 5574   0.037   0.239   4.905
 1559SOL     OW 5575   0.407   2.420   6.094
 1559SOL    HW1 5576   0.344   2.462   6.159
 1559SOL    HW2 5577   0.365   2.416   6.003
 1560SOL     OW 5578   0.488   0.899   6.387
 1560SOL    HW1 5579   0.412   0.845   6.353
 1560SOL    HW2 5580   0.567   0.889   6.326
 1561SOL     OW 5581   4.814   6.039   2.801
 1561SOL    HW1 5582   4.777   6.101   2.732
 1561SOL    HW2 5583   4.904   6.071   2.830
 1562SOL     OW 5584   5.107   0.274   2.981
 1562SOL    HW1 5585   5.130   0.277   2.883
 1562SOL    HW2 5586   5.067   0.186   3.004
 1563SOL     OW 5587   3.338   1.379   6.418
 1563SOL    HW1 5588   3.372   1.400   6.326
 1563SOL    HW2 5589   3.331   1.280   6.430
 1564SOL     OW 5590   1.880   2.122   2.114
 1564SOL    HW1 5591   1.837   2.044   2.159
 1564SOL    HW2 5592   1.955   2.091   2.056
 1565SOL     OW 5593   4.905   3.731   1.819
 1565SOL    HW1 5594   4.870   3.789   1.746
 1565SOL    HW2 5595   4.859   3.642   1.816
 1566SOL     OW 5596   5.620   4.061   3.377
 1566SOL    HW1 5597   5.664   4.015   3.455
 1566SOL    HW2 5598   5.639   4.010   3.293
 1567SOL     OW 5599   6.537   5.510   6.016
 1567SOL    HW1 5600   6.504   5.416   6.019
 1567SOL    HW2 5601   6.458   5.572   6.015
 1568SOL     OW 5602   1.319   0.603   0.387
 1568SOL    HW1 5603   1.285   0.682   0.437
 1568SOL    HW2 5604   1.259   0.584   0.309
 1569SOL     OW 5605   4.049   6.255   4.961
 1569SOL    HW1 5606   4.075   6.191   5.033
 1569SOL    HW2 5607   3.986   6.323   4.997
 1570SOL     OW 5608   3.019   1.777   1.451
 1570SOL    HW1 5609   2.970   1.691   1.439
 1570SOL    HW2 5610   2.991   1.842   1.380
 1571SOL     OW 5611   6.414   3.493   1.338
 1571SOL    HW1 5612   6.363   3.423   1.388
 1571SOL    HW2 5613   6.468   3.451   1.265
 1572SOL     OW 5614   0.426   0.401   1.961
 1572SOL    HW1 5615   0.411   0.305   1.938
 1572SOL    HW2 5616   0.524   0.419   1.969
 1573SOL     OW 5617   4.772   0.162   1.462
 1573SOL    HW1 5618   4.821   0.183   1.547
 1573SOL    HW2 5619   4.836   0.161   1.386
 1574SOL     OW 5620   6.493   2.266   1.793
 1574SOL    HW1 5621   6.572   2.264   1.854
 1574SOL    HW2 5622   6.489   2.182   1.740
 1575SOL     OW 5623   1.687   2.271   0.246
 1575SOL    HW1 5624   1.733   2.198   0.296
 1575SOL    HW2 5625   1.743   2.354   0.249
 1576SOL     OW 5626   5.702   6.271   4.032
 1576SOL    HW1 5627   5.767   6.344   4.009
 1576SOL    HW2 5628   5.696   6.206   3.957
 1577SOL     OW 5629   2.936   0.305   5.420
 1577SOL    HW1 5630   3.031   0.276   5.424
 1577SOL    HW2 5631   2.927   0.381   5.356
 1578SOL     OW 5632   5.168   4.397   5.395
 1578SOL    HW1 5633   5.142   4.308   5.356
 1578SOL    HW2 5634   5.232   4.382   5.471
 1579SOL     OW 5635   0.995   0.927   3.899
 1579SOL    HW1 5636   1.048   0.843   3.885
 1579SOL    HW2 5637   1.013   0.990   3.824
 1580SOL     OW 5638   3.149   4.379   5.349
 1580SOL    HW1 5639   3.194   4.315   5.287
 1580SOL    HW2 5640   3.076   4.427   5.300
 1581SOL     OW 5641   6.997   4.023   4.794
 1581SOL    HW1 5642   0.010   3.935   4.824
 1581SOL    HW2 5643   6.900   4.012   4.772
 1582SOL     OW 5644   0.645   5.015   3.948
 1582SOL    HW1 5645   0.744   5.022   3.950
 1582SOL    HW2 5646   0.618   4.920   3.965
 1583SOL     OW 5647   1.919   2.234   3.619
 1583SOL    HW1 5648   1.931   2.140   3.651
 1583SOL    HW2 5649   1.847   2.236   3.549
 1584SOL     OW 5650   2.493   0.337   5.610
 1584SOL    HW1 5651   2.461   0.245   5.588
 1584SOL    HW2 5652   2.575   0.332   5.666
 1585SOL     OW 5653   5.555   1.241   3.974
 1585SOL    HW1 5654   5.537   1.269   3.880
 1585SOL    HW2 5655   5.585   1.320   4.027
 1586SOL     OW 5656   3.915   3.887   2.457
 1586SOL    HW1 5657   3.882   3.889   2.363
 1586SOL    HW2 5658   3.990   3.821   2.466
 1587SOL     OW 5659   3.452   6.446   6.961
 1587SOL    HW1 5660   3.366   6.486   6.993
 1587SOL    HW2 5661   3.432   6.365   6.906
 1588SOL     OW 5662   5.457   2.505   1.372
 1588SOL    HW1 5663   5.488   2.597   1.348
 1588SOL    HW2 5664   5.527   2.439   1.348
 1589SOL     OW 5665   6.198   4.469   4.769
 1589SOL    HW1 5666   6.293   4.458   4.742
 1589SOL    HW2 5667   6.193   4.515   4.858
 1590SOL     OW 5668   1.933   0.216   6.455
 1590SOL    HW1 5669   1.987   0.262   6.385
 1590SOL    HW2 5670   1.977   0.129   6.480
 1591SOL     OW 5671   1.232   4.368   2.279
 1591SOL    HW1 5672   1.202   4.462   2.293
 1591SOL    HW2 5673   1.171   4.322   2.215
 1592SOL     OW 5674   3.262   3.684   2.516
 1592SOL    HW1 5675   3.190   3.735   2.469
 1592SOL    HW2 5676   3.229   3.592   2.537
 1593SOL     OW 5677   1.384   5.747   4.263
 1593SOL    HW1 5678   1.400   5.767   4.166
 1593SOL    HW2 5679   1.466   5.770   4.316
 1594SOL     OW 5680   6.597   5.225   2.631
 1594SOL    HW1 5681   6.637   5.226   2.539
 1594SOL    HW2 5682   6.517   5.165   2.631
 1595SOL     OW 5683   6.507   4.710   6.476
 1595SOL    HW1 5684   6.417   4.699   6.436
 1595SOL    HW2 5685   6.575   4.725   6.404
 1596SOL     OW 5686   2.536   5.376   6.300
 1596SOL    HW1 5687   2.520   5.314   6.376
 1596SOL    HW2 5688   2.507   5.468   6.326
 1597SOL     OW 5689   2.649   6.371   1.400
 1597SOL    HW1 5690   2.582   6.324   1.457
 1597SOL    HW2 5691   2.642   6.337   1.306
 1598SOL     OW 5692   0.227   4.780   1.097
 1598SOL    HW1 5693   0.243   4.745   1.190
 1598SOL    HW2 5694   0.270   4.870   1.088
 1599SOL     OW 5695   3.692   5.330   6.888
 1599SOL    HW1 5696   3.784   5.294   6.900
 1599SOL    HW2 5697   3.625   5.256   6.902
 1600SOL     OW 5698   4.560   1.273   4.135
 1600SOL    HW1 5699   4.642   1.217   4.125
 1600SOL    HW2 5700   4.584   1.362   4.174
 1601SOL     OW 5701   1.433   5.287   4.287
 1601SOL    HW1 5702   1.434   5.190   4.312
 1601SOL    HW2 5703   1.383   5.298   4.201
 1602SOL     OW 5704   0.976   5.177   3.582
 1602SOL    HW1 5705   0.883   5.210   3.570
 1602SOL    HW2 5706   1.024   5.177   3.494
 1603SOL     OW 5707   6.985   6.424   2.031
 1603SOL    HW1 5708   7.005   6.326   2.034
 1603SOL    HW2 5709   0.047   6.475   2.037
 1604SOL     OW 5710   6.970   4.733   6.434
 1604SOL    HW1 5711   6.931   4.687   6.514
 1604SOL    HW2 5712   6.935   4.826   6.428
 1605SOL     OW 5713   5.770   6.568   3.347
 1605SOL    HW1 5714   5.834   6.631   3.304
 1605SOL    HW2 5715   5.820   6.488   3.381
 1606SOL     OW 5716   5.031   0.030   6.254
 1606SOL    HW1 5717   5.040   0.122   6.293
 1606SOL    HW2 5718   5.031   0.037   6.154
 1607SOL     OW 5719   4.251   2.540   0.816
 1607SOL    HW1 5720   4.193   2.622   0.816
 1607SOL    HW2 5721   4.329   2.555   0.876
 1608SOL     OW 5722   2.206   6.901   0.667
 1608SOL    HW1 5723   2.194   6.894   0.568
 1608SOL    HW2 5724   2.125   6.864   0.713
 1609SOL     OW 5725   4.351   2.292   5.684
 1609SOL    HW1 5726   4.317   2.385   5.671
 1609SOL    HW2 5727   4.336   2.239   5.601
 1610SOL     OW 5728   6.441   5.961   4.297
 1610SOL    HW1 5729   6.460   5.867   4.327
 1610SOL    HW2 5730   6.465   6.025   4.370
 1611SOL     OW 5731   3.088   3.543   1.719
 1611SOL    HW1 5732   3.110   3.445   1.726
 1611SOL    HW2 5733   3.078   3.581   1.810
 1612SOL     OW 5734   2.386   0.767   4.741
 1612SOL    HW1 5735   2.313   0.711   4.780
 1612SOL    HW2 5736   2.460   0.776   4.808
 1613SOL     OW 5737   2.529   5.939   0.185
 1613SOL    HW1 5738   2.627   5.961   0.186
 1613SOL    HW2 5739   2.476   6.023   0.190
 1614SOL     OW 5740   5.916   2.163   6.747
 1614SOL    HW1 5741   5.933   2.143   6.844
 1614SOL    HW2 5742   5.953   2.089   6.691
 1615SOL     OW 5743   0.067   4.234   0.140
 1615SOL    HW1 5744   0.146   4.173   0.143
 1615SOL    HW2 5745   0.015   4.216   0.057
 1616SOL     OW 5746   3.298   1.893   5.759
 1616SOL    HW1 5747   3.298   1.966   5.691
 1616SOL    HW2 5748   3.392   1.879   5.792
 1617SOL     OW 5749   5.058   0.203   3.700
 1617SOL    HW1 5750   5.053   0.282   3.639
 1617SOL    HW2 5751   5.152   0.170   3.705
 1618SOL     OW 5752   5.662   2.855   0.517
 1618SOL    HW1 5753   5.654   2.954   0.530
 1618SOL    HW2 5754   5.649   2.809   0.605
 1619SOL     OW 5755   2.073   3.484   4.595
 1619SOL    HW1 5756   2.078   3.562   4.657
 1619SOL    HW2 5757   2.127   3.409   4.632
 1620SOL     OW 5758   2.639   5.366   1.466
 1620SOL    HW1 5759   2.621   5.278   1.422
 1620SOL    HW2 5760   2.577   5.435   1.429
 1621SOL     OW 5761   1.396   0.797   1.037
 1621SOL    HW1 5762   1.434   0.789   1.129
 1621SOL    HW2 5763   1.380   0.706   0.999
 1622SOL     OW 5764   2.251   1.800   4.960
 1622SOL    HW1 5765   2.215   1.782   5.052
 1622SOL    HW2 5766   2.252   1.898   4.943
 1623SOL     OW 5767   2.830   2.239   5.379
 1623SOL    HW1 5768   2.835   2.219   5.281
 1623SOL    HW2 5769   2.764   2.178   5.422
 1624SOL     OW 5770   2.630   1.191   7.011
 1624SOL    HW1 5771   2.602   1.148   6.925
 1624SOL    HW2 5772   2.632   1.290   7.000
 1625SOL     OW 5773   0.673   4.936   2.426
 1625SOL    HW1 5774   0.717   4.897   2.345
 1625SOL    HW2 5775   0.574   4.937   2.412
 1626SOL     OW 5776   1.758   2.644   6.339
 1626SOL    HW1 5777   1.827   2.693   6.284
 1626SOL    HW2 5778   1.690   2.603   6.278
 1627SOL     OW 5779   5.900   2.737   3.368
 1627SOL    HW1 5780   5.878   2.780   3.455
 1627SOL    HW2 5781   5.821   2.744   3.307
 1628SOL     OW 5782   3.179   4.312   0.529
 1628SOL    HW1 5783   3.233   4.280   0.607
 1628SOL    HW2 5784   3.155   4.408   0.542
 1629SOL     OW 5785   3.415   1.931   4.085
 1629SOL    HW1 5786   3.452   1.898   3.998
 1629SOL    HW2 5787   3.490   1.957   4.146
 1630SOL     OW 5788   0.355   4.522   5.395
 1630SOL    HW1 5789   0.298   4.455   5.347
 1630SOL    HW2 5790   0.450   4.510   5.368
 1631SOL     OW 5791   6.896   0.248   5.742
 1631SOL    HW1 5792   6.821   0.205   5.692
 1631SOL    HW2 5793   6.927   0.187   5.815
 1632SOL     OW 5794   6.242   1.146   1.262
 1632SOL    HW1 5795   6.319   1.182   1.208
 1632SOL    HW2 5796   6.274   1.071   1.320
 1633SOL     OW 5797   5.940   2.429   3.940
 1633SOL    HW1 5798   5.850   2.467   3.921
 1633SOL    HW2 5799   5.959   2.433   4.038
 1634SOL     OW 5800   3.384   0.855   0.030
 1634SOL    HW1 5801   3.453   0.886   0.096
 1634SOL    HW2 5802   3.318   0.796   0.077
 1635SOL     OW 5803   0.470   5.551   4.935
 1635SOL    HW1 5804   0.400   5.482   4.956
 1635SOL    HW2 5805   0.432   5.620   4.874
 1636SOL     OW 5806   2.256   5.891   1.645
 1636SOL    HW1 5807   2.245   5.957   1.719
 1636SOL    HW2 5808   2.267   5.939   1.558
 1637SOL     OW 5809   6.516   3.073   1.884
 1637SOL    HW1 5810   6.463   3.149   1.922
 1637SOL    HW2 5811   6.466   2.988   1.898
 1638SOL     OW 5812   7.001   3.245   4.944
 1638SOL    HW1 5813   6.941   3.173   4.908
 1638SOL    HW2 5814   0.061   3.248   4.891
 1639SOL     OW 5815   5.164   5.424   2.213
 1639SOL    HW1 5816   5.131   5.343   2.165
 1639SOL    HW2 5817   5.093   5.456   2.276
 1640SOL     OW 5818   6.288   7.014   0.994
 1640SOL    HW1 5819   6.215   0.011   1.059
 1640SOL    HW2 5820   6.254   0.002   0.901
 1641SOL     OW 5821   5.723   2.775   5.150
 1641SOL    HW1 5822   5.736   2.863   5.196
 1641SOL    HW2 5823   5.626   2.759   5.135
 1642SOL     OW 5824   0.004   1.932   1.260
 1642SOL    HW1 5825   0.023   1.937   1.162
 1642SOL    HW2 5826   0.080   1.971   1.311
 1643SOL     OW 5827   4.164   6.945   5.593
 1643SOL    HW1 5828   4.111   6.861   5.602
 1643SOL    HW2 5829   4.245   6.928   5.537
 1644SOL     OW 5830   3.044   0.959   1.563
 1644SOL    HW1 5831   3.089   0.886   1.511
 1644SOL    HW2 5832   3.099   0.980   1.644
 1645SOL     OW 5833   2.593   6.566   6.599
 1645SOL    HW1 5834   2.554   6.476   6.619
 1645SOL    HW2 5835   2.520   6.633   6.593
 1646SOL     OW 5836   1.311   4.000   1.030
 1646SOL    HW1 5837   1.374   4.063   1.076
 1646SOL    HW2 5838   1.359   3.955   0.954
 1647SOL     OW 5839   5.932   2.669   3.756
 1647SOL    HW1 5840   5.985   2.701   3.835
 1647SOL    HW2 5841   5.952   2.573   3.739
 1648SOL     OW 5842   4.116   6.987   2.253
 1648SOL    HW1 5843   4.162   6.983   2.164
 1648SOL    HW2 5844   4.166   0.024   2.313
 1649SOL     OW 5845   3.390   0.802   3.854
 1649SOL    HW1 5846   3.302   0.844   3.834
 1649SOL    HW2 5847   3.454   0.823   3.780
 1650SOL     OW 5848   2.866   6.921   4.278
 1650SOL    HW1 5849   2.907   6.947   4.191
 1650SOL    HW2 5850   2.898   6.830   4.305
 1651SOL     OW 5851   1.187   6.906   0.775
 1651SOL    HW1 5852   1.115   6.877   0.838
 1651SOL    HW2 5853   1.204   7.004   0.784
 1652SOL     OW 5854   2.898   2.242   1.683
 1652SOL    HW1 5855   2.895   2.323   1.741
 1652SOL    HW2 5856   2.934   2.267   1.593
 1653SOL     OW 5857   0.997   5.375   1.185
 1653SOL    HW1 5858   0.962   5.390   1.277
 1653SOL    HW2 5859   1.064   5.301   1.186
 1654SOL     OW 5860   6.710   3.427   2.606
 1654SOL    HW1 5861   6.777   3.353   2.597
 1654SOL    HW2 5862   6.685   3.437   2.703
 1655SOL     OW 5863   4.943   4.547   6.534
 1655SOL    HW1 5864   4.989   4.548   6.445
 1655SOL    HW2 5865   4.940   4.639   6.572
 1656SOL     OW 5866   0.982   4.887   3.564
 1656SOL    HW1 5867   1.031   4.872   3.478
 1656SOL    HW2 5868   0.999   4.980   3.595
 1657SOL     OW 5869   1.468   0.333   5.535
 1657SOL    HW1 5870   1.477   0.355   5.632
 1657SOL    HW2 5871   1.379   0.365   5.502
 1658SOL     OW 5872   5.888   6.319   3.365
 1658SOL    HW1 5873   5.924   6.229   3.342
 1658SOL    HW2 5874   5.853   6.317   3.459
 1659SOL     OW 5875   3.681   2.700   6.128
 1659SOL    HW1 5876   3.680   2.784   6.183
 1659SOL    HW2 5877   3.736   2.631   6.173
 1660SOL     OW 5878   1.810   5.949   3.465
 1660SOL    HW1 5879   1.794   6.031   3.409
 1660SOL    HW2 5880   1.890   5.900   3.430
 1661SOL     OW 5881   3.315   0.347   2.490
 1661SOL    HW1 5882   3.231   0.327   2.540
 1661SOL    HW2 5883   3.324   0.446   2.477
 1662SOL     OW 5884   0.760   0.537   3.795
 1662SOL    HW1 5885   0.766   0.565   3.890
 1662SOL    HW2 5886   0.673   0.568   3.756
 1663SOL     OW 5887   2.648   0.242   2.570
 1663SOL    HW1 5888   2.722   0.231   2.504
 1663SOL    HW2 5889   2.680   0.299   2.646
 1664SOL     OW 5890   2.271   5.931   3.774
 1664SOL    HW1 5891   2.260   5.838   3.810
 1664SOL    HW2 5892   2.183   5.979   3.777
 1665SOL     OW 5893   6.882   0.195   3.602
 1665SOL    HW1 5894   6.965   0.206   3.547
 1665SOL    HW2 5895   6.907   0.197   3.699
 1666SOL     OW 5896   5.916   3.121   6.086
 1666SOL    HW1 5897   5.840   3.057   6.087
 1666SOL    HW2 5898   5.901   3.191   6.017
 1667SOL     OW 5899   0.135   0.183   6.106
 1667SOL    HW1 5900   0.075   0.262   6.104
 1667SOL    HW2 5901   0.196   0.185   6.027
 1668SOL     OW 5902   4.185   0.577   4.937
 1668SOL    HW1 5903   4.248   0.542   5.007
 1668SOL    HW2 5904   4.146   0.500   4.886
 1669SOL     OW 5905   5.836   6.836   5.696
 1669SOL    HW1 5906   5.768   6.842   5.623
 1669SOL    HW2 5907   5.882   6.924   5.706
 1670SOL     OW 5908   5.435   4.675   5.955
 1670SOL    HW1 5909   5.383   4.749   5.997
 1670SOL    HW2 5910   5.391   4.649   5.868
 1671SOL     OW 5911   4.690   3.105   6.782
 1671SOL    HW1 5912   4.625   3.171   6.743
 1671SOL    HW2 5913   4.675   3.098   6.881
 1672SOL     OW 5914   1.587   5.018   2.412
 1672SOL    HW1 5915   1.679   5.051   2.394
 1672SOL    HW2 5916   1.582   4.920   2.394
 1673SOL     OW 5917   6.655   3.698   4.414
 1673SOL    HW1 5918   6.662   3.608   4.459
 1673SOL    HW2 5919   6.742   3.747   4.424
 1674SOL     OW 5920   0.604   4.198   6.726
 1674SOL    HW1 5921   0.580   4.294   6.739
 1674SOL    HW2 5922   0.671   4.171   6.796
 1675SOL     OW 5923   4.548   1.716   6.757
 1675SOL    HW1 5924   4.537   1.792   6.693
 1675SOL    HW2 5925   4.593   1.639   6.710
 1676SOL     OW 5926   1.406   0.371   2.858
 1676SOL    HW1 5927   1.442   0.458   2.892
 1676SOL    HW2 5928   1.365   0.384   2.768
 1677SOL     OW 5929   5.586   2.078   5.110
 1677SOL    HW1 5930   5.489   2.089   5.086
 1677SOL    HW2 5931   5.641   2.141   5.055
 1678SOL     OW 5932   5.266   0.350   1.645
 1678SOL    HW1 5933   5.252   0.391   1.555
 1678SOL    HW2 5934   5.237   0.415   1.715
 1679SOL     OW 5935   0.698   3.509   6.177
 1679SOL    HW1 5936   0.701   3.609   6.182
 1679SOL    HW2 5937   0.755   3.470   6.249
 1680SOL     OW 5938   1.212   2.153   4.165
 1680SOL    HW1 5939   1.272   2.117   4.094
 1680SOL    HW2 5940   1.136   2.090   4.180
 1681SOL     OW 5941   6.312   5.527   0.832
 1681SOL    HW1 5942   6.410   5.509   0.827
 1681SOL    HW2 5943   6.265   5.447   0.871
 1682SOL     OW 5944   6.826   3.309   5.858
 1682SOL    HW1 5945   6.799   3.354   5.773
 1682SOL    HW2 5946   6.777   3.352   5.935
 1683SOL     OW 5947   5.339   6.600   1.375
 1683SOL    HW1 5948   5.345   6.672   1.444
 1683SOL    HW2 5949   5.321   6.512   1.420
 1684SOL     OW 5950   0.856   5.694   5.046
 1684SOL    HW1 5951   0.894   5.785   5.063
 1684SOL    HW2 5952   0.812   5.661   5.129
 1685SOL     OW 5953   1.706   0.959   6.984
 1685SOL    HW1 5954   1.799   0.986   7.010
 1685SOL    HW2 5955   1.711   0.888   6.913
 1686SOL     OW 5956   1.421   6.716   6.959
 1686SOL    HW1 5957   1.489   6.695   6.889
 1686SOL    HW2 5958   1.334   6.740   6.915
 1687SOL     OW 5959   1.675   6.187   1.981
 1687SOL    HW1 5960   1.762   6.139   1.969
 1687SOL    HW2 5961   1.662   6.208   2.078
 1688SOL     OW 5962   1.588   1.726   3.093
 1688SOL    HW1 5963   1.553   1.784   3.020
 1688SOL    HW2 5964   1.642   1.781   3.157
 1689SOL     OW 5965   1.884   1.710   2.949
 1689SOL    HW1 5966   1.907   1.614   2.929
 1689SOL    HW2 5967   1.808   1.739   2.890
 1690SOL     OW 5968   1.311   1.386   0.965
 1690SOL    HW1 5969   1.411   1.389   0.973
 1690SOL    HW2 5970   1.273   1.474   0.992
 1691SOL     OW 5971   5.257   4.417   2.645
 1691SOL    HW1 5972   5.274   4.420   2.744
 1691SOL    HW2 5973   5.182   4.354   2.627
 1692SOL     OW 5974   1.198   0.293   1.985
 1692SOL    HW1 5975   1.258   0.307   2.063
 1692SOL    HW2 5976   1.137   0.215   2.003
 1693SOL     OW 5977   2.793   2.320   3.419
 1693SOL    HW1 5978   2.882   2.344   3.459
 1693SOL    HW2 5979   2.720   2.352   3.478
 1694SOL     OW 5980   5.397   5.433   4.891
 1694SOL    HW1 5981   5.377   5.350   4.839
 1694SOL    HW2 5982   5.347   5.431   4.978
 1695SOL     OW 5983   3.138   2.505   5.634
 1695SOL    HW1 5984   3.144   2.599   5.602
 1695SOL    HW2 5985   3.102   2.447   5.562
 1696SOL     OW 5986   4.409   6.216   0.812
 1696SOL    HW1 5987   4.372   6.292   0.864
 1696SOL    HW2 5988   4.503   6.198   0.841
 1697SOL     OW 5989   0.873   1.338   2.140
 1697SOL    HW1 5990   0.904   1.303   2.052
 1697SOL    HW2 5991   0.951   1.377   2.190
 1698SOL     OW 5992   4.426   2.161   1.788
 1698SOL    HW1 5993   4.466   2.222   1.719
 1698SOL    HW2 5994   4.438   2.201   1.879
 1699SOL     OW 5995   2.260   3.336   0.986
 1699SOL    HW1 5996   2.330   3.325   0.916
 1699SOL    HW2 5997   2.186   3.270   0.970
 1700SOL     OW 5998   6.640   3.085   3.143
 1700SOL    HW1 5999   6.722   3.043   3.184
 1700SOL    HW2 6000   6.564   3.020   3.148
 1701SOL     OW 6001   5.941   3.093   3.954
 1701SOL    HW1 6002   5.971   3.014   3.900
 1701SOL    HW2 6003   5.841   3.090   3.964
 1702SOL     OW 6004   4.684   3.981   0.806
 1702SOL    HW1 6005   4.658   3.975   0.709
 1702SOL    HW2 6006   4.781   3.959   0.815
 1703SOL     OW 6007   1.997   3.703   0.275
 1703SOL    HW1 6008   1.925   3.728   0.340
 1703SOL    HW2 6009   2.005   3.775   0.206
 1704SOL     OW 6010   0.696   0.765   1.636
 1704SOL    HW1 6011   0.673   0.835   1.703
 1704SOL    HW2 6012   0.724   0.808   1.550
 1705SOL     OW 6013   4.376   3.169   1.740
 1705SOL    HW1 6014   4.316   3.096   1.708
 1705SOL    HW2 6015   4.454   3.130   1.788
 1706SOL     OW 6016   3.514   0.353   0.712
 1706SOL    HW1 6017   3.415   0.339   0.702
 1706SOL    HW2 6018   3.555   0.271   0.751
 1707SOL     OW 6019   5.189   2.194   3.119
 1707SOL    HW1 6020   5.276   2.241   3.128
 1707SOL    HW2 6021   5.163   2.189   3.023
 1708SOL     OW 6022   6.860   5.043   3.391
 1708SOL    HW1 6023   6.817   5.132   3.377
 1708SOL    HW2 6024   6.881   5.002   3.303
 1709SOL     OW 6025   2.935   6.302   2.113
 1709SOL    HW1 6026   2.842   6.303   2.076
 1709SOL    HW2 6027   2.999   6.281   2.039
 1710SOL     OW 6028   0.671   5.685   4.324
 1710SOL    HW1 6029   0.684   5.780   4.296
 1710SOL    HW2 6030   0.732   5.626   4.271
 1711SOL     OW 6031   1.281   4.658   5.229
 1711SOL    HW1 6032   1.193   4.667   5.277
 1711SOL    HW2 6033   1.265   4.659   5.130
 1712SOL     OW 6034   0.343   4.182   0.677
 1712SOL    HW1 6035   0.260   4.143   0.637
 1712SOL    HW2 6036   0.349   4.279   0.653
 1713SOL     OW 6037   1.251   2.490   1.050
 1713SOL    HW1 6038   1.248   2.589   1.066
 1713SOL    HW2 6039   1.193   2.468   0.971
 1714SOL     OW 6040   3.135   1.917   0.781
 1714SOL    HW1 6041   3.051   1.893   0.731
 1714SOL    HW2 6042   3.189   1.834   0.797
 1715SOL     OW 6043   0.196   2.967   2.679
 1715SOL    HW1 6044   0.096   2.978   2.673
 1715SOL    HW2 6045   0.241   3.052   2.650
 1716SOL     OW 6046   0.072   5.683   6.941
 1716SOL    HW1 6047   0.100   5.621   7.014
 1716SOL    HW2 6048   0.149   5.699   6.879
 1717SOL     OW 6049   2.897   0.241   6.831
 1717SOL    HW1 6050   2.960   0.265   6.905
 1717SOL    HW2 6051   2.825   0.311   6.824
 1718SOL     OW 6052   1.344   4.405   6.342
 1718SOL    HW1 6053   1.363   4.463   6.262
 1718SOL    HW2 6054   1.355   4.459   6.425
 1719SOL     OW 6055   2.226   3.664   1.367
 1719SOL    HW1 6056   2.280   3.713   1.435
 1719SOL    HW2 6057   2.286   3.632   1.293
 1720SOL     OW 6058   6.576   0.862   0.546
 1720SOL    HW1 6059   6.649   0.812   0.500
 1720SOL    HW2 6060   6.491   0.809   0.541
 1721SOL     OW 6061   2.330   6.742   3.323
 1721SOL    HW1 6062   2.338   6.686   3.241
 1721SOL    HW2 6063   2.417   6.743   3.372
 1722SOL     OW 6064   5.680   6.639   2.438
 1722SOL    HW1 6065   5.710   6.553   2.479
 1722SOL    HW2 6066   5.646   6.700   2.509
 1723SOL     OW 6067   6.676   1.850   2.463
 1723SOL    HW1 6068   6.601   1.820   2.402
 1723SOL    HW2 6069   6.650   1.833   2.558
 1724SOL     OW 6070   4.684   0.974   0.135
 1724SOL    HW1 6071   4.671   1.005   0.040
 1724SOL    HW2 6072   4.747   0.897   0.136
 1725SOL     OW 6073   3.976   4.251   1.697
 1725SOL    HW1 6074   3.882   4.241   1.730
 1725SOL    HW2 6075   3.979   4.324   1.629
 1726SOL     OW 6076   0.413   4.024   4.637
 1726SOL    HW1 6077   0.422   4.005   4.735
 1726SOL    HW2 6078   0.469   3.960   4.585
 1727SOL     OW 6079   3.764   3.960   5.099
 1727SOL    HW1 6080   3.723   3.982   5.187
 1727SOL    HW2 6081   3.706   3.893   5.052
 1728SOL     OW 6082   4.398   4.564   3.323
 1728SOL    HW1 6083   4.445   4.511   3.252
 1728SOL    HW2 6084   4.316   4.515   3.352
 1729SOL     OW 6085   1.866   3.543   2.915
 1729SOL    HW1 6086   1.934   3.508   2.851
 1729SOL    HW2 6087   1.781   3.491   2.905
 1730SOL     OW 6088   6.221   2.489   5.386
 1730SOL    HW1 6089   6.297   2.444   5.338
 1730SOL    HW2 6090   6.249   2.581   5.414
 1731SOL     OW 6091   1.913   5.234   0.747
 1731SOL    HW1 6092   1.919   5.224   0.846
 1731SOL    HW2 6093   1.818   5.241   0.719
 1732SOL     OW 6094   0.679   4.475   6.904
 1732SOL    HW1 6095   0.744   4.497   6.831
 1732SOL    HW2 6096   0.695   4.381   6.936
 1733SOL     OW 6097   1.649   3.210   0.909
 1733SOL    HW1 6098   1.727   3.148   0.910
 1733SOL    HW2 6099   1.564   3.156   0.916
 1734SOL     OW 6100   4.692   2.371   1.331
 1734SOL    HW1 6101   4.607   2.347   1.284
 1734SOL    HW2 6102   4.744   2.287   1.350
 1735SOL     OW 6103   6.042   5.296   1.436
 1735SOL    HW1 6104   6.083   5.351   1.364
 1735SOL    HW2 6105   6.085   5.318   1.524
 1736SOL     OW 6106   3.597   3.079   0.298
 1736SOL    HW1 6107   3.661   3.008   0.268
 1736SOL    HW2 6108   3.638   3.130   0.374
 1737SOL     OW 6109   2.096   6.821   3.636
 1737SOL    HW1 6110   2.065   6.763   3.711
 1737SOL    HW2 6111   2.191   6.846   3.651
 1738SOL     OW 6112   2.107   3.134   2.229
 1738SOL    HW1 6113   2.153   3.060   2.277
 1738SOL    HW2 6114   2.140   3.138   2.134
 1739SOL     OW 6115   4.515   1.852   5.148
 1739SOL    HW1 6116   4.434   1.806   5.112
 1739SOL    HW2 6117   4.573   1.881   5.073
 1740SOL     OW 6118   0.433   0.970   6.001
 1740SOL    HW1 6119   0.334   0.970   6.016
 1740SOL    HW2 6120   0.465   1.064   5.991
 1741SOL     OW 6121   1.265   0.117   2.726
 1741SOL    HW1 6122   1.230   0.086   2.815
 1741SOL    HW2 6123   1.308   0.207   2.737
 1742SOL     OW 6124   6.354   0.594   4.575
 1742SOL    HW1 6125   6.381   0.570   4.669
 1742SOL    HW2 6126   6.409   0.671   4.543
 1743SOL     OW 6127   3.828   1.398   1.409
 1743SOL    HW1 6128   3.852   1.481   1.360
 1743SOL    HW2 6129   3.736   1.368   1.382
 1744SOL     OW 6130   2.789   0.693   1.583
 1744SOL    HW1 6131   2.800   0.766   1.515
 1744SOL    HW2 6132   2.692   0.678   1.600
 1745SOL     OW 6133   7.004   2.322   2.883
 1745SOL    HW1 6134   7.003   2.233   2.838
 1745SOL    HW2 6135   6.968   2.313   2.976
 1746SOL     OW 6136   2.954   0.650   5.858
 1746SOL    HW1 6137   2.919   0.741   5.835
 1746SOL    HW2 6138   3.040   0.634   5.809
 1747SOL     OW 6139   3.021   0.335   1.995
 1747SOL    HW1 6140   2.977   0.422   2.018
 1747SOL    HW2 6141   2.964   0.286   1.929
 1748SOL     OW 6142   5.322   2.179   2.622
 1748SOL    HW1 6143   5.402   2.146   2.671
 1748SOL    HW2 6144   5.349   2.215   2.533
 1749SOL     OW 6145   4.424   6.946   6.212
 1749SOL    HW1 6146   4.405   6.954   6.114
 1749SOL    HW2 6147   4.412   0.010   6.256
 1750SOL     OW 6148   4.887   1.493   2.939
 1750SOL    HW1 6149   4.815   1.538   2.992
 1750SOL    HW2 6150   4.868   1.395   2.934
 1751SOL     OW 6151   1.597   5.264   3.930
 1751SOL    HW1 6152   1.583   5.299   3.838
 1751SOL    HW2 6153   1.695   5.268   3.953
 1752SOL     OW 6154   6.036   1.551   0.445
 1752SOL    HW1 6155   6.084   1.493   0.379
 1752SOL    HW2 6156   6.026   1.502   0.531
 1753SOL     OW 6157   1.244   0.351   1.484
 1753SOL    HW1 6158   1.181   0.390   1.417
 1753SOL    HW2 6159   1.197   0.339   1.572
 1754SOL     OW 6160   3.963   3.328   0.706
 1754SOL    HW1 6161   3.877   3.378   0.698
 1754SOL    HW2 6162   4.032   3.385   0.750
 1755SOL     OW 6163   5.467   4.030   0.796
 1755SOL    HW1 6164   5.544   4.039   0.733
 1755SOL    HW2 6165   5.410   4.112   0.793
 1756SOL     OW 6166   6.982   5.573   4.132
 1756SOL    HW1 6167   6.932   5.508   4.074
 1756SOL    HW2 6168   0.039   5.605   4.083
 1757SOL     OW 6169   3.508   6.448   4.624
 1757SOL    HW1 6170   3.432   6.512   4.638
 1757SOL    HW2 6171   3.483   6.358   4.658
 1758SOL     OW 6172   2.166   0.510   3.244
 1758SOL    HW1 6173   2.186   0.412   3.244
 1758SOL    HW2 6174   2.078   0.526   3.199
 1759SOL     OW 6175   0.635   5.562   6.305
 1759SOL    HW1 6176   0.633   5.512   6.392
 1759SOL    HW2 6177   0.546   5.605   6.290
 1760SOL     OW 6178   6.319   0.687   2.450
 1760SOL    HW1 6179   6.293   0.747   2.525
 1760SOL    HW2 6180   6.412   0.710   2.419
 1761SOL     OW 6181   6.131   1.300   1.049
 1761SOL    HW1 6182   6.191   1.250   1.111
 1761SOL    HW2 6183   6.178   1.316   0.963
 1762SOL     OW 6184   5.772   1.647   6.180
 1762SOL    HW1 6185   5.839   1.600   6.236
 1762SOL    HW2 6186   5.803   1.740   6.161
 1763SOL     OW 6187   1.627   3.844   4.179
 1763SOL    HW1 6188   1.543   3.799   4.152
 1763SOL    HW2 6189   1.608   3.912   4.249
 1764SOL     OW 6190   0.173   3.378   3.046
 1764SOL    HW1 6191   0.256   3.324   3.058
 1764SOL    HW2 6192   0.103   3.347   3.111
 1765SOL     OW 6193   2.542   2.267   6.767
 1765SOL    HW1 6194   2.601   2.251   6.688
 1765SOL    HW2 6195   2.560   2.358   6.804
 1766SOL     OW 6196   5.741   3.062   5.175
 1766SOL    HW1 6197   5.713   3.138   5.234
 1766SOL    HW2 6198   5.836   3.038   5.194
 1767SOL     OW 6199   5.655   3.301   2.200
 1767SOL    HW1 6200   5.620   3.390   2.226
 1767SOL    HW2 6201   5.682   3.303   2.104
 1768SOL     OW 6202   4.801   6.437   3.771
 1768SOL    HW1 6203   4.707   6.473   3.767
 1768SOL    HW2 6204   4.858   6.499   3.824
 1769SOL     OW 6205   3.556   1.805   2.517
 1769SOL    HW1 6206   3.542   1.800   2.616
 1769SOL    HW2 6207   3.555   1.901   2.487
 1770SOL     OW 6208   2.883   5.873   5.517
 1770SOL    HW1 6209   2.817   5.914   5.580
 1770SOL    HW2 6210   2.931   5.945   5.467
 1771SOL     OW 6211   3.673   5.677   6.591
 1771SOL    HW1 6212   3.697   5.581   6.574
 1771SOL    HW2 6213   3.575   5.683   6.609
 1772SOL     OW 6214   2.869   6.988   3.034
 1772SOL    HW1 6215   2.858   6.988   2.934
 1772SOL    HW2 6216   2.942   6.925   3.059
 1773SOL     OW 6217   1.424   5.402   6.224
 1773SOL    HW1 6218   1.379   5.338   6.162
 1773SOL    HW2 6219   1.509   5.361   6.258
 1774SOL     OW 6220   4.370   5.745   1.268
 1774SOL    HW1 6221   4.370   5.680   1.344
 1774SOL    HW2 6222   4.365   5.838   1.304
 1775SOL     OW 6223   0.972   4.002   2.281
 1775SOL    HW1 6224   1.020   4.075   2.231
 1775SOL    HW2 6225   0.961   3.923   2.220
 1776SOL     OW 6226   3.955   6.223   4.689
 1776SOL    HW1 6227   3.871   6.169   4.694
 1776SOL    HW2 6228   4.004   6.218   4.776
 1777SOL     OW 6229   4.303   6.157   0.565
 1777SOL    HW1 6230   4.326   6.173   0.661
 1777SOL    HW2 6231   4.226   6.093   0.560
 1778SOL     OW 6232   4.948   3.546   5.883
 1778SOL    HW1 6233   4.876   3.551   5.952
 1778SOL    HW2 6234   5.021   3.612   5.906
 1779SOL     OW 6235   3.760   0.979   4.928
 1779SOL    HW1 6236   3.745   0.887   4.892
 1779SOL    HW2 6237   3.756   0.976   5.028
 1780SOL     OW 6238   3.082   3.028   6.415
 1780SOL    HW1 6239   3.093   3.036   6.316
 1780SOL    HW2 6240   2.998   2.977   6.435
 1781SOL     OW 6241   4.312   5.464   2.943
 1781SOL    HW1 6242   4.233   5.501   2.992
 1781SOL    HW2 6243   4.387   5.449   3.007
 1782SOL     OW 6244   2.851   0.902   3.443
 1782SOL    HW1 6245   2.858   0.961   3.363
 1782SOL    HW2 6246   2.830   0.957   3.524
 1783SOL     OW 6247   2.818   5.336   6.257
 1783SOL    HW1 6248   2.721   5.321   6.242
 1783SOL    HW2 6249   2.837   5.434   6.265
 1784SOL     OW 6250   3.341   0.032   6.401
 1784SOL    HW1 6251   3.305   0.039   6.308
 1784SOL    HW2 6252   3.270   0.058   6.467
 1785SOL     OW 6253   5.921   3.230   2.613
 1785SOL    HW1 6254   6.012   3.269   2.607
 1785SOL    HW2 6255   5.864   3.266   2.539
 1786SOL     OW 6256   2.440   2.806   0.309
 1786SOL    HW1 6257   2.389   2.842   0.231
 1786SOL    HW2 6258   2.393   2.829   0.393
 1787SOL     OW 6259   3.282   1.586   5.585
 1787SOL    HW1 6260   3.304   1.619   5.677
 1787SOL    HW2 6261   3.191   1.618   5.558
 1788SOL     OW 6262   1.922   5.201   5.403
 1788SOL    HW1 6263   1.957   5.233   5.316
 1788SOL    HW2 6264   1.961   5.111   5.424
 1789SOL     OW 6265   5.651   1.794   0.174
 1789SOL    HW1 6266   5.728   1.770   0.234
 1789SOL    HW2 6267   5.574   1.733   0.193
 1790SOL     OW 6268   3.979   6.653   3.518
 1790SOL    HW1 6269   4.072   6.686   3.533
 1790SOL    HW2 6270   3.914   6.716   3.560
 1791SOL     OW 6271   0.097   0.411   2.617
 1791SOL    HW1 6272   0.096   0.325   2.667
 1791SOL    HW2 6273   0.191   0.434   2.592
 1792SOL     OW 6274   0.891   4.045   5.401
 1792SOL    HW1 6275   0.858   3.986   5.327
 1792SOL    HW2 6276   0.954   4.114   5.363
 1793SOL     OW 6277   6.787   0.654   3.314
 1793SOL    HW1 6278   6.881   0.624   3.326
 1793SOL    HW2 6279   6.785   0.734   3.254
 1794SOL     OW 6280   5.076   5.674   5.881
 1794SOL    HW1 6281   4.986   5.641   5.852
 1794SOL    HW2 6282   5.065   5.763   5.927
 1795SOL     OW 6283   0.006   2.600   0.763
 1795SOL    HW1 6284   7.015   2.502   0.769
 1795SOL    HW2 6285   0.032   2.636   0.853
 1796SOL     OW 6286   1.949   0.784   5.560
 1796SOL    HW1 6287   1.978   0.799   5.465
 1796SOL    HW2 6288   2.030   0.767   5.617
 1797SOL     OW 6289   1.033   6.556   0.785
 1797SOL    HW1 6290   1.125   6.553   0.747
 1797SOL    HW2 6291   1.021   6.480   0.850
 1798SOL     OW 6292   4.768   2.504   3.771
 1798SOL    HW1 6293   4.739   2.598   3.753
 1798SOL    HW2 6294   4.860   2.504   3.810
 1799SOL     OW 6295   0.235   2.209   5.811
 1799SOL    HW1 6296   0.271   2.301   5.829
 1799SOL    HW2 6297   0.202   2.204   5.717
 1800SOL     OW 6298   3.941   4.466   1.512
 1800SOL    HW1 6299   3.899   4.417   1.436
 1800SOL    HW2 6300   3.965   4.559   1.482
 1801SOL     OW 6301   6.788   0.539   2.221
 1801SOL    HW1 6302   6.702   0.588   2.240
 1801SOL    HW2 6303   6.834   0.517   2.306
 1802SOL     OW 6304   6.685   5.801   4.273
 1802SOL    HW1 6305   6.766   5.768   4.321
 1802SOL    HW2 6306   6.686   5.901   4.269
 1803SOL     OW 6307   6.919   5.492   0.126
 1803SOL    HW1 6308   6.999   5.443   0.163
 1803SOL    HW2 6309   6.946   5.539   0.042
 1804SOL     OW 6310   3.244   3.735   5.225
 1804SOL    HW1 6311   3.241   3.787   5.140
 1804SOL    HW2 6312   3.192   3.650   5.214
 1805SOL     OW 6313   5.259   3.838   6.266
 1805SOL    HW1 6314   5.303   3.772   6.206
 1805SOL    HW2 6315   5.321   3.862   6.341
 1806SOL     OW 6316   1.401   0.137   1.462
 1806SOL    HW1 6317   1.370   0.090   1.380
 1806SOL    HW2 6318   1.333   0.204   1.490
 1807SOL     OW 6319   6.416   1.872   4.859
 1807SOL    HW1 6320   6.465   1.885   4.773
 1807SOL    HW2 6321   6.391   1.776   4.870
 1808SOL     OW 6322   0.308   5.343   4.952
 1808SOL    HW1 6323   0.232   5.361   4.889
 1808SOL    HW2 6324   0.383   5.301   4.902
 1809SOL     OW 6325   2.880   1.873   5.853
 1809SOL    HW1 6326   2.953   1.875   5.921
 1809SOL    HW2 6327   2.894   1.946   5.787
 1810SOL     OW 6328   3.082   6.773   3.573
 1810SOL    HW1 6329   3.141   6.707   3.619
 1810SOL    HW2 6330   3.130   6.812   3.495
 1811SOL     OW 6331   5.761   5.481   3.062
 1811SOL    HW1 6332   5.769   5.387   3.029
 1811SOL    HW2 6333   5.666   5.512   3.053
 1812SOL     OW 6334   4.500   5.705   5.298
 1812SOL    HW1 6335   4.554   5.678   5.219
 1812SOL    HW2 6336   4.419   5.646   5.304
 1813SOL     OW 6337   5.648   4.237   0.195
 1813SOL    HW1 6338   5.678   4.256   0.288
 1813SOL    HW2 6339   5.727   4.211   0.139
 1814SOL     OW 6340   4.538   0.179   2.523
 1814SOL    HW1 6341   4.523   0.256   2.462
 1814SOL    HW2 6342   4.525   0.093   2.473
 1815SOL     OW 6343   0.152   1.226   3.604
 1815SOL    HW1 6344   0.105   1.176   3.530
 1815SOL    HW2 6345   0.087   1.243   3.678
 1816SOL     OW 6346   1.775   3.370   0.498
 1816SOL    HW1 6347   1.849   3.396   0.435
 1816SOL    HW2 6348   1.691   3.353   0.445
 1817SOL     OW 6349   1.886   5.876   2.595
 1817SOL    HW1 6350   1.958   5.857   2.528
 1817SOL    HW2 6351   1.891   5.972   2.623
 1818SOL     OW 6352   1.681   0.333   2.982
 1818SOL    HW1 6353   1.624   0.269   2.930
 1818SOL    HW2 6354   1.635   0.421   2.988
 1819SOL     OW 6355   1.231   4.038   1.496
 1819SOL    HW1 6356   1.244   3.989   1.582
 1819SOL    HW2 6357   1.285   4.122   1.497
 1820SOL     OW 6358   4.487   0.696   2.418
 1820SOL    HW1 6359   4.522   0.728   2.330
 1820SOL    HW2 6360   4.521   0.756   2.491
 1821SOL     OW 6361   2.167   1.263   2.777
 1821SOL    HW1 6362   2.092   1.322   2.806
 1821SOL    HW2 6363   2.207   1.299   2.693
 1822SOL     OW 6364   3.331   2.610   1.768
 1822SOL    HW1 6365   3.233   2.595   1.780
 1822SOL    HW2 6366   3.360   2.571   1.680
 1823SOL     OW 6367   4.662   6.622   2.662
 1823SOL    HW1 6368   4.607   6.669   2.731
 1823SOL    HW2 6369   4.658   6.524   2.678
 1824SOL     OW 6370   4.197   2.639   1.287
 1824SOL    HW1 6371   4.181   2.708   1.217
 1824SOL    HW2 6372   4.199   2.548   1.245
 1825SOL     OW 6373   0.960   0.539   1.402
 1825SOL    HW1 6374   1.036   0.604   1.401
 1825SOL    HW2 6375   0.915   0.541   1.491
 1826SOL     OW 6376   3.234   0.369   0.679
 1826SOL    HW1 6377   3.204   0.465   0.681
 1826SOL    HW2 6378   3.196   0.321   0.758
 1827SOL     OW 6379   6.761   5.425   1.846
 1827SOL    HW1 6380   6.789   5.354   1.782
 1827SOL    HW2 6381   6.837   5.488   1.862
 1828SOL     OW 6382   0.645   2.772   6.636
 1828SOL    HW1 6383   0.737   2.768   6.596
 1828SOL    HW2 6384   0.621   2.684   6.675
 1829SOL     OW 6385   4.874   5.803   3.168
 1829SOL    HW1 6386   4.803   5.790   3.238
 1829SOL    HW2 6387   4.832   5.799   3.077
 1830SOL     OW 6388   4.462   6.384   3.165
 1830SOL    HW1 6389   4.443   6.300   3.215
 1830SOL    HW2 6390   4.506   6.450   3.227
 1831SOL     OW 6391   5.238   6.041   1.964
 1831SOL    HW1 6392   5.306   6.079   2.027
 1831SOL    HW2 6393   5.281   6.023   1.876
 1832SOL     OW 6394   4.465   2.475   1.043
 1832SOL    HW1 6395   4.454   2.441   1.136
 1832SOL    HW2 6396   4.525   2.413   0.992
 1833SOL     OW 6397   5.287   0.535   4.944
 1833SOL    HW1 6398   5.202   0.525   4.996
 1833SOL    HW2 6399   5.318   0.446   4.912
 1834SOL     OW 6400   3.764   3.649   1.160
 1834SOL    HW1 6401   3.775   3.665   1.258
 1834SOL    HW2 6402   3.685   3.590   1.144
 1835SOL     OW 6403   1.577   5.070   0.786
 1835SOL    HW1 6404   1.635   4.993   0.761
 1835SOL    HW2 6405   1.574   5.136   0.711
 1836SOL     OW 6406   0.786   0.310   0.390
 1836SOL    HW1 6407   0.776   0.370   0.470
 1836SOL    HW2 6408   0.771   0.215   0.417
 1837SOL     OW 6409   1.014   2.572   4.637
 1837SOL    HW1 6410   0.991   2.594   4.732
 1837SOL    HW2 6411   1.091   2.628   4.607
 1838SOL     OW 6412   0.145   2.947   4.072
 1838SOL    HW1 6413   0.165   2.958   4.169
 1838SOL    HW2 6414   0.133   3.037   4.030
 1839SOL     OW 6415   6.453   2.928   5.295
 1839SOL    HW1 6416   6.536   2.984   5.301
 1839SOL    HW2 6417   6.392   2.951   5.371
 1840SOL     OW 6418   2.765   6.004   0.786
 1840SOL    HW1 6419   2.726   5.925   0.834
 1840SOL    HW2 6420   2.849   5.977   0.739
 1841SOL     OW 6421   2.164   3.230   3.951
 1841SOL    HW1 6422   2.108   3.241   4.034
 1841SOL    HW2 6423   2.155   3.311   3.894
 1842SOL     OW 6424   0.639   4.240   1.131
 1842SOL    HW1 6425   0.607   4.187   1.053
 1842SOL    HW2 6426   0.714   4.191   1.176
 1843SOL     OW 6427   2.455   1.508   5.286
 1843SOL    HW1 6428   2.453   1.498   5.386
 1843SOL    HW2 6429   2.539   1.555   5.260
 1844SOL     OW 6430   4.063   2.032   4.110
 1844SOL    HW1 6431   3.990   1.965   4.100
 1844SOL    HW2 6432   4.139   2.009   4.048
 1845SOL     OW 6433   3.823   0.272   0.423
 1845SOL    HW1 6434   3.881   0.270   0.341
 1845SOL    HW2 6435   3.826   0.364   0.464
 1846SOL     OW 6436   2.933   2.164   6.387
 1846SOL    HW1 6437   2.977   2.088   6.435
 1846SOL    HW2 6438   2.978   2.179   6.299
 1847SOL     OW 6439   0.880   0.133   1.163
 1847SOL    HW1 6440   0.860   0.229   1.181
 1847SOL    HW2 6441   0.978   0.123   1.145
 1848SOL     OW 6442   3.308   6.466   1.876
 1848SOL    HW1 6443   3.327   6.542   1.813
 1848SOL    HW2 6444   3.371   6.471   1.953
 1849SOL     OW 6445   3.124   1.853   6.894
 1849SOL    HW1 6446   3.066   1.774   6.909
 1849SOL    HW2 6447   3.164   1.883   6.980
 1850SOL     OW 6448   6.100   2.348   2.905
 1850SOL    HW1 6449   6.163   2.338   2.829
 1850SOL    HW2 6450   6.075   2.258   2.941
 1851SOL     OW 6451   0.429   2.205   2.410
 1851SOL    HW1 6452   0.479   2.290   2.389
 1851SOL    HW2 6453   0.392   2.210   2.503
 1852SOL     OW 6454   4.327   3.105   0.332
 1852SOL    HW1 6455   4.284   3.142   0.249
 1852SOL    HW2 6456   4.337   3.178   0.399
 1853SOL     OW 6457   0.808   3.867   1.281
 1853SOL    HW1 6458   0.714   3.898   1.290
 1853SOL    HW2 6459   0.869   3.925   1.335
 1854SOL     OW 6460   3.104   6.000   4.640
 1854SOL    HW1 6461   3.119   5.934   4.566
 1854SOL    HW2 6462   3.028   6.061   4.616
 1855SOL     OW 6463   5.146   5.363   0.764
 1855SOL    HW1 6464   5.060   5.399   0.800
 1855SOL    HW2 6465   5.141   5.356   0.665
 1856SOL     OW 6466   5.391   2.619   4.842
 1856SOL    HW1 6467   5.296   2.592   4.837
 1856SOL    HW2 6468   5.450   2.543   4.814
 1857SOL     OW 6469   4.102   0.880   4.107
 1857SOL    HW1 6470   4.005   0.896   4.090
 1857SOL    HW2 6471   4.126   0.787   4.076
 1858SOL     OW 6472   5.383   2.893   4.023
 1858SOL    HW1 6473   5.291   2.853   4.022
 1858SOL    HW2 6474   5.447   2.828   4.063
 1859SOL     OW 6475   4.269   2.327   3.412
 1859SOL    HW1 6476   4.233   2.337   3.504
 1859SOL    HW2 6477   4.366   2.304   3.416
 1860SOL     OW 6478   6.112   0.944   4.432
 1860SOL    HW1 6479   6.116   0.848   4.461
 1860SOL    HW2 6480   6.027   0.985   4.463
 1861SOL     OW 6481   5.286   6.321   2.920
 1861SOL    HW1 6482   5.323   6.398   2.971
 1861SOL    HW2 6483   5.349   6.295   2.847
 1862SOL     OW 6484   1.988   0.907   0.011
 1862SOL    HW1 6485   1.982   0.864   0.101
 1862SOL    HW2 6486   2.073   0.878   6.991
 1863SOL     OW 6487   2.858   2.630   1.377
 1863SOL    HW1 6488   2.817   2.671   1.295
 1863SOL    HW2 6489   2.956   2.652   1.379
 1864SOL     OW 6490   0.808   6.344   4.700
 1864SOL    HW1 6491   0.839   6.255   4.664
 1864SOL    HW2 6492   0.860   6.366   4.783
 1865SOL     OW 6493   4.108   1.898   5.798
 1865SOL    HW1 6494   4.020   1.862   5.827
 1865SOL    HW2 6495   4.165   1.823   5.764
 1866SOL     OW 6496   4.608   4.346   2.248
 1866SOL    HW1 6497   4.591   4.334   2.151
 1866SOL    HW2 6498   4.638   4.260   2.289
 1867SOL     OW 6499   0.045   4.067   6.936
 1867SOL    HW1 6500   0.031   3.970   6.914
 1867SOL    HW2 6501   0.133   4.097   6.898
 1868SOL     OW 6502   5.995   4.730   6.182
 1868SOL    HW1 6503   5.973   4.633   6.171
 1868SOL    HW2 6504   5.971   4.779   6.097
 1869SOL     OW 6505   6.357   1.445   5.117
 1869SOL    HW1 6506   6.347   1.536   5.077
 1869SOL    HW2 6507   6.380   1.379   5.045
 1870SOL     OW 6508   1.770   5.237   4.664
 1870SOL    HW1 6509   1.800   5.277   4.578
 1870SOL    HW2 6510   1.726   5.307   4.720
 1871SOL     OW 6511   2.002   0.129   0.613
 1871SOL    HW1 6512   1.946   0.073   0.674
 1871SOL    HW2 6513   2.033   0.211   0.662
 1872SOL     OW 6514   2.032   4.374   0.763
 1872SOL    HW1 6515   2.110   4.416   0.715
 1872SOL    HW2 6516   2.029   4.277   0.743
 1873SOL     OW 6517   4.125   1.179   6.254
 1873SOL    HW1 6518   4.150   1.235   6.174
 1873SOL    HW2 6519   4.039   1.132   6.236
 1874SOL     OW 6520   1.890   1.720   2.038
 1874SOL    HW1 6521   1.928   1.644   2.091
 1874SOL    HW2 6522   1.807   1.753   2.083
 1875SOL     OW 6523   0.230   6.882   6.471
 1875SOL    HW1 6524   0.258   6.799   6.423
 1875SOL    HW2 6525   0.255   6.963   6.417
 1876SOL     OW 6526   3.007   6.985   4.494
 1876SOL    HW1 6527   2.959   6.968   4.408
 1876SOL    HW2 6528   2.955   0.026   4.549
 1877SOL     OW 6529   0.907   0.228   3.973
 1877SOL    HW1 6530   0.865   0.277   3.897
 1877SOL    HW2 6531   0.992   0.274   3.999
 1878SOL     OW 6532   6.661   2.405   4.146
 1878SOL    HW1 6533   6.645   2.404   4.048
 1878SOL    HW2 6534   6.758   2.425   4.163
 1879SOL     OW 6535   0.918   4.172   4.942
 1879SOL    HW1 6536   0.914   4.119   5.027
 1879SOL    HW2 6537   0.962   4.260   4.960
 1880SOL     OW 6538   6.600   1.674   5.066
 1880SOL    HW1 6539   6.574   1.755   5.120
 1880SOL    HW2 6540   6.536   1.664   4.990
 1881SOL     OW 6541   6.172   1.931   0.345
 1881SOL    HW1 6542   6.199   1.953   0.439
 1881SOL    HW2 6543   6.123   2.009   0.305
 1882SOL     OW 6544   1.092   4.308   6.073
 1882SOL    HW1 6545   1.029   4.231   6.062
 1882SOL    HW2 6546   1.184   4.280   6.043
 1883SOL     OW 6547   0.074   2.727   2.794
 1883SOL    HW1 6548   7.012   2.777   2.796
 1883SOL    HW2 6549   0.150   2.791   2.806
 1884SOL     OW 6550   0.176   2.081   1.420
 1884SOL    HW1 6551   0.142   2.028   1.498
 1884SOL    HW2 6552   0.268   2.115   1.441
 1885SOL     OW 6553   2.194   1.919   5.525
 1885SOL    HW1 6554   2.258   1.969   5.582
 1885SOL    HW2 6555   2.190   1.961   5.434
 1886SOL     OW 6556   1.230   6.816   3.238
 1886SOL    HW1 6557   1.250   6.805   3.336
 1886SOL    HW2 6558   1.210   6.727   3.198
 1887SOL     OW 6559   1.314   6.073   6.306
 1887SOL    HW1 6560   1.281   6.004   6.241
 1887SOL    HW2 6561   1.371   6.029   6.375
 1888SOL     OW 6562   2.492   1.203   1.097
 1888SOL    HW1 6563   2.522   1.290   1.136
 1888SOL    HW2 6564   2.404   1.177   1.136
 1889SOL     OW 6565   1.388   3.741   3.463
 1889SOL    HW1 6566   1.420   3.737   3.558
 1889SOL    HW2 6567   1.429   3.666   3.411
 1890SOL     OW 6568   1.113   5.957   3.768
 1890SOL    HW1 6569   1.079   5.949   3.862
 1890SOL    HW2 6570   1.201   5.909   3.760
 1891SOL     OW 6571   4.121   3.699   2.489
 1891SOL    HW1 6572   4.154   3.652   2.408
 1891SOL    HW2 6573   4.101   3.632   2.561
 1892SOL     OW 6574   6.801   0.242   1.530
 1892SOL    HW1 6575   6.743   0.221   1.609
 1892SOL    HW2 6576   6.844   0.158   1.498
 1893SOL     OW 6577   3.664   3.341   3.371
 1893SOL    HW1 6578   3.737   3.383   3.317
 1893SOL    HW2 6579   3.577   3.384   3.349
 1894SOL     OW 6580   3.583   3.813   4.333
 1894SOL    HW1 6581   3.642   3.839   4.257
 1894SOL    HW2 6582   3.490   3.798   4.300
 1895SOL     OW 6583   4.499   0.280   0.164
 1895SOL    HW1 6584   4.497   0.307   0.261
 1895SOL    HW2 6585   4.537   0.355   0.110
 1896SOL     OW 6586   5.082   1.732   1.096
 1896SOL    HW1 6587   5.023   1.796   1.045
 1896SOL    HW2 6588   5.085   1.760   1.192
 1897SOL     OW 6589   2.436   4.943   3.553
 1897SOL    HW1 6590   2.367   4.934   3.625
 1897SOL    HW2 6591   2.424   4.871   3.485
 1898SOL     OW 6592   1.524   5.849   3.291
 1898SOL    HW1 6593   1.611   5.898   3.288
 1898SOL    HW2 6594   1.455   5.900   3.240
 1899SOL     OW 6595   7.023   0.296   1.893
 1899SOL    HW1 6596   6.971   0.361   1.947
 1899SOL    HW2 6597   6.981   0.205   1.899
 1900SOL     OW 6598   3.026   0.298   0.051
 1900SOL    HW1 6599   3.019   0.215   0.106
 1900SOL    HW2 6600   3.025   0.378   0.110
 1901SOL     OW 6601   3.002   3.705   1.130
 1901SOL    HW1 6602   2.985   3.748   1.218
 1901SOL    HW2 6603   2.920   3.658   1.099
 1902SOL     OW 6604   1.833   6.489   5.002
 1902SOL    HW1 6605   1.785   6.403   4.984
 1902SOL    HW2 6606   1.903   6.503   4.931
 1903SOL     OW 6607   0.987   2.997   4.088
 1903SOL    HW1 6608   1.055   3.069   4.104
 1903SOL    HW2 6609   1.026   2.908   4.113
 1904SOL     OW 6610   5.564   5.579   2.553
 1904SOL    HW1 6611   5.586   5.508   2.486
 1904SOL    HW2 6612   5.483   5.629   2.522
 1905SOL     OW 6613   0.575   0.749   3.742
 1905SOL    HW1 6614   0.640   0.774   3.813
 1905SOL    HW2 6615   0.618   0.762   3.652
 1906SOL     OW 6616   2.774   0.362   5.661
 1906SOL    HW1 6617   2.747   0.449   5.702
 1906SOL    HW2 6618   2.850   0.377   5.598
 1907SOL     OW 6619   4.819   2.862   6.898
 1907SOL    HW1 6620   4.743   2.926   6.904
 1907SOL    HW2 6621   4.902   2.906   6.932
 1908SOL     OW 6622   3.590   0.944   1.031
 1908SOL    HW1 6623   3.650   0.891   0.972
 1908SOL    HW2 6624   3.518   0.986   0.976
 1909SOL     OW 6625   0.081   4.769   5.246
 1909SOL    HW1 6626   0.158   4.789   5.307
 1909SOL    HW2 6627   0.100   4.687   5.193
 1910SOL     OW 6628   6.496   6.344   6.249
 1910SOL    HW1 6629   6.411   6.300   6.277
 1910SOL    HW2 6630   6.571   6.278   6.254
 1911SOL     OW 6631   0.142   5.197   4.499
 1911SOL    HW1 6632   0.125   5.123   4.564
 1911SOL    HW2 6633   0.240   5.205   4.482
 1912SOL     OW 6634   2.440   5.029   2.943
 1912SOL    HW1 6635   2.535   5.029   2.910
 1912SOL    HW2 6636   2.397   4.942   2.917
 1913SOL     OW 6637   2.724   4.776   5.236
 1913SOL    HW1 6638   2.773   4.727   5.164
 1913SOL    HW2 6639   2.717   4.718   5.317
 1914SOL     OW 6640   2.632   4.328   6.077
 1914SOL    HW1 6641   2.579   4.383   6.142
 1914SOL    HW2 6642   2.592   4.336   5.986
 1915SOL     OW 6643   5.149   2.491   6.169
 1915SOL    HW1 6644   5.180   2.572   6.120
 1915SOL    HW2 6645   5.090   2.519   6.245
 1916SOL     OW 6646   4.136   0.230   1.803
 1916SOL    HW1 6647   4.184   0.318   1.805
 1916SOL    HW2 6648   4.198   0.158   1.835
 1917SOL     OW 6649   2.368   4.348   1.238
 1917SOL    HW1 6650   2.413   4.437   1.245
 1917SOL    HW2 6651   2.274   4.356   1.272
 1918SOL     OW 6652   6.736   1.654   4.519
 1918SOL    HW1 6653   6.761   1.749   4.540
 1918SOL    HW2 6654   6.777   1.627   4.432
 1919SOL     OW 6655   0.994   1.980   1.040
 1919SOL    HW1 6656   0.994   2.072   1.080
 1919SOL    HW2 6657   1.063   1.924   1.085
 1920SOL     OW 6658   5.280   2.492   0.956
 1920SOL    HW1 6659   5.378   2.481   0.975
 1920SOL    HW2 6660   5.266   2.506   0.858
 1921SOL     OW 6661   1.949   3.212   6.897
 1921SOL    HW1 6662   1.935   3.274   6.819
 1921SOL    HW2 6663   1.876   3.144   6.899
 1922SOL     OW 6664   2.965   3.582   2.271
 1922SOL    HW1 6665   2.925   3.549   2.357
 1922SOL    HW2 6666   2.931   3.527   2.195
 1923SOL     OW 6667   4.416   0.490   5.356
 1923SOL    HW1 6668   4.421   0.586   5.386
 1923SOL    HW2 6669   4.442   0.483   5.260
 1924SOL     OW 6670   4.632   6.810   0.960
 1924SOL    HW1 6671   4.575   6.766   0.891
 1924SOL    HW2 6672   4.695   6.874   0.916
 1925SOL     OW 6673   1.070   4.260   1.031
 1925SOL    HW1 6674   1.021   4.238   1.115
 1925SOL    HW2 6675   1.111   4.176   0.994
 1926SOL     OW 6676   3.497   6.881   2.349
 1926SOL    HW1 6677   3.584   6.838   2.323
 1926SOL    HW2 6678   3.496   6.897   2.447
 1927SOL     OW 6679   1.878   5.153   1.483
 1927SOL    HW1 6680   1.800   5.092   1.472
 1927SOL    HW2 6681   1.889   5.176   1.580
 1928SOL     OW 6682   4.658   4.251   2.871
 1928SOL    HW1 6683   4.567   4.286   2.852
 1928SOL    HW2 6684   4.702   4.223   2.786
 1929SOL     OW 6685   2.822   0.794   3.042
 1929SOL    HW1 6686   2.783   0.849   2.968
 1929SOL    HW2 6687   2.777   0.705   3.044
 1930SOL     OW 6688   4.479   2.912   6.733
 1930SOL    HW1 6689   4.571   2.947   6.713
 1930SOL    HW2 6690   4.485   2.834   6.795
 1931SOL     OW 6691   0.935   1.311   4.679
 1931SOL    HW1 6692   1.006   1.370   4.641
 1931SOL    HW2 6693   0.851   1.363   4.692
 1932SOL     OW 6694   4.594   2.631   2.511
 1932SOL    HW1 6695   4.635   2.709   2.463
 1932SOL    HW2 6696   4.533   2.582   2.448
 1933SOL     OW 6697   0.900   1.223   1.110
 1933SOL    HW1 6698   0.992   1.193   1.133
 1933SOL    HW2 6699   0.876   1.303   1.166
 1934SOL     OW 6700   0.294   0.092   5.873
 1934SOL    HW1 6701   0.330   0.152   5.944
 1934SOL    HW2 6702   0.351   0.010   5.866
 1935SOL     OW 6703   6.846   4.908   4.300
 1935SOL    HW1 6704   6.752   4.877   4.317
 1935SOL    HW2 6705   6.910   4.842   4.339
 1936SOL     OW 6706   4.742   2.924   5.010
 1936SOL    HW1 6707   4.770   2.917   5.105
 1936SOL    HW2 6708   4.674   2.853   4.990
 1937SOL     OW 6709   5.110   5.260   6.975
 1937SOL    HW1 6710   5.064   5.171   6.962
 1937SOL    HW2 6711   5.176   5.274   6.901
 1938SOL     OW 6712   0.825   2.672   6.317
 1938SOL    HW1 6713   0.856   2.583   6.284
 1938SOL    HW2 6714   0.739   2.697   6.272
 1939SOL     OW 6715   1.242   0.189   4.926
 1939SOL    HW1 6716   1.318   0.148   4.979
 1939SOL    HW2 6717   1.170   0.217   4.989
 1940SOL     OW 6718   6.521   4.841   1.259
 1940SOL    HW1 6719   6.467   4.922   1.282
 1940SOL    HW2 6720   6.467   4.758   1.276
 1941SOL     OW 6721   0.227   2.679   3.999
 1941SOL    HW1 6722   0.203   2.773   4.022
 1941SOL    HW2 6723   0.298   2.678   3.929
 1942SOL     OW 6724   5.553   3.548   2.539
 1942SOL    HW1 6725   5.518   3.557   2.632
 1942SOL    HW2 6726   5.506   3.613   2.479
 1943SOL     OW 6727   1.024   1.401   2.808
 1943SOL    HW1 6728   0.979   1.490   2.817
 1943SOL    HW2 6729   1.088   1.388   2.883
 1944SOL     OW 6730   6.742   2.510   1.858
 1944SOL    HW1 6731   6.789   2.523   1.946
 1944SOL    HW2 6732   6.657   2.562   1.857
 1945SOL     OW 6733   4.824   0.517   1.959
 1945SOL    HW1 6734   4.874   0.454   2.018
 1945SOL    HW2 6735   4.760   0.571   2.015
 1946SOL     OW 6736   5.903   5.766   1.733
 1946SOL    HW1 6737   5.978   5.809   1.683
 1946SOL    HW2 6738   5.852   5.705   1.672
 1947SOL     OW 6739   6.163   4.554   4.269
 1947SOL    HW1 6740   6.215   4.608   4.203
 1947SOL    HW2 6741   6.085   4.512   4.223
 1948SOL     OW 6742   4.864   3.459   3.558
 1948SOL    HW1 6743   4.772   3.424   3.540
 1948SOL    HW2 6744   4.878   3.543   3.506
 1949SOL     OW 6745   3.660   5.151   6.619
 1949SOL    HW1 6746   3.700   5.078   6.674
 1949SOL    HW2 6747   3.561   5.149   6.629
 1950SOL     OW 6748   3.494   4.200   4.268
 1950SOL    HW1 6749   3.422   4.150   4.316
 1950SOL    HW2 6750   3.495   4.296   4.299
 1951SOL     OW 6751   6.297   4.369   5.702
 1951SOL    HW1 6752   6.385   4.373   5.656
 1951SOL    HW2 6753   6.228   4.418   5.647
 1952SOL     OW 6754   5.489   4.754   6.902
 1952SOL    HW1 6755   5.466   4.688   6.830
 1952SOL    HW2 6756   5.550   4.711   6.968
 1953SOL     OW 6757   0.550   1.401   6.699
 1953SOL    HW1 6758   0.620   1.329   6.700
 1953SOL    HW2 6759   0.459   1.359   6.693
 1954SOL     OW 6760   4.320   7.019   1.851
 1954SOL    HW1 6761   4.396   0.013   1.914
 1954SOL    HW2 6762   4.319   6.921   1.828
 1955SOL     OW 6763   1.076   1.868   2.550
 1955SOL    HW1 6764   1.016   1.819   2.614
 1955SOL    HW2 6765   1.170   1.833   2.559
 1956SOL     OW 6766   5.836   0.345   2.096
 1956SOL    HW1 6767   5.749   0.345   2.045
 1956SOL    HW2 6768   5.845   0.432   2.144
 1957SOL     OW 6769   5.180   1.849   4.035
 1957SOL    HW1 6770   5.149   1.836   3.941
 1957SOL    HW2 6771   5.239   1.930   4.040
 1958SOL     OW 6772   4.441   1.879   1.363
 1958SOL    HW1 6773   4.366   1.944   1.378
 1958SOL    HW2 6774   4.466   1.836   1.451
 1959SOL     OW 6775   0.479   0.314   4.470
 1959SOL    HW1 6776   0.516   0.287   4.558
 1959SOL    HW2 6777   0.410   0.385   4.483
 1960SOL     OW 6778   6.042   4.419   3.655
 1960SOL    HW1 6779   5.969   4.476   3.617
 1960SOL    HW2 6780   6.130   4.464   3.642
 1961SOL     OW 6781   6.561   3.836   4.970
 1961SOL    HW1 6782   6.535   3.924   4.930
 1961SOL    HW2 6783   6.654   3.842   5.005
 1962SOL     OW 6784   0.791   0.419   2.742
 1962SOL    HW1 6785   0.886   0.407   2.712
 1962SOL    HW2 6786   0.781   0.382   2.834
 1963SOL     OW 6787   0.780   1.885   1.930
 1963SOL    HW1 6788   0.799   1.906   1.834
 1963SOL    HW2 6789   0.863   1.851   1.973
 1964SOL     OW 6790   5.267   4.358   1.252
 1964SOL    HW1 6791   5.271   4.294   1.175
 1964SOL    HW2 6792   5.351   4.350   1.306
 1965SOL     OW 6793   0.501   4.623   4.067
 1965SOL    HW1 6794   0.498   4.582   4.158
 1965SOL    HW2 6795   0.579   4.685   4.060
 1966SOL     OW 6796   1.600   4.639   6.835
 1966SOL    HW1 6797   1.531   4.625   6.764
 1966SOL    HW2 6798   1.564   4.701   6.904
 1967SOL     OW 6799   5.517   3.063   3.405
 1967SOL    HW1 6800   5.594   3.069   3.469
 1967SOL    HW2 6801   5.523   2.977   3.354
 1968SOL     OW 6802   2.691   1.606   5.212
 1968SOL    HW1 6803   2.737   1.544   5.149
 1968SOL    HW2 6804   2.754   1.681   5.236
 1969SOL     OW 6805   3.183   6.808   0.498
 1969SOL    HW1 6806   3.113   6.738   0.486
 1969SOL    HW2 6807   3.179   6.842   0.592
 1970SOL     OW 6808   6.048   5.722   5.181
 1970SOL    HW1 6809   5.973   5.765   5.129
 1970SOL    HW2 6810   6.022   5.629   5.206
 1971SOL     OW 6811   1.523   6.146   5.281
 1971SOL    HW1 6812   1.516   6.047   5.289
 1971SOL    HW2 6813   1.443   6.189   5.323
 1972SOL     OW 6814   6.015   2.671   2.527
 1972SOL    HW1 6815   6.028   2.754   2.473
 1972SOL    HW2 6816   5.926   2.674   2.573
 1973SOL     OW 6817   1.855   4.400   0.132
 1973SOL    HW1 6818   1.886   4.479   0.079
 1973SOL    HW2 6819   1.762   4.375   0.105
 1974SOL     OW 6820   3.826   6.298   5.097
 1974SOL    HW1 6821   3.787   6.229   5.035
 1974SOL    HW2 6822   3.752   6.339   5.150
 1975SOL     OW 6823   1.694   2.064   3.305
 1975SOL    HW1 6824   1.621   2.043   3.370
 1975SOL    HW2 6825   1.737   2.150   3.331
 1976SOL     OW 6826   6.967   6.970   6.360
 1976SOL    HW1 6827   0.042   6.958   6.365
 1976SOL    HW2 6828   6.942   0.028   6.412
 1977SOL     OW 6829   2.102   4.825   5.924
 1977SOL    HW1 6830   2.071   4.756   5.858
 1977SOL    HW2 6831   2.202   4.825   5.927
 1978SOL     OW 6832   2.605   6.908   1.971
 1978SOL    HW1 6833   2.694   6.916   1.925
 1978SOL    HW2 6834   2.619   6.880   2.066
 1979SOL     OW 6835   0.214   4.687   6.761
 1979SOL    HW1 6836   0.256   4.600   6.787
 1979SOL    HW2 6837   0.236   4.707   6.665
 1980SOL     OW 6838   3.661   1.303   0.976
 1980SOL    HW1 6839   3.578   1.285   1.029
 1980SOL    HW2 6840   3.737   1.318   1.038
 1981SOL     OW 6841   4.322   2.408   3.148
 1981SOL    HW1 6842   4.287   2.428   3.240
 1981SOL    HW2 6843   4.252   2.362   3.095
 1982SOL     OW 6844   6.741   2.575   5.270
 1982SOL    HW1 6845   6.766   2.498   5.211
 1982SOL    HW2 6846   6.728   2.657   5.214
 1983SOL     OW 6847   0.068   0.300   1.375
 1983SOL    HW1 6848   7.003   0.278   1.413
 1983SOL    HW2 6849   0.080   0.399   1.372
 1984SOL     OW 6850   5.077   2.955   5.086
 1984SOL    HW1 6851   5.016   2.969   5.164
 1984SOL    HW2 6852   5.045   3.009   5.008
 1985SOL     OW 6853   5.864   3.625   2.684
 1985SOL    HW1 6854   5.912   3.595   2.766
 1985SOL    HW2 6855   5.814   3.548   2.645
 1986SOL     OW 6856   3.446   2.456   1.539
 1986SOL    HW1 6857   3.477   2.361   1.531
 1986SOL    HW2 6858   3.506   2.505   1.602
 1987SOL     OW 6859   2.450   0.884   2.231
 1987SOL    HW1 6860   2.384   0.939   2.180
 1987SOL    HW2 6861   2.408   0.796   2.255
 1988SOL     OW 6862   6.822   1.950   0.951
 1988SOL    HW1 6863   6.885   1.876   0.978
 1988SOL    HW2 6864   6.825   1.961   0.852
 1989SOL     OW 6865   3.134   4.991   5.035
 1989SOL    HW1 6866   3.194   5.040   4.972
 1989SOL    HW2 6867   3.180   4.979   5.123
 1990SOL     OW 6868   3.840   0.444   0.745
 1990SOL    HW1 6869   3.918   0.429   0.807
 1990SOL    HW2 6870   3.768   0.379   0.768
 1991SOL     OW 6871   3.003   5.342   0.573
 1991SOL    HW1 6872   3.033   5.393   0.654
 1991SOL    HW2 6873   3.058   5.369   0.495
 1992SOL     OW 6874   0.545   5.599   1.080
 1992SOL    HW1 6875   0.604   5.643   1.011
 1992SOL    HW2 6876   0.539   5.501   1.061
 1993SOL     OW 6877   1.982   3.264   4.161
 1993SOL    HW1 6878   2.029   3.256   4.248
 1993SOL    HW2 6879   1.948   3.357   4.150
 1994SOL     OW 6880   2.945   3.317   0.300
 1994SOL    HW1 6881   2.875   3.256   0.337
 1994SOL    HW2 6882   2.954   3.301   0.201
 1995SOL     OW 6883   5.665   2.376   5.050
 1995SOL    HW1 6884   5.619   2.392   4.963
 1995SOL    HW2 6885   5.607   2.407   5.125
 1996SOL     OW 6886   3.523   1.796   0.912
 1996SOL    HW1 6887   3.593   1.830   0.849
 1996SOL    HW2 6888   3.553   1.810   1.006
 1997SOL     OW 6889   4.017   0.923   3.407
 1997SOL    HW1 6890   3.930   0.875   3.415
 1997SOL    HW2 6891   4.030   0.982   3.487
 1998SOL     OW 6892   1.949   3.232   1.070
 1998SOL    HW1 6893   1.936   3.176   0.989
 1998SOL    HW2 6894   1.967   3.173   1.149
 1999SOL     OW 6895   1.812   6.930   6.188
 1999SOL    HW1 6896   1.737   6.906   6.126
 1999SOL    HW2 6897   1.789   6.902   6.281
 2000SOL     OW 6898   3.965   4.299   5.761
 2000SOL    HW1 6899   3.910   4.227   5.804
 2000SOL    HW2 6900   3.933   4.388   5.792
 2001SOL     OW 6901   2.108   1.492   0.052
 2001SOL    HW1 6902   2.011   1.485   0.028
 2001SOL    HW2 6903   2.118   1.486   0.151
 2002SOL     OW 6904   0.122   4.058   0.556
 2002SOL    HW1 6905   0.023   4.046   0.566
 2002SOL    HW2 6906   0.142   4.093   0.464
 2003SOL     OW 6907   6.572   5.645   1.878
 2003SOL    HW1 6908   6.581   5.730   1.825
 2003SOL    HW2 6909   6.640   5.579   1.846
 2004SOL     OW 6910   3.164   0.092   3.174
 2004SOL    HW1 6911   3.093   0.160   3.157
 2004SOL    HW2 6912   3.194   0.053   3.086
 2005SOL     OW 6913   1.487   6.289   1.230
 2005SOL    HW1 6914   1.495   6.201   1.277
 2005SOL    HW2 6915   1.527   6.282   1.139
 2006SOL     OW 6916   5.798   0.007   2.798
 2006SOL    HW1 6917   5.807   6.939   2.836
 2006SOL    HW2 6918   5.884   0.057   2.810
 2007SOL     OW 6919   5.890   4.611   6.960
 2007SOL    HW1 6920   5.916   4.702   6.926
 2007SOL    HW2 6921   5.827   4.622   0.013
 2008SOL     OW 6922   1.815   3.448   3.672
 2008SOL    HW1 6923   1.724   3.453   3.715
 2008SOL    HW2 6924   1.804   3.434   3.574
 2009SOL     OW 6925   5.952   6.889   2.205
 2009SOL    HW1 6926   5.990   6.911   2.295
 2009SOL    HW2 6927   5.916   6.972   2.162
 2010SOL     OW 6928   1.302   1.597   1.578
 2010SOL    HW1 6929   1.243   1.660   1.528
 2010SOL    HW2 6930   1.353   1.540   1.513
 2011SOL     OW 6931   1.059   6.802   5.993
 2011SOL    HW1 6932   0.968   6.842   5.990
 2011SOL    HW2 6933   1.110   6.829   5.911
 2012SOL     OW 6934   1.220   3.320   1.750
 2012SOL    HW1 6935   1.210   3.272   1.837
 2012SOL    HW2 6936   1.216   3.418   1.766
 2013SOL     OW 6937   0.342   3.393   2.700
 2013SOL    HW1 6938   0.353   3.304   2.656
 2013SOL    HW2 6939   0.247   3.424   2.688
 2014SOL     OW 6940   3.553   0.291   4.388
 2014SOL    HW1 6941   3.605   0.376   4.398
 2014SOL    HW2 6942   3.600   0.218   4.439
 2015SOL     OW 6943   4.487   0.441   1.638
 2015SOL    HW1 6944   4.562   0.506   1.628
 2015SOL    HW2 6945   4.497   0.368   1.571
 2016SOL     OW 6946   1.461   0.368   5.811
 2016SOL    HW1 6947   1.374   0.398   5.849
 2016SOL    HW2 6948   1.488   0.282   5.855
 2017SOL     OW 6949   4.160   6.235   2.915
 2017SOL    HW1 6950   4.074   6.258   2.869
 2017SOL    HW2 6951   4.195   6.316   2.963
 2018SOL     OW 6952   1.129   1.091   3.687
 2018SOL    HW1 6953   1.108   1.153   3.611
 2018SOL    HW2 6954   1.223   1.058   3.679
 2019SOL     OW 6955   6.116   5.139   6.346
 2019SOL    HW1 6956   6.194   5.188   6.384
 2019SOL    HW2 6957   6.040   5.202   6.334
 2020SOL     OW 6958   2.581   5.915   6.183
 2020SOL    HW1 6959   2.555   5.930   6.088
 2020SOL    HW2 6960   2.680   5.897   6.188
 2021SOL     OW 6961   0.193   5.967   3.786
 2021SOL    HW1 6962   0.242   6.018   3.856
 2021SOL    HW2 6963   0.100   5.946   3.818
 2022SOL     OW 6964   1.933   4.038   5.016
 2022SOL    HW1 6965   2.015   3.995   4.979
 2022SOL    HW2 6966   1.891   4.096   4.947
 2023SOL     OW 6967   0.173   6.511   0.320
 2023SOL    HW1 6968   0.160   6.427   0.373
 2023SOL    HW2 6969   0.202   6.584   0.382
 2024SOL     OW 6970   1.217   5.977   4.236
 2024SOL    HW1 6971   1.142   6.003   4.296
 2024SOL    HW2 6972   1.252   5.887   4.263
 2025SOL     OW 6973   1.497   6.710   4.840
 2025SOL    HW1 6974   1.528   6.805   4.840
 2025SOL    HW2 6975   1.577   6.649   4.844
 2026SOL     OW 6976   6.989   0.041   5.936
 2026SOL    HW1 6977   0.022   0.065   6.014
 2026SOL    HW2 6978   6.894   0.033   5.966
 2027SOL     OW 6979   6.938   6.025   2.277
 2027SOL    HW1 6980   6.990   6.110   2.281
 2027SOL    HW2 6981   6.996   5.952   2.239
 2028SOL     OW 6982   3.603   4.980   4.311
 2028SOL    HW1 6983   3.664   4.977   4.232
 2028SOL    HW2 6984   3.656   4.971   4.395
 2029SOL     OW 6985   6.101   2.359   6.619
 2029SOL    HW1 6986   6.114   2.265   6.588
 2029SOL    HW2 6987   6.005   2.384   6.611
 2030SOL     OW 6988   2.382   6.699   2.367
 2030SOL    HW1 6989   2.413   6.790   2.338
 2030SOL    HW2 6990   2.285   6.689   2.347
 2031SOL     OW 6991   0.092   6.027   3.508
 2031SOL    HW1 6992   0.144   6.061   3.585
 2031SOL    HW2 6993   0.087   5.927   3.512
 2032SOL     OW 6994   2.676   2.245   5.989
 2032SOL    HW1 6995   2.653   2.173   5.924
 2032SOL    HW2 6996   2.775   2.262   5.987
 2033SOL     OW 6997   1.973   2.072   0.614
 2033SOL    HW1 6998   2.047   2.020   0.657
 2033SOL    HW2 6999   1.918   2.012   0.557
 2034SOL     OW 7000   6.957   4.411   5.221
 2034SOL    HW1 7001   0.025   4.411   5.184
 2034SOL    HW2 7002   6.895   4.455   5.157
 2035SOL     OW 7003   5.705   0.242   3.084
 2035SOL    HW1 7004   5.695   0.166   3.020
 2035SOL    HW2 7005   5.763   0.313   3.042
 2036SOL     OW 7006   1.490   4.184   2.045
 2036SOL    HW1 7007   1.447   4.100   2.012
 2036SOL    HW2 7008   1.470   4.197   2.142
 2037SOL     OW 7009   0.450   3.136   0.073
 2037SOL    HW1 7010   0.399   3.139   0.159
 2037SOL    HW2 7011   0.520   3.065   0.078
 2038SOL     OW 7012   1.696   1.548   6.483
 2038SOL    HW1 7013   1.740   1.605   6.414
 2038SOL    HW2 7014   1.651   1.470   6.438
 2039SOL     OW 7015   5.972   5.984   2.714
 2039SOL    HW1 7016   5.976   6.047   2.636
 2039SOL    HW2 7017   5.979   6.036   2.799
 2040SOL     OW 7018   2.011   2.819   0.553
 2040SOL    HW1 7019   1.985   2.746   0.489
 2040SOL    HW2 7020   1.977   2.797   0.645
 2041SOL     OW 7021   2.279   0.022   6.419
 2041SOL    HW1 7022   2.338   0.079   6.362
 2041SOL    HW2 7023   2.278   0.057   6.512
 2042SOL     OW 7024   5.117   0.990   5.517
 2042SOL    HW1 7025   5.157   0.972   5.607
 2042SOL    HW2 7026   5.188   1.024   5.455
 2043SOL     OW 7027   6.716   4.259   1.265
 2043SOL    HW1 7028   6.634   4.281   1.317
 2043SOL    HW2 7029   6.794   4.310   1.302
 2044SOL     OW 7030   4.573   0.306   1.146
 2044SOL    HW1 7031   4.638   0.291   1.072
 2044SOL    HW2 7032   4.549   0.403   1.150
 2045SOL     OW 7033   1.202   6.455   6.422
 2045SOL    HW1 7034   1.247   6.413   6.342
 2045SOL    HW2 7035   1.105   6.431   6.422
 2046SOL     OW 7036   1.111   2.227   4.853
 2046SOL    HW1 7037   1.052   2.276   4.917
 2046SOL    HW2 7038   1.147   2.290   4.785
 2047SOL     OW 7039   0.221   0.348   0.773
 2047SOL    HW1 7040   0.313   0.367   0.810
 2047SOL    HW2 7041   0.185   0.431   0.731
 2048SOL     OW 7042   0.807   1.899   4.771
 2048SOL    HW1 7043   0.800   1.928   4.675
 2048SOL    HW2 7044   0.761   1.966   4.829
 2049SOL     OW 7045   5.025   1.524   4.983
 2049SOL    HW1 7046   5.085   1.485   5.053
 2049SOL    HW2 7047   5.055   1.494   4.893
 2050SOL     OW 7048   0.853   1.393   3.997
 2050SOL    HW1 7049   0.926   1.356   3.941
 2050SOL    HW2 7050   0.840   1.490   3.975
 2051SOL     OW 7051   2.852   6.540   0.270
 2051SOL    HW1 7052   2.774   6.479   0.282
 2051SOL    HW2 7053   2.849   6.581   0.179
 2052SOL     OW 7054   1.103   4.431   6.573
 2052SOL    HW1 7055   1.098   4.440   6.473
 2052SOL    HW2 7056   1.080   4.518   6.616
 2053SOL     OW 7057   0.268   5.304   3.548
 2053SOL    HW1 7058   0.243   5.386   3.600
 2053SOL    HW2 7059   0.233   5.312   3.454
 2054SOL     OW 7060   3.295   3.120   4.007
 2054SOL    HW1 7061   3.250   3.066   3.936
 2054SOL    HW2 7062   3.255   3.099   4.096
 2055SOL     OW 7063   3.289   2.293   5.692
 2055SOL    HW1 7064   3.212   2.357   5.687
 2055SOL    HW2 7065   3.272   2.215   5.632
 2056SOL     OW 7066   4.147   4.789   1.009
 2056SOL    HW1 7067   4.239   4.754   1.024
 2056SOL    HW2 7068   4.081   4.714   1.022
 2057SOL     OW 7069   5.773   2.374   4.623
 2057SOL    HW1 7070   5.768   2.457   4.680
 2057SOL    HW2 7071   5.851   2.381   4.561
 2058SOL     OW 7072   6.931   5.989   3.010
 2058SOL    HW1 7073   6.914   5.904   2.959
 2058SOL    HW2 7074   7.013   6.034   2.973
 2059SOL     OW 7075   2.026   0.430   6.324
 2059SOL    HW1 7076   1.961   0.489   6.371
 2059SOL    HW2 7077   2.114   0.477   6.315
 2060SOL     OW 7078   1.604   3.019   6.370
 2060SOL    HW1 7079   1.531   3.011   6.437
 2060SOL    HW2 7080   1.598   2.945   6.303
 2061SOL     OW 7081   1.942   2.760   2.236
 2061SOL    HW1 7082   1.902   2.806   2.157
 2061SOL    HW2 7083   2.039   2.780   2.241
 2062SOL     OW 7084   0.052   4.956   4.642
 2062SOL    HW1 7085   0.072   4.921   4.733
 2062SOL    HW2 7086   6.984   4.995   4.641
 2063SOL     OW 7087   0.652   0.733   4.710
 2063SOL    HW1 7088   0.701   0.808   4.666
 2063SOL    HW2 7089   0.654   0.653   4.651
 2064SOL     OW 7090   0.546   3.019   3.404
 2064SOL    HW1 7091   0.481   3.022   3.480
 2064SOL    HW2 7092   0.638   3.038   3.439
 2065SOL     OW 7093   4.084   3.021   5.620
 2065SOL    HW1 7094   4.084   3.116   5.589
 2065SOL    HW2 7095   4.072   2.960   5.541
 2066SOL     OW 7096   6.708   2.997   5.351
 2066SOL    HW1 7097   6.670   3.057   5.422
 2066SOL    HW2 7098   6.793   2.956   5.385
 2067SOL     OW 7099   6.216   5.384   1.236
 2067SOL    HW1 7100   6.316   5.387   1.241
 2067SOL    HW2 7101   6.187   5.292   1.208
 2068SOL     OW 7102   4.140   0.552   4.320
 2068SOL    HW1 7103   4.151   0.528   4.416
 2068SOL    HW2 7104   4.228   0.584   4.283
 2069SOL     OW 7105   0.522   2.885   3.671
 2069SOL    HW1 7106   0.610   2.886   3.625
 2069SOL    HW2 7107   0.535   2.861   3.767
 2070SOL     OW 7108   0.722   4.825   1.004
 2070SOL    HW1 7109   0.784   4.842   1.081
 2070SOL    HW2 7110   0.691   4.912   0.967
 2071SOL     OW 7111   6.850   1.408   5.919
 2071SOL    HW1 7112   6.936   1.381   5.962
 2071SOL    HW2 7113   6.868   1.438   5.825
 2072SOL     OW 7114   4.257   4.514   5.407
 2072SOL    HW1 7115   4.257   4.489   5.310
 2072SOL    HW2 7116   4.182   4.467   5.453
 2073SOL     OW 7117   3.125   5.524   6.349
 2073SOL    HW1 7118   3.164   5.615   6.362
 2073SOL    HW2 7119   3.044   5.513   6.407
 2074SOL     OW 7120   0.943   4.234   5.790
 2074SOL    HW1 7121   0.877   4.176   5.742
 2074SOL    HW2 7122   0.974   4.187   5.872
 2075SOL     OW 7123   6.732   1.670   1.564
 2075SOL    HW1 7124   6.699   1.718   1.646
 2075SOL    HW2 7125   6.689   1.709   1.483
 2076SOL     OW 7126   6.243   6.783   4.902
 2076SOL    HW1 7127   6.308   6.815   4.833
 2076SOL    HW2 7128   6.160   6.751   4.856
 2077SOL     OW 7129   6.362   4.433   0.582
 2077SOL    HW1 7130   6.288   4.417   0.516
 2077SOL    HW2 7131   6.427   4.499   0.543
 2078SOL     OW 7132   0.800   2.982   5.772
 2078SOL    HW1 7133   0.821   2.911   5.839
 2078SOL    HW2 7134   0.879   2.997   5.713
 2079SOL     OW 7135   4.669   2.005   2.094
 2079SOL    HW1 7136   4.747   2.017   2.032
 2079SOL    HW2 7137   4.603   1.942   2.053
 2080SOL     OW 7138   2.322   3.141   6.198
 2080SOL    HW1 7139   2.406   3.151   6.146
 2080SOL    HW2 7140   2.252   3.098   6.141
 2081SOL     OW 7141   5.446   6.287   2.491
 2081SOL    HW1 7142   5.428   6.340   2.409
 2081SOL    HW2 7143   5.383   6.209   2.495
 2082SOL     OW 7144   6.736   6.010   3.697
 2082SOL    HW1 7145   6.755   5.919   3.662
 2082SOL    HW2 7146   6.649   6.010   3.748
 2083SOL     OW 7147   0.854   6.398   4.066
 2083SOL    HW1 7148   0.832   6.460   4.141
 2083SOL    HW2 7149   0.877   6.308   4.103
 2084SOL     OW 7150   5.868   1.853   1.568
 2084SOL    HW1 7151   5.924   1.882   1.645
 2084SOL    HW2 7152   5.926   1.841   1.487
 2085SOL     OW 7153   5.412   5.867   0.883
 2085SOL    HW1 7154   5.388   5.951   0.932
 2085SOL    HW2 7155   5.451   5.801   0.947
 2086SOL     OW 7156   4.646   1.070   6.890
 2086SOL    HW1 7157   4.668   1.044   6.796
 2086SOL    HW2 7158   4.547   1.071   6.902
 2087SOL     OW 7159   3.949   1.650   6.618
 2087SOL    HW1 7160   3.969   1.731   6.672
 2087SOL    HW2 7161   3.949   1.673   6.521
 2088SOL     OW 7162   0.767   5.867   6.107
 2088SOL    HW1 7163   0.815   5.783   6.131
 2088SOL    HW2 7164   0.832   5.944   6.107
 2089SOL     OW 7165   2.747   3.689   0.073
 2089SOL    HW1 7166   2.835   3.722   0.109
 2089SOL    HW2 7167   2.757   3.594   0.043
 2090SOL     OW 7168   4.961   2.823   5.800
 2090SOL    HW1 7169   4.950   2.765   5.880
 2090SOL    HW2 7170   5.047   2.874   5.808
 2091SOL     OW 7171   5.433   6.105   2.143
 2091SOL    HW1 7172   5.416   6.144   2.234
 2091SOL    HW2 7173   5.519   6.054   2.144
 2092SOL     OW 7174   4.502   3.673   1.705
 2092SOL    HW1 7175   4.601   3.673   1.694
 2092SOL    HW2 7176   4.467   3.580   1.702
 2093SOL     OW 7177   3.535   1.062   2.091
 2093SOL    HW1 7178   3.613   1.014   2.050
 2093SOL    HW2 7179   3.485   0.999   2.150
 2094SOL     OW 7180   5.379   2.360   6.287
 2094SOL    HW1 7181   5.430   2.296   6.229
 2094SOL    HW2 7182   5.326   2.422   6.229
 2095SOL     OW 7183   5.444   5.977   3.727
 2095SOL    HW1 7184   5.397   6.037   3.663
 2095SOL    HW2 7185   5.387   5.964   3.808
 2096SOL     OW 7186   4.886   0.068   2.443
 2096SOL    HW1 7187   4.876   0.111   2.353
 2096SOL    HW2 7188   4.865   0.135   2.514
 2097SOL     OW 7189   1.092   5.495   6.463
 2097SOL    HW1 7190   1.151   5.487   6.542
 2097SOL    HW2 7191   1.104   5.416   6.404
 2098SOL     OW 7192   2.909   5.770   3.639
 2098SOL    HW1 7193   2.851   5.693   3.668
 2098SOL    HW2 7194   2.870   5.812   3.557
 2099SOL     OW 7195   4.972   1.578   6.109
 2099SOL    HW1 7196   4.883   1.542   6.139
 2099SOL    HW2 7197   4.986   1.557   6.012
 2100SOL     OW 7198   5.354   0.218   1.394
 2100SOL    HW1 7199   5.386   0.303   1.436
 2100SOL    HW2 7200   5.275   0.237   1.336
 2101SOL     OW 7201   0.401   6.891   1.932
 2101SOL    HW1 7202   0.414   6.874   2.030
 2101SOL    HW2 7203   0.405   6.804   1.883
 2102SOL     OW 7204   3.508   2.579   0.777
 2102SOL    HW1 7205   3.541   2.656   0.721
 2102SOL    HW2 7206   3.480   2.613   0.867
 2103SOL     OW 7207   2.853   6.062   0.421
 2103SOL    HW1 7208   2.811   6.138   0.471
 2103SOL    HW2 7209   2.938   6.034   0.468
 2104SOL     OW 7210   1.831   4.725   3.093
 2104SOL    HW1 7211   1.841   4.701   3.190
 2104SOL    HW2 7212   1.829   4.642   3.038
 2105SOL     OW 7213   6.108   5.314   5.211
 2105SOL    HW1 7214   6.099   5.240   5.277
 2105SOL    HW2 7215   6.146   5.277   5.125
 2106SOL     OW 7216   4.230   3.166   0.713
 2106SOL    HW1 7217   4.167   3.168   0.790
 2106SOL    HW2 7218   4.324   3.166   0.747
 2107SOL     OW 7219   5.068   4.717   5.521
 2107SOL    HW1 7220   5.035   4.663   5.443
 2107SOL    HW2 7221   5.147   4.772   5.493
 2108SOL     OW 7222   5.317   0.311   5.563
 2108SOL    HW1 7223   5.324   0.358   5.475
 2108SOL    HW2 7224   5.406   0.274   5.589
 2109SOL     OW 7225   2.905   6.590   2.885
 2109SOL    HW1 7226   2.827   6.647   2.860
 2109SOL    HW2 7227   2.948   6.627   2.967
 2110SOL     OW 7228   3.998   7.007   6.958
 2110SOL    HW1 7229   4.086   6.968   6.929
 2110SOL    HW2 7230   3.942   6.936   7.000
 2111SOL     OW 7231   0.935   2.182   5.776
 2111SOL    HW1 7232   0.945   2.281   5.786
 2111SOL    HW2 7233   0.852   2.152   5.822
 2112SOL     OW 7234   0.501   0.988   6.911
 2112SOL    HW1 7235   0.570   1.056   6.935
 2112SOL    HW2 7236   0.486   0.988   6.812
 2113SOL     OW 7237   0.416   0.801   4.860
 2113SOL    HW1 7238   0.482   0.795   4.784
 2113SOL    HW2 7239   0.406   0.896   4.887
 2114SOL     OW 7240   1.217   1.459   6.204
 2114SOL    HW1 7241   1.263   1.468   6.116
 2114SOL    HW2 7242   1.212   1.362   6.229
 2115SOL     OW 7243   6.258   6.693   3.082
 2115SOL    HW1 7244   6.307   6.607   3.064
 2115SOL    HW2 7245   6.286   6.730   3.170
 2116SOL     OW 7246   0.989   1.800   0.327
 2116SOL    HW1 7247   1.035   1.862   0.390
 2116SOL    HW2 7248   1.014   1.706   0.349
 2117SOL     OW 7249   6.473   1.729   2.131
 2117SOL    HW1 7250   6.416   1.652   2.101
 2117SOL    HW2 7251   6.549   1.694   2.186
 2118SOL     OW 7252   6.118   2.675   2.071
 2118SOL    HW1 7253   6.100   2.641   2.164
 2118SOL    HW2 7254   6.037   2.721   2.036
 2119SOL     OW 7255   1.818   1.230   0.180
 2119SOL    HW1 7256   1.816   1.238   0.280
 2119SOL    HW2 7257   1.901   1.183   0.152
 2120SOL     OW 7258   5.404   0.873   1.046
 2120SOL    HW1 7259   5.372   0.810   0.975
 2120SOL    HW2 7260   5.392   0.830   1.135
 2121SOL     OW 7261   1.475   0.417   6.984
 2121SOL    HW1 7262   1.439   0.335   0.004
 2121SOL    HW2 7263   1.555   0.392   6.929
 2122SOL     OW 7264   6.456   1.270   4.156
 2122SOL    HW1 7265   6.431   1.288   4.061
 2122SOL    HW2 7266   6.527   1.334   4.185
 2123SOL     OW 7267   1.524   5.398   2.782
 2123SOL    HW1 7268   1.509   5.373   2.878
 2123SOL    HW2 7269   1.620   5.423   2.769
 2124SOL     OW 7270   4.009   3.619   5.997
 2124SOL    HW1 7271   3.915   3.589   5.982
 2124SOL    HW2 7272   4.061   3.608   5.913
 2125SOL     OW 7273   2.062   6.096   3.835
 2125SOL    HW1 7274   1.969   6.109   3.801
 2125SOL    HW2 7275   2.098   6.183   3.870
 2126SOL     OW 7276   3.063   4.617   0.325
 2126SOL    HW1 7277   3.156   4.595   0.293
 2126SOL    HW2 7278   2.996   4.571   0.267
 2127SOL     OW 7279   0.496   2.141   4.418
 2127SOL    HW1 7280   0.467   2.236   4.402
 2127SOL    HW2 7281   0.513   2.128   4.515
 2128SOL     OW 7282   5.377   3.059   1.463
 2128SOL    HW1 7283   5.407   2.964   1.462
 2128SOL    HW2 7284   5.309   3.073   1.391
 2129SOL     OW 7285   5.317   4.255   3.980
 2129SOL    HW1 7286   5.261   4.190   4.032
 2129SOL    HW2 7287   5.257   4.322   3.935
 2130SOL     OW 7288   2.233   1.049   2.122
 2130SOL    HW1 7289   2.207   1.138   2.086
 2130SOL    HW2 7290   2.200   0.977   2.061
 2131SOL     OW 7291   5.637   0.859   4.916
 2131SOL    HW1 7292   5.549   0.869   4.869
 2131SOL    HW2 7293   5.708   0.905   4.862
 2132SOL     OW 7294   2.408   2.470   0.383
 2132SOL    HW1 7295   2.467   2.534   0.335
 2132SOL    HW2 7296   2.462   2.419   0.451
 2133SOL     OW 7297   3.243   2.152   1.495
 2133SOL    HW1 7298   3.172   2.147   1.566
 2133SOL    HW2 7299   3.330   2.124   1.534
 2134SOL     OW 7300   1.629   6.118   4.734
 2134SOL    HW1 7301   1.562   6.130   4.660
 2134SOL    HW2 7302   1.713   6.167   4.712
 2135SOL     OW 7303   1.664   0.557   4.364
 2135SOL    HW1 7304   1.615   0.470   4.353
 2135SOL    HW2 7305   1.722   0.552   4.445
 2136SOL     OW 7306   0.844   4.058   3.830
 2136SOL    HW1 7307   0.816   4.045   3.735
 2136SOL    HW2 7308   0.936   4.097   3.833
 2137SOL     OW 7309   0.924   0.624   5.197
 2137SOL    HW1 7310   0.922   0.684   5.117
 2137SOL    HW2 7311   0.849   0.648   5.258
 2138SOL     OW 7312   0.873   2.849   0.214
 2138SOL    HW1 7313   0.788   2.822   0.260
 2138SOL    HW2 7314   0.936   2.889   0.280
 2139SOL     OW 7315   2.843   1.427   5.033
 2139SOL    HW1 7316   2.922   1.480   5.064
 2139SOL    HW2 7317   2.869   1.331   5.022
 2140SOL     OW 7318   1.973   5.733   3.009
 2140SOL    HW1 7319   1.903   5.662   3.007
 2140SOL    HW2 7320   2.060   5.694   3.040
 2141SOL     OW 7321   5.883   1.245   0.401
 2141SOL    HW1 7322   5.945   1.225   0.326
 2141SOL    HW2 7323   5.793   1.204   0.382
 2142SOL     OW 7324   2.594   2.055   3.316
 2142SOL    HW1 7325   2.620   1.959   3.308
 2142SOL    HW2 7326   2.587   2.096   3.225
 2143SOL     OW 7327   3.761   6.932   0.242
 2143SOL    HW1 7328   3.811   6.879   0.173
 2143SOL    HW2 7329   3.771   6.889   0.332
 2144SOL     OW 7330   6.761   1.263   2.814
 2144SOL    HW1 7331   6.705   1.182   2.795
 2144SOL    HW2 7332   6.827   1.241   2.887
 2145SOL     OW 7333   3.642   5.703   3.039
 2145SOL    HW1 7334   3.715   5.707   3.107
 2145SOL    HW2 7335   3.682   5.707   2.947
 2146SOL     OW 7336   3.703   2.977   1.909
 2146SOL    HW1 7337   3.721   3.024   1.996
 2146SOL    HW2 7338   3.648   2.895   1.926
 2147SOL     OW 7339   0.542   1.081   5.211
 2147SOL    HW1 7340   0.533   1.103   5.308
 2147SOL    HW2 7341   0.613   1.012   5.199
 2148SOL     OW 7342   5.045   3.172   3.601
 2148SOL    HW1 7343   5.142   3.147   3.606
 2148SOL    HW2 7344   5.030   3.230   3.521
 2149SOL     OW 7345   3.083   1.078   3.058
 2149SOL    HW1 7346   3.006   1.030   3.101
 2149SOL    HW2 7347   3.049   1.136   2.984
 2150SOL     OW 7348   3.821   1.683   2.486
 2150SOL    HW1 7349   3.728   1.668   2.520
 2150SOL    HW2 7350   3.817   1.734   2.401
 2151SOL     OW 7351   3.920   2.951   5.820
 2151SOL    HW1 7352   3.985   2.971   5.747
 2151SOL    HW2 7353   3.920   3.027   5.886
 2152SOL     OW 7354   6.798   5.908   1.569
 2152SOL    HW1 7355   6.880   5.895   1.624
 2152SOL    HW2 7356   6.756   5.996   1.592
 2153SOL     OW 7357   4.894   2.953   3.341
 2153SOL    HW1 7358   4.867   2.980   3.434
 2153SOL    HW2 7359   4.979   2.901   3.345
 2154SOL     OW 7360   4.948   6.050   4.972
 2154SOL    HW1 7361   4.992   6.139   4.985
 2154SOL    HW2 7362   4.996   5.980   5.024
 2155SOL     OW 7363   6.923   3.697   0.174
 2155SOL    HW1 7364   6.850   3.659   0.117
 2155SOL    HW2 7365   6.899   3.791   0.200
 2156SOL     OW 7366   1.120   1.271   1.731
 2156SOL    HW1 7367   1.200   1.305   1.779
 2156SOL    HW2 7368   1.105   1.325   1.648
 2157SOL     OW 7369   0.699   1.176   4.616
 2157SOL    HW1 7370   0.637   1.141   4.686
 2157SOL    HW2 7371   0.785   1.204   4.659
 2158SOL     OW 7372   4.427   6.336   2.585
 2158SOL    HW1 7373   4.459   6.273   2.514
 2158SOL    HW2 7374   4.424   6.288   2.673
 2159SOL     OW 7375   2.150   5.817   4.333
 2159SOL    HW1 7376   2.237   5.845   4.291
 2159SOL    HW2 7377   2.150   5.841   4.430
 2160SOL     OW 7378   3.256   3.696   0.636
 2160SOL    HW1 7379   3.171   3.677   0.684
 2160SOL    HW2 7380   3.253   3.790   0.600
 2161SOL     OW 7381   5.335   2.482   3.781
 2161SOL    HW1 7382   5.319   2.487   3.682
 2161SOL    HW2 7383   5.395   2.405   3.802
 2162SOL     OW 7384   0.787   1.531   6.998
 2162SOL    HW1 7385   0.738   1.511   0.059
 2162SOL    HW2 7386   0.729   1.586   6.938
 2163SOL     OW 7387   2.218   2.256   6.997
 2163SOL    HW1 7388   2.244   2.333   6.939
 2163SOL    HW2 7389   2.219   2.284   0.068
 2164SOL     OW 7390   1.050   6.953   1.830
 2164SOL    HW1 7391   1.121   6.909   1.886
 2164SOL    HW2 7392   0.995   6.882   1.785
 2165SOL     OW 7393   2.733   6.537   1.591
 2165SOL    HW1 7394   2.687   6.478   1.525
 2165SOL    HW2 7395   2.796   6.481   1.646
 2166SOL     OW 7396   6.445   2.093   6.760
 2166SOL    HW1 7397   6.475   2.173   6.708
 2166SOL    HW2 7398   6.417   2.021   6.697
 2167SOL     OW 7399   2.551   0.275   1.893
 2167SOL    HW1 7400   2.614   0.263   1.817
 2167SOL    HW2 7401   2.483   0.201   1.893
 2168SOL     OW 7402   5.927   5.701   4.698
 2168SOL    HW1 7403   5.996   5.681   4.767
 2168SOL    HW2 7404   5.969   5.752   4.623
 2169SOL     OW 7405   4.866   2.195   5.330
 2169SOL    HW1 7406   4.900   2.144   5.409
 2169SOL    HW2 7407   4.776   2.232   5.350
 2170SOL     OW 7408   4.930   4.693   4.273
 2170SOL    HW1 7409   4.986   4.633   4.331
 2170SOL    HW2 7410   4.979   4.712   4.188
 2171SOL     OW 7411   0.044   2.380   0.215
 2171SOL    HW1 7412   6.996   2.447   0.231
 2171SOL    HW2 7413   0.133   2.424   0.220
 2172SOL     OW 7414   3.317   0.970   0.959
 2172SOL    HW1 7415   3.229   0.984   1.004
 2172SOL    HW2 7416   3.325   0.875   0.930
 2173SOL     OW 7417   5.087   0.775   5.229
 2173SOL    HW1 7418   5.155   0.815   5.290
 2173SOL    HW2 7419   5.083   0.828   5.144
 2174SOL     OW 7420   1.371   5.498   4.552
 2174SOL    HW1 7421   1.340   5.444   4.474
 2174SOL    HW2 7422   1.450   5.553   4.525
 2175SOL     OW 7423   2.736   6.148   5.011
 2175SOL    HW1 7424   2.718   6.126   4.915
 2175SOL    HW2 7425   2.671   6.099   5.069
 2176SOL     OW 7426   1.640   2.350   2.286
 2176SOL    HW1 7427   1.717   2.293   2.259
 2176SOL    HW2 7428   1.673   2.440   2.312
 2177SOL     OW 7429   6.419   1.474   1.740
 2177SOL    HW1 7430   6.321   1.490   1.729
 2177SOL    HW2 7431   6.468   1.561   1.728
 2178SOL     OW 7432   0.615   5.184   0.420
 2178SOL    HW1 7433   0.644   5.271   0.378
 2178SOL    HW2 7434   0.695   5.125   0.430
 2179SOL     OW 7435   0.813   4.650   3.592
 2179SOL    HW1 7436   0.837   4.746   3.608
 2179SOL    HW2 7437   0.852   4.593   3.664
 2180SOL     OW 7438   4.131   3.257   2.207
 2180SOL    HW1 7439   4.035   3.234   2.191
 2180SOL    HW2 7440   4.189   3.188   2.164
 2181SOL     OW 7441   4.725   6.353   6.862
 2181SOL    HW1 7442   4.793   6.367   6.789
 2181SOL    HW2 7443   4.669   6.435   6.872
 2182SOL     OW 7444   6.021   2.133   0.275
 2182SOL    HW1 7445   5.973   2.123   0.362
 2182SOL    HW2 7446   6.060   2.225   0.268
 2183SOL     OW 7447   2.951   2.944   0.436
 2183SOL    HW1 7448   2.871   2.933   0.376
 2183SOL    HW2 7449   2.920   2.966   0.528
 2184SOL     OW 7450   4.212   3.133   6.106
 2184SOL    HW1 7451   4.288   3.076   6.074
 2184SOL    HW2 7452   4.125   3.091   6.079
 2185SOL     OW 7453   1.594   1.378   0.981
 2185SOL    HW1 7454   1.642   1.457   1.020
 2185SOL    HW2 7455   1.659   1.303   0.967
 2186SOL     OW 7456   0.133   5.602   2.389
 2186SOL    HW1 7457   0.210   5.663   2.371
 2186SOL    HW2 7458   0.059   5.654   2.433
 2187SOL     OW 7459   0.155   1.190   6.334
 2187SOL    HW1 7460   0.233   1.247   6.309
 2187SOL    HW2 7461   0.123   1.214   6.425
 2188SOL     OW 7462   5.340   0.569   2.754
 2188SOL    HW1 7463   5.279   0.588   2.830
 2188SOL    HW2 7464   5.298   0.503   2.692
 2189SOL     OW 7465   2.725   0.467   6.801
 2189SOL    HW1 7466   2.731   0.551   6.746
 2189SOL    HW2 7467   2.652   0.476   6.868
 2190SOL     OW 7468   5.007   1.470   1.171
 2190SOL    HW1 7469   5.005   1.460   1.271
 2190SOL    HW2 7470   5.044   1.560   1.147
 2191SOL     OW 7471   2.915   1.606   0.423
 2191SOL    HW1 7472   2.982   1.679   0.437
 2191SOL    HW2 7473   2.954   1.519   0.451
 2192SOL     OW 7474   4.139   5.741   4.528
 2192SOL    HW1 7475   4.181   5.653   4.506
 2192SOL    HW2 7476   4.043   5.728   4.549
 2193SOL     OW 7477   0.649   5.023   5.890
 2193SOL    HW1 7478   0.609   5.062   5.807
 2193SOL    HW2 7479   0.589   5.041   5.968
 2194SOL     OW 7480   2.569   0.470   1.326
 2194SOL    HW1 7481   2.486   0.506   1.369
 2194SOL    HW2 7482   2.575   0.503   1.232
 2195SOL     OW 7483   1.453   4.569   2.749
 2195SOL    HW1 7484   1.521   4.633   2.785
 2195SOL    HW2 7485   1.436   4.497   2.816
 2196SOL     OW 7486   3.904   3.283   0.193
 2196SOL    HW1 7487   3.820   3.303   0.142
 2196SOL    HW2 7488   3.921   3.357   0.258
 2197SOL     OW 7489   4.568   4.276   0.460
 2197SOL    HW1 7490   4.513   4.290   0.543
 2197SOL    HW2 7491   4.598   4.364   0.425
 2198SOL     OW 7492   6.007   4.660   0.422
 2198SOL    HW1 7493   6.094   4.709   0.416
 2198SOL    HW2 7494   5.994   4.605   0.340
 2199SOL     OW 7495   4.571   0.550   2.113
 2199SOL    HW1 7496   4.519   0.487   2.055
 2199SOL    HW2 7497   4.546   0.644   2.090
 2200SOL     OW 7498   2.717   0.333   4.140
 2200SOL    HW1 7499   2.648   0.369   4.203
 2200SOL    HW2 7500   2.792   0.293   4.192
 2201SOL     OW 7501   4.776   4.117   1.990
 2201SOL    HW1 7502   4.685   4.157   1.993
 2201SOL    HW2 7503   4.831   4.152   2.066
 2202SOL     OW 7504   4.643   6.040   3.329
 2202SOL    HW1 7505   4.664   6.054   3.232
 2202SOL    HW2 7506   4.559   6.087   3.353
 2203SOL     OW 7507   3.108   1.911   2.878
 2203SOL    HW1 7508   3.135   1.984   2.941
 2203SOL    HW2 7509   3.086   1.950   2.789
 2204SOL     OW 7510   2.983   2.408   0.790
 2204SOL    HW1 7511   3.080   2.423   0.810
 2204SOL    HW2 7512   2.952   2.475   0.723
 2205SOL     OW 7513   2.631   0.235   0.205
 2205SOL    HW1 7514   2.699   0.163   0.219
 2205SOL    HW2 7515   2.582   0.218   0.119
 2206SOL     OW 7516   2.145   2.807   6.615
 2206SOL    HW1 7517   2.224   2.754   6.646
 2206SOL    HW2 7518   2.114   2.771   6.527
 2207SOL     OW 7519   1.027   4.427   5.004
 2207SOL    HW1 7520   1.111   4.457   4.959
 2207SOL    HW2 7521   0.972   4.508   5.027
 2208SOL     OW 7522   0.566   4.420   2.015
 2208SOL    HW1 7523   0.530   4.392   1.926
 2208SOL    HW2 7524   0.595   4.516   2.010
 2209SOL     OW 7525   1.082   5.854   1.034
 2209SOL    HW1 7526   1.156   5.837   0.969
 2209SOL    HW2 7527   1.081   5.782   1.102
 2210SOL     OW 7528   1.183   5.553   4.308
 2210SOL    HW1 7529   1.256   5.621   4.300
 2210SOL    HW2 7530   1.142   5.538   4.218
 2211SOL     OW 7531   6.634   0.877   6.285
 2211SOL    HW1 7532   6.700   0.937   6.331
 2211SOL    HW2 7533   6.683   0.806   6.235
 2212SOL     OW 7534   1.481   6.982   6.245
 2212SOL    HW1 7535   1.386   6.991   6.216
 2212SOL    HW2 7536   1.526   0.046   6.242
 2213SOL     OW 7537   3.125   0.885   3.538
 2213SOL    HW1 7538   3.207   0.899   3.483
 2213SOL    HW2 7539   3.045   0.880   3.479
 2214SOL     OW 7540   4.472   0.261   4.965
 2214SOL    HW1 7541   4.501   0.177   4.918
 2214SOL    HW2 7542   4.427   0.237   5.051
 2215SOL     OW 7543   5.749   3.346   5.194
 2215SOL    HW1 7544   5.721   3.432   5.152
 2215SOL    HW2 7545   5.846   3.329   5.173
 2216SOL     OW 7546   2.067   0.325   1.515
 2216SOL    HW1 7547   2.131   0.398   1.491
 2216SOL    HW2 7548   2.064   0.315   1.614
 2217SOL     OW 7549   4.931   0.804   1.700
 2217SOL    HW1 7550   4.838   0.790   1.667
 2217SOL    HW2 7551   4.943   0.901   1.725
 2218SOL     OW 7552   0.899   6.677   2.021
 2218SOL    HW1 7553   0.955   6.649   2.099
 2218SOL    HW2 7554   0.871   6.772   2.033
 2219SOL     OW 7555   1.265   1.897   2.801
 2219SOL    HW1 7556   1.339   1.956   2.832
 2219SOL    HW2 7557   1.178   1.931   2.836
 2220SOL     OW 7558   0.473   0.405   0.855
 2220SOL    HW1 7559   0.502   0.363   0.941
 2220SOL    HW2 7560   0.553   0.416   0.796
 2221SOL     OW 7561   6.968   1.580   0.312
 2221SOL    HW1 7562   6.913   1.648   0.264
 2221SOL    HW2 7563   0.011   1.542   0.249
 2222SOL     OW 7564   5.558   6.007   2.872
 2222SOL    HW1 7565   5.567   5.909   2.854
 2222SOL    HW2 7566   5.638   6.039   2.923
 2223SOL     OW 7567   5.871   4.991   1.565
 2223SOL    HW1 7568   5.840   5.061   1.628
 2223SOL    HW2 7569   5.807   4.984   1.488
 2224SOL     OW 7570   0.937   4.764   2.203
 2224SOL    HW1 7571   0.912   4.859   2.183
 2224SOL    HW2 7572   1.019   4.763   2.260
 2225SOL     OW 7573   6.924   4.825   0.752
 2225SOL    HW1 7574   6.943   4.766   0.830
 2225SOL    HW2 7575   6.866   4.777   0.686
 2226SOL     OW 7576   4.271   3.749   1.830
 2226SOL    HW1 7577   4.350   3.719   1.776
 2226SOL    HW2 7578   4.246   3.842   1.804
 2227SOL     OW 7579   0.945   3.372   3.874
 2227SOL    HW1 7580   1.006   3.302   3.912
 2227SOL    HW2 7581   0.960   3.378   3.775
 2228SOL     OW 7582   2.547   5.212   4.870
 2228SOL    HW1 7583   2.582   5.123   4.899
 2228SOL    HW2 7584   2.564   5.279   4.942
 2229SOL     OW 7585   5.453   0.628   3.247
 2229SOL    HW1 7586   5.496   0.581   3.323
 2229SOL    HW2 7587   5.384   0.692   3.281
 2230SOL     OW 7588   2.367   5.512   0.759
 2230SOL    HW1 7589   2.408   5.603   0.759
 2230SOL    HW2 7590   2.391   5.466   0.845
 2231SOL     OW 7591   2.975   5.970   1.306
 2231SOL    HW1 7592   2.975   5.996   1.210
 2231SOL    HW2 7593   2.916   6.032   1.358
 2232SOL     OW 7594   6.238   2.799   3.558
 2232SOL    HW1 7595   6.240   2.721   3.620
 2232SOL    HW2 7596   6.266   2.770   3.467
 2233SOL     OW 7597   3.035   1.558   6.935
 2233SOL    HW1 7598   3.113   1.498   6.953
 2233SOL    HW2 7599   2.950   1.508   6.951
 2234SOL     OW 7600   2.777   2.217   0.744
 2234SOL    HW1 7601   2.780   2.120   0.720
 2234SOL    HW2 7602   2.868   2.247   0.772
 2235SOL     OW 7603   1.779   0.020   1.231
 2235SOL    HW1 7604   1.872   0.045   1.260
 2235SOL    HW2 7605   1.714   0.045   1.301
 2236SOL     OW 7606   6.613   3.941   6.655
 2236SOL    HW1 7607   6.648   3.960   6.747
 2236SOL    HW2 7608   6.678   3.883   6.606
 2237SOL     OW 7609   6.438   2.214   4.022
 2237SOL    HW1 7610   6.460   2.192   4.117
 2237SOL    HW2 7611   6.389   2.301   4.019
 2238SOL     OW 7612   0.183   5.612   2.027
 2238SOL    HW1 7613   0.154   5.517   2.013
 2238SOL    HW2 7614   0.274   5.613   2.069
 2239SOL     OW 7615   5.501   5.483   2.819
 2239SOL    HW1 7616   5.412   5.528   2.829
 2239SOL    HW2 7617   5.506   5.439   2.729
 2240SOL     OW 7618   5.529   4.051   2.305
 2240SOL    HW1 7619   5.479   4.138   2.296
 2240SOL    HW2 7620   5.464   3.975   2.298
 2241SOL     OW 7621   0.890   6.535   2.538
 2241SOL    HW1 7622   0.831   6.560   2.461
 2241SOL    HW2 7623   0.895   6.611   2.602
 2242SOL     OW 7624   4.833   2.897   2.630
 2242SOL    HW1 7625   4.793   2.886   2.721
 2242SOL    HW2 7626   4.760   2.896   2.562
 2243SOL     OW 7627   3.174   6.077   5.698
 2243SOL    HW1 7628   3.091   6.126   5.722
 2243SOL    HW2 7629   3.189   6.083   5.599
 2244SOL     OW 7630   2.517   0.839   5.172
 2244SOL    HW1 7631   2.474   0.861   5.260
 2244SOL    HW2 7632   2.475   0.895   5.101
 2245SOL     OW 7633   0.277   1.929   2.089
 2245SOL    HW1 7634   0.209   1.966   2.025
 2245SOL    HW2 7635   0.347   1.879   2.039
 2246SOL     OW 7636   1.272   4.203   4.483
 2246SOL    HW1 7637   1.250   4.206   4.581
 2246SOL    HW2 7638   1.217   4.132   4.439
 2247SOL     OW 7639   1.737   1.773   5.703
 2247SOL    HW1 7640   1.804   1.734   5.767
 2247SOL    HW2 7641   1.781   1.845   5.650
 2248SOL     OW 7642   4.690   4.459   5.325
 2248SOL    HW1 7643   4.781   4.488   5.355
 2248SOL    HW2 7644   4.659   4.518   5.250
 2249SOL     OW 7645   4.323   5.555   4.351
 2249SOL    HW1 7646   4.358   5.469   4.313
 2249SOL    HW2 7647   4.384   5.630   4.324
 2250SOL     OW 7648   5.434   5.743   0.462
 2250SOL    HW1 7649   5.392   5.832   0.448
 2250SOL    HW2 7650   5.376   5.672   0.421
 2251SOL     OW 7651   0.373   0.581   6.524
 2251SOL    HW1 7652   0.351   0.678   6.514
 2251SOL    HW2 7653   0.447   0.571   6.591
 2252SOL     OW 7654   3.352   1.388   5.417
 2252SOL    HW1 7655   3.318   1.470   5.464
 2252SOL    HW2 7656   3.450   1.378   5.433
 2253SOL     OW 7657   1.529   2.293   5.801
 2253SOL    HW1 7658   1.474   2.213   5.825
 2253SOL    HW2 7659   1.594   2.269   5.729
 2254SOL     OW 7660   1.555   3.739   6.185
 2254SOL    HW1 7661   1.540   3.735   6.086
 2254SOL    HW2 7662   1.649   3.712   6.206
 2255SOL     OW 7663   5.223   2.170   0.896
 2255SOL    HW1 7664   5.165   2.169   0.977
 2255SOL    HW2 7665   5.299   2.234   0.911
 2256SOL     OW 7666   3.449   5.178   1.744
 2256SOL    HW1 7667   3.355   5.144   1.757
 2256SOL    HW2 7668   3.469   5.247   1.814
 2257SOL     OW 7669   2.151   3.671   3.711
 2257SOL    HW1 7670   2.128   3.576   3.731
 2257SOL    HW2 7671   2.248   3.679   3.690
 2258SOL     OW 7672   2.465   5.550   4.766
 2258SOL    HW1 7673   2.502   5.458   4.764
 2258SOL    HW2 7674   2.529   5.613   4.723
 2259SOL     OW 7675   5.687   3.691   6.291
 2259SOL    HW1 7676   5.674   3.597   6.259
 2259SOL    HW2 7677   5.713   3.690   6.387
 2260SOL     OW 7678   4.841   4.269   0.685
 2260SOL    HW1 7679   4.885   4.251   0.773
 2260SOL    HW2 7680   4.778   4.194   0.663
 2261SOL     OW 7681   4.058   6.661   5.725
 2261SOL    HW1 7682   4.126   6.589   5.722
 2261SOL    HW2 7683   4.021   6.668   5.818
 2262SOL     OW 7684   3.746   1.665   3.740
 2262SOL    HW1 7685   3.816   1.711   3.687
 2262SOL    HW2 7686   3.784   1.583   3.783
 2263SOL     OW 7687   6.891   3.914   6.360
 2263SOL    HW1 7688   6.851   3.932   6.271
 2263SOL    HW2 7689   6.991   3.907   6.351
 2264SOL     OW 7690   4.018   3.378   3.888
 2264SOL    HW1 7691   3.971   3.421   3.810
 2264SOL    HW2 7692   4.073   3.301   3.855
 2265SOL     OW 7693   0.088   0.577   2.864
 2265SOL    HW1 7694   0.092   0.548   2.769
 2265SOL    HW2 7695   0.147   0.657   2.878
 2266SOL     OW 7696   6.249   0.180   6.908
 2266SOL    HW1 7697   6.193   0.216   6.982
 2266SOL    HW2 7698   6.293   0.095   6.938
 2267SOL     OW 7699   5.314   1.207   5.611
 2267SOL    HW1 7700   5.217   1.224   5.631
 2267SOL    HW2 7701   5.321   1.139   5.538
 2268SOL     OW 7702   6.236   5.100   0.205
 2268SOL    HW1 7703   6.283   5.158   0.270
 2268SOL    HW2 7704   6.196   5.022   0.253
 2269SOL     OW 7705   0.247   5.619   4.540
 2269SOL    HW1 7706   0.336   5.594   4.502
 2269SOL    HW2 7707   0.210   5.542   4.592
 2270SOL     OW 7708   3.989   3.215   1.686
 2270SOL    HW1 7709   4.029   3.257   1.604
 2270SOL    HW2 7710   4.060   3.164   1.734
 2271SOL     OW 7711   0.014   3.962   3.051
 2271SOL    HW1 7712   6.942   3.984   3.060
 2271SOL    HW2 7713   0.058   4.026   2.989
 2272SOL     OW 7714   4.688   2.060   6.226
 2272SOL    HW1 7715   4.669   2.059   6.128
 2272SOL    HW2 7716   4.786   2.077   6.241
 2273SOL     OW 7717   0.201   1.712   4.134
 2273SOL    HW1 7718   0.218   1.663   4.049
 2273SOL    HW2 7719   0.135   1.785   4.118
 2274SOL     OW 7720   1.104   3.482   3.057
 2274SOL    HW1 7721   1.070   3.393   3.026
 2274SOL    HW2 7722   1.093   3.549   2.984
 2275SOL     OW 7723   5.034   6.612   3.865
 2275SOL    HW1 7724   5.079   6.627   3.953
 2275SOL    HW2 7725   5.101   6.580   3.798
 2276SOL     OW 7726   3.868   5.493   1.796
 2276SOL    HW1 7727   3.832   5.411   1.841
 2276SOL    HW2 7728   3.800   5.528   1.732
 2277SOL     OW 7729   2.910   3.577   0.576
 2277SOL    HW1 7730   2.955   3.541   0.658
 2277SOL    HW2 7731   2.889   3.502   0.514
 2278SOL     OW 7732   5.539   6.685   0.773
 2278SOL    HW1 7733   5.545   6.729   0.862
 2278SOL    HW2 7734   5.619   6.628   0.758
 2279SOL     OW 7735   4.758   4.726   4.950
 2279SOL    HW1 7736   4.680   4.678   4.910
 2279SOL    HW2 7737   4.842   4.694   4.906
 2280SOL     OW 7738   5.512   6.688   6.233
 2280SOL    HW1 7739   5.418   6.656   6.247
 2280SOL    HW2 7740   5.557   6.629   6.166
 2281SOL     OW 7741   2.834   2.892   0.159
 2281SOL    HW1 7742   2.920   2.890   0.109
 2281SOL    HW2 7743   2.772   2.959   0.117
 2282SOL     OW 7744   3.846   5.967   2.394
 2282SOL    HW1 7745   3.942   5.959   2.420
 2282SOL    HW2 7746   3.821   5.891   2.334
 2283SOL     OW 7747   0.271   3.994   2.414
 2283SOL    HW1 7748   0.241   3.952   2.329
 2283SOL    HW2 7749   0.238   3.940   2.492
 2284SOL     OW 7750   2.709   2.359   2.317
 2284SOL    HW1 7751   2.678   2.453   2.332
 2284SOL    HW2 7752   2.764   2.355   2.233
 2285SOL     OW 7753   1.615   4.154   0.001
 2285SOL    HW1 7754   1.653   4.222   6.963
 2285SOL    HW2 7755   1.546   4.197   0.059
 2286SOL     OW 7756   5.653   6.941   4.831
 2286SOL    HW1 7757   5.650   6.978   4.924
 2286SOL    HW2 7758   5.620   7.010   4.767
 2287SOL     OW 7759   2.266   3.020   1.664
 2287SOL    HW1 7760   2.326   2.964   1.722
 2287SOL    HW2 7761   2.305   3.111   1.655
 2288SOL     OW 7762   1.598   6.680   4.314
 2288SOL    HW1 7763   1.645   6.631   4.241
 2288SOL    HW2 7764   1.635   6.652   4.402
 2289SOL     OW 7765   4.481   1.968   0.524
 2289SOL    HW1 7766   4.505   2.059   0.490
 2289SOL    HW2 7767   4.382   1.962   0.537
 2290SOL     OW 7768   3.738   3.440   2.914
 2290SOL    HW1 7769   3.803   3.441   2.990
 2290SOL    HW2 7770   3.779   3.394   2.836
 2291SOL     OW 7771   1.005   2.369   0.001
 2291SOL    HW1 7772   0.963   2.410   0.082
 2291SOL    HW2 7773   0.934   2.338   6.963
 2292SOL     OW 7774   4.907   2.063   2.597
 2292SOL    HW1 7775   4.927   1.988   2.658
 2292SOL    HW2 7776   4.889   2.028   2.505
 2293SOL     OW 7777   0.622   0.682   0.228
 2293SOL    HW1 7778   0.687   0.729   0.168
 2293SOL    HW2 7779   0.612   0.586   0.200
 2294SOL     OW 7780   6.602   1.271   5.453
 2294SOL    HW1 7781   6.662   1.228   5.386
 2294SOL    HW2 7782   6.589   1.367   5.430
 2295SOL     OW 7783   5.603   6.490   1.308
 2295SOL    HW1 7784   5.629   6.585   1.291
 2295SOL    HW2 7785   5.507   6.486   1.335
 2296SOL     OW 7786   3.799   5.269   3.544
 2296SOL    HW1 7787   3.754   5.193   3.498
 2296SOL    HW2 7788   3.812   5.344   3.480
 2297SOL     OW 7789   4.351   4.083   5.549
 2297SOL    HW1 7790   4.448   4.107   5.547
 2297SOL    HW2 7791   4.341   3.990   5.584
 2298SOL     OW 7792   3.418   3.754   4.840
 2298SOL    HW1 7793   3.390   3.791   4.752
 2298SOL    HW2 7794   3.372   3.667   4.857
 2299SOL     OW 7795   6.077   3.335   5.014
 2299SOL    HW1 7796   6.136   3.269   5.060
 2299SOL    HW2 7797   6.035   3.292   4.935
 2300SOL     OW 7798   4.744   6.713   2.204
 2300SOL    HW1 7799   4.693   6.767   2.270
 2300SOL    HW2 7800   4.835   6.692   2.241
 2301SOL     OW 7801   3.722   3.067   4.754
 2301SOL    HW1 7802   3.759   3.012   4.829
 2301SOL    HW2 7803   3.706   3.008   4.675
 2302SOL     OW 7804   6.037   3.372   6.729
 2302SOL    HW1 7805   6.031   3.469   6.752
 2302SOL    HW2 7806   6.013   3.358   6.633
 2303SOL     OW 7807   2.910   2.053   6.849
 2303SOL    HW1 7808   2.871   1.967   6.881
 2303SOL    HW2 7809   3.005   2.061   6.881
 2304SOL     OW 7810   5.808   6.056   2.327
 2304SOL    HW1 7811   5.768   5.980   2.379
 2304SOL    HW2 7812   5.864   6.019   2.252
 2305SOL     OW 7813   2.926   0.206   4.233
 2305SOL    HW1 7814   2.982   0.164   4.162
 2305SOL    HW2 7815   2.982   0.224   4.314
 2306SOL     OW 7816   0.992   4.742   4.417
 2306SOL    HW1 7817   0.967   4.648   4.439
 2306SOL    HW2 7818   0.955   4.803   4.486
 2307SOL     OW 7819   6.544   3.189   5.824
 2307SOL    HW1 7820   6.521   3.104   5.871
 2307SOL    HW2 7821   6.641   3.209   5.838
 2308SOL     OW 7822   1.979   5.028   2.011
 2308SOL    HW1 7823   2.064   5.081   2.015
 2308SOL    HW2 7824   1.985   4.962   1.936
 2309SOL     OW 7825   1.636   0.194   5.364
 2309SOL    HW1 7826   1.596   0.255   5.433
 2309SOL    HW2 7827   1.635   0.100   5.398
 2310SOL     OW 7828   4.714   0.013   1.185
 2310SOL    HW1 7829   4.695   0.111   1.190
 2310SOL    HW2 7830   4.628   6.986   1.179
 2311SOL     OW 7831   3.181   5.323   1.219
 2311SOL    HW1 7832   3.143   5.256   1.155
 2311SOL    HW2 7833   3.120   5.402   1.224
 2312SOL     OW 7834   3.290   5.259   2.050
 2312SOL    HW1 7835   3.306   5.343   1.998
 2312SOL    HW2 7836   3.230   5.280   2.128
 2313SOL     OW 7837   5.115   5.958   1.546
 2313SOL    HW1 7838   5.073   6.018   1.615
 2313SOL    HW2 7839   5.126   6.009   1.460
 2314SOL     OW 7840   1.544   4.826   4.660
 2314SOL    HW1 7841   1.533   4.905   4.720
 2314SOL    HW2 7842   1.455   4.780   4.648
 2315SOL     OW 7843   3.906   2.758   6.728
 2315SOL    HW1 7844   3.984   2.816   6.750
 2315SOL    HW2 7845   3.907   2.737   6.630
 2316SOL     OW 7846   5.434   4.408   2.044
 2316SOL    HW1 7847   5.513   4.380   1.990
 2316SOL    HW2 7848   5.464   4.440   2.134
 2317SOL     OW 7849   0.182   5.049   3.439
 2317SOL    HW1 7850   0.243   5.105   3.494
 2317SOL    HW2 7851   0.179   4.956   3.477
 2318SOL     OW 7852   0.142   0.854   4.226
 2318SOL    HW1 7853   0.185   0.938   4.194
 2318SOL    HW2 7854   0.082   0.818   4.154
 2319SOL     OW 7855   0.680   4.746   3.322
 2319SOL    HW1 7856   0.667   4.675   3.252
 2319SOL    HW2 7857   0.731   4.708   3.399
 2320SOL     OW 7858   6.125   5.128   4.955
 2320SOL    HW1 7859   6.108   5.034   4.925
 2320SOL    HW2 7860   6.074   5.191   4.897
 2321SOL     OW 7861   3.132   5.392   4.996
 2321SOL    HW1 7862   3.072   5.392   4.915
 2321SOL    HW2 7863   3.204   5.323   4.984
 2322SOL     OW 7864   3.371   0.819   5.580
 2322SOL    HW1 7865   3.404   0.890   5.641
 2322SOL    HW2 7866   3.292   0.853   5.528
 2323SOL     OW 7867   5.186   4.246   2.010
 2323SOL    HW1 7868   5.186   4.205   1.919
 2323SOL    HW2 7869   5.264   4.307   2.019
 2324SOL     OW 7870   6.545   4.786   3.578
 2324SOL    HW1 7871   6.614   4.859   3.583
 2324SOL    HW2 7872   6.554   4.727   3.658
 2325SOL     OW 7873   6.729   2.547   0.886
 2325SOL    HW1 7874   6.752   2.505   0.798
 2325SOL    HW2 7875   6.630   2.559   0.892
 2326SOL     OW 7876   1.852   4.570   6.751
 2326SOL    HW1 7877   1.818   4.476   6.746
 2326SOL    HW2 7878   1.774   4.633   6.754
 2327SOL     OW 7879   5.359   1.628   4.078
 2327SOL    HW1 7880   5.400   1.600   3.991
 2327SOL    HW2 7881   5.288   1.697   4.061
 2328SOL     OW 7882   6.399   0.159   3.975
 2328SOL    HW1 7883   6.379   0.113   4.061
 2328SOL    HW2 7884   6.498   0.164   3.961
 2329SOL     OW 7885   6.431   5.852   3.233
 2329SOL    HW1 7886   6.480   5.914   3.294
 2329SOL    HW2 7887   6.333   5.853   3.255
 2330SOL     OW 7888   0.057   3.694   1.950
 2330SOL    HW1 7889   0.076   3.721   1.855
 2330SOL    HW2 7890   6.988   3.660   1.956
 2331SOL     OW 7891   0.578   4.673   5.572
 2331SOL    HW1 7892   0.496   4.697   5.625
 2331SOL    HW2 7893   0.550   4.636   5.483
 2332SOL     OW 7894   6.081   2.358   4.806
 2332SOL    HW1 7895   6.129   2.271   4.802
 2332SOL    HW2 7896   6.051   2.375   4.900
 2333SOL     OW 7897   2.010   4.787   3.904
 2333SOL    HW1 7898   1.975   4.827   3.989
 2333SOL    HW2 7899   1.985   4.690   3.901
 2334SOL     OW 7900   3.457   0.519   1.009
 2334SOL    HW1 7901   3.411   0.450   1.065
 2334SOL    HW2 7902   3.553   0.524   1.037
 2335SOL     OW 7903   4.151   5.193   4.031
 2335SOL    HW1 7904   4.102   5.220   4.114
 2335SOL    HW2 7905   4.119   5.246   3.953
 2336SOL     OW 7906   4.620   2.799   5.967
 2336SOL    HW1 7907   4.631   2.743   6.049
 2336SOL    HW2 7908   4.650   2.746   5.887
 2337SOL     OW 7909   5.741   0.331   3.616
 2337SOL    HW1 7910   5.673   0.387   3.569
 2337SOL    HW2 7911   5.697   0.277   3.687
 2338SOL     OW 7912   1.098   6.736   6.302
 2338SOL    HW1 7913   1.074   6.779   6.215
 2338SOL    HW2 7914   1.141   6.648   6.285
 2339SOL     OW 7915   3.887   4.747   6.181
 2339SOL    HW1 7916   3.880   4.827   6.122
 2339SOL    HW2 7917   3.856   4.771   6.273
 2340SOL     OW 7918   3.664   5.272   3.774
 2340SOL    HW1 7919   3.729   5.256   3.699
 2340SOL    HW2 7920   3.572   5.250   3.743
 2341SOL     OW 7921   6.479   5.162   6.716
 2341SOL    HW1 7922   6.512   5.203   6.631
 2341SOL    HW2 7923   6.426   5.229   6.767
 2342SOL     OW 7924   6.583   6.925   5.201
 2342SOL    HW1 7925   6.528   6.898   5.279
 2342SOL    HW2 7926   6.625   6.845   5.159
 2343SOL     OW 7927   0.811   6.597   0.563
 2343SOL    HW1 7928   0.712   6.605   0.572
 2343SOL    HW2 7929   0.852   6.584   0.653
 2344SOL     OW 7930   2.255   1.915   3.260
 2344SOL    HW1 7931   2.185   1.864   3.209
 2344SOL    HW2 7932   2.294   1.855   3.330
 2345SOL     OW 7933   1.916   1.329   3.641
 2345SOL    HW1 7934   1.975   1.251   3.661
 2345SOL    HW2 7935   1.833   1.324   3.698
 2346SOL     OW 7936   4.765   3.826   5.717
 2346SOL    HW1 7937   4.783   3.823   5.816
 2346SOL    HW2 7938   4.668   3.813   5.700
 2347SOL     OW 7939   1.306   3.290   1.261
 2347SOL    HW1 7940   1.364   3.212   1.285
 2347SOL    HW2 7941   1.239   3.306   1.334
 2348SOL     OW 7942   2.453   5.622   1.497
 2348SOL    HW1 7943   2.423   5.621   1.592
 2348SOL    HW2 7944   2.374   5.640   1.438
 2349SOL     OW 7945   4.975   4.953   5.887
 2349SOL    HW1 7946   4.985   5.034   5.831
 2349SOL    HW2 7947   4.924   4.883   5.836
 2350SOL     OW 7948   2.457   5.773   5.329
 2350SOL    HW1 7949   2.486   5.855   5.378
 2350SOL    HW2 7950   2.536   5.712   5.316
 2351SOL     OW 7951   2.242   6.160   3.542
 2351SOL    HW1 7952   2.245   6.087   3.610
 2351SOL    HW2 7953   2.304   6.234   3.569
 2352SOL     OW 7954   5.993   3.981   2.310
 2352SOL    HW1 7955   6.021   3.924   2.388
 2352SOL    HW2 7956   6.036   3.946   2.226
 2353SOL     OW 7957   2.955   3.745   6.139
 2353SOL    HW1 7958   2.980   3.650   6.156
 2353SOL    HW2 7959   2.874   3.768   6.192
 2354SOL     OW 7960   3.891   2.693   1.654
 2354SOL    HW1 7961   3.817   2.635   1.688
 2354SOL    HW2 7962   3.896   2.685   1.554
 2355SOL     OW 7963   6.428   0.384   1.243
 2355SOL    HW1 7964   6.414   0.294   1.285
 2355SOL    HW2 7965   6.342   0.435   1.246
 2356SOL     OW 7966   2.710   4.894   3.733
 2356SOL    HW1 7967   2.789   4.932   3.684
 2356SOL    HW2 7968   2.626   4.922   3.687
 2357SOL     OW 7969   6.240   4.827   1.054
 2357SOL    HW1 7970   6.326   4.876   1.058
 2357SOL    HW2 7971   6.257   4.731   1.029
 2358SOL     OW 7972   3.436   1.692   5.376
 2358SOL    HW1 7973   3.365   1.673   5.445
 2358SOL    HW2 7974   3.393   1.700   5.286
 2359SOL     OW 7975   2.086   1.461   5.721
 2359SOL    HW1 7976   2.118   1.555   5.708
 2359SOL    HW2 7977   2.115   1.405   5.644
 2360SOL     OW 7978   3.648   4.351   0.135
 2360SOL    HW1 7979   3.731   4.296   0.143
 2360SOL    HW2 7980   3.568   4.291   0.130
 2361SOL     OW 7981   4.521   5.728   1.694
 2361SOL    HW1 7982   4.590   5.770   1.636
 2361SOL    HW2 7983   4.472   5.799   1.744
 2362SOL     OW 7984   4.969   5.063   3.779
 2362SOL    HW1 7985   4.996   5.116   3.698
 2362SOL    HW2 7986   4.897   5.113   3.828
 2363SOL     OW 7987   2.222   3.844   0.419
 2363SOL    HW1 7988   2.192   3.772   0.356
 2363SOL    HW2 7989   2.210   3.933   0.376
 2364SOL     OW 7990   3.472   1.284   2.524
 2364SOL    HW1 7991   3.433   1.350   2.587
 2364SOL    HW2 7992   3.571   1.299   2.517
 2365SOL     OW 7993   5.150   3.858   3.461
 2365SOL    HW1 7994   5.147   3.927   3.534
 2365SOL    HW2 7995   5.061   3.814   3.454
 2366SOL     OW 7996   2.933   4.857   4.924
 2366SOL    HW1 7997   3.012   4.897   4.971
 2366SOL    HW2 7998   2.908   4.772   4.969
 2367SOL     OW 7999   5.398   4.514   6.175
 2367SOL    HW1 8000   5.423   4.565   6.092
 2367SOL    HW2 8001   5.481   4.491   6.226
 2368SOL     OW 8002   5.877   6.789   4.938
 2368SOL    HW1 8003   5.941   6.754   4.869
 2368SOL    HW2 8004   5.794   6.821   4.893
 2369SOL     OW 8005   3.083   1.720   4.493
 2369SOL    HW1 8006   3.060   1.759   4.582
 2369SOL    HW2 8007   3.129   1.789   4.437
 2370SOL     OW 8008   5.862   2.673   1.631
 2370SOL    HW1 8009   5.789   2.633   1.686
 2370SOL    HW2 8010   5.950   2.639   1.662
 2371SOL     OW 8011   0.081   6.144   2.558
 2371SOL    HW1 8012   0.139   6.109   2.632
 2371SOL    HW2 8013   0.135   6.153   2.475
 2372SOL     OW 8014   5.900   6.812   6.224
 2372SOL    HW1 8015   5.872   6.907   6.234
 2372SOL    HW2 8016   5.989   6.799   6.268
 2373SOL     OW 8017   6.322   5.371   6.378
 2373SOL    HW1 8018   6.296   5.408   6.289
 2373SOL    HW2 8019   6.264   5.409   6.449
 2374SOL     OW 8020   6.329   6.372   2.736
 2374SOL    HW1 8021   6.309   6.284   2.691
 2374SOL    HW2 8022   6.425   6.372   2.765
 2375SOL     OW 8023   1.486   0.019   4.144
 2375SOL    HW1 8024   1.441   7.002   4.224
 2375SOL    HW2 8025   1.501   0.116   4.161
 2376SOL     OW 8026   5.310   2.055   3.343
 2376SOL    HW1 8027   5.333   1.963   3.310
 2376SOL    HW2 8028   5.309   2.118   3.266
 2377SOL     OW 8029   4.636   4.677   5.787
 2377SOL    HW1 8030   4.570   4.705   5.717
 2377SOL    HW2 8031   4.648   4.577   5.784
 2378SOL     OW 8032   7.007   1.165   0.681
 2378SOL    HW1 8033   7.000   1.072   0.645
 2378SOL    HW2 8034   0.005   1.228   0.607
 2379SOL     OW 8035   6.603   5.145   1.740
 2379SOL    HW1 8036   6.581   5.059   1.785
 2379SOL    HW2 8037   6.702   5.155   1.734
 2380SOL     OW 8038   4.935   5.494   5.414
 2380SOL    HW1 8039   5.003   5.557   5.453
 2380SOL    HW2 8040   4.971   5.401   5.416
 2381SOL     OW 8041   2.403   4.792   4.474
 2381SOL    HW1 8042   2.406   4.809   4.573
 2381SOL    HW2 8043   2.492   4.759   4.443
 2382SOL     OW 8044   6.883   5.986   2.636
 2382SOL    HW1 8045   6.793   6.029   2.642
 2382SOL    HW2 8046   6.948   6.049   2.593
 2383SOL     OW 8047   5.628   5.255   5.960
 2383SOL    HW1 8048   5.603   5.302   6.045
 2383SOL    HW2 8049   5.610   5.157   5.970
 2384SOL     OW 8050   0.661   1.924   2.508
 2384SOL    HW1 8051   0.745   1.954   2.462
 2384SOL    HW2 8052   0.583   1.940   2.449
 2385SOL     OW 8053   0.581   1.637   0.651
 2385SOL    HW1 8054   0.550   1.548   0.619
 2385SOL    HW2 8055   0.651   1.673   0.589
 2386SOL     OW 8056   5.811   5.903   3.875
 2386SOL    HW1 8057   5.893   5.928   3.927
 2386SOL    HW2 8058   5.797   5.804   3.879
 2387SOL     OW 8059   1.673   1.462   3.980
 2387SOL    HW1 8060   1.715   1.553   3.971
 2387SOL    HW2 8061   1.696   1.407   3.900
 2388SOL     OW 8062   6.548   2.319   5.008
 2388SOL    HW1 8063   6.622   2.346   4.947
 2388SOL    HW2 8064   6.538   2.219   5.007
 2389SOL     OW 8065   4.703   4.488   3.989
 2389SOL    HW1 8066   4.758   4.407   4.008
 2389SOL    HW2 8067   4.651   4.475   3.905
 2390SOL     OW 8068   4.617   3.329   5.694
 2390SOL    HW1 8069   4.581   3.236   5.703
 2390SOL    HW2 8070   4.575   3.388   5.763
 2391SOL     OW 8071   3.130   4.264   6.005
 2391SOL    HW1 8072   3.100   4.172   6.028
 2391SOL    HW2 8073   3.188   4.299   6.078
 2392SOL     OW 8074   4.434   4.665   5.555
 2392SOL    HW1 8075   4.363   4.727   5.588
 2392SOL    HW2 8076   4.394   4.600   5.490
 2393SOL     OW 8077   3.873   4.347   1.283
 2393SOL    HW1 8078   3.791   4.318   1.233
 2393SOL    HW2 8079   3.946   4.280   1.267
 2394SOL     OW 8080   0.269   2.882   3.514
 2394SOL    HW1 8081   0.294   2.795   3.474
 2394SOL    HW2 8082   0.318   2.894   3.601
 2395SOL     OW 8083   0.598   2.867   4.516
 2395SOL    HW1 8084   0.610   2.778   4.561
 2395SOL    HW2 8085   0.519   2.863   4.455
 2396SOL     OW 8086   0.611   0.411   5.174
 2396SOL    HW1 8087   0.568   0.395   5.263
 2396SOL    HW2 8088   0.676   0.337   5.155
 2397SOL     OW 8089   0.246   4.318   5.227
 2397SOL    HW1 8090   0.207   4.276   5.309
 2397SOL    HW2 8091   0.212   4.270   5.146
 2398SOL     OW 8092   3.813   6.454   4.209
 2398SOL    HW1 8093   3.869   6.451   4.126
 2398SOL    HW2 8094   3.857   6.401   4.281
 2399SOL     OW 8095   3.151   2.072   3.545
 2399SOL    HW1 8096   3.191   2.097   3.633
 2399SOL    HW2 8097   3.052   2.085   3.548
 2400SOL     OW 8098   1.482   3.868   0.852
 2400SOL    HW1 8099   1.485   3.880   0.753
 2400SOL    HW2 8100   1.546   3.797   0.879
 2401SOL     OW 8101   2.698   0.072   5.787
 2401SOL    HW1 8102   2.702   0.167   5.755
 2401SOL    HW2 8103   2.714   0.070   5.885
 2402SOL     OW 8104   1.729   4.183   1.931
 2402SOL    HW1 8105   1.640   4.204   1.972
 2402SOL    HW2 8106   1.722   4.187   1.832
 2403SOL     OW 8107   4.057   3.225   3.309
 2403SOL    HW1 8108   4.013   3.212   3.397
 2403SOL    HW2 8109   4.085   3.137   3.272
 2404SOL     OW 8110   5.807   0.991   1.002
 2404SOL    HW1 8111   5.823   0.907   1.054
 2404SOL    HW2 8112   5.882   1.003   0.937
 2405SOL     OW 8113   2.824   3.119   0.899
 2405SOL    HW1 8114   2.829   3.034   0.951
 2405SOL    HW2 8115   2.844   3.196   0.960
 2406SOL     OW 8116   3.441   6.208   4.790
 2406SOL    HW1 8117   3.432   6.257   4.877
 2406SOL    HW2 8118   3.381   6.128   4.790
 2407SOL     OW 8119   2.537   0.743   3.647
 2407SOL    HW1 8120   2.635   0.737   3.633
 2407SOL    HW2 8121   2.497   0.805   3.579
 2408SOL     OW 8122   3.742   6.076   4.952
 2408SOL    HW1 8123   3.745   6.054   4.854
 2408SOL    HW2 8124   3.667   6.026   4.995
 2409SOL     OW 8125   1.550   3.423   1.307
 2409SOL    HW1 8126   1.540   3.516   1.271
 2409SOL    HW2 8127   1.462   3.376   1.303
 2410SOL     OW 8128   0.773   3.203   4.521
 2410SOL    HW1 8129   0.758   3.201   4.620
 2410SOL    HW2 8130   0.771   3.109   4.486
 2411SOL     OW 8131   2.980   3.252   0.032
 2411SOL    HW1 8132   2.947   3.181   6.994
 2411SOL    HW2 8133   3.042   3.314   7.007
 2412SOL     OW 8134   3.648   1.814   6.566
 2412SOL    HW1 8135   3.667   1.727   6.612
 2412SOL    HW2 8136   3.634   1.885   6.634
 2413SOL     OW 8137   0.545   3.404   6.973
 2413SOL    HW1 8138   0.502   3.315   6.991
 2413SOL    HW2 8139   0.539   3.425   6.876
 2414SOL     OW 8140   6.164   2.227   5.153
 2414SOL    HW1 8141   6.075   2.266   5.130
 2414SOL    HW2 8142   6.233   2.299   5.151
 2415SOL     OW 8143   2.751   5.624   0.515
 2415SOL    HW1 8144   2.767   5.559   0.442
 2415SOL    HW2 8145   2.838   5.656   0.551
 2416SOL     OW 8146   0.190   3.423   2.322
 2416SOL    HW1 8147   0.163   3.364   2.397
 2416SOL    HW2 8148   0.253   3.374   2.261
 2417SOL     OW 8149   3.042   2.621   1.737
 2417SOL    HW1 8150   2.966   2.657   1.683
 2417SOL    HW2 8151   3.008   2.551   1.800
 2418SOL     OW 8152   4.599   4.170   6.838
 2418SOL    HW1 8153   4.551   4.201   6.756
 2418SOL    HW2 8154   4.533   4.148   6.909
 2419SOL     OW 8155   2.580   6.715   3.437
 2419SOL    HW1 8156   2.577   6.715   3.537
 2419SOL    HW2 8157   2.649   6.780   3.406
 2420SOL     OW 8158   1.224   3.897   2.928
 2420SOL    HW1 8159   1.309   3.870   2.973
 2420SOL    HW2 8160   1.148   3.883   2.991
 2421SOL     OW 8161   3.049   6.558   4.634
 2421SOL    HW1 8162   3.045   6.485   4.702
 2421SOL    HW2 8163   3.121   6.623   4.659
 2422SOL     OW 8164   4.686   5.911   1.267
 2422SOL    HW1 8165   4.657   5.844   1.198
 2422SOL    HW2 8166   4.716   5.995   1.221
 2423SOL     OW 8167   2.562   5.423   2.741
 2423SOL    HW1 8168   2.650   5.456   2.705
 2423SOL    HW2 8169   2.514   5.374   2.669
 2424SOL     OW 8170   5.597   0.341   5.975
 2424SOL    HW1 8171   5.578   0.307   5.883
 2424SOL    HW2 8172   5.553   0.431   5.986
 2425SOL     OW 8173   5.085   5.337   4.918
 2425SOL    HW1 8174   5.042   5.379   4.998
 2425SOL    HW2 8175   5.021   5.337   4.842
 2426SOL     OW 8176   2.242   3.557   5.574
 2426SOL    HW1 8177   2.212   3.651   5.557
 2426SOL    HW2 8178   2.315   3.558   5.642
 2427SOL     OW 8179   5.313   0.992   6.575
 2427SOL    HW1 8180   5.284   0.946   6.658
 2427SOL    HW2 8181   5.410   1.013   6.580
 2428SOL     OW 8182   1.253   0.652   3.036
 2428SOL    HW1 8183   1.288   0.718   2.969
 2428SOL    HW2 8184   1.154   0.640   3.023
 2429SOL     OW 8185   5.580   5.285   1.637
 2429SOL    HW1 8186   5.635   5.234   1.703
 2429SOL    HW2 8187   5.638   5.316   1.562
 2430SOL     OW 8188   5.971   1.255   6.557
 2430SOL    HW1 8189   5.905   1.324   6.587
 2430SOL    HW2 8190   6.064   1.291   6.566
 2431SOL     OW 8191   0.188   2.949   1.564
 2431SOL    HW1 8192   0.281   2.914   1.577
 2431SOL    HW2 8193   0.131   2.922   1.641
 2432SOL     OW 8194   2.903   5.331   1.875
 2432SOL    HW1 8195   2.985   5.363   1.828
 2432SOL    HW2 8196   2.929   5.270   1.950
 2433SOL     OW 8197   6.510   3.939   5.475
 2433SOL    HW1 8198   6.566   3.984   5.406
 2433SOL    HW2 8199   6.427   3.902   5.433
 2434SOL     OW 8200   4.769   0.975   2.909
 2434SOL    HW1 8201   4.671   0.951   2.903
 2434SOL    HW2 8202   4.805   0.991   2.817
 2435SOL     OW 8203   6.382   6.839   6.779
 2435SOL    HW1 8204   6.412   6.756   6.733
 2435SOL    HW2 8205   6.302   6.876   6.732
 2436SOL     OW 8206   2.162   2.101   1.928
 2436SOL    HW1 8207   2.137   2.150   1.845
 2436SOL    HW2 8208   2.136   2.005   1.919
 2437SOL     OW 8209   0.049   4.499   2.574
 2437SOL    HW1 8210   0.148   4.508   2.580
 2437SOL    HW2 8211   0.006   4.551   2.648
 2438SOL     OW 8212   3.160   1.111   4.667
 2438SOL    HW1 8213   3.210   1.096   4.752
 2438SOL    HW2 8214   3.217   1.084   4.590
 2439SOL     OW 8215   1.516   6.716   1.580
 2439SOL    HW1 8216   1.426   6.708   1.536
 2439SOL    HW2 8217   1.566   6.793   1.540
 2440SOL     OW 8218   5.512   1.316   5.348
 2440SOL    HW1 8219   5.589   1.325   5.410
 2440SOL    HW2 8220   5.533   1.248   5.277
 2441SOL     OW 8221   6.986   0.097   0.148
 2441SOL    HW1 8222   6.938   0.022   0.101
 2441SOL    HW2 8223   0.041   0.124   0.094
 2442SOL     OW 8224   4.842   3.445   1.810
 2442SOL    HW1 8225   4.802   3.358   1.781
 2442SOL    HW2 8226   4.907   3.429   1.885
 2443SOL     OW 8227   0.648   2.739   1.487
 2443SOL    HW1 8228   0.727   2.735   1.549
 2443SOL    HW2 8229   0.599   2.825   1.502
 2444SOL     OW 8230   3.826   5.741   2.239
 2444SOL    HW1 8231   3.845   5.755   2.142
 2444SOL    HW2 8232   3.881   5.664   2.273
 2445SOL     OW 8233   0.036   2.566   1.127
 2445SOL    HW1 8234   0.039   2.644   1.190
 2445SOL    HW2 8235   6.982   2.508   1.149
 2446SOL     OW 8236   1.469   4.853   1.193
 2446SOL    HW1 8237   1.560   4.827   1.161
 2446SOL    HW2 8238   1.445   4.942   1.153
 2447SOL     OW 8239   2.340   6.463   6.974
 2447SOL    HW1 8240   2.291   6.446   6.888
 2447SOL    HW2 8241   2.428   6.505   6.955
 2448SOL     OW 8242   6.605   1.511   4.256
 2448SOL    HW1 8243   6.699   1.481   4.271
 2448SOL    HW2 8244   6.603   1.577   4.181
 2449SOL     OW 8245   1.551   3.997   1.573
 2449SOL    HW1 8246   1.624   3.932   1.595
 2449SOL    HW2 8247   1.574   4.087   1.609
 2450SOL     OW 8248   1.372   6.666   5.980
 2450SOL    HW1 8249   1.416   6.591   5.931
 2450SOL    HW2 8250   1.278   6.642   6.002
 2451SOL     OW 8251   1.318   6.910   4.648
 2451SOL    HW1 8252   1.384   6.854   4.697
 2451SOL    HW2 8253   1.239   6.928   4.707
 2452SOL     OW 8254   2.445   1.596   3.890
 2452SOL    HW1 8255   2.408   1.506   3.912
 2452SOL    HW2 8256   2.370   1.663   3.890
 2453SOL     OW 8257   1.013   1.191   6.600
 2453SOL    HW1 8258   1.036   1.099   6.631
 2453SOL    HW2 8259   1.095   1.248   6.599
 2454SOL     OW 8260   3.117   5.727   1.337
 2454SOL    HW1 8261   3.061   5.645   1.325
 2454SOL    HW2 8262   3.060   5.808   1.319
 2455SOL     OW 8263   3.622   2.890   0.614
 2455SOL    HW1 8264   3.570   2.927   0.691
 2455SOL    HW2 8265   3.706   2.943   0.602
 2456SOL     OW 8266   0.992   4.415   6.306
 2456SOL    HW1 8267   1.056   4.404   6.230
 2456SOL    HW2 8268   0.937   4.498   6.292
 2457SOL     OW 8269   4.792   2.180   5.085
 2457SOL    HW1 8270   4.733   2.260   5.079
 2457SOL    HW2 8271   4.834   2.175   5.176
 2458SOL     OW 8272   1.129   0.685   1.786
 2458SOL    HW1 8273   1.202   0.624   1.817
 2458SOL    HW2 8274   1.147   0.777   1.821
 2459SOL     OW 8275   2.394   6.382   0.819
 2459SOL    HW1 8276   2.475   6.439   0.805
 2459SOL    HW2 8277   2.314   6.426   0.779
 2460SOL     OW 8278   1.467   0.999   5.091
 2460SOL    HW1 8279   1.432   1.090   5.069
 2460SOL    HW2 8280   1.476   0.946   5.007
 2461SOL     OW 8281   4.412   1.048   3.721
 2461SOL    HW1 8282   4.320   1.016   3.699
 2461SOL    HW2 8283   4.407   1.135   3.769
 2462SOL     OW 8284   0.355   3.399   0.799
 2462SOL    HW1 8285   0.269   3.438   0.765
 2462SOL    HW2 8286   0.362   3.413   0.897
 2463SOL     OW 8287   6.620   1.109   6.926
 2463SOL    HW1 8288   6.540   1.082   6.873
 2463SOL    HW2 8289   6.700   1.059   6.894
 2464SOL     OW 8290   0.427   2.439   2.976
 2464SOL    HW1 8291   0.332   2.443   2.944
 2464SOL    HW2 8292   0.435   2.370   3.048
 2465SOL     OW 8293   0.541   5.128   5.669
 2465SOL    HW1 8294   0.558   5.190   5.592
 2465SOL    HW2 8295   0.445   5.099   5.668
 2466SOL     OW 8296   0.941   2.496   1.842
 2466SOL    HW1 8297   0.870   2.521   1.908
 2466SOL    HW2 8298   1.028   2.483   1.890
 2467SOL     OW 8299   5.854   2.207   5.452
 2467SOL    HW1 8300   5.902   2.196   5.366
 2467SOL    HW2 8301   5.755   2.205   5.436
 2468SOL     OW 8302   3.158   6.677   5.323
 2468SOL    HW1 8303   3.222   6.681   5.399
 2468SOL    HW2 8304   3.164   6.587   5.279
 2469SOL     OW 8305   3.419   2.167   5.902
 2469SOL    HW1 8306   3.350   2.156   5.973
 2469SOL    HW2 8307   3.381   2.218   5.825
 2470SOL     OW 8308   2.807   4.826   6.502
 2470SOL    HW1 8309   2.767   4.760   6.438
 2470SOL    HW2 8310   2.851   4.777   6.577
 2471SOL     OW 8311   3.669   5.538   1.620
 2471SOL    HW1 8312   3.625   5.528   1.531
 2471SOL    HW2 8313   3.622   5.609   1.673
 2472SOL     OW 8314   4.899   2.046   4.534
 2472SOL    HW1 8315   4.856   1.965   4.573
 2472SOL    HW2 8316   4.998   2.035   4.533
 2473SOL     OW 8317   0.600   4.447   5.313
 2473SOL    HW1 8318   0.664   4.426   5.387
 2473SOL    HW2 8319   0.574   4.363   5.266
 2474SOL     OW 8320   1.409   5.608   1.503
 2474SOL    HW1 8321   1.317   5.640   1.524
 2474SOL    HW2 8322   1.474   5.650   1.567
 2475SOL     OW 8323   4.898   0.412   0.779
 2475SOL    HW1 8324   4.859   0.352   0.709
 2475SOL    HW2 8325   4.916   0.502   0.738
 2476SOL     OW 8326   5.739   0.971   6.872
 2476SOL    HW1 8327   5.650   0.977   6.916
 2476SOL    HW2 8328   5.775   0.878   6.878
 2477SOL     OW 8329   3.504   0.177   3.557
 2477SOL    HW1 8330   3.411   0.212   3.567
 2477SOL    HW2 8331   3.564   0.251   3.524
 2478SOL     OW 8332   4.461   0.787   3.347
 2478SOL    HW1 8333   4.506   0.869   3.383
 2478SOL    HW2 8334   4.471   0.712   3.413
 2479SOL     OW 8335   0.512   4.230   0.221
 2479SOL    HW1 8336   0.456   4.149   0.204
 2479SOL    HW2 8337   0.599   4.221   0.172
 2480SOL     OW 8338   3.527   2.614   1.337
 2480SOL    HW1 8339   3.563   2.702   1.369
 2480SOL    HW2 8340   3.481   2.567   1.412
 2481SOL     OW 8341   3.116   0.116   1.166
 2481SOL    HW1 8342   3.202   0.079   1.202
 2481SOL    HW2 8343   3.128   0.140   1.069
 2482SOL     OW 8344   5.306   3.220   0.043
 2482SOL    HW1 8345   5.372   3.255   0.110
 2482SOL    HW2 8346   5.351   3.157   7.005
 2483SOL     OW 8347   0.648   1.856   1.142
 2483SOL    HW1 8348   0.584   1.781   1.126
 2483SOL    HW2 8349   0.615   1.939   1.096
 2484SOL     OW 8350   5.487   1.549   1.654
 2484SOL    HW1 8351   5.452   1.562   1.561
 2484SOL    HW2 8352   5.580   1.583   1.659
 2485SOL     OW 8353   5.254   2.736   6.035
 2485SOL    HW1 8354   5.201   2.819   6.050
 2485SOL    HW2 8355   5.336   2.738   6.092
 2486SOL     OW 8356   0.612   3.978   5.136
 2486SOL    HW1 8357   0.540   3.982   5.206
 2486SOL    HW2 8358   0.683   3.913   5.165
 2487SOL     OW 8359   4.538   5.764   0.284
 2487SOL    HW1 8360   4.444   5.776   0.250
 2487SOL    HW2 8361   4.560   5.838   0.348
 2488SOL     OW 8362   6.698   3.916   1.594
 2488SOL    HW1 8363   6.745   3.877   1.673
 2488SOL    HW2 8364   6.715   3.859   1.514
 2489SOL     OW 8365   0.641   5.985   4.270
 2489SOL    HW1 8366   0.558   6.038   4.286
 2489SOL    HW2 8367   0.668   5.993   4.174
 2490SOL     OW 8368   3.318   6.084   2.051
 2490SOL    HW1 8369   3.223   6.056   2.037
 2490SOL    HW2 8370   3.325   6.138   2.135
 2491SOL     OW 8371   4.147   4.575   1.776
 2491SOL    HW1 8372   4.230   4.563   1.830
 2491SOL    HW2 8373   4.150   4.517   1.695
 2492SOL     OW 8374   6.245   4.046   0.841
 2492SOL    HW1 8375   6.323   4.036   0.903
 2492SOL    HW2 8376   6.162   4.016   0.887
 2493SOL     OW 8377   6.726   6.277   1.419
 2493SOL    HW1 8378   6.694   6.246   1.329
 2493SOL    HW2 8379   6.794   6.349   1.408
 2494SOL     OW 8380   6.162   2.583   1.659
 2494SOL    HW1 8381   6.240   2.584   1.597
 2494SOL    HW2 8382   6.177   2.515   1.731
 2495SOL     OW 8383   6.642   5.545   3.602
 2495SOL    HW1 8384   6.684   5.635   3.592
 2495SOL    HW2 8385   6.674   5.502   3.686
 2496SOL     OW 8386   6.687   5.082   6.465
 2496SOL    HW1 8387   6.785   5.064   6.477
 2496SOL    HW2 8388   6.668   5.176   6.491
 2497SOL     OW 8389   0.217   6.565   2.146
 2497SOL    HW1 8390   0.200   6.613   2.060
 2497SOL    HW2 8391   0.214   6.631   2.221
 2498SOL     OW 8392   2.242   2.685   5.612
 2498SOL    HW1 8393   2.325   2.740   5.601
 2498SOL    HW2 8394   2.173   2.739   5.661
 2499SOL     OW 8395   6.536   3.670   1.079
 2499SOL    HW1 8396   6.472   3.641   1.150
 2499SOL    HW2 8397   6.616   3.713   1.121
 2500SOL     OW 8398   3.006   3.828   6.530
 2500SOL    HW1 8399   3.092   3.815   6.579
 2500SOL    HW2 8400   3.018   3.894   6.457
 2501SOL     OW 8401   5.956   5.243   0.440
 2501SOL    HW1 8402   6.043   5.198   0.457
 2501SOL    HW2 8403   5.970   5.321   0.379
 2502SOL     OW 8404   2.790   5.706   4.111
 2502SOL    HW1 8405   2.854   5.716   4.035
 2502SOL    HW2 8406   2.708   5.760   4.093
 2503SOL     OW 8407   2.752   6.948   5.053
 2503SOL    HW1 8408   2.784   6.903   4.970
 2503SOL    HW2 8409   2.822   6.938   5.125
 2504SOL     OW 8410   3.220   5.590   2.328
 2504SOL    HW1 8411   3.302   5.578   2.271
 2504SOL    HW2 8412   3.225   5.527   2.405
 2505SOL     OW 8413   6.748   6.406   2.671
 2505SOL    HW1 8414   6.705   6.457   2.745
 2505SOL    HW2 8415   6.703   6.316   2.662
 2506SOL     OW 8416   6.104   4.728   5.786
 2506SOL    HW1 8417   6.051   4.799   5.831
 2506SOL    HW2 8418   6.047   4.648   5.771
 2507SOL     OW 8419   6.959   3.566   0.459
 2507SOL    HW1 8420   6.881   3.521   0.414
 2507SOL    HW2 8421   0.010   3.575   0.394
 2508SOL     OW 8422   3.636   1.606   4.667
 2508SOL    HW1 8423   3.539   1.628   4.657
 2508SOL    HW2 8424   3.647   1.527   4.727
 2509SOL     OW 8425   6.934   3.619   6.116
 2509SOL    HW1 8426   6.916   3.534   6.066
 2509SOL    HW2 8427   6.848   3.669   6.128
 2510SOL     OW 8428   3.123   4.074   1.811
 2510SOL    HW1 8429   3.223   4.083   1.802
 2510SOL    HW2 8430   3.079   4.151   1.765
 2511SOL     OW 8431   2.633   0.705   4.941
 2511SOL    HW1 8432   2.573   0.704   5.021
 2511SOL    HW2 8433   2.708   0.769   4.957
 2512SOL     OW 8434   3.727   4.917   5.171
 2512SOL    HW1 8435   3.631   4.924   5.144
 2512SOL    HW2 8436   3.784   4.904   5.091
 2513SOL     OW 8437   2.060   6.472   5.854
 2513SOL    HW1 8438   2.095   6.491   5.945
 2513SOL    HW2 8439   1.971   6.517   5.843
 2514SOL     OW 8440   1.061   2.839   3.355
 2514SOL    HW1 8441   1.014   2.907   3.411
 2514SOL    HW2 8442   1.100   2.768   3.415
 2515SOL     OW 8443   1.890   0.983   1.259
 2515SOL    HW1 8444   1.927   1.034   1.336
 2515SOL    HW2 8445   1.964   0.933   1.213
 2516SOL     OW 8446   5.688   1.592   3.337
 2516SOL    HW1 8447   5.668   1.681   3.377
 2516SOL    HW2 8448   5.665   1.593   3.239
 2517SOL     OW 8449   1.211   0.985   4.662
 2517SOL    HW1 8450   1.147   0.982   4.738
 2517SOL    HW2 8451   1.159   0.992   4.576
 2518SOL     OW 8452   2.412   4.692   1.143
 2518SOL    HW1 8453   2.471   4.629   1.193
 2518SOL    HW2 8454   2.386   4.769   1.201
 2519SOL     OW 8455   2.407   1.321   1.359
 2519SOL    HW1 8456   2.400   1.420   1.346
 2519SOL    HW2 8457   2.487   1.300   1.414
 2520SOL     OW 8458   3.093   2.599   1.151
 2520SOL    HW1 8459   3.012   2.579   1.096
 2520SOL    HW2 8460   3.135   2.684   1.119
 2521SOL     OW 8461   4.020   1.509   5.536
 2521SOL    HW1 8462   4.113   1.481   5.560
 2521SOL    HW2 8463   4.022   1.599   5.493
 2522SOL     OW 8464   1.072   1.454   5.599
 2522SOL    HW1 8465   1.000   1.425   5.536
 2522SOL    HW2 8466   1.030   1.485   5.684
 2523SOL     OW 8467   1.656   4.585   0.657
 2523SOL    HW1 8468   1.753   4.608   0.651
 2523SOL    HW2 8469   1.645   4.492   0.690
 2524SOL     OW 8470   1.698   6.589   4.546
 2524SOL    HW1 8471   1.692   6.502   4.595
 2524SOL    HW2 8472   1.758   6.651   4.596
 2525SOL     OW 8473   0.814   2.641   4.331
 2525SOL    HW1 8474   0.760   2.714   4.373
 2525SOL    HW2 8475   0.909   2.669   4.325
 2526SOL     OW 8476   0.884   5.411   6.653
 2526SOL    HW1 8477   0.947   5.351   6.703
 2526SOL    HW2 8478   0.933   5.455   6.578
 2527SOL     OW 8479   5.346   5.618   5.889
 2527SOL    HW1 8480   5.250   5.647   5.885
 2527SOL    HW2 8481   5.361   5.564   5.971
 2528SOL     OW 8482   5.320   5.166   5.899
 2528SOL    HW1 8483   5.278   5.238   5.954
 2528SOL    HW2 8484   5.384   5.114   5.955
 2529SOL     OW 8485   0.480   6.930   6.172
 2529SOL    HW1 8486   0.446   6.892   6.086
 2529SOL    HW2 8487   0.512   6.856   6.230
 2530SOL     OW 8488   2.791   5.425   5.505
 2530SOL    HW1 8489   2.890   5.432   5.503
 2530SOL    HW2 8490   2.762   5.346   5.451
 2531SOL     OW 8491   6.260   5.641   5.537
 2531SOL    HW1 8492   6.248   5.724   5.483
 2531SOL    HW2 8493   6.200   5.644   5.617
 2532SOL     OW 8494   0.841   6.213   1.145
 2532SOL    HW1 8495   0.921   6.181   1.195
 2532SOL    HW2 8496   0.766   6.231   1.209
 2533SOL     OW 8497   5.200   0.847   3.283
 2533SOL    HW1 8498   5.218   0.889   3.373
 2533SOL    HW2 8499   5.283   0.852   3.228
 2534SOL     OW 8500   4.395   1.906   1.828
 2534SOL    HW1 8501   4.321   1.892   1.894
 2534SOL    HW2 8502   4.398   2.002   1.800
 2535SOL     OW 8503   3.405   2.657   6.493
 2535SOL    HW1 8504   3.430   2.667   6.589
 2535SOL    HW2 8505   3.487   2.634   6.440
 2536SOL     OW 8506   1.883   0.299   6.714
 2536SOL    HW1 8507   1.903   0.262   6.623
 2536SOL    HW2 8508   1.921   0.238   6.784
 2537SOL     OW 8509   4.016   0.992   7.005
 2537SOL    HW1 8510   4.021   0.932   0.060
 2537SOL    HW2 8511   3.924   1.030   6.998
 2538SOL     OW 8512   0.194   3.829   3.578
 2538SOL    HW1 8513   0.206   3.876   3.665
 2538SOL    HW2 8514   0.107   3.781   3.578
 2539SOL     OW 8515   6.142   1.019   4.150
 2539SOL    HW1 8516   6.107   0.980   4.235
 2539SOL    HW2 8517   6.242   1.015   4.151
 2540SOL     OW 8518   3.682   1.784   3.051
 2540SOL    HW1 8519   3.703   1.864   3.107
 2540SOL    HW2 8520   3.677   1.703   3.109
 2541SOL     OW 8521   3.086   0.217   4.860
 2541SOL    HW1 8522   3.177   0.182   4.840
 2541SOL    HW2 8523   3.090   0.281   4.936
 2542SOL     OW 8524   1.668   4.369   6.635
 2542SOL    HW1 8525   1.572   4.357   6.662
 2542SOL    HW2 8526   1.674   4.372   6.535
 2543SOL     OW 8527   0.800   2.165   4.340
 2543SOL    HW1 8528   0.860   2.219   4.400
 2543SOL    HW2 8529   0.705   2.189   4.358
 2544SOL     OW 8530   0.992   4.991   0.774
 2544SOL    HW1 8531   0.900   4.956   0.755
 2544SOL    HW2 8532   1.018   5.056   0.703
 2545SOL     OW 8533   1.476   6.744   2.665
 2545SOL    HW1 8534   1.533   6.662   2.659
 2545SOL    HW2 8535   1.490   6.787   2.754
 2546SOL     OW 8536   5.727   1.386   0.580
 2546SOL    HW1 8537   5.789   1.325   0.530
 2546SOL    HW2 8538   5.677   1.334   0.648
 2547SOL     OW 8539   0.169   3.471   5.959
 2547SOL    HW1 8540   0.238   3.527   6.005
 2547SOL    HW2 8541   0.210   3.425   5.880
 2548SOL     OW 8542   1.237   6.317   4.349
 2548SOL    HW1 8543   1.146   6.318   4.391
 2548SOL    HW2 8544   1.229   6.333   4.250
 2549SOL     OW 8545   0.537   0.284   1.402
 2549SOL    HW1 8546   0.509   0.192   1.377
 2549SOL    HW2 8547   0.577   0.330   1.322
 2550SOL     OW 8548   5.758   6.548   0.686
 2550SOL    HW1 8549   5.702   6.483   0.634
 2550SOL    HW2 8550   5.854   6.534   0.664
 2551SOL     OW 8551   2.327   4.262   6.945
 2551SOL    HW1 8552   2.267   4.304   6.877
 2551SOL    HW2 8553   2.296   4.286   0.012
 2552SOL     OW 8554   2.854   4.813   3.981
 2552SOL    HW1 8555   2.848   4.793   3.883
 2552SOL    HW2 8556   2.950   4.808   4.010
 2553SOL     OW 8557   4.031   3.850   6.150
 2553SOL    HW1 8558   4.072   3.932   6.109
 2553SOL    HW2 8559   4.040   3.773   6.086
 2554SOL     OW 8560   1.800   2.052   1.185
 2554SOL    HW1 8561   1.888   2.068   1.229
 2554SOL    HW2 8562   1.770   1.958   1.203
 2555SOL     OW 8563   5.136   2.797   4.585
 2555SOL    HW1 8564   5.123   2.710   4.633
 2555SOL    HW2 8565   5.228   2.832   4.604
 2556SOL     OW 8566   4.025   6.035   0.474
 2556SOL    HW1 8567   3.943   6.084   0.445
 2556SOL    HW2 8568   3.999   5.954   0.526
 2557SOL     OW 8569   1.579   3.992   6.797
 2557SOL    HW1 8570   1.644   4.033   6.733
 2557SOL    HW2 8571   1.568   4.051   6.877
 2558SOL     OW 8572   5.108   1.539   5.886
 2558SOL    HW1 8573   5.189   1.482   5.875
 2558SOL    HW2 8574   5.133   1.635   5.878
 2559SOL     OW 8575   0.460   4.702   5.931
 2559SOL    HW1 8576   0.392   4.639   5.968
 2559SOL    HW2 8577   0.419   4.759   5.860
 2560SOL     OW 8578   5.966   2.196   6.103
 2560SOL    HW1 8579   6.063   2.192   6.126
 2560SOL    HW2 8580   5.917   2.245   6.174
 2561SOL     OW 8581   3.324   5.213   4.985
 2561SOL    HW1 8582   3.399   5.241   4.925
 2561SOL    HW2 8583   3.358   5.203   5.078
 2562SOL     OW 8584   2.522   3.864   0.536
 2562SOL    HW1 8585   2.429   3.896   0.516
 2562SOL    HW2 8586   2.567   3.838   0.450
 2563SOL     OW 8587   2.848   0.833   0.380
 2563SOL    HW1 8588   2.923   0.900   0.379
 2563SOL    HW2 8589   2.827   0.807   0.286
 2564SOL     OW 8590   2.084   5.457   0.687
 2564SOL    HW1 8591   2.054   5.364   0.704
 2564SOL    HW2 8592   2.183   5.463   0.700
 2565SOL     OW 8593   1.296   1.051   1.086
 2565SOL    HW1 8594   1.332   0.958   1.080
 2565SOL    HW2 8595   1.294   1.092   0.995
 2566SOL     OW 8596   2.242   6.807   0.412
 2566SOL    HW1 8597   2.165   6.828   0.351
 2566SOL    HW2 8598   2.279   6.717   0.389
 2567SOL     OW 8599   1.690   6.935   0.555
 2567SOL    HW1 8600   1.732   6.968   0.640
 2567SOL    HW2 8601   1.759   6.893   0.497
 2568SOL     OW 8602   4.227   1.865   6.975
 2568SOL    HW1 8603   4.323   1.838   6.982
 2568SOL    HW2 8604   4.222   1.961   6.945
 2569SOL     OW 8605   3.710   0.497   3.942
 2569SOL    HW1 8606   3.669   0.457   3.861
 2569SOL    HW2 8607   3.639   0.519   4.008
 2570SOL     OW 8608   5.768   1.458   5.467
 2570SOL    HW1 8609   5.777   1.536   5.405
 2570SOL    HW2 8610   5.841   1.392   5.446
 2571SOL     OW 8611   1.274   5.002   3.895
 2571SOL    HW1 8612   1.283   5.029   3.800
 2571SOL    HW2 8613   1.224   4.915   3.900
 2572SOL     OW 8614   2.925   5.162   2.754
 2572SOL    HW1 8615   2.947   5.156   2.851
 2572SOL    HW2 8616   2.938   5.256   2.722
 2573SOL     OW 8617   0.178   1.240   1.314
 2573SOL    HW1 8618   0.244   1.225   1.241
 2573SOL    HW2 8619   0.225   1.274   1.395
 2574SOL     OW 8620   6.186   3.390   0.574
 2574SOL    HW1 8621   6.280   3.361   0.592
 2574SOL    HW2 8622   6.137   3.397   0.661
 2575SOL     OW 8623   6.428   5.940   0.191
 2575SOL    HW1 8624   6.368   5.940   0.272
 2575SOL    HW2 8625   6.422   6.029   0.145
 2576SOL     OW 8626   4.764   6.078   3.927
 2576SOL    HW1 8627   4.708   6.088   3.845
 2576SOL    HW2 8628   4.707   6.047   4.003
 2577SOL     OW 8629   2.951   4.923   2.358
 2577SOL    HW1 8630   2.906   4.908   2.270
 2577SOL    HW2 8631   2.920   5.010   2.396
 2578SOL     OW 8632   3.819   1.467   4.405
 2578SOL    HW1 8633   3.735   1.420   4.434
 2578SOL    HW2 8634   3.885   1.466   4.481
 2579SOL     OW 8635   0.621   0.085   3.814
 2579SOL    HW1 8636   0.715   0.049   3.809
 2579SOL    HW2 8637   0.565   0.041   3.745
 2580SOL     OW 8638   2.828   3.998   0.381
 2580SOL    HW1 8639   2.884   4.081   0.377
 2580SOL    HW2 8640   2.777   3.989   0.295
 2581SOL     OW 8641   3.127   6.868   5.689
 2581SOL    HW1 8642   3.056   6.904   5.749
 2581SOL    HW2 8643   3.086   6.804   5.624
 2582SOL     OW 8644   6.725   3.703   1.397
 2582SOL    HW1 8645   6.724   3.745   1.306
 2582SOL    HW2 8646   6.815   3.662   1.413
 2583SOL     OW 8647   6.076   6.636   0.746
 2583SOL    HW1 8648   6.125   6.553   0.775
 2583SOL    HW2 8649   6.064   6.697   0.824
 2584SOL     OW 8650   4.620   4.998   5.618
 2584SOL    HW1 8651   4.618   4.977   5.716
 2584SOL    HW2 8652   4.625   4.913   5.565
 2585SOL     OW 8653   3.291   5.442   6.631
 2585SOL    HW1 8654   3.245   5.529   6.611
 2585SOL    HW2 8655   3.373   5.459   6.685
 2586SOL     OW 8656   1.981   0.476   5.258
 2586SOL    HW1 8657   1.920   0.533   5.313
 2586SOL    HW2 8658   1.928   0.411   5.204
 2587SOL     OW 8659   0.337   1.613   2.739
 2587SOL    HW1 8660   0.265   1.671   2.778
 2587SOL    HW2 8661   0.381   1.661   2.662
 2588SOL     OW 8662   4.116   2.023   5.120
 2588SOL    HW1 8663   4.098   2.072   5.035
 2588SOL    HW2 8664   4.160   1.936   5.100
 2589SOL     OW 8665   1.374   6.302   6.865
 2589SOL    HW1 8666   1.409   6.377   6.922
 2589SOL    HW2 8667   1.296   6.334   6.811
 2590SOL     OW 8668   2.402   4.940   0.040
 2590SOL    HW1 8669   2.380   4.880   0.117
 2590SOL    HW2 8670   2.451   4.888   6.995
 2591SOL     OW 8671   6.440   5.663   4.281
 2591SOL    HW1 8672   6.444   5.583   4.341
 2591SOL    HW2 8673   6.531   5.702   4.271
 2592SOL     OW 8674   2.479   4.476   6.315
 2592SOL    HW1 8675   2.383   4.502   6.306
 2592SOL    HW2 8676   2.497   4.447   6.409
 2593SOL     OW 8677   2.749   5.404   0.682
 2593SOL    HW1 8678   2.830   5.393   0.625
 2593SOL    HW2 8679   2.692   5.477   0.645
 2594SOL     OW 8680   1.451   4.445   4.871
 2594SOL    HW1 8681   1.548   4.455   4.850
 2594SOL    HW2 8682   1.437   4.362   4.926
 2595SOL     OW 8683   1.867   0.881   4.315
 2595SOL    HW1 8684   1.901   0.975   4.315
 2595SOL    HW2 8685   1.770   0.881   4.339
 2596SOL     OW 8686   1.247   2.234   0.586
 2596SOL    HW1 8687   1.214   2.325   0.558
 2596SOL    HW2 8688   1.184   2.195   0.652
 2597SOL     OW 8689   0.491   6.285   6.466
 2597SOL    HW1 8690   0.588   6.278   6.492
 2597SOL    HW2 8691   0.482   6.270   6.368
 2598SOL     OW 8692   5.441   2.448   2.140
 2598SOL    HW1 8693   5.485   2.372   2.093
 2598SOL    HW2 8694   5.353   2.467   2.096
 2599SOL     OW 8695   3.043   7.022   2.520
 2599SOL    HW1 8696   3.126   6.968   2.528
 2599SOL    HW2 8697   3.006   7.012   2.428
 2600SOL     OW 8698   6.433   4.469   4.641
 2600SOL    HW1 8699   6.396   4.446   4.552
 2600SOL    HW2 8700   6.482   4.390   4.679
 2601SOL     OW 8701   1.338   1.850   2.542
 2601SOL    HW1 8702   1.393   1.912   2.486
 2601SOL    HW2 8703   1.321   1.893   2.631
 2602SOL     OW 8704   1.913   4.968   4.304
 2602SOL    HW1 8705   1.819   4.952   4.334
 2602SOL    HW2 8706   1.976   4.938   4.375
 2603SOL     OW 8707   2.891   1.132   2.794
 2603SOL    HW1 8708   2.828   1.055   2.796
 2603SOL    HW2 8709   2.840   1.218   2.802
 2604SOL     OW 8710   5.586   2.092   2.651
 2604SOL    HW1 8711   5.586   2.188   2.679
 2604SOL    HW2 8712   5.652   2.079   2.577
 2605SOL     OW 8713   1.244   3.599   1.800
 2605SOL    HW1 8714   1.288   3.664   1.863
 2605SOL    HW2 8715   1.222   3.645   1.714
 2606SOL     OW 8716   4.400   4.256   0.679
 2606SOL    HW1 8717   4.393   4.331   0.745
 2606SOL    HW2 8718   4.389   4.169   0.728
 2607SOL     OW 8719   2.283   1.777   0.977
 2607SOL    HW1 8720   2.300   1.680   0.992
 2607SOL    HW2 8721   2.301   1.828   1.061
 2608SOL     OW 8722   3.154   5.804   6.421
 2608SOL    HW1 8723   3.201   5.885   6.387
 2608SOL    HW2 8724   3.055   5.815   6.409
 2609SOL     OW 8725   0.689   0.016   1.333
 2609SOL    HW1 8726   0.735   0.065   1.259
 2609SOL    HW2 8727   0.754   6.977   1.376
 2610SOL     OW 8728   1.508   5.026   4.366
 2610SOL    HW1 8729   1.534   4.943   4.316
 2610SOL    HW2 8730   1.589   5.066   4.409
 2611SOL     OW 8731   5.571   6.551   6.675
 2611SOL    HW1 8732   5.628   6.484   6.627
 2611SOL    HW2 8733   5.564   6.634   6.620
 2612SOL     OW 8734   5.631   0.261   5.413
 2612SOL    HW1 8735   5.550   0.292   5.362
 2612SOL    HW2 8736   5.658   0.170   5.381
 2613SOL     OW 8737   0.618   6.011   6.737
 2613SOL    HW1 8738   0.524   6.045   6.734
 2613SOL    HW2 8739   0.624   5.926   6.686
 2614SOL     OW 8740   6.367   0.795   6.207
 2614SOL    HW1 8741   6.449   0.840   6.241
 2614SOL    HW2 8742   6.356   0.706   6.252
 2615SOL     OW 8743   1.215   3.237   0.621
 2615SOL    HW1 8744   1.227   3.226   0.522
 2615SOL    HW2 8745   1.293   3.287   0.658
 2616SOL     OW 8746   1.796   0.181   5.671
 2616SOL    HW1 8747   1.747   0.181   5.758
 2616SOL    HW2 8748   1.852   0.263   5.664
 2617SOL     OW 8749   5.459   0.069   0.996
 2617SOL    HW1 8750   5.386   0.023   0.945
 2617SOL    HW2 8751   5.541   0.012   0.995
 2618SOL     OW 8752   2.043   6.331   6.154
 2618SOL    HW1 8753   1.991   6.302   6.234
 2618SOL    HW2 8754   2.047   6.430   6.150
 2619SOL     OW 8755   5.005   1.535   2.312
 2619SOL    HW1 8756   5.015   1.617   2.368
 2619SOL    HW2 8757   5.036   1.554   2.218
 2620SOL     OW 8758   6.971   6.466   1.631
 2620SOL    HW1 8759   6.893   6.480   1.570
 2620SOL    HW2 8760   6.950   6.506   1.720
 2621SOL     OW 8761   1.596   6.093   2.740
 2621SOL    HW1 8762   1.569   6.061   2.831
 2621SOL    HW2 8763   1.597   6.016   2.677
 2622SOL     OW 8764   3.737   3.515   6.113
 2622SOL    HW1 8765   3.647   3.480   6.086
 2622SOL    HW2 8766   3.729   3.564   6.200
 2623SOL     OW 8767   1.140   6.725   4.032
 2623SOL    HW1 8768   1.088   6.651   3.991
 2623SOL    HW2 8769   1.200   6.765   3.963
 2624SOL     OW 8770   0.089   2.663   4.332
 2624SOL    HW1 8771   0.188   2.669   4.321
 2624SOL    HW2 8772   0.049   2.754   4.334
 2625SOL     OW 8773   2.007   5.283   5.154
 2625SOL    HW1 8774   1.962   5.329   5.078
 2625SOL    HW2 8775   2.099   5.255   5.127
 2626SOL     OW 8776   6.810   5.240   6.234
 2626SOL    HW1 8777   6.852   5.317   6.282
 2626SOL    HW2 8778   6.710   5.249   6.239
 2627SOL     OW 8779   1.852   6.840   5.746
 2627SOL    HW1 8780   1.896   6.833   5.656
 2627SOL    HW2 8781   1.907   6.898   5.806
 2628SOL     OW 8782   1.880   4.102   2.159
 2628SOL    HW1 8783   1.854   4.178   2.218
 2628SOL    HW2 8784   1.836   4.112   2.070
 2629SOL     OW 8785   3.304   4.048   3.568
 2629SOL    HW1 8786   3.294   4.087   3.476
 2629SOL    HW2 8787   3.213   4.027   3.605
 2630SOL     OW 8788   3.916   0.405   4.271
 2630SOL    HW1 8789   3.837   0.461   4.296
 2630SOL    HW2 8790   3.998   0.462   4.272
 2631SOL     OW 8791   5.810   0.857   0.243
 2631SOL    HW1 8792   5.864   0.941   0.229
 2631SOL    HW2 8793   5.867   0.789   0.289
 2632SOL     OW 8794   5.669   4.749   2.036
 2632SOL    HW1 8795   5.672   4.826   2.100
 2632SOL    HW2 8796   5.576   4.738   2.001
 2633SOL     OW 8797   0.084   2.895   6.283
 2633SOL    HW1 8798   7.010   2.911   6.289
 2633SOL    HW2 8799   0.127   2.974   6.238
 2634SOL     OW 8800   6.329   0.114   5.466
 2634SOL    HW1 8801   6.281   0.145   5.384
 2634SOL    HW2 8802   6.400   0.181   5.490
 2635SOL     OW 8803   5.961   5.472   4.097
 2635SOL    HW1 8804   5.902   5.434   4.026
 2635SOL    HW2 8805   5.926   5.562   4.124
 2636SOL     OW 8806   4.566   6.883   5.705
 2636SOL    HW1 8807   4.497   6.914   5.771
 2636SOL    HW2 8808   4.589   6.958   5.644
 2637SOL     OW 8809   1.751   1.530   3.248
 2637SOL    HW1 8810   1.779   1.618   3.288
 2637SOL    HW2 8811   1.712   1.545   3.158
 2638SOL     OW 8812   1.322   6.512   4.532
 2638SOL    HW1 8813   1.293   6.608   4.534
 2638SOL    HW2 8814   1.297   6.472   4.444
 2639SOL     OW 8815   4.073   4.765   5.124
 2639SOL    HW1 8816   4.012   4.809   5.058
 2639SOL    HW2 8817   4.018   4.713   5.189
 2640SOL     OW 8818   1.374   6.178   4.837
 2640SOL    HW1 8819   1.369   6.277   4.824
 2640SOL    HW2 8820   1.464   6.145   4.809
 2641SOL     OW 8821   5.716   2.885   6.495
 2641SOL    HW1 8822   5.764   2.946   6.558
 2641SOL    HW2 8823   5.635   2.931   6.458
 2642SOL     OW 8824   6.925   1.629   3.680
 2642SOL    HW1 8825   6.990   1.705   3.674
 2642SOL    HW2 8826   6.853   1.642   3.612
 2643SOL     OW 8827   1.701   4.626   3.695
 2643SOL    HW1 8828   1.775   4.581   3.745
 2643SOL    HW2 8829   1.709   4.725   3.706
 2644SOL     OW 8830   5.239   5.047   4.519
 2644SOL    HW1 8831   5.298   4.967   4.511
 2644SOL    HW2 8832   5.147   5.023   4.487
 2645SOL     OW 8833   5.387   5.409   3.169
 2645SOL    HW1 8834   5.432   5.333   3.216
 2645SOL    HW2 8835   5.439   5.493   3.184
 2646SOL     OW 8836   0.462   2.970   5.679
 2646SOL    HW1 8837   0.518   2.901   5.634
 2646SOL    HW2 8838   0.513   3.056   5.683
 2647SOL     OW 8839   5.136   0.526   1.840
 2647SOL    HW1 8840   5.117   0.622   1.858
 2647SOL    HW2 8841   5.051   0.473   1.843
 2648SOL     OW 8842   1.225   6.848   5.787
 2648SOL    HW1 8843   1.303   6.822   5.845
 2648SOL    HW2 8844   1.256   6.912   5.717
 2649SOL     OW 8845   4.969   2.910   1.639
 2649SOL    HW1 8846   4.931   2.998   1.668
 2649SOL    HW2 8847   4.914   2.874   1.564
 2650SOL     OW 8848   3.726   6.595   4.555
 2650SOL    HW1 8849   3.715   6.633   4.463
 2650SOL    HW2 8850   3.639   6.554   4.584
 2651SOL     OW 8851   3.825   2.121   4.820
 2651SOL    HW1 8852   3.806   2.084   4.730
 2651SOL    HW2 8853   3.923   2.137   4.830
 2652SOL     OW 8854   5.428   4.906   5.763
 2652SOL    HW1 8855   5.458   4.929   5.670
 2652SOL    HW2 8856   5.362   4.975   5.793
 2653SOL     OW 8857   2.674   6.301   0.482
 2653SOL    HW1 8858   2.656   6.397   0.501
 2653SOL    HW2 8859   2.598   6.245   0.517
 2654SOL     OW 8860   6.063   0.597   0.897
 2654SOL    HW1 8861   5.983   0.537   0.911
 2654SOL    HW2 8862   6.054   0.678   0.955
 2655SOL     OW 8863   4.415   5.676   2.769
 2655SOL    HW1 8864   4.404   5.612   2.846
 2655SOL    HW2 8865   4.435   5.767   2.804
 2656SOL     OW 8866   3.724   5.935   3.659
 2656SOL    HW1 8867   3.647   5.977   3.611
 2656SOL    HW2 8868   3.797   6.002   3.671
 2657SOL     OW 8869   1.573   3.789   0.176
 2657SOL    HW1 8870   1.548   3.728   0.100
 2657SOL    HW2 8871   1.650   3.846   0.148
 2658SOL     OW 8872   4.018   5.218   6.514
 2658SOL    HW1 8873   4.112   5.219   6.547
 2658SOL    HW2 8874   3.975   5.131   6.538
 2659SOL     OW 8875   6.814   1.916   4.525
 2659SOL    HW1 8876   6.835   1.991   4.462
 2659SOL    HW2 8877   6.897   1.891   4.575
 2660SOL     OW 8878   0.967   1.756   2.149
 2660SOL    HW1 8879   1.010   1.826   2.206
 2660SOL    HW2 8880   1.022   1.672   2.153
 2661SOL     OW 8881   2.100   1.127   0.555
 2661SOL    HW1 8882   2.121   1.101   0.460
 2661SOL    HW2 8883   2.030   1.066   0.591
 2662SOL     OW 8884   2.948   0.928   2.397
 2662SOL    HW1 8885   2.976   0.835   2.377
 2662SOL    HW2 8886   2.990   0.990   2.331
 2663SOL     OW 8887   4.546   6.684   0.251
 2663SOL    HW1 8888   4.599   6.762   0.217
 2663SOL    HW2 8889   4.609   6.611   0.279
 2664SOL     OW 8890   4.469   3.322   5.978
 2664SOL    HW1 8891   4.504   3.229   5.977
 2664SOL    HW2 8892   4.396   3.330   6.047
 2665SOL     OW 8893   1.898   3.606   4.440
 2665SOL    HW1 8894   1.948   3.692   4.434
 2665SOL    HW2 8895   1.948   3.542   4.497
 2666SOL     OW 8896   2.228   3.888   1.829
 2666SOL    HW1 8897   2.273   3.842   1.905
 2666SOL    HW2 8898   2.221   3.826   1.751
 2667SOL     OW 8899   6.256   3.697   4.723
 2667SOL    HW1 8900   6.191   3.734   4.790
 2667SOL    HW2 8901   6.267   3.599   4.738
 2668SOL     OW 8902   6.821   1.052   3.978
 2668SOL    HW1 8903   6.814   0.961   4.019
 2668SOL    HW2 8904   6.855   1.044   3.884
 2669SOL     OW 8905   2.566   0.623   0.412
 2669SOL    HW1 8906   2.611   0.710   0.429
 2669SOL    HW2 8907   2.627   0.548   0.436
 2670SOL     OW 8908   0.437   0.169   6.571
 2670SOL    HW1 8909   0.463   0.077   6.600
 2670SOL    HW2 8910   0.422   0.170   6.472
 2671SOL     OW 8911   4.168   4.782   6.578
 2671SOL    HW1 8912   4.228   4.725   6.522
 2671SOL    HW2 8913   4.184   4.763   6.675
 2672SOL     OW 8914   3.521   0.612   1.833
 2672SOL    HW1 8915   3.543   0.514   1.836
 2672SOL    HW2 8916   3.546   0.654   1.920
 2673SOL     OW 8917   4.499   0.821   2.848
 2673SOL    HW1 8918   4.405   0.799   2.822
 2673SOL    HW2 8919   4.527   0.762   2.925
 2674SOL     OW 8920   0.295   4.920   2.161
 2674SOL    HW1 8921   0.323   4.909   2.256
 2674SOL    HW2 8922   0.321   5.011   2.128
 2675SOL     OW 8923   5.614   0.404   4.772
 2675SOL    HW1 8924   5.609   0.502   4.755
 2675SOL    HW2 8925   5.548   0.356   4.715
 2676SOL     OW 8926   3.914   3.849   2.740
 2676SOL    HW1 8927   3.914   3.891   2.649
 2676SOL    HW2 8928   3.894   3.751   2.731
 2677SOL     OW 8929   2.335   4.923   1.268
 2677SOL    HW1 8930   2.257   4.960   1.219
 2677SOL    HW2 8931   2.330   4.950   1.365
 2678SOL     OW 8932   5.185   2.406   2.706
 2678SOL    HW1 8933   5.233   2.336   2.653
 2678SOL    HW2 8934   5.249   2.453   2.766
 2679SOL     OW 8935   2.182   4.693   3.577
 2679SOL    HW1 8936   2.181   4.787   3.609
 2679SOL    HW2 8937   2.229   4.635   3.644
 2680SOL     OW 8938   6.833   1.796   0.196
 2680SOL    HW1 8939   6.797   1.873   0.144
 2680SOL    HW2 8940   6.760   1.754   0.250
 2681SOL     OW 8941   1.685   2.231   5.314
 2681SOL    HW1 8942   1.658   2.155   5.372
 2681SOL    HW2 8943   1.752   2.288   5.362
 2682SOL     OW 8944   3.762   3.992   1.713
 2682SOL    HW1 8945   3.815   4.007   1.629
 2682SOL    HW2 8946   3.723   4.078   1.744
 2683SOL     OW 8947   2.547   4.513   2.522
 2683SOL    HW1 8948   2.612   4.554   2.458
 2683SOL    HW2 8949   2.455   4.516   2.482
 2684SOL     OW 8950   5.931   6.747   3.208
 2684SOL    HW1 8951   6.007   6.777   3.265
 2684SOL    HW2 8952   5.962   6.735   3.114
 2685SOL     OW 8953   1.811   5.782   5.587
 2685SOL    HW1 8954   1.802   5.772   5.488
 2685SOL    HW2 8955   1.811   5.879   5.611
 2686SOL     OW 8956   1.110   1.511   4.648
 2686SOL    HW1 8957   1.104   1.589   4.711
 2686SOL    HW2 8958   1.098   1.544   4.554
 2687SOL     OW 8959   3.765   1.420   1.856
 2687SOL    HW1 8960   3.808   1.502   1.892
 2687SOL    HW2 8961   3.781   1.344   1.919
 2688SOL     OW 8962   3.648   3.182   6.264
 2688SOL    HW1 8963   3.739   3.146   6.246
 2688SOL    HW2 8964   3.579   3.119   6.227
 2689SOL     OW 8965   1.320   3.380   2.495
 2689SOL    HW1 8966   1.350   3.466   2.453
 2689SOL    HW2 8967   1.255   3.400   2.569
 2690SOL     OW 8968   3.891   1.412   5.774
 2690SOL    HW1 8969   3.840   1.375   5.852
 2690SOL    HW2 8970   3.842   1.491   5.738
 2691SOL     OW 8971   6.956   4.299   3.922
 2691SOL    HW1 8972   6.865   4.323   3.888
 2691SOL    HW2 8973   6.975   4.350   4.006
 2692SOL     OW 8974   2.962   5.761   2.802
 2692SOL    HW1 8975   3.002   5.671   2.787
 2692SOL    HW2 8976   2.923   5.766   2.894
 2693SOL     OW 8977   2.206   5.632   3.077
 2693SOL    HW1 8978   2.296   5.608   3.040
 2693SOL    HW2 8979   2.217   5.664   3.171
 2694SOL     OW 8980   3.239   6.932   3.864
 2694SOL    HW1 8981   3.328   6.973   3.843
 2694SOL    HW2 8982   3.190   6.912   3.779
 2695SOL     OW 8983   0.112   5.707   3.480
 2695SOL    HW1 8984   0.159   5.730   3.395
 2695SOL    HW2 8985   0.027   5.659   3.459
 2696SOL     OW 8986   5.052   4.259   6.587
 2696SOL    HW1 8987   5.006   4.345   6.566
 2696SOL    HW2 8988   4.998   4.183   6.551
 2697SOL     OW 8989   3.788   1.977   6.940
 2697SOL    HW1 8990   3.738   2.042   6.883
 2697SOL    HW2 8991   3.728   1.941   7.011
 2698SOL     OW 8992   1.710   4.402   6.027
 2698SOL    HW1 8993   1.743   4.314   6.060
 2698SOL    HW2 8994   1.731   4.412   5.930
 2699SOL     OW 8995   3.444   6.372   2.122
 2699SOL    HW1 8996   3.406   6.326   2.202
 2699SOL    HW2 8997   3.502   6.308   2.071
 2700SOL     OW 8998   3.874   1.818   1.931
 2700SOL    HW1 8999   3.806   1.887   1.907
 2700SOL    HW2 9000   3.846   1.771   2.014
 2701SOL     OW 9001   5.326   3.001   5.176
 2701SOL    HW1 9002   5.254   3.013   5.107
 2701SOL    HW2 9003   5.372   2.914   5.162
 2702SOL     OW 9004   2.457   1.281   4.958
 2702SOL    HW1 9005   2.374   1.336   4.965
 2702SOL    HW2 9006   2.521   1.308   5.029
 2703SOL     OW 9007   1.515   6.936   2.115
 2703SOL    HW1 9008   1.434   6.887   2.147
 2703SOL    HW2 9009   1.565   6.879   2.051
 2704SOL     OW 9010   5.056   0.275   4.440
 2704SOL    HW1 9011   4.966   0.247   4.474
 2704SOL    HW2 9012   5.054   0.373   4.418
 2705SOL     OW 9013   6.974   6.988   5.125
 2705SOL    HW1 9014   7.024   0.030   5.070
 2705SOL    HW2 9015   6.993   7.005   5.222
 2706SOL     OW 9016   6.930   3.716   3.596
 2706SOL    HW1 9017   6.901   3.624   3.624
 2706SOL    HW2 9018   6.929   3.722   3.496
 2707SOL     OW 9019   3.563   0.510   3.220
 2707SOL    HW1 9020   3.583   0.606   3.202
 2707SOL    HW2 9021   3.481   0.483   3.169
 2708SOL     OW 9022   6.018   3.162   6.915
 2708SOL    HW1 9023   6.045   3.248   6.872
 2708SOL    HW2 9024   6.064   3.152   7.003
 2709SOL     OW 9025   4.499   1.247   4.470
 2709SOL    HW1 9026   4.494   1.203   4.380
 2709SOL    HW2 9027   4.502   1.346   4.459
 2710SOL     OW 9028   1.067   2.860   3.787
 2710SOL    HW1 9029   1.147   2.824   3.835
 2710SOL    HW2 9030   0.985   2.837   3.838
 2711SOL     OW 9031   3.513   1.843   2.113
 2711SOL    HW1 9032   3.471   1.918   2.063
 2711SOL    HW2 9033   3.561   1.879   2.193
 2712SOL     OW 9034   3.920   5.751   1.954
 2712SOL    HW1 9035   3.903   5.670   1.897
 2712SOL    HW2 9036   4.017   5.757   1.975
 2713SOL     OW 9037   3.465   4.596   6.666
 2713SOL    HW1 9038   3.406   4.522   6.635
 2713SOL    HW2 9039   3.555   4.559   6.692
 2714SOL     OW 9040   2.338   4.653   6.770
 2714SOL    HW1 9041   2.436   4.668   6.778
 2714SOL    HW2 9042   2.301   4.709   6.695
 2715SOL     OW 9043   4.414   0.909   1.088
 2715SOL    HW1 9044   4.326   0.916   1.040
 2715SOL    HW2 9045   4.407   0.840   1.159
 2716SOL     OW 9046   4.080   1.897   3.203
 2716SOL    HW1 9047   4.170   1.854   3.190
 2716SOL    HW2 9048   4.016   1.828   3.239
 2717SOL     OW 9049   0.965   0.686   3.020
 2717SOL    HW1 9050   0.931   0.744   3.094
 2717SOL    HW2 9051   0.947   0.730   2.932
 2718SOL     OW 9052   0.616   0.522   5.926
 2718SOL    HW1 9053   0.554   0.584   5.880
 2718SOL    HW2 9054   0.568   0.474   5.999
 2719SOL     OW 9055   2.043   3.607   2.487
 2719SOL    HW1 9056   2.042   3.542   2.410
 2719SOL    HW2 9057   2.097   3.687   2.462
 2720SOL     OW 9058   2.244   6.624   5.719
 2720SOL    HW1 9059   2.342   6.631   5.736
 2720SOL    HW2 9060   2.207   6.547   5.772
 2721SOL     OW 9061   3.473   6.061   1.817
 2721SOL    HW1 9062   3.456   6.137   1.753
 2721SOL    HW2 9063   3.427   6.080   1.903
 2722SOL     OW 9064   4.664   6.234   0.085
 2722SOL    HW1 9065   4.656   6.135   0.078
 2722SOL    HW2 9066   4.655   6.275   7.018
 2723SOL     OW 9067   3.292   6.861   0.140
 2723SOL    HW1 9068   3.222   6.906   0.197
 2723SOL    HW2 9069   3.362   6.821   0.200
 2724SOL     OW 9070   0.963   6.060   0.876
 2724SOL    HW1 9071   0.996   5.987   0.936
 2724SOL    HW2 9072   0.964   6.147   0.926
 2725SOL     OW 9073   5.566   3.972   5.210
 2725SOL    HW1 9074   5.644   4.033   5.192
 2725SOL    HW2 9075   5.508   4.012   5.281
 2726SOL     OW 9076   6.720   1.564   1.956
 2726SOL    HW1 9077   6.819   1.575   1.948
 2726SOL    HW2 9078   6.694   1.558   2.053
 2727SOL     OW 9079   1.801   4.230   4.502
 2727SOL    HW1 9080   1.776   4.196   4.593
 2727SOL    HW2 9081   1.855   4.314   4.511
 2728SOL     OW 9082   5.390   6.036   5.868
 2728SOL    HW1 9083   5.449   6.109   5.902
 2728SOL    HW2 9084   5.322   6.013   5.938
 2729SOL     OW 9085   5.372   6.167   6.355
 2729SOL    HW1 9086   5.399   6.089   6.412
 2729SOL    HW2 9087   5.441   6.239   6.362
 2730SOL     OW 9088   0.913   5.756   2.118
 2730SOL    HW1 9089   0.857   5.804   2.185
 2730SOL    HW2 9090   0.939   5.820   2.046
 2731SOL     OW 9091   3.320   3.713   4.306
 2731SOL    HW1 9092   3.286   3.667   4.388
 2731SOL    HW2 9093   3.308   3.653   4.227
 2732SOL     OW 9094   5.412   1.618   1.929
 2732SOL    HW1 9095   5.477   1.695   1.930
 2732SOL    HW2 9096   5.443   1.549   1.864
 2733SOL     OW 9097   1.019   0.174   6.528
 2733SOL    HW1 9098   1.071   0.093   6.556
 2733SOL    HW2 9099   0.959   0.150   6.452
 2734SOL     OW 9100   3.352   6.196   1.533
 2734SOL    HW1 9101   3.372   6.168   1.439
 2734SOL    HW2 9102   3.262   6.162   1.560
 2735SOL     OW 9103   0.588   1.343   2.134
 2735SOL    HW1 9104   0.688   1.349   2.139
 2735SOL    HW2 9105   0.557   1.376   2.046
 2736SOL     OW 9106   5.344   4.492   2.911
 2736SOL    HW1 9107   5.293   4.462   2.992
 2736SOL    HW2 9108   5.333   4.591   2.900
 2737SOL     OW 9109   2.353   1.925   6.346
 2737SOL    HW1 9110   2.420   1.994   6.320
 2737SOL    HW2 9111   2.379   1.884   6.434
 2738SOL     OW 9112   5.645   6.485   1.997
 2738SOL    HW1 9113   5.679   6.528   2.081
 2738SOL    HW2 9114   5.681   6.534   1.918
 2739SOL     OW 9115   0.734   5.787   1.605
 2739SOL    HW1 9116   0.813   5.848   1.617
 2739SOL    HW2 9117   0.723   5.730   1.686
 2740SOL     OW 9118   6.478   5.555   3.310
 2740SOL    HW1 9119   6.424   5.639   3.310
 2740SOL    HW2 9120   6.516   5.539   3.401
 2741SOL     OW 9121   1.028   1.226   4.949
 2741SOL    HW1 9122   1.029   1.317   4.989
 2741SOL    HW2 9123   0.992   1.230   4.856
 2742SOL     OW 9124   3.363   5.430   1.577
 2742SOL    HW1 9125   3.333   5.524   1.564
 2742SOL    HW2 9126   3.364   5.382   1.489
 2743SOL     OW 9127   5.217   3.977   2.911
 2743SOL    HW1 9128   5.153   3.948   2.982
 2743SOL    HW2 9129   5.297   4.020   2.953
 2744SOL     OW 9130   3.301   3.903   3.278
 2744SOL    HW1 9131   3.367   3.978   3.284
 2744SOL    HW2 9132   3.286   3.864   3.369
 2745SOL     OW 9133   0.312   0.058   6.337
 2745SOL    HW1 9134   0.242   0.085   6.270
 2745SOL    HW2 9135   0.388   0.015   6.290
 2746SOL     OW 9136   1.978   0.833   3.649
 2746SOL    HW1 9137   1.882   0.808   3.650
 2746SOL    HW2 9138   2.033   0.757   3.684
 2747SOL     OW 9139   3.917   5.859   0.720
 2747SOL    HW1 9140   3.916   5.875   0.819
 2747SOL    HW2 9141   4.007   5.826   0.693
 2748SOL     OW 9142   4.485   6.785   1.757
 2748SOL    HW1 9143   4.550   6.848   1.715
 2748SOL    HW2 9144   4.427   6.746   1.686
 2749SOL     OW 9145   2.309   3.348   0.085
 2749SOL    HW1 9146   2.234   3.285   0.068
 2749SOL    HW2 9147   2.321   3.409   0.007
 2750SOL     OW 9148   1.898   5.683   1.955
 2750SOL    HW1 9149   1.822   5.622   1.979
 2750SOL    HW2 9150   1.902   5.758   2.021
 2751SOL     OW 9151   6.455   3.297   0.618
 2751SOL    HW1 9152   6.462   3.265   0.713
 2751SOL    HW2 9153   6.494   3.389   0.611
 2752SOL     OW 9154   3.667   4.928   6.783
 2752SOL    HW1 9155   3.718   4.861   6.837
 2752SOL    HW2 9156   3.623   4.881   6.706
 2753SOL     OW 9157   6.395   6.116   5.403
 2753SOL    HW1 9158   6.365   6.170   5.325
 2753SOL    HW2 9159   6.338   6.035   5.411
 2754SOL     OW 9160   1.249   0.135   6.311
 2754SOL    HW1 9161   1.259   0.232   6.334
 2754SOL    HW2 9162   1.229   0.082   6.393
 2755SOL     OW 9163   2.366   0.077   2.314
 2755SOL    HW1 9164   2.454   0.105   2.275
 2755SOL    HW2 9165   2.378   0.049   2.410
 2756SOL     OW 9166   5.038   6.425   0.526
 2756SOL    HW1 9167   5.062   6.338   0.570
 2756SOL    HW2 9168   4.974   6.475   0.584
 2757SOL     OW 9169   0.543   4.914   1.508
 2757SOL    HW1 9170   0.497   4.988   1.557
 2757SOL    HW2 9171   0.558   4.837   1.570
 2758SOL     OW 9172   5.215   0.461   5.343
 2758SOL    HW1 9173   5.298   0.419   5.307
 2758SOL    HW2 9174   5.152   0.481   5.268
 2759SOL     OW 9175   5.711   5.659   4.842
 2759SOL    HW1 9176   5.626   5.697   4.805
 2759SOL    HW2 9177   5.785   5.673   4.776
 2760SOL     OW 9178   2.533   5.251   2.529
 2760SOL    HW1 9179   2.591   5.170   2.533
 2760SOL    HW2 9180   2.575   5.320   2.469
 2761SOL     OW 9181   2.612   6.322   2.873
 2761SOL    HW1 9182   2.588   6.416   2.895
 2761SOL    HW2 9183   2.569   6.260   2.939
 2762SOL     OW 9184   0.696   0.076   5.033
 2762SOL    HW1 9185   0.767   0.135   4.994
 2762SOL    HW2 9186   0.618   0.071   4.971
 2763SOL     OW 9187   5.426   1.884   3.160
 2763SOL    HW1 9188   5.500   1.923   3.215
 2763SOL    HW2 9189   5.458   1.870   3.066
 2764SOL     OW 9190   6.330   0.998   2.181
 2764SOL    HW1 9191   6.379   0.970   2.099
 2764SOL    HW2 9192   6.231   0.995   2.163
 2765SOL     OW 9193   6.382   1.403   2.015
 2765SOL    HW1 9194   6.389   1.412   1.916
 2765SOL    HW2 9195   6.303   1.346   2.038
 2766SOL     OW 9196   6.064   1.038   2.011
 2766SOL    HW1 9197   5.992   1.029   2.079
 2766SOL    HW2 9198   6.064   0.957   1.952
 2767SOL     OW 9199   5.634   4.333   6.569
 2767SOL    HW1 9200   5.655   4.374   6.480
 2767SOL    HW2 9201   5.649   4.401   6.641
 2768SOL     OW 9202   5.325   1.613   6.984
 2768SOL    HW1 9203   5.282   1.681   0.018
 2768SOL    HW2 9204   5.257   1.544   6.958
 2769SOL     OW 9205   0.001   4.164   2.023
 2769SOL    HW1 9206   6.973   4.234   2.072
 2769SOL    HW2 9207   0.094   4.161   2.058
 2770SOL     OW 9208   0.618   5.278   1.963
 2770SOL    HW1 9209   0.672   5.306   2.042
 2770SOL    HW2 9210   0.678   5.264   1.884
 2771SOL     OW 9211   4.959   1.141   1.397
 2771SOL    HW1 9212   5.024   1.070   1.367
 2771SOL    HW2 9213   4.887   1.150   1.328
 2772SOL     OW 9214   2.921   3.041   6.878
 2772SOL    HW1 9215   2.845   3.002   6.826
 2772SOL    HW2 9216   2.991   3.074   6.814
 2773SOL     OW 9217   3.731   3.574   6.649
 2773SOL    HW1 9218   3.777   3.592   6.736
 2773SOL    HW2 9219   3.725   3.476   6.634
 2774SOL     OW 9220   5.995   3.312   1.575
 2774SOL    HW1 9221   5.957   3.349   1.490
 2774SOL    HW2 9222   5.947   3.352   1.653
 2775SOL     OW 9223   0.329   5.868   1.667
 2775SOL    HW1 9224   0.407   5.922   1.633
 2775SOL    HW2 9225   0.311   5.793   1.603
 2776SOL     OW 9226   3.285   6.028   6.358
 2776SOL    HW1 9227   3.192   6.061   6.340
 2776SOL    HW2 9228   3.349   6.104   6.354
 2777SOL     OW 9229   3.310   1.666   2.458
 2777SOL    HW1 9230   3.303   1.589   2.522
 2777SOL    HW2 9231   3.392   1.719   2.479
 2778SOL     OW 9232   2.324   2.473   5.761
 2778SOL    HW1 9233   2.354   2.520   5.844
 2778SOL    HW2 9234   2.295   2.540   5.693
 2779SOL     OW 9235   5.256   0.482   6.924
 2779SOL    HW1 9236   5.345   0.511   6.959
 2779SOL    HW2 9237   5.266   0.395   6.875
 2780SOL     OW 9238   5.367   5.665   6.682
 2780SOL    HW1 9239   5.302   5.736   6.708
 2780SOL    HW2 9240   5.421   5.639   6.762
 2781SOL     OW 9241   5.616   4.627   1.328
 2781SOL    HW1 9242   5.564   4.710   1.311
 2781SOL    HW2 9243   5.609   4.566   1.249
 2782SOL     OW 9244   2.829   2.891   6.420
 2782SOL    HW1 9245   2.744   2.930   6.382
 2782SOL    HW2 9246   2.851   2.807   6.372
 2783SOL     OW 9247   6.863   4.898   5.507
 2783SOL    HW1 9248   6.784   4.947   5.544
 2783SOL    HW2 9249   6.934   4.964   5.481
 2784SOL     OW 9250   2.598   1.954   1.350
 2784SOL    HW1 9251   2.583   1.987   1.257
 2784SOL    HW2 9252   2.666   2.011   1.396
 2785SOL     OW 9253   6.552   0.446   0.454
 2785SOL    HW1 9254   6.453   0.435   0.458
 2785SOL    HW2 9255   6.585   0.487   0.540
 2786SOL     OW 9256   4.048   6.618   1.299
 2786SOL    HW1 9257   4.013   6.526   1.282
 2786SOL    HW2 9258   4.148   6.616   1.298
 2787SOL     OW 9259   2.460   2.858   5.650
 2787SOL    HW1 9260   2.435   2.951   5.677
 2787SOL    HW2 9261   2.559   2.845   5.659
 2788SOL     OW 9262   1.725   4.321   0.761
 2788SOL    HW1 9263   1.817   4.350   0.784
 2788SOL    HW2 9264   1.694   4.253   0.827
 2789SOL     OW 9265   0.460   2.082   4.115
 2789SOL    HW1 9266   0.361   2.067   4.120
 2789SOL    HW2 9267   0.504   2.037   4.192
 2790SOL     OW 9268   3.891   5.474   2.858
 2790SOL    HW1 9269   3.984   5.501   2.884
 2790SOL    HW2 9270   3.831   5.481   2.938
 2791SOL     OW 9271   1.733   3.220   5.154
 2791SOL    HW1 9272   1.788   3.138   5.163
 2791SOL    HW2 9273   1.742   3.257   5.062
 2792SOL     OW 9274   0.478   1.879   4.909
 2792SOL    HW1 9275   0.474   1.891   5.009
 2792SOL    HW2 9276   0.537   1.801   4.887
 2793SOL     OW 9277   4.719   1.902   2.893
 2793SOL    HW1 9278   4.647   1.885   2.826
 2793SOL    HW2 9279   4.801   1.851   2.868
 2794SOL     OW 9280   0.929   0.424   0.758
 2794SOL    HW1 9281   0.888   0.470   0.679
 2794SOL    HW2 9282   0.873   0.444   0.839
 2795SOL     OW 9283   2.938   3.812   1.390
 2795SOL    HW1 9284   2.873   3.742   1.417
 2795SOL    HW2 9285   2.894   3.902   1.395
 2796SOL     OW 9286   5.561   4.087   2.580
 2796SOL    HW1 9287   5.465   4.078   2.606
 2796SOL    HW2 9288   5.576   4.046   2.490
 2797SOL     OW 9289   5.105   5.036   4.873
 2797SOL    HW1 9290   5.014   5.019   4.836
 2797SOL    HW2 9291   5.163   4.956   4.857
 2798SOL     OW 9292   0.792   3.196   3.565
 2798SOL    HW1 9293   0.700   3.194   3.603
 2798SOL    HW2 9294   0.829   3.288   3.571
 2799SOL     OW 9295   6.480   4.932   6.163
 2799SOL    HW1 9296   6.413   4.859   6.179
 2799SOL    HW2 9297   6.565   4.910   6.211
 2800SOL     OW 9298   2.529   4.912   6.820
 2800SOL    HW1 9299   2.588   4.978   6.866
 2800SOL    HW2 9300   2.581   4.830   6.798
 2801SOL     OW 9301   5.603   5.733   1.847
 2801SOL    HW1 9302   5.637   5.643   1.818
 2801SOL    HW2 9303   5.669   5.803   1.821
 2802SOL     OW 9304   4.127   1.513   5.822
 2802SOL    HW1 9305   4.163   1.591   5.773
 2802SOL    HW2 9306   4.035   1.491   5.788
 2803SOL     OW 9307   2.632   6.949   6.561
 2803SOL    HW1 9308   2.703   6.879   6.551
 2803SOL    HW2 9309   2.644   7.019   6.491
 2804SOL     OW 9310   6.955   4.091   3.611
 2804SOL    HW1 9311   6.995   4.181   3.591
 2804SOL    HW2 9312   0.003   4.022   3.611
 2805SOL     OW 9313   4.990   3.115   0.912
 2805SOL    HW1 9314   4.918   3.161   0.861
 2805SOL    HW2 9315   4.949   3.049   0.976
 2806SOL     OW 9316   6.293   5.566   3.112
 2806SOL    HW1 9317   6.345   5.541   3.193
 2806SOL    HW2 9318   6.278   5.665   3.111
 2807SOL     OW 9319   4.423   4.811   3.167
 2807SOL    HW1 9320   4.457   4.873   3.238
 2807SOL    HW2 9321   4.399   4.723   3.209
 2808SOL     OW 9322   5.465   1.074   3.575
 2808SOL    HW1 9323   5.465   1.162   3.622
 2808SOL    HW2 9324   5.545   1.068   3.515
 2809SOL     OW 9325   4.814   2.518   0.519
 2809SOL    HW1 9326   4.832   2.616   0.530
 2809SOL    HW2 9327   4.830   2.471   0.606
 2810SOL     OW 9328   2.830   0.037   5.393
 2810SOL    HW1 9329   2.861   0.132   5.391
 2810SOL    HW2 9330   2.732   0.034   5.372
 2811SOL     OW 9331   0.493   1.713   3.438
 2811SOL    HW1 9332   0.460   1.782   3.374
 2811SOL    HW2 9333   0.415   1.665   3.479
 2812SOL     OW 9334   4.836   3.878   2.076
 2812SOL    HW1 9335   4.811   3.970   2.046
 2812SOL    HW2 9336   4.870   3.827   1.997
 2813SOL     OW 9337   6.033   0.584   6.280
 2813SOL    HW1 9338   5.984   0.668   6.302
 2813SOL    HW2 9339   5.968   0.510   6.264
 2814SOL     OW 9340   4.647   4.068   5.643
 2814SOL    HW1 9341   4.712   3.996   5.667
 2814SOL    HW2 9342   4.608   4.107   5.726
 2815SOL     OW 9343   0.734   0.929   4.511
 2815SOL    HW1 9344   0.734   1.026   4.537
 2815SOL    HW2 9345   0.641   0.900   4.489
 2816SOL     OW 9346   5.781   6.969   4.314
 2816SOL    HW1 9347   5.755   6.877   4.344
 2816SOL    HW2 9348   5.700   7.018   4.281
 2817SOL     OW 9349   1.435   1.281   1.808
 2817SOL    HW1 9350   1.485   1.354   1.762
 2817SOL    HW2 9351   1.460   1.279   1.905
 2818SOL     OW 9352   6.761   4.595   5.881
 2818SOL    HW1 9353   6.711   4.555   5.804
 2818SOL    HW2 9354   6.785   4.523   5.947
 2819SOL     OW 9355   0.159   3.102   0.646
 2819SOL    HW1 9356   0.218   3.086   0.725
 2819SOL    HW2 9357   0.104   3.020   0.629
 2820SOL     OW 9358   6.977   3.142   2.893
 2820SOL    HW1 9359   0.029   3.124   2.955
 2820SOL    HW2 9360   6.958   3.240   2.892
 2821SOL     OW 9361   1.256   4.619   4.946
 2821SOL    HW1 9362   1.314   4.541   4.920
 2821SOL    HW2 9363   1.276   4.697   4.886
 2822SOL     OW 9364   4.950   2.452   6.809
 2822SOL    HW1 9365   4.971   2.407   6.722
 2822SOL    HW2 9366   4.858   2.426   6.838
 2823SOL     OW 9367   2.078   6.664   2.249
 2823SOL    HW1 9368   2.066   6.570   2.281
 2823SOL    HW2 9369   2.100   6.664   2.151
 2824SOL     OW 9370   2.995   1.071   5.562
 2824SOL    HW1 9371   2.937   1.071   5.481
 2824SOL    HW2 9372   3.009   1.165   5.593
 2825SOL     OW 9373   6.376   6.493   1.294
 2825SOL    HW1 9374   6.396   6.411   1.241
 2825SOL    HW2 9375   6.335   6.562   1.235
 2826SOL     OW 9376   5.057   1.498   4.706
 2826SOL    HW1 9377   4.971   1.450   4.689
 2826SOL    HW2 9378   5.074   1.565   4.634
 2827SOL     OW 9379   5.947   1.287   5.358
 2827SOL    HW1 9380   5.929   1.192   5.383
 2827SOL    HW2 9381   6.042   1.295   5.325
 2828SOL     OW 9382   4.195   0.785   6.073
 2828SOL    HW1 9383   4.143   0.837   6.006
 2828SOL    HW2 9384   4.159   0.692   6.078
 2829SOL     OW 9385   3.534   6.533   5.749
 2829SOL    HW1 9386   3.454   6.474   5.736
 2829SOL    HW2 9387   3.604   6.483   5.800
 2830SOL     OW 9388   4.261   3.245   0.082
 2830SOL    HW1 9389   4.339   3.306   0.095
 2830SOL    HW2 9390   4.178   3.288   0.116
 2831SOL     OW 9391   5.709   6.054   4.171
 2831SOL    HW1 9392   5.678   6.141   4.134
 2831SOL    HW2 9393   5.803   6.037   4.143
 2832SOL     OW 9394   0.296   0.911   1.794
 2832SOL    HW1 9395   0.272   0.813   1.792
 2832SOL    HW2 9396   0.236   0.958   1.860
 2833SOL     OW 9397   5.861   2.756   1.999
 2833SOL    HW1 9398   5.795   2.818   1.957
 2833SOL    HW2 9399   5.815   2.670   2.022
 2834SOL     OW 9400   3.330   1.527   4.978
 2834SOL    HW1 9401   3.332   1.431   5.007
 2834SOL    HW2 9402   3.345   1.533   4.879
 2835SOL     OW 9403   0.492   6.864   2.213
 2835SOL    HW1 9404   0.538   6.953   2.216
 2835SOL    HW2 9405   0.417   6.863   2.280
 2836SOL     OW 9406   6.929   0.024   1.411
 2836SOL    HW1 9407   7.005   0.013   1.475
 2836SOL    HW2 9408   6.930   6.974   1.344
 2837SOL     OW 9409   5.674   3.827   3.851
 2837SOL    HW1 9410   5.746   3.758   3.856
 2837SOL    HW2 9411   5.602   3.795   3.788
 2838SOL     OW 9412   2.644   4.983   2.495
 2838SOL    HW1 9413   2.735   5.026   2.495
 2838SOL    HW2 9414   2.655   4.884   2.481
 2839SOL     OW 9415   5.282   1.826   1.441
 2839SOL    HW1 9416   5.304   1.731   1.422
 2839SOL    HW2 9417   5.320   1.853   1.530
 2840SOL     OW 9418   6.262   1.358   5.361
 2840SOL    HW1 9419   6.269   1.380   5.264
 2840SOL    HW2 9420   6.311   1.272   5.379
 2841SOL     OW 9421   0.708   5.716   0.835
 2841SOL    HW1 9422   0.657   5.713   0.749
 2841SOL    HW2 9423   0.685   5.799   0.885
 2842SOL     OW 9424   6.852   3.284   3.429
 2842SOL    HW1 9425   6.945   3.272   3.465
 2842SOL    HW2 9426   6.811   3.365   3.470
 2843SOL     OW 9427   3.635   0.816   4.391
 2843SOL    HW1 9428   3.734   0.830   4.386
 2843SOL    HW2 9429   3.592   0.848   4.307
 2844SOL     OW 9430   0.506   3.977   6.641
 2844SOL    HW1 9431   0.556   4.055   6.679
 2844SOL    HW2 9432   0.432   4.010   6.583
 2845SOL     OW 9433   0.297   4.377   6.357
 2845SOL    HW1 9434   0.251   4.456   6.318
 2845SOL    HW2 9435   0.258   4.293   6.320
 2846SOL     OW 9436   4.580   1.799   6.327
 2846SOL    HW1 9437   4.617   1.880   6.282
 2846SOL    HW2 9438   4.499   1.767   6.277
 2847SOL     OW 9439   6.326   4.393   4.401
 2847SOL    HW1 9440   6.395   4.386   4.329
 2847SOL    HW2 9441   6.246   4.443   4.366
 2848SOL     OW 9442   0.702   4.858   4.677
 2848SOL    HW1 9443   0.694   4.943   4.728
 2848SOL    HW2 9444   0.612   4.831   4.642
 2849SOL     OW 9445   2.745   1.741   1.215
 2849SOL    HW1 9446   2.794   1.809   1.159
 2849SOL    HW2 9447   2.657   1.778   1.242
 2850SOL     OW 9448   4.076   6.961   0.769
 2850SOL    HW1 9449   4.005   6.895   0.794
 2850SOL    HW2 9450   4.135   6.978   0.848
 2851SOL     OW 9451   1.129   4.644   5.657
 2851SOL    HW1 9452   1.039   4.618   5.690
 2851SOL    HW2 9453   1.186   4.563   5.648
 2852SOL     OW 9454   6.767   3.272   6.651
 2852SOL    HW1 9455   6.864   3.280   6.629
 2852SOL    HW2 9456   6.718   3.233   6.573
 2853SOL     OW 9457   3.569   3.300   1.040
 2853SOL    HW1 9458   3.509   3.314   0.961
 2853SOL    HW2 9459   3.565   3.204   1.067
 2854SOL     OW 9460   2.780   0.618   3.928
 2854SOL    HW1 9461   2.737   0.532   3.956
 2854SOL    HW2 9462   2.789   0.619   3.828
 2855SOL     OW 9463   1.851   1.008   5.149
 2855SOL    HW1 9464   1.815   0.917   5.166
 2855SOL    HW2 9465   1.891   1.012   5.058
 2856SOL     OW 9466   2.502   2.818   5.350
 2856SOL    HW1 9467   2.475   2.834   5.445
 2856SOL    HW2 9468   2.497   2.903   5.298
 2857SOL     OW 9469   2.988   2.354   1.442
 2857SOL    HW1 9470   2.942   2.443   1.436
 2857SOL    HW2 9471   3.059   2.348   1.372
 2858SOL     OW 9472   6.344   2.999   2.956
 2858SOL    HW1 9473   6.319   3.084   3.001
 2858SOL    HW2 9474   6.335   3.010   2.857
 2859SOL     OW 9475   5.413   0.751   0.691
 2859SOL    HW1 9476   5.331   0.706   0.654
 2859SOL    HW2 9477   5.388   0.841   0.725
 2860SOL     OW 9478   3.762   1.605   2.079
 2860SOL    HW1 9479   3.725   1.522   2.122
 2860SOL    HW2 9480   3.776   1.675   2.148
 2861SOL     OW 9481   3.709   5.852   5.454
 2861SOL    HW1 9482   3.621   5.852   5.501
 2861SOL    HW2 9483   3.755   5.765   5.467
 2862SOL     OW 9484   5.598   0.952   3.942
 2862SOL    HW1 9485   5.624   1.047   3.923
 2862SOL    HW2 9486   5.536   0.919   3.871
 2863SOL     OW 9487   6.426   1.793   6.969
 2863SOL    HW1 9488   6.399   1.715   6.913
 2863SOL    HW2 9489   6.512   1.830   6.935
 2864SOL     OW 9490   4.033   0.763   0.914
 2864SOL    HW1 9491   4.113   0.703   0.906
 2864SOL    HW2 9492   4.062   0.855   0.940
 2865SOL     OW 9493   4.581   4.594   5.118
 2865SOL    HW1 9494   4.508   4.566   5.055
 2865SOL    HW2 9495   4.634   4.668   5.077
 2866SOL     OW 9496   6.880   6.256   6.737
 2866SOL    HW1 9497   6.928   6.340   6.764
 2866SOL    HW2 9498   6.943   6.195   6.690
 2867SOL     OW 9499   6.228   4.858   3.275
 2867SOL    HW1 9500   6.289   4.789   3.315
 2867SOL    HW2 9501   6.194   4.918   3.348
 2868SOL     OW 9502   1.232   4.010   5.155
 2868SOL    HW1 9503   1.189   4.087   5.202
 2868SOL    HW2 9504   1.164   3.938   5.142
 2869SOL     OW 9505   5.671   0.779   2.160
 2869SOL    HW1 9506   5.737   0.714   2.197
 2869SOL    HW2 9507   5.578   0.741   2.170
 2870SOL     OW 9508   6.291   2.080   3.161
 2870SOL    HW1 9509   6.320   2.161   3.110
 2870SOL    HW2 9510   6.328   2.084   3.254
 2871SOL     OW 9511   1.836   2.006   6.024
 2871SOL    HW1 9512   1.831   2.086   6.084
 2871SOL    HW2 9513   1.774   1.935   6.058
 2872SOL     OW 9514   2.605   0.433   3.621
 2872SOL    HW1 9515   2.555   0.398   3.700
 2872SOL    HW2 9516   2.601   0.532   3.620
 2873SOL     OW 9517   0.728   5.375   2.208
 2873SOL    HW1 9518   0.826   5.395   2.221
 2873SOL    HW2 9519   0.678   5.402   2.290
 2874SOL     OW 9520   5.565   3.608   2.239
 2874SOL    HW1 9521   5.467   3.626   2.243
 2874SOL    HW2 9522   5.603   3.650   2.156
 2875SOL     OW 9523   3.939   6.005   6.212
 2875SOL    HW1 9524   3.949   6.056   6.297
 2875SOL    HW2 9525   4.022   6.013   6.157
 2876SOL     OW 9526   0.256   0.915   1.476
 2876SOL    HW1 9527   0.284   1.010   1.469
 2876SOL    HW2 9528   0.309   0.870   1.548
 2877SOL     OW 9529   2.940   2.705   5.398
 2877SOL    HW1 9530   3.018   2.716   5.337
 2877SOL    HW2 9531   2.873   2.643   5.357
 2878SOL     OW 9532   2.578   4.980   5.267
 2878SOL    HW1 9533   2.654   4.925   5.234
 2878SOL    HW2 9534   2.542   4.941   5.352
 2879SOL     OW 9535   5.264   4.938   0.580
 2879SOL    HW1 9536   5.282   4.960   0.676
 2879SOL    HW2 9537   5.174   4.975   0.554
 2880SOL     OW 9538   0.799   6.465   1.917
 2880SOL    HW1 9539   0.701   6.471   1.897
 2880SOL    HW2 9540   0.832   6.553   1.951
 2881SOL     OW 9541   6.814   6.298   0.788
 2881SOL    HW1 9542   6.886   6.361   0.759
 2881SOL    HW2 9543   6.738   6.303   0.723
 2882SOL     OW 9544   0.217   2.942   2.259
 2882SOL    HW1 9545   0.223   2.899   2.169
 2882SOL    HW2 9546   0.243   2.875   2.329
 2883SOL     OW 9547   3.911   6.957   2.551
 2883SOL    HW1 9548   3.990   6.993   2.601
 2883SOL    HW2 9549   3.916   6.986   2.456
 2884SOL     OW 9550   0.962   6.072   3.228
 2884SOL    HW1 9551   0.949   6.166   3.260
 2884SOL    HW2 9552   0.905   6.011   3.282
 2885SOL     OW 9553   0.878   2.017   2.381
 2885SOL    HW1 9554   0.926   2.066   2.309
 2885SOL    HW2 9555   0.939   1.948   2.420
 2886SOL     OW 9556   2.192   1.871   6.687
 2886SOL    HW1 9557   2.165   1.955   6.735
 2886SOL    HW2 9558   2.158   1.792   6.737
 2887SOL     OW 9559   1.442   6.995   4.941
 2887SOL    HW1 9560   1.524   0.026   4.930
 2887SOL    HW2 9561   1.461   6.918   5.001
 2888SOL     OW 9562   5.902   4.872   6.932
 2888SOL    HW1 9563   5.832   4.926   6.885
 2888SOL    HW2 9564   5.971   4.934   6.970
 2889SOL     OW 9565   0.521   0.259   1.088
 2889SOL    HW1 9566   0.578   0.180   1.068
 2889SOL    HW2 9567   0.429   0.229   1.113
 2890SOL     OW 9568   4.479   0.397   1.921
 2890SOL    HW1 9569   4.480   0.396   1.821
 2890SOL    HW2 9570   4.544   0.329   1.955
 2891SOL     OW 9571   2.342   4.566   4.204
 2891SOL    HW1 9572   2.311   4.490   4.148
 2891SOL    HW2 9573   2.396   4.629   4.148
 2892SOL     OW 9574   4.504   3.844   6.808
 2892SOL    HW1 9575   4.484   3.870   6.713
 2892SOL    HW2 9576   4.526   3.925   6.862
 2893SOL     OW 9577   2.349   0.106   5.227
 2893SOL    HW1 9578   2.279   0.074   5.164
 2893SOL    HW2 9579   2.311   0.176   5.287
 2894SOL     OW 9580   3.397   2.934   0.167
 2894SOL    HW1 9581   3.306   2.975   0.171
 2894SOL    HW2 9582   3.464   2.998   0.205
 2895SOL     OW 9583   3.969   3.050   6.591
 2895SOL    HW1 9584   4.021   3.079   6.511
 2895SOL    HW2 9585   4.032   3.022   6.664
 2896SOL     OW 9586   2.049   5.432   0.171
 2896SOL    HW1 9587   2.110   5.362   0.137
 2896SOL    HW2 9588   2.065   5.446   0.269
 2897SOL     OW 9589   2.531   6.086   3.477
 2897SOL    HW1 9590   2.492   5.996   3.500
 2897SOL    HW2 9591   2.466   6.157   3.502
 2898SOL     OW 9592   4.019   5.115   1.720
 2898SOL    HW1 9593   4.042   5.197   1.669
 2898SOL    HW2 9594   3.974   5.140   1.806
 2899SOL     OW 9595   0.123   0.122   6.617
 2899SOL    HW1 9596   0.165   0.031   6.619
 2899SOL    HW2 9597   0.194   0.192   6.617
 2900SOL     OW 9598   1.474   5.444   5.678
 2900SOL    HW1 9599   1.383   5.409   5.698
 2900SOL    HW2 9600   1.488   5.530   5.726
 2901SOL     OW 9601   3.055   0.712   2.255
 2901SOL    HW1 9602   3.121   0.694   2.182
 2901SOL    HW2 9603   2.962   0.699   2.219
 2902SOL     OW 9604   5.384   6.093   1.015
 2902SOL    HW1 9605   5.341   6.170   0.968
 2902SOL    HW2 9606   5.396   6.115   1.112
 2903SOL     OW 9607   2.721   1.250   2.169
 2903SOL    HW1 9608   2.666   1.329   2.196
 2903SOL    HW2 9609   2.689   1.169   2.218
 2904SOL     OW 9610   1.960   3.034   5.156
 2904SOL    HW1 9611   1.991   3.122   5.192
 2904SOL    HW2 9612   2.029   2.964   5.177
 2905SOL     OW 9613   1.706   2.206   1.884
 2905SOL    HW1 9614   1.679   2.121   1.839
 2905SOL    HW2 9615   1.765   2.185   1.962
 2906SOL     OW 9616   5.430   5.401   2.104
 2906SOL    HW1 9617   5.339   5.426   2.137
 2906SOL    HW2 9618   5.423   5.325   2.039
 2907SOL     OW 9619   0.028   1.315   4.960
 2907SOL    HW1 9620   0.092   1.296   4.886
 2907SOL    HW2 9621   0.051   1.403   5.001
 2908SOL     OW 9622   3.507   6.146   4.047
 2908SOL    HW1 9623   3.453   6.127   4.129
 2908SOL    HW2 9624   3.603   6.162   4.073
 2909SOL     OW 9625   1.580   5.666   4.449
 2909SOL    HW1 9626   1.640   5.718   4.510
 2909SOL    HW2 9627   1.635   5.605   4.392
 2910SOL     OW 9628   4.145   6.175   5.678
 2910SOL    HW1 9629   4.231   6.225   5.669
 2910SOL    HW2 9630   4.141   6.103   5.609
 2911SOL     OW 9631   2.015   4.673   3.362
 2911SOL    HW1 9632   1.923   4.701   3.391
 2911SOL    HW2 9633   2.081   4.699   3.432
 2912SOL     OW 9634   2.911   6.201   0.009
 2912SOL    HW1 9635   2.864   6.288   0.020
 2912SOL    HW2 9636   2.993   6.201   0.067
 2913SOL     OW 9637   1.615   3.457   2.791
 2913SOL    HW1 9638   1.518   3.469   2.769
 2913SOL    HW2 9639   1.669   3.472   2.709
 2914SOL     OW 9640   5.778   5.060   6.290
 2914SOL    HW1 9641   5.874   5.039   6.271
 2914SOL    HW2 9642   5.725   4.975   6.288
 2915SOL     OW 9643   4.269   1.685   4.023
 2915SOL    HW1 9644   4.188   1.713   3.971
 2915SOL    HW2 9645   4.352   1.716   3.977
 2916SOL     OW 9646   6.318   5.073   5.301
 2916SOL    HW1 9647   6.332   5.143   5.231
 2916SOL    HW2 9648   6.349   5.107   5.390
 2917SOL     OW 9649   4.794   0.360   1.707
 2917SOL    HW1 9650   4.786   0.430   1.636
 2917SOL    HW2 9651   4.799   0.404   1.796
 2918SOL     OW 9652   0.403   4.278   3.869
 2918SOL    HW1 9653   0.325   4.240   3.918
 2918SOL    HW2 9654   0.388   4.375   3.852
 2919SOL     OW 9655   5.842   6.290   0.541
 2919SOL    HW1 9656   5.862   6.244   0.454
 2919SOL    HW2 9657   5.743   6.304   0.549
 2920SOL     OW 9658   3.875   1.888   2.645
 2920SOL    HW1 9659   3.920   1.957   2.589
 2920SOL    HW2 9660   3.847   1.811   2.588
 2921SOL     OW 9661   0.522   1.008   2.794
 2921SOL    HW1 9662   0.425   1.000   2.816
 2921SOL    HW2 9663   0.533   1.015   2.695
 2922SOL     OW 9664   4.904   0.233   5.379
 2922SOL    HW1 9665   4.898   0.182   5.294
 2922SOL    HW2 9666   4.976   0.193   5.436
 2923SOL     OW 9667   6.431   5.125   2.311
 2923SOL    HW1 9668   6.506   5.175   2.355
 2923SOL    HW2 9669   6.363   5.101   2.381
 2924SOL     OW 9670   0.353   1.612   5.189
 2924SOL    HW1 9671   0.419   1.537   5.189
 2924SOL    HW2 9672   0.263   1.577   5.217
 2925SOL     OW 9673   5.734   3.121   1.452
 2925SOL    HW1 9674   5.798   3.153   1.383
 2925SOL    HW2 9675   5.656   3.183   1.457
 2926SOL     OW 9676   6.966   2.144   4.737
 2926SOL    HW1 9677   0.040   2.163   4.743
 2926SOL    HW2 9678   6.944   2.114   4.645
 2927SOL     OW 9679   1.605   2.636   1.949
 2927SOL    HW1 9680   1.542   2.695   1.899
 2927SOL    HW2 9681   1.574   2.541   1.942
 2928SOL     OW 9682   6.237   0.143   0.276
 2928SOL    HW1 9683   6.180   0.194   0.212
 2928SOL    HW2 9684   6.319   0.109   0.230
 2929SOL     OW 9685   0.601   0.134   6.184
 2929SOL    HW1 9686   0.553   0.046   6.187
 2929SOL    HW2 9687   0.542   0.202   6.140
 2930SOL     OW 9688   4.934   0.657   4.774
 2930SOL    HW1 9689   4.896   0.687   4.862
 2930SOL    HW2 9690   4.882   0.578   4.742
 2931SOL     OW 9691   4.808   6.669   6.567
 2931SOL    HW1 9692   4.821   6.759   6.526
 2931SOL    HW2 9693   4.715   6.638   6.551
 2932SOL     OW 9694   1.273   3.853   1.278
 2932SOL    HW1 9695   1.265   3.890   1.186
 2932SOL    HW2 9696   1.269   3.929   1.344
 2933SOL     OW 9697   5.514   2.672   4.131
 2933SOL    HW1 9698   5.470   2.586   4.153
 2933SOL    HW2 9699   5.561   2.664   4.043
 2934SOL     OW 9700   2.932   0.608   0.570
 2934SOL    HW1 9701   2.902   0.690   0.522
 2934SOL    HW2 9702   2.866   0.534   0.556
 2935SOL     OW 9703   5.813   2.525   0.594
 2935SOL    HW1 9704   5.814   2.616   0.635
 2935SOL    HW2 9705   5.744   2.469   0.640
 2936SOL     OW 9706   4.539   5.706   6.899
 2936SOL    HW1 9707   4.595   5.784   6.873
 2936SOL    HW2 9708   4.458   5.737   6.948
 2937SOL     OW 9709   3.486   5.853   0.383
 2937SOL    HW1 9710   3.581   5.858   0.413
 2937SOL    HW2 9711   3.481   5.813   0.292
 2938SOL     OW 9712   5.327   5.633   5.213
 2938SOL    HW1 9713   5.293   5.542   5.235
 2938SOL    HW2 9714   5.311   5.694   5.291
 2939SOL     OW 9715   6.765   6.420   5.520
 2939SOL    HW1 9716   6.854   6.408   5.476
 2939SOL    HW2 9717   6.743   6.517   5.525
 2940SOL     OW 9718   5.693   6.965   5.462
 2940SOL    HW1 9719   5.763   0.012   5.464
 2940SOL    HW2 9720   5.699   6.915   5.376
 2941SOL     OW 9721   0.664   2.075   5.227
 2941SOL    HW1 9722   0.730   2.022   5.281
 2941SOL    HW2 9723   0.572   2.038   5.240
 2942SOL     OW 9724   3.809   0.329   2.644
 2942SOL    HW1 9725   3.880   0.383   2.600
 2942SOL    HW2 9726   3.733   0.314   2.580
 2943SOL     OW 9727   6.183   3.482   3.126
 2943SOL    HW1 9728   6.196   3.575   3.159
 2943SOL    HW2 9729   6.262   3.426   3.150
 2944SOL     OW 9730   3.806   5.469   5.316
 2944SOL    HW1 9731   3.806   5.400   5.389
 2944SOL    HW2 9732   3.811   5.560   5.357
 2945SOL     OW 9733   3.326   3.192   3.410
 2945SOL    HW1 9734   3.230   3.209   3.432
 2945SOL    HW2 9735   3.384   3.233   3.480
 2946SOL     OW 9736   6.866   5.753   5.953
 2946SOL    HW1 9737   6.926   5.674   5.941
 2946SOL    HW2 9738   6.794   5.751   5.883
 2947SOL     OW 9739   6.465   4.067   0.077
 2947SOL    HW1 9740   6.472   4.008   0.157
 2947SOL    HW2 9741   6.536   4.043   0.011
 2948SOL     OW 9742   6.057   4.234   4.544
 2948SOL    HW1 9743   6.068   4.333   4.538
 2948SOL    HW2 9744   5.990   4.204   4.476
 2949SOL     OW 9745   1.246   6.509   0.324
 2949SOL    HW1 9746   1.320   6.492   0.389
 2949SOL    HW2 9747   1.219   6.605   0.328
 2950SOL     OW 9748   5.734   3.343   4.398
 2950SOL    HW1 9749   5.720   3.313   4.492
 2950SOL    HW2 9750   5.818   3.396   4.392
 2951SOL     OW 9751   0.384   1.245   1.094
 2951SOL    HW1 9752   0.326   1.201   1.025
 2951SOL    HW2 9753   0.390   1.343   1.075
 2952SOL     OW 9754   1.576   4.135   2.715
 2952SOL    HW1 9755   1.482   4.159   2.736
 2952SOL    HW2 9756   1.633   4.218   2.718
 2953SOL     OW 9757   4.814   2.818   1.447
 2953SOL    HW1 9758   4.783   2.750   1.381
 2953SOL    HW2 9759   4.737   2.848   1.503
 2954SOL     OW 9760   6.605   6.598   2.812
 2954SOL    HW1 9761   6.668   6.675   2.799
 2954SOL    HW2 9762   6.572   6.597   2.906
 2955SOL     OW 9763   0.886   2.736   0.874
 2955SOL    HW1 9764   0.819   2.809   0.888
 2955SOL    HW2 9765   0.850   2.669   0.809
 2956SOL     OW 9766   0.186   5.007   3.164
 2956SOL    HW1 9767   0.231   5.014   3.254
 2956SOL    HW2 9768   0.253   5.026   3.093
 2957SOL     OW 9769   0.742   3.662   1.619
 2957SOL    HW1 9770   0.675   3.737   1.619
 2957SOL    HW2 9771   0.728   3.605   1.699
 2958SOL     OW 9772   1.712   4.717   5.398
 2958SOL    HW1 9773   1.690   4.813   5.383
 2958SOL    HW2 9774   1.637   4.673   5.447
 2959SOL     OW 9775   4.835   5.768   6.341
 2959SOL    HW1 9776   4.782   5.712   6.405
 2959SOL    HW2 9777   4.840   5.862   6.375
 2960SOL     OW 9778   2.008   1.951   0.003
 2960SOL    HW1 9779   1.994   2.009   6.948
 2960SOL    HW2 9780   2.105   1.953   0.028
 2961SOL     OW 9781   5.760   3.755   4.231
 2961SOL    HW1 9782   5.820   3.782   4.306
 2961SOL    HW2 9783   5.686   3.822   4.222
 2962SOL     OW 9784   4.449   1.122   3.248
 2962SOL    HW1 9785   4.523   1.090   3.307
 2962SOL    HW2 9786   4.374   1.056   3.250
 2963SOL     OW 9787   1.713   1.576   5.207
 2963SOL    HW1 9788   1.656   1.627   5.271
 2963SOL    HW2 9789   1.658   1.505   5.162
 2964SOL     OW 9790   2.275   6.527   1.375
 2964SOL    HW1 9791   2.328   6.536   1.291
 2964SOL    HW2 9792   2.177   6.527   1.352
 2965SOL     OW 9793   0.288   1.393   5.850
 2965SOL    HW1 9794   0.364   1.457   5.846
 2965SOL    HW2 9795   0.261   1.366   5.757
 2966SOL     OW 9796   5.088   4.786   4.065
 2966SOL    HW1 9797   5.011   4.803   4.003
 2966SOL    HW2 9798   5.119   4.873   4.104
 2967SOL     OW 9799   5.659   2.775   3.225
 2967SOL    HW1 9800   5.596   2.736   3.159
 2967SOL    HW2 9801   5.697   2.860   3.189
 2968SOL     OW 9802   0.509   4.066   4.301
 2968SOL    HW1 9803   0.530   3.974   4.334
 2968SOL    HW2 9804   0.570   4.132   4.344
 2969SOL     OW 9805   5.341   2.255   4.672
 2969SOL    HW1 9806   5.293   2.285   4.589
 2969SOL    HW2 9807   5.282   2.193   4.723
 2970SOL     OW 9808   0.721   4.400   6.152
 2970SOL    HW1 9809   0.778   4.349   6.216
 2970SOL    HW2 9810   0.694   4.487   6.194
 2971SOL     OW 9811   5.837   2.604   3.007
 2971SOL    HW1 9812   5.740   2.619   2.992
 2971SOL    HW2 9813   5.889   2.682   2.971
 2972SOL     OW 9814   6.455   3.456   5.771
 2972SOL    HW1 9815   6.418   3.440   5.679
 2972SOL    HW2 9816   6.488   3.370   5.809
 2973SOL     OW 9817   5.157   6.617   4.122
 2973SOL    HW1 9818   5.169   6.686   4.194
 2973SOL    HW2 9819   5.245   6.573   4.104
 2974SOL     OW 9820   6.785   4.576   3.139
 2974SOL    HW1 9821   6.690   4.556   3.163
 2974SOL    HW2 9822   6.797   4.569   3.040
 2975SOL     OW 9823   0.465   0.712   5.230
 2975SOL    HW1 9824   0.407   0.740   5.154
 2975SOL    HW2 9825   0.440   0.619   5.259
 2976SOL     OW 9826   4.209   1.675   2.687
 2976SOL    HW1 9827   4.226   1.592   2.739
 2976SOL    HW2 9828   4.292   1.701   2.637
 2977SOL     OW 9829   3.223   6.778   4.297
 2977SOL    HW1 9830   3.174   6.767   4.210
 2977SOL    HW2 9831   3.285   6.856   4.291
 2978SOL     OW 9832   5.142   5.283   0.241
 2978SOL    HW1 9833   5.235   5.246   0.251
 2978SOL    HW2 9834   5.119   5.289   0.144
 2979SOL     OW 9835   3.638   0.473   2.824
 2979SOL    HW1 9836   3.687   0.393   2.790
 2979SOL    HW2 9837   3.676   0.555   2.782
 2980SOL     OW 9838   0.986   5.921   4.010
 2980SOL    HW1 9839   0.891   5.895   3.992
 2980SOL    HW2 9840   1.025   5.859   4.078
 2981SOL     OW 9841   1.899   0.962   5.757
 2981SOL    HW1 9842   1.895   0.891   5.687
 2981SOL    HW2 9843   1.886   1.051   5.714
 2982SOL     OW 9844   4.536   5.816   2.264
 2982SOL    HW1 9845   4.567   5.802   2.170
 2982SOL    HW2 9846   4.449   5.768   2.278
 2983SOL     OW 9847   0.245   1.012   4.571
 2983SOL    HW1 9848   0.338   0.980   4.551
 2983SOL    HW2 9849   0.187   0.934   4.594
 2984SOL     OW 9850   5.846   5.487   1.836
 2984SOL    HW1 9851   5.933   5.536   1.828
 2984SOL    HW2 9852   5.804   5.508   1.924
 2985SOL     OW 9853   0.190   2.250   3.204
 2985SOL    HW1 9854   0.181   2.166   3.150
 2985SOL    HW2 9855   0.286   2.271   3.218
 2986SOL     OW 9856   1.510   3.796   5.188
 2986SOL    HW1 9857   1.601   3.787   5.148
 2986SOL    HW2 9858   1.444   3.815   5.116
 2987SOL     OW 9859   4.224   1.939   4.721
 2987SOL    HW1 9860   4.316   1.964   4.751
 2987SOL    HW2 9861   4.177   2.019   4.685
 2988SOL     OW 9862   0.931   0.553   1.896
 2988SOL    HW1 9863   0.872   0.567   1.817
 2988SOL    HW2 9864   1.024   0.584   1.875
 2989SOL     OW 9865   6.642   5.106   0.862
 2989SOL    HW1 9866   6.716   5.171   0.878
 2989SOL    HW2 9867   6.643   5.036   0.934
 2990SOL     OW 9868   3.712   1.619   1.643
 2990SOL    HW1 9869   3.804   1.658   1.651
 2990SOL    HW2 9870   3.714   1.524   1.674
 2991SOL     OW 9871   0.379   3.993   0.172
 2991SOL    HW1 9872   0.403   3.936   0.094
 2991SOL    HW2 9873   0.296   3.959   0.214
 2992SOL     OW 9874   3.542   5.345   6.319
 2992SOL    HW1 9875   3.515   5.431   6.276
 2992SOL    HW2 9876   3.461   5.292   6.344
 2993SOL     OW 9877   1.285   5.265   1.192
 2993SOL    HW1 9878   1.321   5.317   1.115
 2993SOL    HW2 9879   1.359   5.212   1.233
 2994SOL     OW 9880   4.914   0.346   0.235
 2994SOL    HW1 9881   4.962   0.396   0.164
 2994SOL    HW2 9882   4.835   0.400   0.266
 2995SOL     OW 9883   1.417   1.863   6.631
 2995SOL    HW1 9884   1.452   1.776   6.665
 2995SOL    HW2 9885   1.412   1.929   6.707
 2996SOL     OW 9886   4.038   5.148   5.897
 2996SOL    HW1 9887   4.049   5.159   5.996
 2996SOL    HW2 9888   4.046   5.236   5.852
 2997SOL     OW 9889   5.566   6.833   1.009
 2997SOL    HW1 9890   5.470   6.844   1.037
 2997SOL    HW2 9891   5.623   6.820   1.090
 2998SOL     OW 9892   6.018   5.619   3.773
 2998SOL    HW1 9893   6.066   5.670   3.845
 2998SOL    HW2 9894   6.083   5.594   3.702
 2999SOL     OW 9895   3.553   0.111   2.700
 2999SOL    HW1 9896   3.599   0.151   2.779
 2999SOL    HW2 9897   3.591   0.148   2.616
 3000SOL     OW 9898   1.418   3.425   6.012
 3000SOL    HW1 9899   1.458   3.517   6.008
 3000SOL    HW2 9900   1.447   3.380   6.096
 3001SOL     OW 9901   4.723   0.929   5.777
 3001SOL    HW1 9902   4.761   0.906   5.688
 3001SOL    HW2 9903   4.790   0.981   5.829
 3002SOL     OW 9904   4.533   0.146   5.238
 3002SOL    HW1 9905   4.539   0.072   5.172
 3002SOL    HW2 9906   4.552   0.110   5.330
 3003SOL     OW 9907   3.070   6.583   5.771
 3003SOL    HW1 9908   3.058   6.661   5.833
 3003SOL    HW2 9909   3.035   6.606   5.681
 3004SOL     OW 9910   6.182   3.460   3.994
 3004SOL    HW1 9911   6.167   3.558   4.006
 3004SOL    HW2 9912   6.167   3.435   3.899
 3005SOL     OW 9913   3.544   3.063   1.191
 3005SOL    HW1 9914   3.511   3.071   1.285
 3005SOL    HW2 9915   3.608   2.986   1.185
 3006SOL     OW 9916   5.058   0.798   1.285
 3006SOL    HW1 9917   5.012   0.884   1.261
 3006SOL    HW2 9918   5.049   0.733   1.209
 3007SOL     OW 9919   6.240   4.791   2.950
 3007SOL    HW1 9920   6.175   4.845   3.004
 3007SOL    HW2 9921   6.318   4.848   2.926
 3008SOL     OW 9922   3.322   6.675   5.561
 3008SOL    HW1 9923   3.309   6.690   5.659
 3008SOL    HW2 9924   3.418   6.659   5.541
 3009SOL     OW 9925   1.003   6.871   3.040
 3009SOL    HW1 9926   1.005   6.804   2.966
 3009SOL    HW2 9927   1.083   6.858   3.099
 3010SOL     OW 9928   3.351   5.990   2.499
 3010SOL    HW1 9929   3.446   5.977   2.529
 3010SOL    HW2 9930   3.289   5.968   2.575
 3011SOL     OW 9931   6.097   0.227   6.670
 3011SOL    HW1 9932   6.158   0.281   6.613
 3011SOL    HW2 9933   6.147   0.191   6.749
 3012SOL     OW 9934   0.489   4.039   3.522
 3012SOL    HW1 9935   0.512   4.006   3.431
 3012SOL    HW2 9936   0.491   3.963   3.587
 3013SOL     OW 9937   5.642   5.550   2.122
 3013SOL    HW1 9938   5.609   5.644   2.117
 3013SOL    HW2 9939   5.564   5.487   2.122
 3014SOL     OW 9940   4.953   1.216   3.982
 3014SOL    HW1 9941   5.017   1.285   4.016
 3014SOL    HW2 9942   4.997   1.163   3.910
 3015SOL     OW 9943   2.820   2.487   0.427
 3015SOL    HW1 9944   2.758   2.558   0.393
 3015SOL    HW2 9945   2.855   2.434   0.350
 3016SOL     OW 9946   3.636   6.339   3.663
 3016SOL    HW1 9947   3.696   6.283   3.606
 3016SOL    HW2 9948   3.557   6.368   3.610
 3017SOL     OW 9949   0.970   6.101   1.427
 3017SOL    HW1 9950   0.924   6.026   1.379
 3017SOL    HW2 9951   1.008   6.066   1.513
 3018SOL     OW 9952   4.236   6.869   6.601
 3018SOL    HW1 9953   4.167   6.939   6.585
 3018SOL    HW2 9954   4.242   6.850   6.699
 3019SOL     OW 9955   3.486   6.585   1.195
 3019SOL    HW1 9956   3.581   6.558   1.212
 3019SOL    HW2 9957   3.462   6.564   1.101
 3020SOL     OW 9958   2.828   3.428   1.581
 3020SOL    HW1 9959   2.810   3.355   1.516
 3020SOL    HW2 9960   2.927   3.434   1.597
 3021SOL     OW 9961   1.866   2.432   6.498
 3021SOL    HW1 9962   1.814   2.500   6.446
 3021SOL    HW2 9963   1.875   2.463   6.592
 3022SOL     OW 9964   5.133   6.619   3.115
 3022SOL    HW1 9965   5.070   6.552   3.155
 3022SOL    HW2 9966   5.221   6.575   3.098
 3023SOL     OW 9967   4.186   5.646   3.301
 3023SOL    HW1 9968   4.283   5.648   3.277
 3023SOL    HW2 9969   4.131   5.681   3.225
 3024SOL     OW 9970   2.900   1.113   0.420
 3024SOL    HW1 9971   2.945   1.200   0.399
 3024SOL    HW2 9972   2.818   1.104   0.362
 3025SOL     OW 9973   2.386   2.737   1.139
 3025SOL    HW1 9974   2.297   2.692   1.146
 3025SOL    HW2 9975   2.376   2.834   1.161
 3026SOL     OW 9976   1.911   2.724   0.781
 3026SOL    HW1 9977   1.894   2.632   0.817
 3026SOL    HW2 9978   1.953   2.781   0.852
 3027SOL     OW 9979   2.094   1.464   3.157
 3027SOL    HW1 9980   2.074   1.437   3.251
 3027SOL    HW2 9981   2.106   1.564   3.153
 3028SOL     OW 9982   1.891   5.679   6.097
 3028SOL    HW1 9983   1.929   5.761   6.055
 3028SOL    HW2 9984   1.848   5.622   6.027
 3029SOL     OW 9985   6.215   5.700   4.970
 3029SOL    HW1 9986   6.205   5.602   4.954
 3029SOL    HW2 9987   6.173   5.724   5.058
 3030SOL     OW 9988   1.425   1.122   5.463
 3030SOL    HW1 9989   1.466   1.040   5.423
 3030SOL    HW2 9990   1.364   1.095   5.538
 3031SOL     OW 9991   0.552   3.690   6.414
 3031SOL    HW1 9992   0.562   3.759   6.342
 3031SOL    HW2 9993   0.467   3.705   6.464
 3032SOL     OW 9994   4.798   0.656   5.999
 3032SOL    HW1 9995   4.727   0.717   5.964
 3032SOL    HW2 9996   4.874   0.652   5.934
 3033SOL     OW 9997   0.533   3.708   6.752
 3033SOL    HW1 9998   0.526   3.625   6.697
 3033SOL    HW2 9999   0.488   3.784   6.704
 3034SOL     OW10000   3.247   6.504   4.001
 3034SOL    HW110001   3.168   6.445   3.984
 3034SOL    HW210002   3.296   6.471   4.082
 3035SOL     OW10003   5.741   1.417   0.094
 3035SOL    HW110004   5.826   1.415   0.042
 3035SOL    HW210005   5.720   1.325   0.127
 3036SOL     OW10006   1.099   4.200   6.739
 3036SOL    HW110007   1.168   4.200   6.811
 3036SOL    HW210008   1.100   4.288   6.692
 3037SOL     OW10009   6.786   6.350   4.959
 3037SOL    HW110010   6.864   6.413   4.963
 3037SOL    HW210011   6.734   6.355   5.044
 3038SOL     OW10012   5.417   6.927   6.176
 3038SOL    HW110013   5.453   6.834   6.177
 3038SOL    HW210014   5.352   6.939   6.251
 3039SOL     OW10015   0.479   3.932   2.039
 3039SOL    HW110016   0.423   3.851   2.026
 3039SOL    HW210017   0.421   4.014   2.037
 3040SOL     OW10018   2.821   3.621   6.597
 3040SOL    HW110019   2.881   3.699   6.577
 3040SOL    HW210020   2.733   3.655   6.629
 3041SOL     OW10021   1.932   2.420   5.688
 3041SOL    HW110022   1.937   2.327   5.724
 3041SOL    HW210023   1.968   2.421   5.594
 3042SOL     OW10024   4.466   0.224   2.191
 3042SOL    HW110025   4.372   0.213   2.160
 3042SOL    HW210026   4.475   0.311   2.240
 3043SOL     OW10027   1.054   5.774   0.148
 3043SOL    HW110028   1.044   5.720   0.064
 3043SOL    HW210029   0.973   5.831   0.161
 3044SOL     OW10030   3.332   4.145   5.857
 3044SOL    HW110031   3.274   4.214   5.900
 3044SOL    HW210032   3.289   4.111   5.774
 3045SOL     OW10033   5.346   1.950   2.308
 3045SOL    HW110034   5.252   1.951   2.273
 3045SOL    HW210035   5.346   1.914   2.401
 3046SOL     OW10036   1.717   3.103   5.451
 3046SOL    HW110037   1.722   3.145   5.360
 3046SOL    HW210038   1.810   3.090   5.486
 3047SOL     OW10039   5.990   5.537   2.372
 3047SOL    HW110040   5.935   5.607   2.419
 3047SOL    HW210041   5.959   5.446   2.399
 3048SOL     OW10042   3.733   3.267   1.376
 3048SOL    HW110043   3.655   3.266   1.314
 3048SOL    HW210044   3.752   3.174   1.407
 3049SOL     OW10045   0.881   0.763   2.102
 3049SOL    HW110046   0.879   0.844   2.045
 3049SOL    HW210047   0.881   0.681   2.045
 3050SOL     OW10048   4.255   5.632   4.013
 3050SOL    HW110049   4.202   5.588   4.085
 3050SOL    HW210050   4.204   5.628   3.927
 3051SOL     OW10051   3.074   5.303   6.723
 3051SOL    HW110052   3.068   5.206   6.700
 3051SOL    HW210053   3.160   5.340   6.687
 3052SOL     OW10054   4.032   0.219   2.822
 3052SOL    HW110055   4.090   0.294   2.790
 3052SOL    HW210056   3.938   0.234   2.792
 3053SOL     OW10057   5.965   6.590   6.941
 3053SOL    HW110058   5.908   6.655   6.994
 3053SOL    HW210059   5.971   6.504   6.991
 3054SOL     OW10060   0.439   3.585   0.128
 3054SOL    HW110061   0.522   3.641   0.123
 3054SOL    HW210062   0.446   3.510   0.063
 3055SOL     OW10063   5.544   6.477   3.670
 3055SOL    HW110064   5.476   6.407   3.690
 3055SOL    HW210065   5.633   6.434   3.656
 3056SOL     OW10066   6.742   0.577   0.261
 3056SOL    HW110067   6.663   0.553   0.317
 3056SOL    HW210068   6.818   0.515   0.282
 3057SOL     OW10069   6.040   4.669   2.820
 3057SOL    HW110070   6.110   4.717   2.873
 3057SOL    HW210071   6.064   4.573   2.811
 3058SOL     OW10072   6.153   5.610   0.644
 3058SOL    HW110073   6.059   5.609   0.678
 3058SOL    HW210074   6.214   5.574   0.715
 3059SOL     OW10075   0.647   3.283   5.008
 3059SOL    HW110076   0.696   3.260   4.924
 3059SOL    HW210077   0.710   3.321   5.076
 3060SOL     OW10078   0.245   6.187   1.543
 3060SOL    HW110079   0.262   6.273   1.496
 3060SOL    HW210080   0.286   6.112   1.490
 3061SOL     OW10081   0.060   0.643   5.024
 3061SOL    HW110082   0.109   0.561   5.054
 3061SOL    HW210083   0.116   0.724   5.041
 3062SOL     OW10084   2.638   6.206   1.154
 3062SOL    HW110085   2.589   6.173   1.073
 3062SOL    HW210086   2.685   6.129   1.198
 3063SOL     OW10087   1.500   5.134   1.329
 3063SOL    HW110088   1.501   5.177   1.419
 3063SOL    HW210089   1.534   5.041   1.335
 3064SOL     OW10090   6.546   3.746   3.195
 3064SOL    HW110091   6.629   3.753   3.140
 3064SOL    HW210092   6.471   3.794   3.149
 3065SOL     OW10093   1.863   0.579   0.085
 3065SOL    HW110094   1.839   0.649   0.152
 3065SOL    HW210095   1.819   0.493   0.108
 3066SOL     OW10096   6.136   4.506   0.952
 3066SOL    HW110097   6.131   4.413   0.916
 3066SOL    HW210098   6.088   4.568   0.890
 3067SOL     OW10099   4.718   0.335   4.152
 3067SOL    HW110100   4.795   0.311   4.094
 3067SOL    HW210101   4.696   0.432   4.140
 3068SOL     OW10102   5.887   5.371   1.048
 3068SOL    HW110103   5.949   5.440   1.086
 3068SOL    HW210104   5.886   5.379   0.948
 3069SOL     OW10105   0.671   5.619   1.819
 3069SOL    HW110106   0.585   5.579   1.786
 3069SOL    HW210107   0.674   5.613   1.918
 3070SOL     OW10108   2.637   1.270   3.470
 3070SOL    HW110109   2.657   1.262   3.372
 3070SOL    HW210110   2.553   1.322   3.484
 3071SOL     OW10111   6.095   0.241   3.918
 3071SOL    HW110112   6.059   0.229   3.826
 3071SOL    HW210113   6.138   0.156   3.948
 3072SOL     OW10114   0.647   6.702   2.364
 3072SOL    HW110115   0.595   6.770   2.312
 3072SOL    HW210116   0.745   6.721   2.357
 3073SOL     OW10117   1.089   3.692   5.618
 3073SOL    HW110118   1.114   3.597   5.634
 3073SOL    HW210119   1.092   3.742   5.705
 3074SOL     OW10120   4.234   2.635   6.616
 3074SOL    HW110121   4.260   2.707   6.551
 3074SOL    HW210122   4.316   2.603   6.664
 3075SOL     OW10123   1.880   6.474   1.037
 3075SOL    HW110124   1.968   6.514   1.011
 3075SOL    HW210125   1.892   6.416   1.117
 3076SOL     OW10126   6.296   0.366   5.198
 3076SOL    HW110127   6.300   0.420   5.114
 3076SOL    HW210128   6.384   0.373   5.246
 3077SOL     OW10129   5.877   4.361   4.796
 3077SOL    HW110130   5.968   4.380   4.761
 3077SOL    HW210131   5.857   4.423   4.872
 3078SOL     OW10132   1.876   3.818   2.238
 3078SOL    HW110133   1.971   3.791   2.251
 3078SOL    HW210134   1.871   3.915   2.215
 3079SOL     OW10135   0.124   2.246   5.062
 3079SOL    HW110136   0.213   2.262   5.020
 3079SOL    HW210137   0.109   2.313   5.134
 3080SOL     OW10138   6.157   5.143   1.135
 3080SOL    HW110139   6.226   5.070   1.137
 3080SOL    HW210140   6.067   5.104   1.154
 3081SOL     OW10141   0.471   4.324   5.745
 3081SOL    HW110142   0.559   4.280   5.726
 3081SOL    HW210143   0.477   4.421   5.724
 3082SOL     OW10144   3.586   0.259   2.458
 3082SOL    HW110145   3.596   0.232   2.362
 3082SOL    HW210146   3.495   0.299   2.472
 3083SOL     OW10147   3.622   0.370   1.859
 3083SOL    HW110148   3.600   0.317   1.777
 3083SOL    HW210149   3.720   0.368   1.875
 3084SOL     OW10150   5.289   5.254   4.316
 3084SOL    HW110151   5.288   5.192   4.395
 3084SOL    HW210152   5.372   5.310   4.319
 3085SOL     OW10153   6.703   5.965   2.374
 3085SOL    HW110154   6.798   5.989   2.355
 3085SOL    HW210155   6.697   5.922   2.464
 3086SOL     OW10156   4.972   1.863   2.734
 3086SOL    HW110157   5.062   1.863   2.779
 3086SOL    HW210158   4.959   1.776   2.686
 3087SOL     OW10159   6.352   4.161   2.999
 3087SOL    HW110160   6.257   4.192   2.992
 3087SOL    HW210161   6.381   4.122   2.912
 3088SOL     OW10162   2.433   4.575   5.390
 3088SOL    HW110163   2.505   4.528   5.441
 3088SOL    HW210164   2.442   4.554   5.292
 3089SOL     OW10165   1.419   2.493   0.007
 3089SOL    HW110166   1.467   2.521   6.949
 3089SOL    HW210167   1.355   2.419   7.009
 3090SOL     OW10168   1.426   1.438   1.351
 3090SOL    HW110169   1.333   1.407   1.330
 3090SOL    HW210170   1.483   1.359   1.375
 3091SOL     OW10171   2.116   6.577   0.949
 3091SOL    HW110172   2.145   6.485   0.976
 3091SOL    HW210173   2.165   6.645   1.005
 3092SOL     OW10174   6.222   0.081   0.735
 3092SOL    HW110175   6.310   0.124   0.752
 3092SOL    HW210176   6.201   0.084   0.637
 3093SOL     OW10177   6.383   5.506   5.240
 3093SOL    HW110178   6.288   5.483   5.263
 3093SOL    HW210179   6.394   5.605   5.243
 3094SOL     OW10180   3.519   5.564   5.193
 3094SOL    HW110181   3.424   5.553   5.164
 3094SOL    HW210182   3.529   5.531   5.287
 3095SOL     OW10183   2.772   4.766   4.238
 3095SOL    HW110184   2.839   4.784   4.311
 3095SOL    HW210185   2.819   4.768   4.150
 3096SOL     OW10186   0.310   6.932   5.367
 3096SOL    HW110187   0.271   6.882   5.289
 3096SOL    HW210188   0.278   0.002   5.365
 3097SOL     OW10189   0.942   2.759   0.564
 3097SOL    HW110190   0.875   2.686   0.579
 3097SOL    HW210191   0.972   2.796   0.652
 3098SOL     OW10192   2.616   3.431   0.742
 3098SOL    HW110193   2.627   3.515   0.795
 3098SOL    HW210194   2.677   3.433   0.662
 3099SOL     OW10195   0.902   6.174   5.543
 3099SOL    HW110196   0.863   6.111   5.475
 3099SOL    HW210197   0.929   6.122   5.624
 3100SOL     OW10198   6.796   6.818   6.509
 3100SOL    HW110199   6.709   6.867   6.497
 3100SOL    HW210200   6.865   6.857   6.449
 3101SOL     OW10201   4.984   6.810   6.394
 3101SOL    HW110202   4.983   6.892   6.338
 3101SOL    HW210203   4.964   6.730   6.337
 3102SOL     OW10204   1.462   4.219   1.114
 3102SOL    HW110205   1.559   4.228   1.134
 3102SOL    HW210206   1.423   4.310   1.096
 3103SOL     OW10207   3.925   2.649   1.373
 3103SOL    HW110208   4.013   2.642   1.326
 3103SOL    HW210209   3.859   2.586   1.331
 3104SOL     OW10210   5.866   5.733   4.201
 3104SOL    HW110211   5.825   5.709   4.289
 3104SOL    HW210212   5.795   5.766   4.139
 3105SOL     OW10213   6.003   6.737   4.169
 3105SOL    HW110214   6.042   6.796   4.240
 3105SOL    HW210215   5.918   6.778   4.135
 3106SOL     OW10216   6.400   2.716   2.992
 3106SOL    HW110217   6.378   2.809   2.961
 3106SOL    HW210218   6.491   2.715   3.033
 3107SOL     OW10219   3.205   0.470   4.080
 3107SOL    HW110220   3.189   0.563   4.114
 3107SOL    HW210221   3.118   0.430   4.053
 3108SOL     OW10222   2.301   0.898   4.301
 3108SOL    HW110223   2.353   0.902   4.216
 3108SOL    HW210224   2.347   0.835   4.365
 3109SOL     OW10225   5.067   6.193   3.417
 3109SOL    HW110226   5.127   6.192   3.498
 3109SOL    HW210227   5.042   6.100   3.392
 3110SOL     OW10228   0.616   2.939   2.280
 3110SOL    HW110229   0.568   3.027   2.279
 3110SOL    HW210230   0.647   2.917   2.188
 3111SOL     OW10231   6.962   5.460   3.472
 3111SOL    HW110232   0.003   5.401   3.425
 3111SOL    HW210233   6.929   5.414   3.554
 3112SOL     OW10234   4.544   3.659   6.418
 3112SOL    HW110235   4.534   3.746   6.466
 3112SOL    HW210236   4.489   3.589   6.465
 3113SOL     OW10237   2.072   6.813   3.365
 3113SOL    HW110238   2.161   6.777   3.339
 3113SOL    HW210239   2.060   6.807   3.464
 3114SOL     OW10240   6.014   4.638   0.738
 3114SOL    HW110241   6.028   4.642   0.639
 3114SOL    HW210242   5.954   4.713   0.766
 3115SOL     OW10243   3.790   3.975   0.279
 3115SOL    HW110244   3.705   3.954   0.232
 3115SOL    HW210245   3.772   3.998   0.374
 3116SOL     OW10246   6.519   2.297   6.558
 3116SOL    HW110247   6.591   2.357   6.523
 3116SOL    HW210248   6.450   2.352   6.606
 3117SOL     OW10249   4.169   3.171   5.327
 3117SOL    HW110250   4.131   3.219   5.248
 3117SOL    HW210251   4.227   3.234   5.378
 3118SOL     OW10252   6.695   4.140   0.739
 3118SOL    HW110253   6.736   4.207   0.677
 3118SOL    HW210254   6.742   4.143   0.827
 3119SOL     OW10255   1.554   4.779   4.986
 3119SOL    HW110256   1.565   4.778   4.887
 3119SOL    HW210257   1.515   4.692   5.016
 3120SOL     OW10258   2.990   5.146   4.646
 3120SOL    HW110259   2.999   5.046   4.647
 3120SOL    HW210260   2.894   5.171   4.651
 3121SOL     OW10261   6.636   0.979   2.208
 3121SOL    HW110262   6.663   1.045   2.278
 3121SOL    HW210263   6.568   1.020   2.147
 3122SOL     OW10264   2.899   5.456   6.561
 3122SOL    HW110265   2.827   5.395   6.528
 3122SOL    HW210266   2.939   5.418   6.644
 3123SOL     OW10267   3.796   6.678   3.955
 3123SOL    HW110268   3.726   6.744   3.981
 3123SOL    HW210269   3.795   6.665   3.856
 3124SOL     OW10270   4.275   1.451   5.580
 3124SOL    HW110271   4.272   1.389   5.659
 3124SOL    HW210272   4.299   1.543   5.611
 3125SOL     OW10273   6.467   1.640   6.074
 3125SOL    HW110274   6.521   1.693   6.010
 3125SOL    HW210275   6.492   1.544   6.068
 3126SOL     OW10276   4.331   5.909   6.959
 3126SOL    HW110277   4.292   5.969   0.004
 3126SOL    HW210278   4.260   5.848   6.924
 3127SOL     OW10279   0.951   2.078   3.872
 3127SOL    HW110280   0.990   1.988   3.853
 3127SOL    HW210281   0.963   2.137   3.792
 3128SOL     OW10282   2.120   1.049   0.896
 3128SOL    HW110283   2.143   0.969   0.841
 3128SOL    HW210284   2.083   1.121   0.837
 3129SOL     OW10285   6.727   3.748   5.488
 3129SOL    HW110286   6.716   3.652   5.461
 3129SOL    HW210287   6.638   3.795   5.482
 3130SOL     OW10288   1.983   4.748   2.137
 3130SOL    HW110289   1.917   4.817   2.167
 3130SOL    HW210290   1.938   4.659   2.129
 3131SOL     OW10291   6.978   3.231   2.475
 3131SOL    HW110292   6.930   3.272   2.397
 3131SOL    HW210293   6.972   3.131   2.469
 3132SOL     OW10294   5.883   6.288   5.482
 3132SOL    HW110295   5.910   6.350   5.556
 3132SOL    HW210296   5.791   6.312   5.451
 3133SOL     OW10297   2.956   2.184   2.989
 3133SOL    HW110298   3.049   2.156   3.012
 3133SOL    HW210299   2.935   2.158   2.895
 3134SOL     OW10300   5.042   3.468   1.369
 3134SOL    HW110301   5.091   3.518   1.297
 3134SOL    HW210302   5.079   3.493   1.458
 3135SOL     OW10303   3.504   2.050   3.517
 3135SOL    HW110304   3.505   1.950   3.528
 3135SOL    HW210305   3.453   2.091   3.593
 3136SOL     OW10306   6.358   6.203   5.966
 3136SOL    HW110307   6.452   6.169   5.961
 3136SOL    HW210308   6.300   6.134   6.009
 3137SOL     OW10309   5.407   2.031   4.080
 3137SOL    HW110310   5.476   1.965   4.052
 3137SOL    HW210311   5.413   2.045   4.179
 3138SOL     OW10312   6.332   1.294   4.626
 3138SOL    HW110313   6.277   1.376   4.608
 3138SOL    HW210314   6.341   1.241   4.543
 3139SOL     OW10315   5.028   6.314   5.099
 3139SOL    HW110316   4.988   6.406   5.096
 3139SOL    HW210317   4.995   6.267   5.181
 3140SOL     OW10318   6.613   6.422   6.754
 3140SOL    HW110319   6.701   6.398   6.796
 3140SOL    HW210320   6.584   6.348   6.693
 3141SOL     OW10321   1.664   5.826   0.413
 3141SOL    HW110322   1.752   5.811   0.368
 3141SOL    HW210323   1.592   5.781   0.361
 3142SOL     OW10324   4.555   6.179   6.102
 3142SOL    HW110325   4.479   6.118   6.122
 3142SOL    HW210326   4.541   6.267   6.146
 3143SOL     OW10327   6.778   2.122   0.342
 3143SOL    HW110328   6.699   2.095   0.396
 3143SOL    HW210329   6.775   2.077   0.253
 3144SOL     OW10330   2.135   3.792   6.669
 3144SOL    HW110331   2.144   3.694   6.685
 3144SOL    HW210332   2.053   3.809   6.613
 3145SOL     OW10333   2.836   5.655   3.038
 3145SOL    HW110334   2.871   5.696   3.122
 3145SOL    HW210335   2.750   5.608   3.057
 3146SOL     OW10336   1.432   0.515   3.247
 3146SOL    HW110337   1.388   0.509   3.337
 3146SOL    HW210338   1.366   0.549   3.180
 3147SOL     OW10339   5.081   3.541   0.417
 3147SOL    HW110340   5.147   3.616   0.428
 3147SOL    HW210341   5.006   3.572   0.358
 3148SOL     OW10342   3.677   5.492   4.567
 3148SOL    HW110343   3.733   5.572   4.588
 3148SOL    HW210344   3.697   5.419   4.632
 3149SOL     OW10345   3.489   0.362   5.790
 3149SOL    HW110346   3.501   0.399   5.882
 3149SOL    HW210347   3.482   0.438   5.725
 3150SOL     OW10348   5.786   6.509   4.469
 3150SOL    HW110349   5.733   6.446   4.412
 3150SOL    HW210350   5.857   6.552   4.414
 3151SOL     OW10351   4.155   1.720   6.204
 3151SOL    HW110352   4.202   1.809   6.202
 3151SOL    HW210353   4.219   1.650   6.236
 3152SOL     OW10354   0.866   5.404   1.448
 3152SOL    HW110355   0.921   5.422   1.530
 3152SOL    HW210356   0.831   5.310   1.453
 3153SOL     OW10357   6.400   4.283   2.278
 3153SOL    HW110358   6.370   4.363   2.225
 3153SOL    HW210359   6.347   4.203   2.251
 3154SOL     OW10360   5.646   2.634   5.949
 3154SOL    HW110361   5.600   2.619   5.862
 3154SOL    HW210362   5.718   2.703   5.937
 3155SOL     OW10363   5.624   5.585   0.931
 3155SOL    HW110364   5.670   5.654   0.986
 3155SOL    HW210365   5.634   5.495   0.974
 3156SOL     OW10366   3.782   4.109   3.593
 3156SOL    HW110367   3.693   4.151   3.612
 3156SOL    HW210368   3.855   4.167   3.630
 3157SOL     OW10369   2.153   3.943   3.909
 3157SOL    HW110370   2.071   3.983   3.949
 3157SOL    HW210371   2.150   3.954   3.810
 3158SOL     OW10372   4.945   6.936   1.094
 3158SOL    HW110373   4.851   6.969   1.096
 3158SOL    HW210374   4.989   6.965   1.009
 3159SOL     OW10375   5.007   5.802   6.953
 3159SOL    HW110376   5.074   5.796   0.002
 3159SOL    HW210377   4.973   5.711   6.930
 3160SOL     OW10378   4.794   4.238   7.000
 3160SOL    HW110379   4.727   4.196   6.938
 3160SOL    HW210380   4.745   4.280   0.052
 3161SOL     OW10381   1.188   1.415   3.119
 3161SOL    HW110382   1.265   1.413   3.056
 3161SOL    HW210383   1.135   1.331   3.111
 3162SOL     OW10384   0.407   5.060   6.165
 3162SOL    HW110385   0.440   5.154   6.171
 3162SOL    HW210386   0.474   4.999   6.206
 3163SOL     OW10387   3.132   4.244   6.429
 3163SOL    HW110388   3.192   4.285   6.361
 3163SOL    HW210389   3.101   4.154   6.398
 3164SOL     OW10390   5.329   4.362   0.082
 3164SOL    HW110391   5.301   4.269   0.103
 3164SOL    HW210392   5.364   4.366   7.013
 3165SOL     OW10393   6.991   1.229   2.116
 3165SOL    HW110394   6.980   1.249   2.018
 3165SOL    HW210395   6.937   1.295   2.169
 3166SOL     OW10396   5.475   3.397   6.617
 3166SOL    HW110397   5.556   3.339   6.613
 3166SOL    HW210398   5.397   3.344   6.649
 3167SOL     OW10399   0.458   5.446   1.780
 3167SOL    HW110400   0.363   5.443   1.810
 3167SOL    HW210401   0.515   5.395   1.845
 3168SOL     OW10402   5.376   3.406   1.016
 3168SOL    HW110403   5.304   3.337   1.013
 3168SOL    HW210404   5.452   3.373   1.073
 3169SOL     OW10405   1.017   2.998   5.098
 3169SOL    HW110406   1.068   3.085   5.107
 3169SOL    HW210407   1.003   2.978   5.001
 3170SOL     OW10408   4.481   0.731   0.286
 3170SOL    HW110409   4.429   0.807   0.246
 3170SOL    HW210410   4.428   0.689   0.359
 3171SOL     OW10411   5.404   6.570   3.064
 3171SOL    HW110412   5.469   6.615   3.125
 3171SOL    HW210413   5.413   6.610   2.972
 3172SOL     OW10414   6.713   0.139   5.155
 3172SOL    HW110415   6.808   0.118   5.131
 3172SOL    HW210416   6.668   0.056   5.186
 3173SOL     OW10417   2.543   0.577   1.669
 3173SOL    HW110418   2.485   0.498   1.648
 3173SOL    HW210419   2.611   0.551   1.737
 3174SOL     OW10420   2.331   2.841   6.297
 3174SOL    HW110421   2.282   2.784   6.363
 3174SOL    HW210422   2.264   2.889   6.239
 3175SOL     OW10423   0.764   6.394   0.941
 3175SOL    HW110424   0.810   6.351   1.019
 3175SOL    HW210425   0.737   6.323   0.876
 3176SOL     OW10426   0.722   4.464   6.611
 3176SOL    HW110427   0.742   4.374   6.572
 3176SOL    HW210428   0.803   4.522   6.605
 3177SOL     OW10429   6.306   5.783   6.029
 3177SOL    HW110430   6.309   5.820   5.937
 3177SOL    HW210431   6.213   5.791   6.065
 3178SOL     OW10432   0.529   3.708   1.375
 3178SOL    HW110433   0.523   3.806   1.356
 3178SOL    HW210434   0.451   3.661   1.333
 3179SOL     OW10435   1.791   1.571   2.306
 3179SOL    HW110436   1.830   1.605   2.391
 3179SOL    HW210437   1.863   1.533   2.249
 3180SOL     OW10438   5.512   0.865   5.940
 3180SOL    HW110439   5.477   0.875   6.033
 3180SOL    HW210440   5.599   0.914   5.932
 3181SOL     OW10441   0.903   0.975   3.423
 3181SOL    HW110442   0.981   1.032   3.448
 3181SOL    HW210443   0.833   1.032   3.379
 3182SOL     OW10444   2.438   5.612   5.560
 3182SOL    HW110445   2.452   5.686   5.626
 3182SOL    HW210446   2.431   5.650   5.468
 3183SOL     OW10447   4.016   3.331   1.403
 3183SOL    HW110448   4.036   3.423   1.437
 3183SOL    HW210449   3.917   3.321   1.391
 3184SOL     OW10450   2.520   2.053   2.041
 3184SOL    HW110451   2.481   2.093   1.958
 3184SOL    HW210452   2.618   2.042   2.030
 3185SOL     OW10453   6.595   0.156   5.638
 3185SOL    HW110454   6.572   0.232   5.577
 3185SOL    HW210455   6.546   0.166   5.724
 3186SOL     OW10456   3.038   0.967   2.642
 3186SOL    HW110457   2.978   1.035   2.684
 3186SOL    HW210458   3.013   0.955   2.546
 3187SOL     OW10459   3.601   4.623   0.169
 3187SOL    HW110460   3.633   4.529   0.157
 3187SOL    HW210461   3.651   4.666   0.244
 3188SOL     OW10462   4.249   5.971   3.554
 3188SOL    HW110463   4.292   5.882   3.570
 3188SOL    HW210464   4.240   6.020   3.641
 3189SOL     OW10465   0.730   6.079   2.658
 3189SOL    HW110466   0.806   6.116   2.605
 3189SOL    HW210467   0.765   6.033   2.740
 3190SOL     OW10468   1.089   5.997   2.310
 3190SOL    HW110469   1.126   6.005   2.402
 3190SOL    HW210470   0.999   6.041   2.307
 3191SOL     OW10471   4.044   0.546   1.249
 3191SOL    HW110472   4.015   0.480   1.318
 3191SOL    HW210473   4.099   0.500   1.180
 3192SOL     OW10474   0.406   3.162   2.285
 3192SOL    HW110475   0.345   3.089   2.315
 3192SOL    HW210476   0.392   3.179   2.187
 3193SOL     OW10477   4.402   2.870   6.258
 3193SOL    HW110478   4.372   2.894   6.350
 3193SOL    HW210479   4.419   2.771   6.253
 3194SOL     OW10480   0.433   3.375   5.882
 3194SOL    HW110481   0.467   3.332   5.798
 3194SOL    HW210482   0.485   3.459   5.899
 3195SOL     OW10483   1.015   3.175   3.358
 3195SOL    HW110484   0.972   3.159   3.270
 3195SOL    HW210485   0.969   3.121   3.429
 3196SOL     OW10486   6.987   0.077   5.381
 3196SOL    HW110487   6.912   0.132   5.418
 3196SOL    HW210488   0.048   0.101   5.428
 3197SOL     OW10489   0.977   4.448   3.730
 3197SOL    HW110490   0.910   4.424   3.800
 3197SOL    HW210491   1.065   4.467   3.774
 3198SOL     OW10492   6.854   1.617   6.961
 3198SOL    HW110493   6.808   1.544   7.011
 3198SOL    HW210494   6.830   1.705   7.002
 3199SOL     OW10495   4.697   1.965   1.813
 3199SOL    HW110496   4.603   1.935   1.798
 3199SOL    HW210497   4.711   2.053   1.769
 3200SOL     OW10498   6.966   1.665   1.297
 3200SOL    HW110499   6.959   1.765   1.302
 3200SOL    HW210500   6.885   1.624   1.338
 3201SOL     OW10501   4.428   4.464   2.878
 3201SOL    HW110502   4.379   4.545   2.911
 3201SOL    HW210503   4.491   4.491   2.805
 3202SOL     OW10504   1.974   5.770   1.658
 3202SOL    HW110505   2.005   5.680   1.627
 3202SOL    HW210506   2.041   5.809   1.722
 3203SOL     OW10507   6.605   6.904   1.688
 3203SOL    HW110508   6.637   6.839   1.620
 3203SOL    HW210509   6.535   6.963   1.647
 3204SOL     OW10510   6.248   5.443   1.873
 3204SOL    HW110511   6.211   5.535   1.865
 3204SOL    HW210512   6.215   5.387   1.797
 3205SOL     OW10513   0.556   3.860   3.724
 3205SOL    HW110514   0.614   3.897   3.797
 3205SOL    HW210515   0.526   3.768   3.749
 3206SOL     OW10516   1.534   0.122   6.568
 3206SOL    HW110517   1.552   0.201   6.510
 3206SOL    HW210518   1.543   0.038   6.514
 3207SOL     OW10519   0.163   1.523   4.364
 3207SOL    HW110520   0.184   1.605   4.312
 3207SOL    HW210521   0.248   1.473   4.384
 3208SOL     OW10522   5.140   6.575   5.461
 3208SOL    HW110523   5.166   6.483   5.432
 3208SOL    HW210524   5.047   6.573   5.500
 3209SOL     OW10525   2.362   0.674   3.849
 3209SOL    HW110526   2.415   0.710   3.925
 3209SOL    HW210527   2.414   0.682   3.764
 3210SOL     OW10528   7.005   4.610   2.807
 3210SOL    HW110529   6.914   4.602   2.848
 3210SOL    HW210530   0.042   4.544   2.851
 3211SOL     OW10531   1.821   4.338   2.374
 3211SOL    HW110532   1.761   4.401   2.324
 3211SOL    HW210533   1.765   4.269   2.421
 3212SOL     OW10534   4.810   2.023   5.923
 3212SOL    HW110535   4.847   1.969   5.998
 3212SOL    HW210536   4.873   2.021   5.846
 3213SOL     OW10537   6.380   6.067   1.885
 3213SOL    HW110538   6.463   6.011   1.887
 3213SOL    HW210539   6.379   6.128   1.965
 3214SOL     OW10540   4.761   5.989   6.073
 3214SOL    HW110541   4.697   5.913   6.087
 3214SOL    HW210542   4.712   6.066   6.032
 3215SOL     OW10543   5.977   1.612   6.823
 3215SOL    HW110544   5.992   1.535   6.885
 3215SOL    HW210545   5.972   1.697   6.874
 3216SOL     OW10546   5.677   6.677   4.054
 3216SOL    HW110547   5.678   6.756   3.992
 3216SOL    HW210548   5.594   6.679   4.109
 3217SOL     OW10549   6.732   3.946   2.089
 3217SOL    HW110550   6.817   3.931   2.139
 3217SOL    HW210551   6.674   4.011   2.139
 3218SOL     OW10552   2.800   0.505   3.170
 3218SOL    HW110553   2.899   0.490   3.170
 3218SOL    HW210554   2.755   0.433   3.116
 3219SOL     OW10555   6.433   0.837   3.956
 3219SOL    HW110556   6.348   0.788   3.974
 3219SOL    HW210557   6.421   0.895   3.876
 3220SOL     OW10558   6.334   3.740   5.843
 3220SOL    HW110559   6.407   3.806   5.825
 3220SOL    HW210560   6.374   3.654   5.876
 3221SOL     OW10561   2.666   6.922   3.223
 3221SOL    HW110562   2.754   6.915   3.177
 3221SOL    HW210563   2.642   7.018   3.235
 3222SOL     OW10564   5.730   2.762   2.618
 3222SOL    HW110565   5.726   2.843   2.558
 3222SOL    HW210566   5.710   2.790   2.712
 3223SOL     OW10567   2.383   5.151   4.625
 3223SOL    HW110568   2.443   5.112   4.555
 3223SOL    HW210569   2.436   5.175   4.706
 3224SOL     OW10570   3.951   5.230   6.961
 3224SOL    HW110571   4.034   5.276   6.932
 3224SOL    HW210572   3.920   5.268   0.024
 3225SOL     OW10573   2.557   3.699   6.675
 3225SOL    HW110574   2.506   3.780   6.648
 3225SOL    HW210575   2.512   3.618   6.638
 3226SOL     OW10576   1.144   0.663   3.970
 3226SOL    HW110577   1.129   0.588   3.906
 3226SOL    HW210578   1.091   0.648   4.053
 3227SOL     OW10579   2.299   1.215   6.499
 3227SOL    HW110580   2.203   1.221   6.472
 3227SOL    HW210581   2.337   1.129   6.466
 3228SOL     OW10582   5.280   3.725   5.120
 3228SOL    HW110583   5.239   3.779   5.194
 3228SOL    HW210584   5.288   3.630   5.148
 3229SOL     OW10585   3.958   2.370   5.345
 3229SOL    HW110586   4.023   2.430   5.300
 3229SOL    HW210587   4.008   2.300   5.396
 3230SOL     OW10588   1.194   0.696   3.634
 3230SOL    HW110589   1.161   0.727   3.545
 3230SOL    HW210590   1.222   0.775   3.689
 3231SOL     OW10591   5.779   5.564   1.270
 3231SOL    HW110592   5.874   5.558   1.238
 3231SOL    HW210593   5.742   5.654   1.249
 3232SOL     OW10594   1.889   4.727   4.163
 3232SOL    HW110595   1.928   4.804   4.212
 3232SOL    HW210596   1.881   4.648   4.224
 3233SOL     OW10597   0.510   3.976   1.333
 3233SOL    HW110598   0.511   3.980   1.234
 3233SOL    HW210599   0.446   4.044   1.369
 3234SOL     OW10600   0.273   1.893   5.526
 3234SOL    HW110601   0.209   1.893   5.449
 3234SOL    HW210602   0.359   1.934   5.497
 3235SOL     OW10603   5.201   0.087   2.506
 3235SOL    HW110604   5.261   0.036   2.567
 3235SOL    HW210605   5.134   0.024   2.466
 3236SOL     OW10606   0.876   2.872   1.825
 3236SOL    HW110607   0.837   2.957   1.788
 3236SOL    HW210608   0.873   2.801   1.754
 3237SOL     OW10609   3.155   0.308   4.407
 3237SOL    HW110610   3.181   0.256   4.489
 3237SOL    HW210611   3.139   0.403   4.432
 3238SOL     OW10612   0.203   6.286   0.128
 3238SOL    HW110613   0.162   6.219   0.190
 3238SOL    HW210614   0.187   6.378   0.164
 3239SOL     OW10615   6.757   6.698   5.507
 3239SOL    HW110616   6.852   6.722   5.486
 3239SOL    HW210617   6.710   6.779   5.541
 3240SOL     OW10618   1.123   1.822   4.320
 3240SOL    HW110619   1.210   1.830   4.271
 3240SOL    HW210620   1.052   1.871   4.269
 3241SOL     OW10621   5.672   0.849   4.452
 3241SOL    HW110622   5.662   0.882   4.358
 3241SOL    HW210623   5.724   0.915   4.505
 3242SOL     OW10624   3.630   6.634   0.252
 3242SOL    HW110625   3.623   6.670   0.159
 3242SOL    HW210626   3.562   6.677   0.310
 3243SOL     OW10627   3.583   5.109   0.492
 3243SOL    HW110628   3.560   5.073   0.582
 3243SOL    HW210629   3.526   5.063   0.423
 3244SOL     OW10630   2.941   6.067   6.356
 3244SOL    HW110631   2.852   6.048   6.398
 3244SOL    HW210632   2.937   6.154   6.306
 3245SOL     OW10633   3.793   2.493   6.237
 3245SOL    HW110634   3.780   2.401   6.199
 3245SOL    HW210635   3.888   2.521   6.224
 3246SOL     OW10636   5.350   6.315   3.705
 3246SOL    HW110637   5.359   6.255   3.785
 3246SOL    HW210638   5.359   6.260   3.622
 3247SOL     OW10639   0.352   2.641   4.298
 3247SOL    HW110640   0.394   2.592   4.221
 3247SOL    HW210641   0.361   2.740   4.283
 3248SOL     OW10642   5.820   3.760   2.376
 3248SOL    HW110643   5.744   3.714   2.332
 3248SOL    HW210644   5.811   3.859   2.362
 3249SOL     OW10645   2.435   4.522   5.066
 3249SOL    HW110646   2.495   4.509   4.987
 3249SOL    HW210647   2.375   4.443   5.076
 3250SOL     OW10648   4.175   6.525   1.778
 3250SOL    HW110649   4.253   6.475   1.741
 3250SOL    HW210650   4.203   6.618   1.803
 3251SOL     OW10651   3.020   0.689   3.216
 3251SOL    HW110652   2.970   0.744   3.149
 3251SOL    HW210653   2.960   0.669   3.294
 3252SOL     OW10654   3.213   2.116   3.048
 3252SOL    HW110655   3.307   2.152   3.043
 3252SOL    HW210656   3.199   2.071   3.136
 3253SOL     OW10657   4.959   3.267   1.194
 3253SOL    HW110658   5.039   3.302   1.243
 3253SOL    HW210659   4.924   3.186   1.241
 3254SOL     OW10660   5.784   5.339   2.733
 3254SOL    HW110661   5.845   5.416   2.748
 3254SOL    HW210662   5.805   5.297   2.644
 3255SOL     OW10663   4.007   4.572   0.558
 3255SOL    HW110664   4.100   4.565   0.521
 3255SOL    HW210665   3.952   4.630   0.498
 3256SOL     OW10666   6.679   6.327   5.205
 3256SOL    HW110667   6.746   6.318   5.279
 3256SOL    HW210668   6.592   6.358   5.244
 3257SOL     OW10669   2.113   2.162   0.350
 3257SOL    HW110670   2.060   2.170   0.434
 3257SOL    HW210671   2.175   2.083   0.356
 3258SOL     OW10672   6.046   0.064   1.589
 3258SOL    HW110673   6.065   6.993   1.611
 3258SOL    HW210674   6.001   0.108   1.668
 3259SOL     OW10675   5.574   6.161   3.470
 3259SOL    HW110676   5.570   6.236   3.405
 3259SOL    HW210677   5.659   6.168   3.523
 3260SOL     OW10678   1.528   2.594   6.790
 3260SOL    HW110679   1.517   2.527   6.716
 3260SOL    HW210680   1.608   2.652   6.771
 3261SOL     OW10681   4.005   1.023   2.952
 3261SOL    HW110682   4.039   0.943   3.000
 3261SOL    HW210683   3.915   1.049   2.988
 3262SOL     OW10684   3.641   1.499   3.140
 3262SOL    HW110685   3.572   1.453   3.084
 3262SOL    HW210686   3.600   1.525   3.228
 3263SOL     OW10687   3.562   5.660   1.908
 3263SOL    HW110688   3.527   5.729   1.844
 3263SOL    HW210689   3.572   5.702   1.999
 3264SOL     OW10690   5.188   5.485   6.574
 3264SOL    HW110691   5.277   5.508   6.535
 3264SOL    HW210692   5.147   5.567   6.614
 3265SOL     OW10693   4.343   0.535   6.788
 3265SOL    HW110694   4.331   0.542   6.887
 3265SOL    HW210695   4.397   0.612   6.756
 3266SOL     OW10696   0.492   1.588   5.792
 3266SOL    HW110697   0.555   1.596   5.715
 3266SOL    HW210698   0.543   1.587   5.878
 3267SOL     OW10699   3.434   2.709   1.006
 3267SOL    HW110700   3.343   2.750   1.011
 3267SOL    HW210701   3.462   2.681   1.098
 3268SOL     OW10702   0.480   4.539   6.489
 3268SOL    HW110703   0.559   4.500   6.535
 3268SOL    HW210704   0.419   4.466   6.458
 3269SOL     OW10705   4.689   3.483   0.782
 3269SOL    HW110706   4.648   3.534   0.706
 3269SOL    HW210707   4.638   3.500   0.866
 3270SOL     OW10708   1.153   6.050   4.848
 3270SOL    HW110709   1.237   6.101   4.865
 3270SOL    HW210710   1.097   6.099   4.781
 3271SOL     OW10711   5.491   1.678   0.872
 3271SOL    HW110712   5.402   1.636   0.892
 3271SOL    HW210713   5.492   1.771   0.909
 3272SOL     OW10714   5.662   6.998   0.308
 3272SOL    HW110715   5.681   0.066   0.278
 3272SOL    HW210716   5.683   6.933   0.235
 3273SOL     OW10717   6.493   6.985   2.434
 3273SOL    HW110718   6.560   0.011   2.378
 3273SOL    HW210719   6.451   6.914   2.378
 3274SOL     OW10720   3.529   1.831   6.139
 3274SOL    HW110721   3.496   1.808   6.230
 3274SOL    HW210722   3.628   1.842   6.141
 3275SOL     OW10723   2.964   1.157   0.060
 3275SOL    HW110724   3.000   1.238   0.107
 3275SOL    HW210725   2.870   1.174   0.032
 3276SOL     OW10726   3.096   6.388   0.179
 3276SOL    HW110727   3.024   6.423   0.239
 3276SOL    HW210728   3.126   6.460   0.117
 3277SOL     OW10729   7.005   6.644   5.223
 3277SOL    HW110730   7.018   6.642   5.124
 3277SOL    HW210731   7.022   6.554   5.261
 3278SOL     OW10732   1.241   0.970   0.129
 3278SOL    HW110733   1.329   0.944   0.170
 3278SOL    HW210734   1.257   1.025   0.047
 3279SOL     OW10735   1.813   7.016   0.769
 3279SOL    HW110736   1.869   6.974   0.841
 3279SOL    HW210737   1.761   0.068   0.808
 3280SOL     OW10738   1.362   4.892   6.174
 3280SOL    HW110739   1.370   4.794   6.192
 3280SOL    HW210740   1.448   4.938   6.198
 3281SOL     OW10741   2.793   5.995   0.152
 3281SOL    HW110742   2.813   6.024   0.246
 3281SOL    HW210743   2.835   6.060   0.088
 3282SOL     OW10744   2.051   5.659   2.716
 3282SOL    HW110745   2.035   5.737   2.656
 3282SOL    HW210746   2.035   5.687   2.811
 3283SOL     OW10747   2.100   0.297   3.657
 3283SOL    HW110748   2.040   0.326   3.582
 3283SOL    HW210749   2.111   0.197   3.655
 3284SOL     OW10750   0.018   3.804   6.870
 3284SOL    HW110751   0.057   3.730   6.924
 3284SOL    HW210752   6.950   3.779   6.841
 3285SOL     OW10753   6.847   2.316   3.939
 3285SOL    HW110754   6.888   2.356   4.022
 3285SOL    HW210755   6.917   2.310   3.868
 3286SOL     OW10756   3.596   4.595   5.436
 3286SOL    HW110757   3.636   4.519   5.487
 3286SOL    HW210758   3.501   4.575   5.413
 3287SOL     OW10759   1.077   5.077   1.072
 3287SOL    HW110760   1.166   5.122   1.071
 3287SOL    HW210761   1.043   5.070   0.978
 3288SOL     OW10762   0.929   6.324   6.922
 3288SOL    HW110763   0.855   6.377   6.963
 3288SOL    HW210764   1.006   6.384   6.900
 3289SOL     OW10765   1.654   5.666   4.095
 3289SOL    HW110766   1.650   5.600   4.170
 3289SOL    HW210767   1.575   5.653   4.035
 3290SOL     OW10768   6.722   5.176   1.447
 3290SOL    HW110769   6.792   5.248   1.441
 3290SOL    HW210770   6.676   5.182   1.536
 3291SOL     OW10771   2.072   0.020   0.986
 3291SOL    HW110772   2.161   0.036   0.942
 3291SOL    HW210773   2.033   0.107   1.015
 3292SOL     OW10774   0.684   6.163   5.998
 3292SOL    HW110775   0.603   6.112   5.969
 3292SOL    HW210776   0.696   6.243   5.939
 3293SOL     OW10777   6.853   0.857   3.130
 3293SOL    HW110778   6.944   0.828   3.102
 3293SOL    HW210779   6.785   0.817   3.068
 3294SOL     OW10780   0.403   0.098   0.116
 3294SOL    HW110781   0.469   0.117   0.044
 3294SOL    HW210782   0.313   0.132   0.088
 3295SOL     OW10783   1.200   2.680   6.571
 3295SOL    HW110784   1.178   2.604   6.510
 3295SOL    HW210785   1.247   2.645   6.652
 3296SOL     OW10786   0.431   6.118   2.631
 3296SOL    HW110787   0.425   6.120   2.532
 3296SOL    HW210788   0.524   6.140   2.660
 3297SOL     OW10789   3.134   2.516   5.896
 3297SOL    HW110790   3.183   2.602   5.909
 3297SOL    HW210791   3.137   2.490   5.800
 3298SOL     OW10792   6.023   3.071   3.317
 3298SOL    HW110793   6.028   3.041   3.412
 3298SOL    HW210794   6.059   2.999   3.258
 3299SOL     OW10795   1.824   7.024   5.031
 3299SOL    HW110796   1.797   6.931   5.053
 3299SOL    HW210797   1.913   7.023   4.985
 3300SOL     OW10798   6.405   6.855   4.665
 3300SOL    HW110799   6.320   6.844   4.613
 3300SOL    HW210800   6.452   6.767   4.670
 3301SOL     OW10801   0.413   3.645   2.592
 3301SOL    HW110802   0.402   3.561   2.645
 3301SOL    HW210803   0.500   3.688   2.616
 3302SOL     OW10804   1.086   4.789   3.845
 3302SOL    HW110805   1.139   4.705   3.836
 3302SOL    HW210806   1.043   4.811   3.758
 3303SOL     OW10807   3.486   3.551   3.304
 3303SOL    HW110808   3.535   3.638   3.296
 3303SOL    HW210809   3.432   3.535   3.222
 3304SOL     OW10810   0.961   6.328   4.408
 3304SOL    HW110811   0.924   6.255   4.350
 3304SOL    HW210812   0.923   6.319   4.500
 3305SOL     OW10813   1.592   1.028   2.181
 3305SOL    HW110814   1.569   1.105   2.121
 3305SOL    HW210815   1.689   1.030   2.202
 3306SOL     OW10816   1.087   3.393   2.687
 3306SOL    HW110817   1.032   3.311   2.701
 3306SOL    HW210818   1.057   3.440   2.604
 3307SOL     OW10819   0.416   5.867   0.381
 3307SOL    HW110820   0.475   5.927   0.327
 3307SOL    HW210821   0.327   5.857   0.337
 3308SOL     OW10822   4.527   5.995   0.458
 3308SOL    HW110823   4.444   6.025   0.505
 3308SOL    HW210824   4.599   6.062   0.472
 3309SOL     OW10825   0.579   5.179   3.048
 3309SOL    HW110826   0.583   5.095   2.993
 3309SOL    HW210827   0.657   5.237   3.025
 3310SOL     OW10828   1.586   6.457   1.571
 3310SOL    HW110829   1.552   6.551   1.566
 3310SOL    HW210830   1.676   6.451   1.527
 3311SOL     OW10831   3.782   6.324   0.663
 3311SOL    HW110832   3.682   6.337   0.660
 3311SOL    HW210833   3.804   6.237   0.618
 3312SOL     OW10834   2.670   3.835   6.867
 3312SOL    HW110835   2.626   3.767   6.809
 3312SOL    HW210836   2.694   3.793   6.955
 3313SOL     OW10837   6.951   5.167   4.317
 3313SOL    HW110838   0.004   5.193   4.374
 3313SOL    HW210839   6.947   5.067   4.310
 3314SOL     OW10840   0.724   3.150   6.024
 3314SOL    HW110841   0.625   3.144   6.036
 3314SOL    HW210842   0.751   3.091   5.948
 3315SOL     OW10843   0.303   2.335   2.653
 3315SOL    HW110844   0.285   2.395   2.731
 3315SOL    HW210845   0.294   2.387   2.568
 3316SOL     OW10846   4.588   0.587   0.866
 3316SOL    HW110847   4.555   0.493   0.854
 3316SOL    HW210848   4.510   0.648   0.877
 3317SOL     OW10849   4.309   2.702   1.530
 3317SOL    HW110850   4.274   2.698   1.437
 3317SOL    HW210851   4.296   2.614   1.575
 3318SOL     OW10852   2.968   5.636   4.668
 3318SOL    HW110853   2.929   5.550   4.700
 3318SOL    HW210854   2.986   5.631   4.570
 3319SOL     OW10855   0.643   5.309   5.057
 3319SOL    HW110856   0.586   5.303   4.976
 3319SOL    HW210857   0.702   5.390   5.051
 3320SOL     OW10858   0.025   0.978   6.220
 3320SOL    HW110859   6.970   0.982   6.280
 3320SOL    HW210860   0.096   1.040   6.255
 3321SOL     OW10861   3.519   4.180   3.681
 3321SOL    HW110862   3.520   4.177   3.781
 3321SOL    HW210863   3.426   4.164   3.648
 3322SOL     OW10864   4.173   2.138   1.704
 3322SOL    HW110865   4.259   2.152   1.752
 3322SOL    HW210866   4.188   2.149   1.605
 3323SOL     OW10867   2.234   5.186   0.186
 3323SOL    HW110868   2.320   5.236   0.198
 3323SOL    HW210869   2.221   5.123   0.262
 3324SOL     OW10870   0.835   2.281   0.385
 3324SOL    HW110871   0.755   2.223   0.372
 3324SOL    HW210872   0.814   2.375   0.356
 3325SOL     OW10873   2.311   3.168   0.524
 3325SOL    HW110874   2.248   3.211   0.460
 3325SOL    HW210875   2.326   3.073   0.499
 3326SOL     OW10876   6.710   0.854   1.910
 3326SOL    HW110877   6.617   0.892   1.912
 3326SOL    HW210878   6.706   0.759   1.879
 3327SOL     OW10879   3.018   6.526   1.854
 3327SOL    HW110880   2.959   6.555   1.929
 3327SOL    HW210881   3.109   6.502   1.889
 3328SOL     OW10882   4.554   0.926   2.617
 3328SOL    HW110883   4.548   0.903   2.714
 3328SOL    HW210884   4.486   0.997   2.595
 3329SOL     OW10885   5.071   0.542   5.123
 3329SOL    HW110886   4.980   0.505   5.139
 3329SOL    HW210887   5.080   0.630   5.170
 3330SOL     OW10888   6.680   5.787   2.607
 3330SOL    HW110889   6.665   5.688   2.605
 3330SOL    HW210890   6.748   5.809   2.678
 3331SOL     OW10891   2.056   3.443   2.717
 3331SOL    HW110892   2.106   3.483   2.641
 3331SOL    HW210893   2.045   3.344   2.702
 3332SOL     OW10894   3.529   5.063   1.373
 3332SOL    HW110895   3.480   5.095   1.292
 3332SOL    HW210896   3.570   5.141   1.421
 3333SOL     OW10897   2.609   3.055   1.665
 3333SOL    HW110898   2.702   3.023   1.680
 3333SOL    HW210899   2.604   3.153   1.681
 3334SOL     OW10900   2.323   2.244   2.090
 3334SOL    HW110901   2.392   2.186   2.134
 3334SOL    HW210902   2.265   2.187   2.031
 3335SOL     OW10903   3.724   4.362   5.604
 3335SOL    HW110904   3.650   4.403   5.658
 3335SOL    HW210905   3.777   4.301   5.663
 3336SOL     OW10906   4.939   5.415   4.211
 3336SOL    HW110907   4.947   5.329   4.262
 3336SOL    HW210908   4.989   5.407   4.125
 3337SOL     OW10909   3.390   3.263   3.139
 3337SOL    HW110910   3.334   3.237   3.218
 3337SOL    HW210911   3.485   3.238   3.156
 3338SOL     OW10912   2.790   2.684   1.630
 3338SOL    HW110913   2.787   2.661   1.533
 3338SOL    HW210914   2.740   2.616   1.682
 3339SOL     OW10915   2.030   7.000   5.953
 3339SOL    HW110916   2.068   6.992   6.045
 3339SOL    HW210917   1.952   0.038   5.955
 3340SOL     OW10918   3.819   0.720   3.837
 3340SOL    HW110919   3.772   0.639   3.872
 3340SOL    HW210920   3.825   0.788   3.910
 3341SOL     OW10921   1.442   3.711   3.007
 3341SOL    HW110922   1.460   3.686   3.102
 3341SOL    HW210923   1.526   3.742   2.963
 3342SOL     OW10924   0.039   0.707   2.448
 3342SOL    HW110925   7.024   0.620   2.417
 3342SOL    HW210926   0.137   0.694   2.466
 3343SOL     OW10927   4.740   5.117   6.627
 3343SOL    HW110928   4.701   5.137   6.537
 3343SOL    HW210929   4.830   5.159   6.634
 3344SOL     OW10930   0.634   3.260   2.112
 3344SOL    HW110931   0.723   3.247   2.068
 3344SOL    HW210932   0.643   3.324   2.187
 3345SOL     OW10933   6.283   5.380   6.787
 3345SOL    HW110934   6.314   5.444   6.717
 3345SOL    HW210935   6.208   5.325   6.752
 3346SOL     OW10936   1.754   0.713   0.315
 3346SOL    HW110937   1.759   0.625   0.362
 3346SOL    HW210938   1.698   0.777   0.368
 3347SOL     OW10939   0.460   3.784   5.923
 3347SOL    HW110940   0.394   3.851   5.889
 3347SOL    HW210941   0.489   3.725   5.847
 3348SOL     OW10942   3.534   3.846   6.428
 3348SOL    HW110943   3.490   3.829   6.517
 3348SOL    HW210944   3.476   3.908   6.374
 3349SOL     OW10945   1.655   4.899   3.679
 3349SOL    HW110946   1.611   4.924   3.765
 3349SOL    HW210947   1.585   4.888   3.608
 3350SOL     OW10948   1.877   4.195   4.790
 3350SOL    HW110949   1.801   4.258   4.808
 3350SOL    HW210950   1.963   4.240   4.813
 3351SOL     OW10951   5.307   0.906   1.854
 3351SOL    HW110952   5.221   0.883   1.899
 3351SOL    HW210953   5.371   0.944   1.921
 3352SOL     OW10954   6.304   1.135   0.065
 3352SOL    HW110955   6.401   1.121   0.042
 3352SOL    HW210956   6.283   1.233   0.062
 3353SOL     OW10957   3.690   0.159   1.404
 3353SOL    HW110958   3.655   0.066   1.416
 3353SOL    HW210959   3.676   0.188   1.309
 3354SOL     OW10960   2.887   4.438   6.393
 3354SOL    HW110961   2.902   4.391   6.306
 3354SOL    HW210962   2.970   4.435   6.447
 3355SOL     OW10963   1.706   0.775   5.112
 3355SOL    HW110964   1.692   0.799   5.016
 3355SOL    HW210965   1.691   0.677   5.124
 3356SOL     OW10966   1.683   0.527   6.200
 3356SOL    HW110967   1.769   0.552   6.245
 3356SOL    HW210968   1.611   0.516   6.269
 3357SOL     OW10969   3.054   3.222   1.692
 3357SOL    HW110970   3.143   3.179   1.708
 3357SOL    HW210971   3.022   3.200   1.601
 3358SOL     OW10972   6.753   0.501   1.592
 3358SOL    HW110973   6.834   0.556   1.568
 3358SOL    HW210974   6.774   0.404   1.578
 3359SOL     OW10975   0.467   6.410   4.591
 3359SOL    HW110976   0.456   6.311   4.597
 3359SOL    HW210977   0.492   6.447   4.680
 3360SOL     OW10978   1.248   3.637   4.485
 3360SOL    HW110979   1.266   3.556   4.429
 3360SOL    HW210980   1.207   3.709   4.429
 3361SOL     OW10981   6.519   6.621   4.680
 3361SOL    HW110982   6.527   6.574   4.591
 3361SOL    HW210983   6.545   6.557   4.753
 3362SOL     OW10984   3.870   0.449   3.665
 3362SOL    HW110985   3.771   0.463   3.662
 3362SOL    HW210986   3.910   0.472   3.576
 3363SOL     OW10987   5.794   3.887   6.872
 3363SOL    HW110988   5.856   3.871   6.795
 3363SOL    HW210989   5.701   3.900   6.836
 3364SOL     OW10990   1.800   3.375   3.160
 3364SOL    HW110991   1.886   3.387   3.110
 3364SOL    HW210992   1.811   3.303   3.228
 3365SOL     OW10993   1.913   4.100   3.278
 3365SOL    HW110994   1.900   4.174   3.345
 3365SOL    HW210995   1.980   4.034   3.314
 3366SOL     OW10996   5.886   3.891   4.429
 3366SOL    HW110997   5.978   3.865   4.457
 3366SOL    HW210998   5.872   3.989   4.445
 3367SOL     OW10999   3.908   3.851   3.635
 3367SOL    HW111000   3.867   3.937   3.602
 3367SOL    HW211001   3.838   3.780   3.638
 3368SOL     OW11002   1.843   0.388   1.797
 3368SOL    HW111003   1.925   0.333   1.784
 3368SOL    HW211004   1.820   0.392   1.894
 3369SOL     OW11005   4.887   1.944   1.104
 3369SOL    HW111006   4.816   1.947   1.174
 3369SOL    HW211007   4.848   1.968   1.015
 3370SOL     OW11008   0.673   5.469   2.661
 3370SOL    HW111009   0.713   5.558   2.641
 3370SOL    HW211010   0.661   5.417   2.576
 3371SOL     OW11011   2.196   2.851   2.253
 3371SOL    HW111012   2.263   2.807   2.313
 3371SOL    HW211013   2.225   2.843   2.158
 3372SOL     OW11014   6.433   3.307   2.639
 3372SOL    HW111015   6.511   3.349   2.594
 3372SOL    HW211016   6.454   3.291   2.736
 3373SOL     OW11017   6.398   2.891   1.396
 3373SOL    HW111018   6.343   2.809   1.383
 3373SOL    HW211019   6.387   2.924   1.490
 3374SOL     OW11020   0.717   6.512   4.479
 3374SOL    HW111021   0.628   6.474   4.506
 3374SOL    HW211022   0.780   6.507   4.556
 3375SOL     OW11023   6.874   5.156   5.677
 3375SOL    HW111024   6.875   5.125   5.772
 3375SOL    HW211025   6.968   5.165   5.644
 3376SOL     OW11026   3.251   3.519   4.111
 3376SOL    HW111027   3.190   3.485   4.183
 3376SOL    HW211028   3.320   3.451   4.090
 3377SOL     OW11029   6.611   5.199   3.743
 3377SOL    HW111030   6.521   5.191   3.699
 3377SOL    HW211031   6.659   5.111   3.736
 3378SOL     OW11032   1.021   6.098   0.317
 3378SOL    HW111033   0.947   6.056   0.264
 3378SOL    HW211034   0.997   6.098   0.414
 3379SOL     OW11035   6.913   3.812   3.311
 3379SOL    HW111036   6.907   3.907   3.340
 3379SOL    HW211037   6.916   3.807   3.211
 3380SOL     OW11038   2.671   4.913   0.623
 3380SOL    HW111039   2.585   4.912   0.674
 3380SOL    HW211040   2.654   4.943   0.529
 3381SOL     OW11041   1.730   3.505   6.016
 3381SOL    HW111042   1.654   3.478   6.074
 3381SOL    HW211043   1.810   3.448   6.037
 3382SOL     OW11044   6.696   3.566   0.848
 3382SOL    HW111045   6.697   3.634   0.921
 3382SOL    HW211046   6.612   3.573   0.796
 3383SOL     OW11047   4.201   5.160   0.255
 3383SOL    HW111048   4.222   5.064   0.237
 3383SOL    HW211049   4.122   5.166   0.316
 3384SOL     OW11050   3.283   4.356   6.674
 3384SOL    HW111051   3.238   4.308   6.599
 3384SOL    HW211052   3.269   4.306   6.759
 3385SOL     OW11053   0.178   2.073   4.079
 3385SOL    HW111054   0.150   2.169   4.069
 3385SOL    HW211055   0.168   2.046   4.175
 3386SOL     OW11056   0.481   4.412   4.925
 3386SOL    HW111057   0.481   4.349   5.002
 3386SOL    HW211058   0.531   4.495   4.949
 3387SOL     OW11059   6.285   1.268   2.865
 3387SOL    HW111060   6.220   1.232   2.797
 3387SOL    HW211061   6.239   1.336   2.922
 3388SOL     OW11062   6.415   4.033   1.045
 3388SOL    HW111063   6.390   4.130   1.039
 3388SOL    HW211064   6.402   4.000   1.138
 3389SOL     OW11065   5.582   6.107   0.147
 3389SOL    HW111066   5.515   6.109   0.222
 3389SOL    HW211067   5.590   6.199   0.108
 3390SOL     OW11068   2.842   5.874   6.175
 3390SOL    HW111069   2.882   5.901   6.262
 3390SOL    HW211070   2.893   5.917   6.100
 3391SOL     OW11071   5.552   3.564   4.074
 3391SOL    HW111072   5.527   3.493   4.140
 3391SOL    HW211073   5.603   3.636   4.121
 3392SOL     OW11074   5.153   0.404   5.841
 3392SOL    HW111075   5.087   0.474   5.869
 3392SOL    HW211076   5.172   0.414   5.743
 3393SOL     OW11077   4.680   6.417   0.510
 3393SOL    HW111078   4.755   6.462   0.558
 3393SOL    HW211079   4.597   6.422   0.566
 3394SOL     OW11080   2.418   5.337   1.025
 3394SOL    HW111081   2.319   5.341   1.041
 3394SOL    HW211082   2.445   5.243   1.005
 3395SOL     OW11083   1.936   0.040   3.654
 3395SOL    HW111084   1.908   0.044   3.558
 3395SOL    HW211085   1.998   6.988   3.668
 3396SOL     OW11086   4.758   1.143   4.495
 3396SOL    HW111087   4.770   1.142   4.396
 3396SOL    HW211088   4.661   1.154   4.517
 3397SOL     OW11089   2.438   5.909   6.672
 3397SOL    HW111090   2.502   5.914   6.749
 3397SOL    HW211091   2.449   5.822   6.625
 3398SOL     OW11092   6.316   2.764   4.791
 3398SOL    HW111093   6.284   2.684   4.840
 3398SOL    HW211094   6.353   2.737   4.702
 3399SOL     OW11095   6.678   6.156   1.654
 3399SOL    HW111096   6.706   6.209   1.574
 3399SOL    HW211097   6.673   6.216   1.734
 3400SOL     OW11098   4.549   3.032   6.067
 3400SOL    HW111099   4.492   2.983   6.134
 3400SOL    HW211100   4.615   2.968   6.027
 3401SOL     OW11101   5.978   3.907   6.025
 3401SOL    HW111102   6.032   3.913   5.940
 3401SOL    HW211103   5.911   3.833   6.016
 3402SOL     OW11104   6.571   3.246   0.890
 3402SOL    HW111105   6.649   3.308   0.902
 3402SOL    HW211106   6.505   3.262   0.963
 3403SOL     OW11107   5.662   6.798   6.441
 3403SOL    HW111108   5.590   6.749   6.392
 3403SOL    HW211109   5.749   6.785   6.393
 3404SOL     OW11110   4.940   4.230   4.948
 3404SOL    HW111111   4.859   4.265   4.901
 3404SOL    HW211112   5.004   4.194   4.880
 3405SOL     OW11113   5.018   6.507   0.264
 3405SOL    HW111114   4.920   6.499   0.250
 3405SOL    HW211115   5.042   6.472   0.355
 3406SOL     OW11116   2.654   5.196   1.874
 3406SOL    HW111117   2.736   5.253   1.870
 3406SOL    HW211118   2.574   5.251   1.853
 3407SOL     OW11119   0.834   4.138   6.848
 3407SOL    HW111120   0.827   4.039   6.832
 3407SOL    HW211121   0.899   4.177   6.782
 3408SOL     OW11122   4.769   0.411   3.736
 3408SOL    HW111123   4.837   0.484   3.739
 3408SOL    HW211124   4.780   0.358   3.652
 3409SOL     OW11125   4.309   0.736   1.285
 3409SOL    HW111126   4.230   0.690   1.245
 3409SOL    HW211127   4.288   0.765   1.378
 3410SOL     OW11128   6.190   0.476   3.589
 3410SOL    HW111129   6.131   0.529   3.650
 3410SOL    HW211130   6.283   0.474   3.627
 3411SOL     OW11131   5.956   3.196   6.330
 3411SOL    HW111132   5.972   3.158   6.239
 3411SOL    HW211133   5.861   3.182   6.356
 3412SOL     OW11134   5.406   3.319   1.741
 3412SOL    HW111135   5.497   3.281   1.723
 3412SOL    HW211136   5.337   3.247   1.727
 3413SOL     OW11137   6.911   1.194   0.006
 3413SOL    HW111138   6.888   1.104   0.044
 3413SOL    HW211139   6.857   1.265   0.053
 3414SOL     OW11140   3.052   4.352   1.056
 3414SOL    HW111141   3.034   4.283   0.987
 3414SOL    HW211142   3.143   4.338   1.095
 3415SOL     OW11143   1.889   1.266   6.162
 3415SOL    HW111144   1.845   1.314   6.086
 3415SOL    HW211145   1.901   1.170   6.137
 3416SOL     OW11146   6.178   6.948   6.633
 3416SOL    HW111147   6.100   6.996   6.674
 3416SOL    HW211148   6.234   7.014   6.583
 3417SOL     OW11149   5.262   6.415   3.425
 3417SOL    HW111150   5.225   6.455   3.509
 3417SOL    HW211151   5.189   6.365   3.378
 3418SOL     OW11152   4.155   5.490   0.822
 3418SOL    HW111153   4.173   5.543   0.904
 3418SOL    HW211154   4.185   5.542   0.742
 3419SOL     OW11155   2.747   5.223   5.340
 3419SOL    HW111156   2.648   5.230   5.348
 3419SOL    HW211157   2.772   5.203   5.246
 3420SOL     OW11158   4.553   1.999   2.497
 3420SOL    HW111159   4.528   2.094   2.518
 3420SOL    HW211160   4.648   1.996   2.465
 3421SOL     OW11161   0.297   2.638   4.574
 3421SOL    HW111162   0.288   2.676   4.482
 3421SOL    HW211163   0.214   2.587   4.597
 3422SOL     OW11164   2.214   6.340   1.063
 3422SOL    HW111165   2.297   6.391   1.085
 3422SOL    HW211166   2.238   6.246   1.039
 3423SOL     OW11167   1.412   4.885   5.287
 3423SOL    HW111168   1.468   4.895   5.204
 3423SOL    HW211169   1.364   4.798   5.285
 3424SOL     OW11170   4.510   1.329   2.146
 3424SOL    HW111171   4.454   1.409   2.127
 3424SOL    HW211172   4.489   1.293   2.237
 3425SOL     OW11173   5.985   3.452   6.473
 3425SOL    HW111174   6.033   3.539   6.459
 3425SOL    HW211175   5.985   3.400   6.388
 3426SOL     OW11176   6.240   3.020   6.153
 3426SOL    HW111177   6.264   3.107   6.195
 3426SOL    HW211178   6.172   3.034   6.081
 3427SOL     OW11179   0.915   2.066   0.555
 3427SOL    HW111180   0.841   2.010   0.593
 3427SOL    HW211181   0.876   2.132   0.490
 3428SOL     OW11182   4.748   6.301   4.826
 3428SOL    HW111183   4.796   6.354   4.896
 3428SOL    HW211184   4.669   6.353   4.794
 3429SOL     OW11185   5.650   0.153   1.165
 3429SOL    HW111186   5.631   0.103   1.249
 3429SOL    HW211187   5.577   0.136   1.099
 3430SOL     OW11188   2.481   4.819   5.482
 3430SOL    HW111189   2.477   4.723   5.456
 3430SOL    HW211190   2.491   4.826   5.582
 3431SOL     OW11191   0.882   4.705   2.606
 3431SOL    HW111192   0.968   4.662   2.632
 3431SOL    HW211193   0.856   4.673   2.514
 3432SOL     OW11194   0.958   4.414   6.950
 3432SOL    HW111195   0.931   4.394   6.856
 3432SOL    HW211196   1.050   4.379   6.966
 3433SOL     OW11197   2.559   1.664   6.749
 3433SOL    HW111198   2.497   1.665   6.670
 3433SOL    HW211199   2.638   1.721   6.730
 3434SOL     OW11200   3.630   2.564   1.721
 3434SOL    HW111201   3.587   2.647   1.757
 3434SOL    HW211202   3.640   2.497   1.795
 3435SOL     OW11203   2.059   1.431   1.228
 3435SOL    HW111204   2.099   1.357   1.174
 3435SOL    HW211205   2.091   1.425   1.323
 3436SOL     OW11206   3.528   6.681   6.197
 3436SOL    HW111207   3.518   6.586   6.166
 3436SOL    HW211208   3.586   6.731   6.134
 3437SOL     OW11209   1.754   6.919   6.459
 3437SOL    HW111210   1.682   6.935   6.526
 3437SOL    HW211211   1.827   6.988   6.471
 3438SOL     OW11212   1.706   3.683   0.840
 3438SOL    HW111213   1.732   3.590   0.812
 3438SOL    HW211214   1.728   3.747   0.766
 3439SOL     OW11215   2.313   5.354   1.409
 3439SOL    HW111216   2.264   5.427   1.457
 3439SOL    HW211217   2.250   5.306   1.347
 3440SOL     OW11218   3.804   4.154   4.911
 3440SOL    HW111219   3.807   4.059   4.944
 3440SOL    HW211220   3.882   4.204   4.948
 3441SOL     OW11221   5.904   4.868   5.948
 3441SOL    HW111222   5.881   4.948   5.893
 3441SOL    HW211223   5.825   4.808   5.955
 3442SOL     OW11224   2.849   3.472   1.286
 3442SOL    HW111225   2.764   3.429   1.255
 3442SOL    HW211226   2.827   3.542   1.354
 3443SOL     OW11227   0.386   6.113   2.163
 3443SOL    HW111228   0.482   6.133   2.182
 3443SOL    HW211229   0.380   6.042   2.093
 3444SOL     OW11230   5.914   4.056   6.252
 3444SOL    HW111231   5.815   4.061   6.267
 3444SOL    HW211232   5.932   4.010   6.165
 3445SOL     OW11233   6.307   4.695   4.046
 3445SOL    HW111234   6.325   4.612   3.993
 3445SOL    HW211235   6.241   4.752   3.997
 3446SOL     OW11236   4.618   0.757   1.564
 3446SOL    HW111237   4.646   0.688   1.497
 3446SOL    HW211238   4.599   0.843   1.517
 3447SOL     OW11239   4.872   0.983   6.431
 3447SOL    HW111240   4.890   1.080   6.412
 3447SOL    HW211241   4.959   0.934   6.435
 3448SOL     OW11242   1.895   4.619   5.241
 3448SOL    HW111243   1.970   4.682   5.260
 3448SOL    HW211244   1.818   4.640   5.301
 3449SOL     OW11245   6.890   4.660   5.623
 3449SOL    HW111246   6.841   4.661   5.711
 3449SOL    HW211247   6.901   4.754   5.590
 3450SOL     OW11248   2.574   6.051   1.799
 3450SOL    HW111249   2.506   6.075   1.869
 3450SOL    HW211250   2.607   5.959   1.815
 3451SOL     OW11251   2.040   1.377   1.577
 3451SOL    HW111252   2.091   1.431   1.643
 3451SOL    HW211253   1.973   1.434   1.530
 3452SOL     OW11254   4.383   1.115   4.683
 3452SOL    HW111255   4.457   1.136   4.747
 3452SOL    HW211256   4.399   1.164   4.597
 3453SOL     OW11257   4.552   6.539   6.492
 3453SOL    HW111258   4.468   6.527   6.545
 3453SOL    HW211259   4.545   6.622   6.438
 3454SOL     OW11260   6.807   3.033   1.196
 3454SOL    HW111261   6.898   3.056   1.230
 3454SOL    HW211262   6.815   2.986   1.108
 3455SOL     OW11263   0.860   3.130   5.455
 3455SOL    HW111264   0.860   3.046   5.400
 3455SOL    HW211265   0.932   3.124   5.524
 3456SOL     OW11266   5.301   5.729   3.797
 3456SOL    HW111267   5.292   5.828   3.807
 3456SOL    HW211268   5.210   5.689   3.782
 3457SOL     OW11269   2.651   4.408   6.567
 3457SOL    HW111270   2.719   4.465   6.519
 3457SOL    HW211271   2.673   4.406   6.664
 3458SOL     OW11272   4.309   1.146   1.988
 3458SOL    HW111273   4.301   1.097   1.901
 3458SOL    HW211274   4.361   1.091   2.053
 3459SOL     OW11275   5.158   6.402   2.502
 3459SOL    HW111276   5.071   6.398   2.549
 3459SOL    HW211277   5.182   6.310   2.469
 3460SOL     OW11278   3.859   1.862   4.911
 3460SOL    HW111279   3.846   1.960   4.895
 3460SOL    HW211280   3.956   1.843   4.926
 3461SOL     OW11281   5.841   5.025   4.783
 3461SOL    HW111282   5.905   4.948   4.790
 3461SOL    HW211283   5.792   5.036   4.869
 3462SOL     OW11284   1.246   3.512   6.345
 3462SOL    HW111285   1.236   3.530   6.247
 3462SOL    HW211286   1.277   3.595   6.392
 3463SOL     OW11287   5.034   4.079   0.428
 3463SOL    HW111288   5.037   4.102   0.331
 3463SOL    HW211289   5.121   4.104   0.471
 3464SOL     OW11290   0.221   4.656   4.837
 3464SOL    HW111291   0.193   4.660   4.741
 3464SOL    HW211292   0.312   4.696   4.846
 3465SOL     OW11293   0.902   1.411   2.427
 3465SOL    HW111294   0.992   1.388   2.466
 3465SOL    HW211295   0.838   1.337   2.447
 3466SOL     OW11296   6.308   3.805   5.348
 3466SOL    HW111297   6.322   3.779   5.252
 3466SOL    HW211298   6.294   3.722   5.403
 3467SOL     OW11299   2.056   3.062   6.609
 3467SOL    HW111300   2.099   2.977   6.641
 3467SOL    HW211301   1.967   3.041   6.570
 3468SOL     OW11302   4.134   6.765   3.064
 3468SOL    HW111303   4.153   6.750   2.967
 3468SOL    HW211304   4.218   6.755   3.116
 3469SOL     OW11305   4.955   3.644   2.470
 3469SOL    HW111306   4.935   3.581   2.546
 3469SOL    HW211307   4.943   3.596   2.383
 3470SOL     OW11308   6.881   5.487   1.197
 3470SOL    HW111309   6.933   5.402   1.207
 3470SOL    HW211310   6.809   5.474   1.128
 3471SOL     OW11311   4.111   0.434   4.586
 3471SOL    HW111312   4.039   0.365   4.585
 3471SOL    HW211313   4.186   0.403   4.645
 3472SOL     OW11314   3.879   1.203   5.156
 3472SOL    HW111315   3.920   1.113   5.169
 3472SOL    HW211316   3.950   1.269   5.132
 3473SOL     OW11317   4.730   0.436   4.456
 3473SOL    HW111318   4.706   0.354   4.509
 3473SOL    HW211319   4.723   0.416   4.358
 3474SOL     OW11320   5.310   4.183   0.446
 3474SOL    HW111321   5.352   4.157   0.359
 3474SOL    HW211322   5.358   4.262   0.484
 3475SOL     OW11323   1.849   6.087   5.093
 3475SOL    HW111324   1.785   6.142   5.039
 3475SOL    HW211325   1.933   6.140   5.110
 3476SOL     OW11326   4.677   1.811   4.290
 3476SOL    HW111327   4.771   1.801   4.323
 3476SOL    HW211328   4.676   1.875   4.213
 3477SOL     OW11329   4.355   5.235   1.943
 3477SOL    HW111330   4.368   5.333   1.958
 3477SOL    HW211331   4.273   5.204   1.992
 3478SOL     OW11332   4.195   4.752   6.851
 3478SOL    HW111333   4.258   4.675   6.852
 3478SOL    HW211334   4.101   4.719   6.849
 3479SOL     OW11335   0.788   0.316   1.929
 3479SOL    HW111336   0.835   0.401   1.905
 3479SOL    HW211337   0.808   0.246   1.861
 3480SOL     OW11338   1.569   1.092   4.124
 3480SOL    HW111339   1.556   1.189   4.106
 3480SOL    HW211340   1.496   1.059   4.184
 3481SOL     OW11341   2.460   6.773   6.307
 3481SOL    HW111342   2.422   6.847   6.252
 3481SOL    HW211343   2.523   6.719   6.250
 3482SOL     OW11344   1.020   1.638   1.490
 3482SOL    HW111345   0.980   1.677   1.407
 3482SOL    HW211346   1.020   1.539   1.484
 3483SOL     OW11347   3.736   1.312   0.628
 3483SOL    HW111348   3.775   1.394   0.585
 3483SOL    HW211349   3.753   1.315   0.727
 3484SOL     OW11350   3.037   3.184   3.721
 3484SOL    HW111351   2.999   3.216   3.808
 3484SOL    HW211352   3.061   3.262   3.665
 3485SOL     OW11353   6.704   1.503   4.781
 3485SOL    HW111354   6.717   1.554   4.696
 3485SOL    HW211355   6.773   1.532   4.847
 3486SOL     OW11356   4.700   1.604   2.625
 3486SOL    HW111357   4.674   1.509   2.606
 3486SOL    HW211358   4.798   1.609   2.643
 3487SOL     OW11359   0.467   0.475   6.946
 3487SOL    HW111360   0.481   0.471   0.021
 3487SOL    HW211361   0.492   0.565   6.912
 3488SOL     OW11362   6.056   2.997   3.582
 3488SOL    HW111363   6.131   2.931   3.577
 3488SOL    HW211364   5.971   2.949   3.602
 3489SOL     OW11365   2.408   6.678   0.653
 3489SOL    HW111366   2.397   6.777   0.644
 3489SOL    HW211367   2.319   6.634   0.657
 3490SOL     OW11368   3.841   3.146   0.991
 3490SOL    HW111369   3.794   3.081   1.049
 3490SOL    HW211370   3.786   3.230   0.984
 3491SOL     OW11371   6.709   2.861   4.656
 3491SOL    HW111372   6.778   2.792   4.676
 3491SOL    HW211373   6.697   2.867   4.557
 3492SOL     OW11374   5.898   5.335   6.233
 3492SOL    HW111375   5.826   5.268   6.221
 3492SOL    HW211376   5.883   5.413   6.171
 3493SOL     OW11377   0.054   4.898   0.437
 3493SOL    HW111378   0.061   4.971   0.369
 3493SOL    HW211379   0.029   4.937   0.525
 3494SOL     OW11380   2.847   6.397   1.070
 3494SOL    HW111381   2.806   6.307   1.085
 3494SOL    HW211382   2.942   6.396   1.102
 3495SOL     OW11383   5.156   4.672   0.725
 3495SOL    HW111384   5.211   4.687   0.642
 3495SOL    HW211385   5.135   4.760   0.768
 3496SOL     OW11386   1.426   4.547   0.505
 3496SOL    HW111387   1.506   4.576   0.558
 3496SOL    HW211388   1.411   4.449   0.519
 3497SOL     OW11389   4.594   6.610   3.811
 3497SOL    HW111390   4.663   6.615   3.883
 3497SOL    HW211391   4.551   6.700   3.800
 3498SOL     OW11392   1.751   1.716   1.743
 3498SOL    HW111393   1.688   1.788   1.712
 3498SOL    HW211394   1.781   1.736   1.836
 3499SOL     OW11395   6.188   3.566   3.705
 3499SOL    HW111396   6.256   3.564   3.632
 3499SOL    HW211397   6.148   3.657   3.711
 3500SOL     OW11398   6.470   2.633   0.778
 3500SOL    HW111399   6.468   2.710   0.843
 3500SOL    HW211400   6.381   2.588   0.778
 3501SOL     OW11401   0.701   4.785   4.124
 3501SOL    HW111402   0.790   4.748   4.096
 3501SOL    HW211403   0.708   4.820   4.217
 3502SOL     OW11404   1.433   3.824   1.882
 3502SOL    HW111405   1.370   3.880   1.827
 3502SOL    HW211406   1.421   3.846   1.979
 3503SOL     OW11407   4.556   5.942   3.735
 3503SOL    HW111408   4.544   5.864   3.673
 3503SOL    HW211409   4.526   5.916   3.827
 3504SOL     OW11410   2.097   3.165   2.589
 3504SOL    HW111411   2.157   3.199   2.517
 3504SOL    HW211412   2.019   3.118   2.548
 3505SOL     OW11413   4.665   5.669   5.075
 3505SOL    HW111414   4.692   5.587   5.024
 3505SOL    HW211415   4.683   5.751   5.020
 3506SOL     OW11416   5.555   4.937   2.259
 3506SOL    HW111417   5.559   4.991   2.174
 3506SOL    HW211418   5.532   4.998   2.335
 3507SOL     OW11419   0.723   0.832   6.281
 3507SOL    HW111420   0.728   0.756   6.216
 3507SOL    HW211421   0.766   0.804   6.367
 3508SOL     OW11422   6.769   3.254   0.422
 3508SOL    HW111423   6.802   3.165   0.452
 3508SOL    HW211424   6.816   3.326   0.474
 3509SOL     OW11425   6.826   0.125   0.858
 3509SOL    HW111426   6.880   0.043   0.876
 3509SOL    HW211427   6.732   0.111   0.888
 3510SOL     OW11428   1.620   2.703   1.601
 3510SOL    HW111429   1.610   2.719   1.503
 3510SOL    HW211430   1.598   2.608   1.621
 3511SOL     OW11431   0.709   0.709   5.335
 3511SOL    HW111432   0.613   0.699   5.307
 3511SOL    HW211433   0.715   0.698   5.434
 3512SOL     OW11434   3.092   3.253   1.403
 3512SOL    HW111435   3.007   3.295   1.371
 3512SOL    HW211436   3.166   3.321   1.400
 3513SOL     OW11437   6.132   4.166   1.653
 3513SOL    HW111438   6.178   4.241   1.700
 3513SOL    HW211439   6.033   4.175   1.666
 3514SOL     OW11440   1.857   6.701   1.683
 3514SOL    HW111441   1.851   6.733   1.588
 3514SOL    HW211442   1.811   6.767   1.742
 3515SOL     OW11443   3.402   5.816   3.376
 3515SOL    HW111444   3.364   5.784   3.289
 3515SOL    HW211445   3.460   5.744   3.415
 3516SOL     OW11446   3.447   1.003   0.617
 3516SOL    HW111447   3.505   1.081   0.593
 3516SOL    HW211448   3.373   0.994   0.549
 3517SOL     OW11449   1.103   0.781   0.010
 3517SOL    HW111450   1.135   0.848   0.076
 3517SOL    HW211451   1.180   0.726   7.002
 3518SOL     OW11452   4.386   3.526   5.821
 3518SOL    HW111453   4.403   3.435   5.859
 3518SOL    HW211454   4.429   3.595   5.879
 3519SOL     OW11455   2.645   6.475   0.868
 3519SOL    HW111456   2.654   6.573   0.852
 3519SOL    HW211457   2.705   6.448   0.943
 3520SOL     OW11458   3.704   5.626   1.336
 3520SOL    HW111459   3.687   5.546   1.279
 3520SOL    HW211460   3.627   5.689   1.329
 3521SOL     OW11461   5.480   2.463   6.994
 3521SOL    HW111462   5.386   2.452   0.003
 3521SOL    HW211463   5.514   2.553   7.021
 3522SOL     OW11464   3.252   5.674   1.582
 3522SOL    HW111465   3.240   5.740   1.657
 3522SOL    HW211466   3.182   5.689   1.512
 3523SOL     OW11467   2.170   5.176   5.731
 3523SOL    HW111468   2.161   5.274   5.716
 3523SOL    HW211469   2.218   5.134   5.654
 3524SOL     OW11470   2.717   6.819   1.540
 3524SOL    HW111471   2.713   6.721   1.561
 3524SOL    HW211472   2.806   6.840   1.500
 3525SOL     OW11473   1.770   3.215   2.609
 3525SOL    HW111474   1.805   3.166   2.529
 3525SOL    HW211475   1.674   3.237   2.595
 3526SOL     OW11476   2.565   0.119   3.344
 3526SOL    HW111477   2.529   0.212   3.352
 3526SOL    HW211478   2.505   0.056   3.393
 3527SOL     OW11479   4.908   3.399   5.670
 3527SOL    HW111480   4.926   3.454   5.752
 3527SOL    HW211481   4.811   3.377   5.664
 3528SOL     OW11482   1.059   6.609   4.388
 3528SOL    HW111483   1.146   6.632   4.345
 3528SOL    HW211484   1.041   6.511   4.379
 3529SOL     OW11485   3.722   6.078   0.166
 3529SOL    HW111486   3.699   6.168   0.130
 3529SOL    HW211487   3.801   6.041   0.117
 3530SOL     OW11488   1.606   5.852   2.628
 3530SOL    HW111489   1.699   5.818   2.646
 3530SOL    HW211490   1.546   5.774   2.610
 3531SOL     OW11491   4.731   3.625   6.814
 3531SOL    HW111492   4.721   3.565   6.734
 3531SOL    HW211493   4.641   3.652   6.848
 3532SOL     OW11494   1.501   6.489   0.487
 3532SOL    HW111495   1.540   6.563   0.432
 3532SOL    HW211496   1.566   6.413   0.491
 3533SOL     OW11497   1.289   1.219   4.044
 3533SOL    HW111498   1.290   1.122   4.071
 3533SOL    HW211499   1.202   1.241   4.000
 3534SOL     OW11500   5.359   0.716   4.724
 3534SOL    HW111501   5.330   0.660   4.802
 3534SOL    HW211502   5.288   0.714   4.654
 3535SOL     OW11503   3.938   6.430   6.928
 3535SOL    HW111504   3.959   6.490   6.851
 3535SOL    HW211505   3.977   6.469   7.012
 3536SOL     OW11506   1.081   4.112   3.127
 3536SOL    HW111507   1.054   4.017   3.145
 3536SOL    HW211508   1.180   4.116   3.112
 3537SOL     OW11509   2.556   5.220   0.689
 3537SOL    HW111510   2.517   5.197   0.778
 3537SOL    HW211511   2.628   5.289   0.702
 3538SOL     OW11512   2.822   0.692   3.637
 3538SOL    HW111513   2.875   0.607   3.639
 3538SOL    HW211514   2.852   0.748   3.560
 3539SOL     OW11515   5.248   6.292   6.585
 3539SOL    HW111516   5.187   6.213   6.594
 3539SOL    HW211517   5.330   6.265   6.534
 3540SOL     OW11518   2.842   4.076   6.314
 3540SOL    HW111519   2.823   4.147   6.247
 3540SOL    HW211520   2.777   4.083   6.390
 3541SOL     OW11521   2.010   3.054   1.283
 3541SOL    HW111522   1.975   2.968   1.247
 3541SOL    HW211523   2.032   3.042   1.380
 3542SOL     OW11524   5.520   1.569   6.669
 3542SOL    HW111525   5.426   1.601   6.664
 3542SOL    HW211526   5.554   1.579   6.762
 3543SOL     OW11527   0.589   2.283   3.889
 3543SOL    HW111528   0.675   2.275   3.939
 3543SOL    HW211529   0.523   2.337   3.941
 3544SOL     OW11530   3.292   3.849   6.999
 3544SOL    HW111531   3.336   3.759   7.006
 3544SOL    HW211532   3.298   3.882   6.905
 3545SOL     OW11533   3.902   7.003   1.367
 3545SOL    HW111534   3.930   6.942   1.441
 3545SOL    HW211535   3.862   0.062   1.406
 3546SOL     OW11536   6.468   4.147   2.748
 3546SOL    HW111537   6.450   4.213   2.676
 3546SOL    HW211538   6.440   4.056   2.718
 3547SOL     OW11539   1.176   3.645   4.801
 3547SOL    HW111540   1.206   3.664   4.707
 3547SOL    HW211541   1.237   3.691   4.865
 3548SOL     OW11542   5.793   0.483   5.324
 3548SOL    HW111543   5.882   0.446   5.298
 3548SOL    HW211544   5.721   0.417   5.300
 3549SOL     OW11545   2.900   6.756   0.460
 3549SOL    HW111546   2.851   6.819   0.399
 3549SOL    HW211547   2.905   6.666   0.417
 3550SOL     OW11548   5.558   1.059   5.103
 3550SOL    HW111549   5.594   0.998   5.032
 3550SOL    HW211550   5.559   1.011   5.191
 3551SOL     OW11551   4.747   2.253   4.421
 3551SOL    HW111552   4.811   2.189   4.464
 3551SOL    HW211553   4.653   2.224   4.440
 3552SOL     OW11554   6.555   6.985   3.582
 3552SOL    HW111555   6.565   0.046   3.530
 3552SOL    HW211556   6.479   6.994   3.646
 3553SOL     OW11557   5.712   5.689   6.769
 3553SOL    HW111558   5.631   5.676   6.825
 3553SOL    HW211559   5.758   5.774   6.795
 3554SOL     OW11560   5.977   4.188   0.289
 3554SOL    HW111561   5.913   4.246   0.340
 3554SOL    HW211562   5.927   4.117   0.241
 3555SOL     OW11563   3.178   1.808   4.833
 3555SOL    HW111564   3.091   1.817   4.785
 3555SOL    HW211565   3.199   1.893   4.881
 3556SOL     OW11566   5.579   1.220   6.407
 3556SOL    HW111567   5.525   1.200   6.325
 3556SOL    HW211568   5.563   1.314   6.436
 3557SOL     OW11569   6.182   0.501   1.261
 3557SOL    HW111570   6.088   0.485   1.292
 3557SOL    HW211571   6.190   0.594   1.227
 3558SOL     OW11572   3.613   5.626   2.424
 3558SOL    HW111573   3.689   5.664   2.371
 3558SOL    HW211574   3.594   5.686   2.502
 3559SOL     OW11575   4.677   6.880   6.073
 3559SOL    HW111576   4.700   6.918   5.983
 3559SOL    HW211577   4.613   6.941   6.120
 3560SOL     OW11578   1.909   5.385   3.604
 3560SOL    HW111579   1.872   5.453   3.541
 3560SOL    HW211580   1.874   5.295   3.579
 3561SOL     OW11581   4.563   3.772   5.381
 3561SOL    HW111582   4.532   3.743   5.471
 3561SOL    HW211583   4.553   3.696   5.316
 3562SOL     OW11584   2.318   1.651   6.032
 3562SOL    HW111585   2.401   1.705   6.019
 3562SOL    HW211586   2.299   1.643   6.130
 3563SOL     OW11587   6.164   2.657   5.785
 3563SOL    HW111588   6.123   2.731   5.732
 3563SOL    HW211589   6.263   2.672   5.792
 3564SOL     OW11590   5.855   3.694   2.025
 3564SOL    HW111591   5.871   3.784   1.983
 3564SOL    HW211592   5.811   3.634   1.959
 3565SOL     OW11593   3.741   6.175   4.225
 3565SOL    HW111594   3.733   6.254   4.286
 3565SOL    HW211595   3.837   6.162   4.200
 3566SOL     OW11596   0.858   6.634   5.124
 3566SOL    HW111597   0.945   6.627   5.173
 3566SOL    HW211598   0.807   6.713   5.159
 3567SOL     OW11599   6.896   2.986   6.526
 3567SOL    HW111600   6.933   2.896   6.548
 3567SOL    HW211601   6.796   2.980   6.520
 3568SOL     OW11602   5.292   4.108   6.325
 3568SOL    HW111603   5.252   4.034   6.272
 3568SOL    HW211604   5.303   4.079   6.420
 3569SOL     OW11605   1.819   0.989   4.630
 3569SOL    HW111606   1.728   0.956   4.605
 3569SOL    HW211607   1.829   1.084   4.599
 3570SOL     OW11608   5.381   1.807   3.654
 3570SOL    HW111609   5.360   1.897   3.690
 3570SOL    HW211610   5.413   1.816   3.559
 3571SOL     OW11611   6.317   6.343   5.644
 3571SOL    HW111612   6.334   6.301   5.733
 3571SOL    HW211613   6.379   6.420   5.631
 3572SOL     OW11614   6.791   6.067   4.263
 3572SOL    HW111615   6.865   6.053   4.198
 3572SOL    HW211616   6.823   6.044   4.355
 3573SOL     OW11617   1.539   1.896   1.961
 3573SOL    HW111618   1.555   1.927   1.867
 3573SOL    HW211619   1.493   1.968   2.012
 3574SOL     OW11620   6.894   3.715   0.685
 3574SOL    HW111621   6.825   3.683   0.750
 3574SOL    HW211622   6.917   3.641   0.622
 3575SOL     OW11623   6.567   5.710   1.555
 3575SOL    HW111624   6.489   5.743   1.609
 3575SOL    HW211625   6.639   5.780   1.556
 3576SOL     OW11626   0.585   2.138   6.245
 3576SOL    HW111627   0.538   2.072   6.187
 3576SOL    HW211628   0.521   2.209   6.275
 3577SOL     OW11629   1.519   3.108   7.024
 3577SOL    HW111630   1.491   3.020   0.038
 3577SOL    HW211631   1.598   3.095   6.964
 3578SOL     OW11632   3.916   5.522   0.738
 3578SOL    HW111633   3.920   5.574   0.653
 3578SOL    HW211634   4.008   5.516   0.778
 3579SOL     OW11635   0.528   4.234   5.157
 3579SOL    HW111636   0.593   4.164   5.125
 3579SOL    HW211637   0.454   4.190   5.206
 3580SOL     OW11638   6.784   1.990   1.840
 3580SOL    HW111639   6.733   2.068   1.875
 3580SOL    HW211640   6.763   1.909   1.895
 3581SOL     OW11641   6.649   0.503   2.786
 3581SOL    HW111642   6.556   0.465   2.789
 3581SOL    HW211643   6.673   0.528   2.692
 3582SOL     OW11644   0.799   0.613   6.110
 3582SOL    HW111645   0.736   0.583   6.039
 3582SOL    HW211646   0.796   0.549   6.187
 3583SOL     OW11647   2.426   5.618   0.479
 3583SOL    HW111648   2.512   5.569   0.460
 3583SOL    HW211649   2.369   5.561   0.538
 3584SOL     OW11650   5.117   6.692   6.022
 3584SOL    HW111651   5.110   6.716   5.925
 3584SOL    HW211652   5.028   6.702   6.066
 3585SOL     OW11653   2.592   4.671   3.577
 3585SOL    HW111654   2.649   4.710   3.649
 3585SOL    HW211655   2.513   4.625   3.617
 3586SOL     OW11656   6.814   1.935   6.612
 3586SOL    HW111657   6.888   1.879   6.574
 3586SOL    HW211658   6.816   2.026   6.571
 3587SOL     OW11659   3.871   6.989   6.282
 3587SOL    HW111660   3.906   6.981   6.375
 3587SOL    HW211661   3.936   0.016   6.226
 3588SOL     OW11662   2.051   1.687   5.384
 3588SOL    HW111663   2.113   1.706   5.459
 3588SOL    HW211664   2.087   1.612   5.329
 3589SOL     OW11665   2.994   0.701   5.520
 3589SOL    HW111666   3.038   0.652   5.596
 3589SOL    HW211667   3.063   0.740   5.461
 3590SOL     OW11668   1.814   5.102   6.279
 3590SOL    HW111669   1.853   5.109   6.371
 3590SOL    HW211670   1.845   5.179   6.224
 3591SOL     OW11671   5.040   2.294   5.791
 3591SOL    HW111672   5.002   2.238   5.718
 3591SOL    HW211673   5.139   2.282   5.794
 3592SOL     OW11674   4.845   2.805   1.884
 3592SOL    HW111675   4.919   2.819   1.819
 3592SOL    HW211676   4.803   2.894   1.907
 3593SOL     OW11677   1.545   5.231   3.016
 3593SOL    HW111678   1.637   5.262   2.995
 3593SOL    HW211679   1.540   5.132   3.004
 3594SOL     OW11680   3.099   0.952   4.179
 3594SOL    HW111681   3.049   0.968   4.094
 3594SOL    HW211682   3.047   0.990   4.256
 3595SOL     OW11683   3.125   6.018   5.186
 3595SOL    HW111684   3.208   5.964   5.170
 3595SOL    HW211685   3.050   5.981   5.131
 3596SOL     OW11686   6.645   2.738   3.110
 3596SOL    HW111687   6.736   2.716   3.077
 3596SOL    HW211688   6.649   2.764   3.206
 3597SOL     OW11689   4.097   5.663   3.759
 3597SOL    HW111690   4.020   5.646   3.820
 3597SOL    HW211691   4.109   5.761   3.746
 3598SOL     OW11692   1.060   0.030   6.831
 3598SOL    HW111693   1.010   0.008   6.914
 3598SOL    HW211694   1.046   0.127   6.808
 3599SOL     OW11695   0.143   1.990   4.334
 3599SOL    HW111696   0.169   1.903   4.376
 3599SOL    HW211697   0.065   2.029   4.384
 3600SOL     OW11698   5.982   0.710   0.396
 3600SOL    HW111699   6.051   0.774   0.432
 3600SOL    HW211700   5.930   0.670   0.472
 3601SOL     OW11701   6.524   3.901   5.757
 3601SOL    HW111702   6.556   3.959   5.832
 3601SOL    HW211703   6.547   3.945   5.669
 3602SOL     OW11704   1.834   1.897   0.457
 3602SOL    HW111705   1.736   1.899   0.478
 3602SOL    HW211706   1.848   1.855   0.367
 3603SOL     OW11707   3.879   4.927   4.929
 3603SOL    HW111708   3.797   4.967   4.888
 3603SOL    HW211709   3.951   4.918   4.860
 3604SOL     OW11710   0.387   3.159   2.575
 3604SOL    HW111711   0.443   3.172   2.493
 3604SOL    HW211712   0.445   3.127   2.650
 3605SOL     OW11713   6.142   3.661   6.491
 3605SOL    HW111714   6.202   3.625   6.563
 3605SOL    HW211715   6.167   3.756   6.472
 3606SOL     OW11716   0.948   4.704   4.730
 3606SOL    HW111717   0.864   4.747   4.697
 3606SOL    HW211718   0.986   4.758   4.805
 3607SOL     OW11719   5.022   0.014   0.022
 3607SOL    HW111720   5.023   7.015   0.119
 3607SOL    HW211721   4.927   0.027   7.016
 3608SOL     OW11722   0.912   2.362   2.752
 3608SOL    HW111723   0.889   2.344   2.657
 3608SOL    HW211724   1.010   2.379   2.760
 3609SOL     OW11725   6.785   0.384   4.542
 3609SOL    HW111726   6.775   0.295   4.586
 3609SOL    HW211727   6.696   0.414   4.507
 3610SOL     OW11728   1.127   6.561   5.168
 3610SOL    HW111729   1.104   6.478   5.219
 3610SOL    HW211730   1.224   6.583   5.182
 3611SOL     OW11731   3.468   5.452   5.456
 3611SOL    HW111732   3.511   5.363   5.471
 3611SOL    HW211733   3.473   5.506   5.540
 3612SOL     OW11734   1.139   0.379   1.205
 3612SOL    HW111735   1.133   0.281   1.185
 3612SOL    HW211736   1.105   0.431   1.127
 3613SOL     OW11737   5.130   6.053   6.569
 3613SOL    HW111738   5.039   6.058   6.611
 3613SOL    HW211739   5.132   5.978   6.504
 3614SOL     OW11740   3.609   2.850   3.206
 3614SOL    HW111741   3.526   2.870   3.258
 3614SOL    HW211742   3.588   2.856   3.108
 3615SOL     OW11743   6.831   6.528   6.339
 3615SOL    HW111744   6.798   6.617   6.370
 3615SOL    HW211745   6.820   6.520   6.240
 3616SOL     OW11746   6.902   1.428   5.469
 3616SOL    HW111747   6.824   1.458   5.414
 3616SOL    HW211748   6.895   1.330   5.486
 3617SOL     OW11749   6.850   1.029   6.403
 3617SOL    HW111750   6.809   1.120   6.418
 3617SOL    HW211751   6.895   0.999   6.487
 3618SOL     OW11752   2.579   1.813   6.102
 3618SOL    HW111753   2.559   1.825   6.199
 3618SOL    HW211754   2.678   1.806   6.089
 3619SOL     OW11755   5.985   2.489   4.194
 3619SOL    HW111756   6.015   2.583   4.177
 3619SOL    HW211757   5.893   2.489   4.232
 3620SOL     OW11758   6.298   0.137   4.793
 3620SOL    HW111759   6.351   0.076   4.735
 3620SOL    HW211760   6.204   0.142   4.759
 3621SOL     OW11761   1.679   3.866   5.931
 3621SOL    HW111762   1.642   3.958   5.939
 3621SOL    HW211763   1.757   3.855   5.992
 3622SOL     OW11764   0.723   2.700   1.175
 3622SOL    HW111765   0.721   2.763   1.097
 3622SOL    HW211766   0.630   2.680   1.204
 3623SOL     OW11767   6.601   4.760   3.983
 3623SOL    HW111768   6.507   4.770   4.016
 3623SOL    HW211769   6.602   4.698   3.905
 3624SOL     OW11770   2.842   0.217   2.354
 3624SOL    HW111771   2.871   0.313   2.359
 3624SOL    HW211772   2.901   0.168   2.290
 3625SOL     OW11773   6.793   3.102   4.797
 3625SOL    HW111774   6.827   3.182   4.748
 3625SOL    HW211775   6.772   3.030   4.732
 3626SOL     OW11776   2.433   3.884   5.412
 3626SOL    HW111777   2.447   3.950   5.339
 3626SOL    HW211778   2.461   3.793   5.380
 3627SOL     OW11779   2.963   3.743   3.808
 3627SOL    HW111780   2.949   3.704   3.899
 3627SOL    HW211781   2.908   3.692   3.742
 3628SOL     OW11782   2.864   5.162   2.481
 3628SOL    HW111783   2.887   5.252   2.445
 3628SOL    HW211784   2.868   5.163   2.581
 3629SOL     OW11785   6.277   2.558   4.975
 3629SOL    HW111786   6.348   2.580   5.042
 3629SOL    HW211787   6.292   2.466   4.939
 3630SOL     OW11788   6.105   2.093   4.453
 3630SOL    HW111789   6.186   2.035   4.459
 3630SOL    HW211790   6.127   2.184   4.490
 3631SOL     OW11791   2.219   0.991   4.753
 3631SOL    HW111792   2.283   0.918   4.734
 3631SOL    HW211793   2.179   1.023   4.667
 3632SOL     OW11794   4.674   0.591   6.855
 3632SOL    HW111795   4.584   0.622   6.824
 3632SOL    HW211796   4.746   0.644   6.809
 3633SOL     OW11797   1.947   3.103   5.912
 3633SOL    HW111798   1.850   3.116   5.932
 3633SOL    HW211799   1.963   3.115   5.814
 3634SOL     OW11800   2.125   5.836   5.365
 3634SOL    HW111801   2.037   5.882   5.362
 3634SOL    HW211802   2.113   5.739   5.345
 3635SOL     OW11803   2.593   1.258   5.541
 3635SOL    HW111804   2.594   1.160   5.520
 3635SOL    HW211805   2.522   1.277   5.609
 3636SOL     OW11806   0.905   5.626   6.283
 3636SOL    HW111807   0.805   5.618   6.291
 3636SOL    HW211808   0.946   5.607   6.372
 3637SOL     OW11809   5.611   1.439   2.235
 3637SOL    HW111810   5.651   1.425   2.326
 3637SOL    HW211811   5.536   1.505   2.241
 3638SOL     OW11812   0.235   4.766   4.069
 3638SOL    HW111813   0.216   4.842   4.131
 3638SOL    HW211814   0.316   4.717   4.100
 3639SOL     OW11815   1.959   4.595   0.620
 3639SOL    HW111816   1.989   4.517   0.674
 3639SOL    HW211817   1.905   4.562   0.542
 3640SOL     OW11818   3.559   5.989   1.091
 3640SOL    HW111819   3.616   5.911   1.064
 3640SOL    HW211820   3.464   5.970   1.067
 3641SOL     OW11821   2.427   1.010   4.998
 3641SOL    HW111822   2.348   1.007   4.937
 3641SOL    HW211823   2.455   1.105   5.012
 3642SOL     OW11824   5.535   0.085   4.660
 3642SOL    HW111825   5.437   0.066   4.661
 3642SOL    HW211826   5.561   0.124   4.571
 3643SOL     OW11827   3.036   4.868   4.675
 3643SOL    HW111828   3.003   4.860   4.769
 3643SOL    HW211829   3.129   4.905   4.676
 3644SOL     OW11830   6.846   0.520   0.578
 3644SOL    HW111831   6.889   0.431   0.596
 3644SOL    HW211832   6.757   0.523   0.623
 3645SOL     OW11833   3.798   0.773   3.425
 3645SOL    HW111834   3.744   0.770   3.341
 3645SOL    HW211835   3.744   0.813   3.498
 3646SOL     OW11836   0.318   4.794   5.414
 3646SOL    HW111837   0.358   4.842   5.336
 3646SOL    HW211838   0.318   4.696   5.396
 3647SOL     OW11839   2.365   2.997   1.153
 3647SOL    HW111840   2.375   3.072   1.218
 3647SOL    HW211841   2.412   3.020   1.067
 3648SOL     OW11842   3.139   6.554   2.412
 3648SOL    HW111843   3.176   6.597   2.330
 3648SOL    HW211844   3.096   6.467   2.389
 3649SOL     OW11845   3.845   3.510   0.902
 3649SOL    HW111846   3.830   3.478   0.996
 3649SOL    HW211847   3.941   3.535   0.891
 3650SOL     OW11848   0.597   6.606   1.425
 3650SOL    HW111849   0.597   6.670   1.502
 3650SOL    HW211850   0.690   6.597   1.389
 3651SOL     OW11851   2.069   6.105   2.701
 3651SOL    HW111852   2.135   6.100   2.776
 3651SOL    HW211853   1.999   6.172   2.722
 3652SOL     OW11854   4.638   5.485   3.319
 3652SOL    HW111855   4.559   5.456   3.373
 3652SOL    HW211856   4.680   5.564   3.363
 3653SOL     OW11857   0.191   1.496   3.119
 3653SOL    HW111858   0.252   1.564   3.159
 3653SOL    HW211859   0.234   1.406   3.122
 3654SOL     OW11860   1.335   6.451   1.392
 3654SOL    HW111861   1.374   6.449   1.484
 3654SOL    HW211862   1.395   6.400   1.330
 3655SOL     OW11863   1.918   0.416   4.964
 3655SOL    HW111864   1.993   0.362   4.926
 3655SOL    HW211865   1.863   0.359   5.025
 3656SOL     OW11866   2.032   2.951   1.538
 3656SOL    HW111867   1.969   2.891   1.586
 3656SOL    HW211868   2.115   2.962   1.591
 3657SOL     OW11869   3.706   5.776   0.978
 3657SOL    HW111870   3.677   5.689   1.016
 3657SOL    HW211871   3.801   5.794   1.005
 3658SOL     OW11872   1.299   5.862   6.117
 3658SOL    HW111873   1.398   5.867   6.105
 3658SOL    HW211874   1.276   5.781   6.171
 3659SOL     OW11875   2.912   4.084   0.085
 3659SOL    HW111876   2.954   4.093   7.019
 3659SOL    HW211877   2.816   4.056   0.075
 3660SOL     OW11878   4.357   5.967   1.681
 3660SOL    HW111879   4.299   5.889   1.657
 3660SOL    HW211880   4.400   6.003   1.598
 3661SOL     OW11881   4.833   0.804   0.414
 3661SOL    HW111882   4.858   0.761   0.328
 3661SOL    HW211883   4.737   0.829   0.412
 3662SOL     OW11884   3.144   6.984   5.261
 3662SOL    HW111885   3.163   6.887   5.279
 3662SOL    HW211886   3.098   6.993   5.173
 3663SOL     OW11887   1.179   2.764   0.003
 3663SOL    HW111888   1.181   2.664   0.013
 3663SOL    HW211889   1.093   2.792   6.985
 3664SOL     OW11890   5.017   0.921   0.866
 3664SOL    HW111891   5.042   0.963   0.953
 3664SOL    HW211892   4.930   0.959   0.834
 3665SOL     OW11893   0.827   0.184   5.604
 3665SOL    HW111894   0.741   0.167   5.653
 3665SOL    HW211895   0.893   0.113   5.627
 3666SOL     OW11896   1.759   4.421   4.212
 3666SOL    HW111897   1.854   4.391   4.203
 3666SOL    HW211898   1.698   4.347   4.182
 3667SOL     OW11899   6.215   1.408   6.242
 3667SOL    HW111900   6.207   1.393   6.143
 3667SOL    HW211901   6.309   1.392   6.270
 3668SOL     OW11902   1.300   6.082   2.462
 3668SOL    HW111903   1.329   6.169   2.501
 3668SOL    HW211904   1.308   6.086   2.362
 3669SOL     OW11905   6.877   2.654   3.426
 3669SOL    HW111906   6.900   2.751   3.417
 3669SOL    HW211907   6.795   2.644   3.481
 3670SOL     OW11908   2.372   6.250   5.865
 3670SOL    HW111909   2.397   6.186   5.792
 3670SOL    HW211910   2.315   6.202   5.933
 3671SOL     OW11911   1.188   0.273   3.039
 3671SOL    HW111912   1.247   0.337   2.989
 3671SOL    HW211913   1.240   0.230   3.113
 3672SOL     OW11914   6.515   0.725   0.245
 3672SOL    HW111915   6.494   0.809   0.193
 3672SOL    HW211916   6.613   0.708   0.241
 3673SOL     OW11917   5.154   0.564   6.475
 3673SOL    HW111918   5.223   0.498   6.447
 3673SOL    HW211919   5.076   0.516   6.516
 3674SOL     OW11920   1.226   6.308   0.598
 3674SOL    HW111921   1.249   6.371   0.671
 3674SOL    HW211922   1.160   6.351   0.536
 3675SOL     OW11923   2.030   2.412   5.210
 3675SOL    HW111924   2.044   2.449   5.302
 3675SOL    HW211925   1.960   2.465   5.163
 3676SOL     OW11926   2.979   5.429   3.653
 3676SOL    HW111927   2.952   5.456   3.560
 3676SOL    HW211928   2.907   5.373   3.693
 3677SOL     OW11929   6.556   6.863   4.290
 3677SOL    HW111930   6.618   6.900   4.358
 3677SOL    HW211931   6.599   6.786   4.243
 3678SOL     OW11932   1.390   1.466   3.787
 3678SOL    HW111933   1.444   1.547   3.764
 3678SOL    HW211934   1.293   1.489   3.783
 3679SOL     OW11935   0.714   0.943   1.947
 3679SOL    HW111936   0.699   1.006   1.870
 3679SOL    HW211937   0.627   0.902   1.974
 3680SOL     OW11938   6.862   3.112   4.271
 3680SOL    HW111939   6.773   3.146   4.300
 3680SOL    HW211940   6.860   3.092   4.173
 3681SOL     OW11941   0.094   6.691   5.653
 3681SOL    HW111942   0.068   6.745   5.733
 3681SOL    HW211943   0.053   6.732   5.571
 3682SOL     OW11944   6.642   1.801   6.414
 3682SOL    HW111945   6.675   1.884   6.459
 3682SOL    HW211946   6.681   1.795   6.322
 3683SOL     OW11947   5.640   6.772   4.444
 3683SOL    HW111948   5.694   6.690   4.462
 3683SOL    HW211949   5.574   6.754   4.371
 3684SOL     OW11950   1.449   3.225   1.657
 3684SOL    HW111951   1.387   3.295   1.692
 3684SOL    HW211952   1.542   3.262   1.652
 3685SOL     OW11953   6.199   6.350   6.876
 3685SOL    HW111954   6.217   6.379   6.782
 3685SOL    HW211955   6.246   6.412   6.939
 3686SOL     OW11956   6.232   4.446   1.751
 3686SOL    HW111957   6.234   4.527   1.692
 3686SOL    HW211958   6.233   4.476   1.847
 3687SOL     OW11959   3.940   0.797   0.177
 3687SOL    HW111960   3.868   0.732   0.151
 3687SOL    HW211961   3.912   0.845   0.260
 3688SOL     OW11962   1.252   3.546   0.411
 3688SOL    HW111963   1.201   3.480   0.356
 3688SOL    HW211964   1.194   3.580   0.485
 3689SOL     OW11965   1.849   0.312   4.259
 3689SOL    HW111966   1.825   0.356   4.173
 3689SOL    HW211967   1.772   0.318   4.323
 3690SOL     OW11968   5.734   0.043   5.844
 3690SOL    HW111969   5.802   0.063   5.915
 3690SOL    HW211970   5.753   0.100   5.764
 3691SOL     OW11971   2.769   3.460   7.000
 3691SOL    HW111972   2.687   3.452   6.944
 3691SOL    HW211973   2.788   3.372   0.019
 3692SOL     OW11974   1.610   6.798   5.441
 3692SOL    HW111975   1.667   6.877   5.463
 3692SOL    HW211976   1.624   6.772   5.345
 3693SOL     OW11977   2.742   2.302   3.147
 3693SOL    HW111978   2.760   2.336   3.239
 3693SOL    HW211979   2.829   2.282   3.101
 3694SOL     OW11980   2.178   6.315   3.270
 3694SOL    HW111981   2.189   6.216   3.261
 3694SOL    HW211982   2.182   6.357   3.179
 3695SOL     OW11983   1.785   1.918   2.262
 3695SOL    HW111984   1.693   1.897   2.295
 3695SOL    HW211985   1.852   1.893   2.332
 3696SOL     OW11986   4.373   0.030   5.956
 3696SOL    HW111987   4.369   0.129   5.960
 3696SOL    HW211988   4.280   7.017   5.950
 3697SOL     OW11989   6.391   0.232   4.384
 3697SOL    HW111990   6.447   0.313   4.371
 3697SOL    HW211991   6.417   0.186   4.469
 3698SOL     OW11992   2.871   0.403   6.034
 3698SOL    HW111993   2.796   0.446   6.084
 3698SOL    HW211994   2.907   0.468   5.966
 3699SOL     OW11995   0.214   3.867   3.276
 3699SOL    HW111996   0.135   3.925   3.254
 3699SOL    HW211997   0.202   3.829   3.367
 3700SOL     OW11998   0.201   0.073   4.127
 3700SOL    HW111999   0.243   7.016   4.167
 3700SOL    HW212000   0.213   0.151   4.188
 3701SOL     OW12001   6.312   1.139   4.416
 3701SOL    HW112002   6.239   1.073   4.431
 3701SOL    HW212003   6.306   1.174   4.322
 3702SOL     OW12004   3.592   1.219   0.435
 3702SOL    HW112005   3.604   1.247   0.340
 3702SOL    HW212006   3.662   1.262   0.492
 3703SOL     OW12007   4.002   4.506   6.612
 3703SOL    HW112008   3.999   4.606   6.603
 3703SOL    HW212009   4.097   4.475   6.611
 3704SOL     OW12010   2.200   0.087   2.728
 3704SOL    HW112011   2.136   0.152   2.687
 3704SOL    HW212012   2.291   0.102   2.691
 3705SOL     OW12013   4.949   0.689   3.700
 3705SOL    HW112014   4.944   0.722   3.794
 3705SOL    HW212015   5.044   0.671   3.677
 3706SOL     OW12016   1.838   2.509   3.716
 3706SOL    HW112017   1.864   2.475   3.806
 3706SOL    HW212018   1.909   2.489   3.650
 3707SOL     OW12019   4.776   2.632   5.336
 3707SOL    HW112020   4.676   2.638   5.337
 3707SOL    HW212021   4.814   2.701   5.398
 3708SOL     OW12022   5.984   1.076   6.789
 3708SOL    HW112023   5.975   1.141   6.714
 3708SOL    HW212024   5.893   1.046   6.818
 3709SOL     OW12025   3.660   0.299   6.279
 3709SOL    HW112026   3.676   0.395   6.303
 3709SOL    HW212027   3.565   0.287   6.251
 3710SOL     OW12028   6.642   4.617   0.758
 3710SOL    HW112029   6.629   4.704   0.711
 3710SOL    HW212030   6.665   4.545   0.692
 3711SOL     OW12031   6.610   5.649   2.378
 3711SOL    HW112032   6.513   5.639   2.354
 3711SOL    HW212033   6.627   5.743   2.408
 3712SOL     OW12034   1.085   6.773   0.048
 3712SOL    HW112035   0.998   6.823   0.046
 3712SOL    HW212036   1.138   6.796   6.991
 3713SOL     OW12037   3.811   5.870   5.778
 3713SOL    HW112038   3.712   5.877   5.795
 3713SOL    HW212039   3.836   5.932   5.705
 3714SOL     OW12040   3.896   0.235   4.606
 3714SOL    HW112041   3.816   0.193   4.563
 3714SOL    HW212042   3.942   0.168   4.663
 3715SOL     OW12043   5.640   4.752   4.700
 3715SOL    HW112044   5.728   4.727   4.660
 3715SOL    HW212045   5.618   4.690   4.775
 3716SOL     OW12046   6.975   7.023   4.049
 3716SOL    HW112047   6.969   6.924   4.056
 3716SOL    HW212048   0.042   0.029   4.077
 3717SOL     OW12049   6.234   6.533   1.007
 3717SOL    HW112050   6.281   6.491   0.929
 3717SOL    HW212051   6.156   6.476   1.032
 3718SOL     OW12052   1.307   5.798   0.239
 3718SOL    HW112053   1.359   5.719   0.208
 3718SOL    HW212054   1.214   5.793   0.203
 3719SOL     OW12055   4.097   4.901   5.764
 3719SOL    HW112056   4.062   4.974   5.822
 3719SOL    HW212057   4.021   4.861   5.713
 3720SOL     OW12058   5.331   1.381   5.832
 3720SOL    HW112059   5.425   1.372   5.800
 3720SOL    HW212060   5.268   1.356   5.759
 3721SOL     OW12061   5.527   4.560   0.721
 3721SOL    HW112062   5.622   4.554   0.751
 3721SOL    HW212063   5.469   4.586   0.799
 3722SOL     OW12064   6.381   6.126   2.606
 3722SOL    HW112065   6.330   6.146   2.522
 3722SOL    HW212066   6.350   6.039   2.644
 3723SOL     OW12067   5.390   0.417   0.819
 3723SOL    HW112068   5.314   0.375   0.769
 3723SOL    HW212069   5.363   0.431   0.914
 3724SOL     OW12070   1.283   5.521   6.672
 3724SOL    HW112071   1.299   5.470   6.756
 3724SOL    HW212072   1.365   5.520   6.615
 3725SOL     OW12073   6.709   6.047   6.811
 3725SOL    HW112074   6.772   6.117   6.778
 3725SOL    HW212075   6.616   6.083   6.810
 3726SOL     OW12076   5.575   3.926   1.154
 3726SOL    HW112077   5.562   3.855   1.084
 3726SOL    HW212078   5.587   3.884   1.243
 3727SOL     OW12079   2.209   3.204   5.171
 3727SOL    HW112080   2.275   3.136   5.139
 3727SOL    HW212081   2.258   3.282   5.210
 3728SOL     OW12082   1.581   3.354   6.673
 3728SOL    HW112083   1.481   3.348   6.685
 3728SOL    HW212084   1.626   3.336   6.760
 3729SOL     OW12085   0.717   2.099   3.500
 3729SOL    HW112086   0.725   2.011   3.547
 3729SOL    HW212087   0.686   2.169   3.563
 3730SOL     OW12088   3.655   0.780   0.285
 3730SOL    HW112089   3.604   0.865   0.267
 3730SOL    HW212090   3.646   0.719   0.206
 3731SOL     OW12091   4.714   0.090   0.196
 3731SOL    HW112092   4.759   0.111   0.108
 3731SOL    HW212093   4.632   0.147   0.205
 3732SOL     OW12094   2.059   3.762   5.193
 3732SOL    HW112095   2.042   3.843   5.249
 3732SOL    HW212096   2.122   3.785   5.119
 3733SOL     OW12097   2.901   3.935   1.735
 3733SOL    HW112098   2.989   3.973   1.764
 3733SOL    HW212099   2.915   3.849   1.687
 3734SOL     OW12100   5.047   1.251   2.631
 3734SOL    HW112101   4.983   1.284   2.561
 3734SOL    HW212102   5.043   1.151   2.634
 3735SOL     OW12103   3.027   2.214   2.262
 3735SOL    HW112104   2.957   2.149   2.292
 3735SOL    HW212105   2.985   2.283   2.203
 3736SOL     OW12106   5.845   2.109   0.465
 3736SOL    HW112107   5.754   2.096   0.423
 3736SOL    HW212108   5.872   2.024   0.511
 3737SOL     OW12109   4.969   6.868   3.751
 3737SOL    HW112110   5.039   6.930   3.784
 3737SOL    HW212111   4.992   6.774   3.777
 3738SOL     OW12112   6.970   6.491   3.677
 3738SOL    HW112113   7.024   6.519   3.597
 3738SOL    HW212114   6.995   6.398   3.703
 3739SOL     OW12115   0.565   4.395   2.556
 3739SOL    HW112116   0.563   4.311   2.502
 3739SOL    HW212117   0.643   4.393   2.618
 3740SOL     OW12118   5.604   1.569   6.934
 3740SOL    HW112119   5.509   1.578   6.962
 3740SOL    HW212120   5.656   1.523   7.006
 3741SOL     OW12121   4.060   2.579   0.129
 3741SOL    HW112122   4.007   2.505   0.088
 3741SOL    HW212123   4.069   2.563   0.227
 3742SOL     OW12124   3.541   2.901   5.622
 3742SOL    HW112125   3.614   2.851   5.574
 3742SOL    HW212126   3.576   2.989   5.654
 3743SOL     OW12127   0.012   4.874   6.774
 3743SOL    HW112128   0.092   4.818   6.798
 3743SOL    HW212129   6.959   4.814   6.753
 3744SOL     OW12130   0.349   5.301   3.999
 3744SOL    HW112131   0.360   5.289   3.901
 3744SOL    HW212132   0.252   5.313   4.021
 3745SOL     OW12133   4.129   5.731   2.824
 3745SOL    HW112134   4.192   5.807   2.808
 3745SOL    HW212135   4.161   5.651   2.774
 3746SOL     OW12136   4.200   1.854   1.989
 3746SOL    HW112137   4.186   1.820   2.082
 3746SOL    HW212138   4.117   1.841   1.935
 3747SOL     OW12139   3.506   0.999   0.273
 3747SOL    HW112140   3.437   1.061   0.234
 3747SOL    HW212141   3.549   1.043   0.352
 3748SOL     OW12142   5.721   0.811   2.824
 3748SOL    HW112143   5.665   0.886   2.861
 3748SOL    HW212144   5.693   0.725   2.867
 3749SOL     OW12145   1.043   6.822   5.325
 3749SOL    HW112146   1.119   6.758   5.317
 3749SOL    HW212147   1.072   6.912   5.293
 3750SOL     OW12148   0.279   3.845   0.632
 3750SOL    HW112149   0.264   3.777   0.560
 3750SOL    HW212150   0.204   3.911   0.631
 3751SOL     OW12151   0.577   4.330   2.944
 3751SOL    HW112152   0.479   4.333   2.927
 3751SOL    HW212153   0.624   4.295   2.862
 3752SOL     OW12154   6.152   0.932   6.043
 3752SOL    HW112155   6.212   1.006   6.072
 3752SOL    HW212156   6.189   0.844   6.074
 3753SOL     OW12157   0.000   0.504   4.220
 3753SOL    HW112158   0.017   0.426   4.280
 3753SOL    HW212159   6.937   0.546   4.244
 3754SOL     OW12160   2.231   1.310   0.912
 3754SOL    HW112161   2.220   1.261   0.999
 3754SOL    HW212162   2.144   1.310   0.863
 3755SOL     OW12163   2.952   5.028   3.639
 3755SOL    HW112164   2.974   5.026   3.542
 3755SOL    HW212165   3.026   5.072   3.690
 3756SOL     OW12166   2.551   6.190   7.017
 3756SOL    HW112167   2.582   6.272   6.968
 3756SOL    HW212168   2.595   6.109   6.978
 3757SOL     OW12169   6.357   5.046   1.374
 3757SOL    HW112170   6.387   5.121   1.432
 3757SOL    HW212171   6.258   5.035   1.382
 3758SOL     OW12172   1.770   0.117   3.869
 3758SOL    HW112173   1.821   0.054   3.927
 3758SOL    HW212174   1.817   0.129   3.782
 3759SOL     OW12175   4.931   0.861   4.193
 3759SOL    HW112176   4.885   0.820   4.271
 3759SOL    HW212177   5.007   0.918   4.224
 3760SOL     OW12178   0.457   0.912   3.469
 3760SOL    HW112179   0.502   1.002   3.476
 3760SOL    HW212180   0.521   0.847   3.427
 3761SOL     OW12181   5.412   0.880   3.747
 3761SOL    HW112182   5.407   0.791   3.701
 3761SOL    HW212183   5.450   0.948   3.684
 3762SOL     OW12184   0.689   2.855   2.036
 3762SOL    HW112185   0.610   2.864   1.976
 3762SOL    HW212186   0.773   2.869   1.984
 3763SOL     OW12187   0.739   4.390   0.876
 3763SOL    HW112188   0.738   4.346   0.966
 3763SOL    HW212189   0.773   4.325   0.808
 3764SOL     OW12190   2.117   0.489   2.925
 3764SOL    HW112191   2.122   0.392   2.949
 3764SOL    HW212192   2.023   0.513   2.901
 3765SOL     OW12193   5.686   2.527   1.795
 3765SOL    HW112194   5.587   2.536   1.795
 3765SOL    HW212195   5.718   2.513   1.889
 3766SOL     OW12196   1.005   3.492   3.340
 3766SOL    HW112197   1.032   3.586   3.358
 3766SOL    HW212198   1.041   3.463   3.252
 3767SOL     OW12199   1.312   5.011   5.919
 3767SOL    HW112200   1.332   4.994   6.015
 3767SOL    HW212201   1.248   4.942   5.885
 3768SOL     OW12202   1.040   0.154   4.337
 3768SOL    HW112203   1.105   0.081   4.315
 3768SOL    HW212204   1.021   0.154   4.435
 3769SOL     OW12205   5.296   5.208   4.730
 3769SOL    HW112206   5.218   5.213   4.793
 3769SOL    HW212207   5.277   5.140   4.659
 3770SOL     OW12208   1.635   1.015   1.115
 3770SOL    HW112209   1.716   0.998   1.171
 3770SOL    HW212210   1.554   1.017   1.173
 3771SOL     OW12211   6.602   5.070   0.164
 3771SOL    HW112212   6.553   5.157   0.154
 3771SOL    HW212213   6.625   5.035   0.073
 3772SOL     OW12214   1.768   6.195   0.727
 3772SOL    HW112215   1.680   6.194   0.679
 3772SOL    HW212216   1.800   6.101   0.738
 3773SOL     OW12217   5.243   4.402   6.354
 3773SOL    HW112218   5.241   4.305   6.332
 3773SOL    HW212219   5.308   4.448   6.293
 3774SOL     OW12220   6.411   5.225   1.548
 3774SOL    HW112221   6.451   5.200   1.636
 3774SOL    HW212222   6.405   5.324   1.541
 3775SOL     OW12223   4.306   4.792   4.352
 3775SOL    HW112224   4.327   4.765   4.258
 3775SOL    HW212225   4.208   4.807   4.362
 3776SOL     OW12226   3.461   3.018   6.104
 3776SOL    HW112227   3.404   2.987   6.180
 3776SOL    HW212228   3.441   2.964   6.023
 3777SOL     OW12229   2.919   6.171   4.547
 3777SOL    HW112230   2.853   6.119   4.493
 3777SOL    HW212231   2.884   6.263   4.564
 3778SOL     OW12232   3.247   5.191   6.098
 3778SOL    HW112233   3.221   5.288   6.103
 3778SOL    HW212234   3.210   5.151   6.014
 3779SOL     OW12235   6.874   4.674   6.671
 3779SOL    HW112236   6.794   4.730   6.690
 3779SOL    HW212237   6.864   4.585   6.716
 3780SOL     OW12238   5.849   4.150   1.611
 3780SOL    HW112239   5.757   4.122   1.583
 3780SOL    HW212240   5.857   4.249   1.601
 3781SOL     OW12241   3.073   5.768   4.891
 3781SOL    HW112242   3.001   5.730   4.833
 3781SOL    HW212243   3.034   5.838   4.951
 3782SOL     OW12244   5.112   6.261   1.884
 3782SOL    HW112245   5.163   6.178   1.907
 3782SOL    HW212246   5.031   6.237   1.831
 3783SOL     OW12247   5.049   4.871   4.437
 3783SOL    HW112248   4.973   4.890   4.500
 3783SOL    HW212249   5.014   4.826   4.355
 3784SOL     OW12250   6.029   1.882   4.238
 3784SOL    HW112251   6.088   1.945   4.290
 3784SOL    HW212252   6.056   1.788   4.259
 3785SOL     OW12253   1.891   3.510   4.193
 3785SOL    HW112254   1.913   3.554   4.280
 3785SOL    HW212255   1.862   3.579   4.127
 3786SOL     OW12256   2.519   2.638   4.357
 3786SOL    HW112257   2.538   2.616   4.453
 3786SOL    HW212258   2.451   2.710   4.352
 3787SOL     OW12259   4.343   0.126   3.142
 3787SOL    HW112260   4.384   0.204   3.189
 3787SOL    HW212261   4.252   0.152   3.109
 3788SOL     OW12262   6.333   3.240   5.296
 3788SOL    HW112263   6.425   3.258   5.261
 3788SOL    HW212264   6.278   3.198   5.224
 3789SOL     OW12265   1.485   2.588   2.726
 3789SOL    HW112266   1.472   2.650   2.803
 3789SOL    HW212267   1.545   2.513   2.753
 3790SOL     OW12268   0.613   6.838   1.641
 3790SOL    HW112269   0.544   6.792   1.697
 3790SOL    HW212270   0.584   6.932   1.621
 3791SOL     OW12271   4.998   1.125   5.862
 3791SOL    HW112272   5.043   1.149   5.948
 3791SOL    HW212273   5.026   1.189   5.791
 3792SOL     OW12274   6.825   0.767   4.040
 3792SOL    HW112275   6.750   0.714   4.000
 3792SOL    HW212276   6.905   0.709   4.051
 3793SOL     OW12277   4.810   5.545   0.499
 3793SOL    HW112278   4.745   5.588   0.561
 3793SOL    HW212279   4.761   5.499   0.425
 3794SOL     OW12280   1.109   3.955   6.613
 3794SOL    HW112281   1.088   4.036   6.668
 3794SOL    HW212282   1.200   3.964   6.574
 3795SOL     OW12283   1.838   5.979   1.870
 3795SOL    HW112284   1.889   5.902   1.832
 3795SOL    HW212285   1.813   6.042   1.797
 3796SOL     OW12286   4.452   1.430   6.787
 3796SOL    HW112287   4.413   1.445   6.878
 3796SOL    HW212288   4.379   1.412   6.722
 3797SOL     OW12289   1.404   4.377   2.942
 3797SOL    HW112290   1.354   4.372   3.029
 3797SOL    HW212291   1.358   4.320   2.874
 3798SOL     OW12292   1.770   6.483   3.056
 3798SOL    HW112293   1.685   6.441   3.088
 3798SOL    HW212294   1.815   6.528   3.132
 3799SOL     OW12295   0.096   1.487   2.843
 3799SOL    HW112296   0.175   1.441   2.801
 3799SOL    HW212297   0.112   1.495   2.942
 3800SOL     OW12298   5.669   2.404   2.754
 3800SOL    HW112299   5.768   2.413   2.738
 3800SOL    HW212300   5.621   2.477   2.704
 3801SOL     OW12301   5.513   1.079   1.940
 3801SOL    HW112302   5.504   1.116   2.032
 3801SOL    HW212303   5.509   1.155   1.874
 3802SOL     OW12304   6.186   2.273   2.357
 3802SOL    HW112305   6.177   2.230   2.268
 3802SOL    HW212306   6.280   2.263   2.390
 3803SOL     OW12307   3.230   3.687   3.882
 3803SOL    HW112308   3.219   3.646   3.973
 3803SOL    HW212309   3.141   3.711   3.846
 3804SOL     OW12310   3.520   6.012   3.503
 3804SOL    HW112311   3.468   5.930   3.480
 3804SOL    HW212312   3.577   6.038   3.425
 3805SOL     OW12313   2.634   2.750   6.887
 3805SOL    HW112314   2.581   2.803   6.954
 3805SOL    HW212315   2.664   2.810   6.813
 3806SOL     OW12316   3.532   4.435   1.394
 3806SOL    HW112317   3.468   4.440   1.470
 3806SOL    HW212318   3.523   4.346   1.348
 3807SOL     OW12319   2.000   4.060   4.368
 3807SOL    HW112320   1.913   4.106   4.382
 3807SOL    HW212321   2.049   4.052   4.455
 3808SOL     OW12322   3.654   6.598   6.599
 3808SOL    HW112323   3.642   6.651   6.683
 3808SOL    HW212324   3.701   6.653   6.530
 3809SOL     OW12325   5.013   2.308   1.325
 3809SOL    HW112326   5.084   2.364   1.367
 3809SOL    HW212327   5.007   2.330   1.227
 3810SOL     OW12328   5.807   2.005   1.828
 3810SOL    HW112329   5.832   2.094   1.790
 3810SOL    HW212330   5.889   1.947   1.834
 3811SOL     OW12331   0.528   5.190   5.275
 3811SOL    HW112332   0.565   5.239   5.196
 3811SOL    HW212333   0.546   5.242   5.358
 3812SOL     OW12334   4.631   6.440   0.951
 3812SOL    HW112335   4.624   6.483   1.041
 3812SOL    HW212336   4.727   6.422   0.929
 3813SOL     OW12337   6.492   4.332   0.821
 3813SOL    HW112338   6.451   4.371   0.739
 3813SOL    HW212339   6.583   4.297   0.800
 3814SOL     OW12340   6.751   0.176   4.717
 3814SOL    HW112341   6.803   0.091   4.708
 3814SOL    HW212342   6.794   0.235   4.786
 3815SOL     OW12343   6.227   3.529   6.250
 3815SOL    HW112344   6.211   3.582   6.333
 3815SOL    HW212345   6.322   3.541   6.220
 3816SOL     OW12346   0.506   5.874   5.996
 3816SOL    HW112347   0.592   5.859   6.045
 3816SOL    HW212348   0.512   5.833   5.905
 3817SOL     OW12349   5.187   3.756   1.844
 3817SOL    HW112350   5.090   3.779   1.847
 3817SOL    HW212351   5.218   3.733   1.936
 3818SOL     OW12352   6.379   0.391   2.530
 3818SOL    HW112353   6.370   0.385   2.629
 3818SOL    HW212354   6.301   0.440   2.492
 3819SOL     OW12355   6.808   4.266   4.379
 3819SOL    HW112356   6.712   4.244   4.395
 3819SOL    HW212357   6.865   4.190   4.410
 3820SOL     OW12358   4.603   0.246   4.613
 3820SOL    HW112359   4.669   0.291   4.672
 3820SOL    HW212360   4.619   0.148   4.613
 3821SOL     OW12361   1.470   0.025   0.409
 3821SOL    HW112362   1.381   0.019   0.454
 3821SOL    HW212363   1.542   0.029   0.479
 3822SOL     OW12364   4.673   1.050   1.751
 3822SOL    HW112365   4.583   1.007   1.749
 3822SOL    HW212366   4.671   1.134   1.697
 3823SOL     OW12367   4.891   5.541   6.141
 3823SOL    HW112368   4.870   5.533   6.043
 3823SOL    HW212369   4.901   5.637   6.165
 3824SOL     OW12370   2.111   3.139   0.075
 3824SOL    HW112371   2.074   3.053   0.109
 3824SOL    HW212372   2.070   3.160   7.010
 3825SOL     OW12373   1.274   4.029   5.627
 3825SOL    HW112374   1.323   4.006   5.542
 3825SOL    HW212375   1.316   4.110   5.668
 3826SOL     OW12376   5.948   4.158   3.359
 3826SOL    HW112377   5.961   4.241   3.304
 3826SOL    HW212378   5.899   4.182   3.443
 3827SOL     OW12379   1.187   0.911   1.921
 3827SOL    HW112380   1.260   0.960   1.874
 3827SOL    HW212381   1.142   0.972   1.986
 3828SOL     OW12382   4.060   3.572   4.086
 3828SOL    HW112383   4.045   3.515   4.005
 3828SOL    HW212384   4.086   3.664   4.059
 3829SOL     OW12385   0.763   3.497   2.639
 3829SOL    HW112386   0.717   3.448   2.713
 3829SOL    HW212387   0.759   3.595   2.657
 3830SOL     OW12388   6.789   1.232   4.407
 3830SOL    HW112389   6.868   1.201   4.461
 3830SOL    HW212390   6.777   1.330   4.419
 3831SOL     OW12391   4.246   1.911   3.613
 3831SOL    HW112392   4.346   1.909   3.607
 3831SOL    HW212393   4.210   1.958   3.533
 3832SOL     OW12394   6.914   1.301   3.288
 3832SOL    HW112395   6.848   1.304   3.213
 3832SOL    HW212396   6.979   1.227   3.271
 3833SOL     OW12397   0.498   1.329   5.583
 3833SOL    HW112398   0.561   1.252   5.571
 3833SOL    HW212399   0.550   1.413   5.597
 3834SOL     OW12400   4.823   3.905   0.367
 3834SOL    HW112401   4.840   3.820   0.418
 3834SOL    HW212402   4.907   3.959   0.364
 3835SOL     OW12403   4.063   5.476   4.683
 3835SOL    HW112404   4.006   5.548   4.722
 3835SOL    HW212405   4.041   5.388   4.726
 3836SOL     OW12406   0.341   6.016   5.376
 3836SOL    HW112407   0.370   5.944   5.313
 3836SOL    HW212408   0.316   6.098   5.325
 3837SOL     OW12409   4.388   4.877   5.015
 3837SOL    HW112410   4.445   4.854   4.937
 3837SOL    HW212411   4.373   4.976   5.017
 3838SOL     OW12412   1.123   1.528   3.763
 3838SOL    HW112413   1.133   1.553   3.667
 3838SOL    HW212414   1.036   1.563   3.798
 3839SOL     OW12415   3.688   0.819   3.179
 3839SOL    HW112416   3.702   0.782   3.088
 3839SOL    HW212417   3.709   0.917   3.179
 3840SOL     OW12418   2.779   0.476   0.127
 3840SOL    HW112419   2.765   0.378   0.143
 3840SOL    HW212420   2.718   0.506   0.053
 3841SOL     OW12421   6.623   4.337   3.556
 3841SOL    HW112422   6.558   4.262   3.543
 3841SOL    HW212423   6.707   4.301   3.596
 3842SOL     OW12424   2.210   2.875   5.237
 3842SOL    HW112425   2.240   2.780   5.230
 3842SOL    HW212426   2.250   2.928   5.162
 3843SOL     OW12427   5.177   2.553   0.226
 3843SOL    HW112428   5.268   2.593   0.237
 3843SOL    HW212429   5.170   2.511   0.136
 3844SOL     OW12430   1.305   5.906   0.613
 3844SOL    HW112431   1.354   5.986   0.579
 3844SOL    HW212432   1.230   5.884   0.550
 3845SOL     OW12433   1.980   6.275   0.588
 3845SOL    HW112434   2.048   6.202   0.588
 3845SOL    HW212435   1.903   6.250   0.647
 3846SOL     OW12436   0.911   2.582   3.529
 3846SOL    HW112437   0.874   2.569   3.438
 3846SOL    HW212438   1.005   2.618   3.523
 3847SOL     OW12439   6.573   1.046   6.050
 3847SOL    HW112440   6.589   0.984   6.127
 3847SOL    HW212441   6.478   1.080   6.053
 3848SOL     OW12442   5.205   3.744   2.123
 3848SOL    HW112443   5.183   3.821   2.184
 3848SOL    HW212444   5.200   3.659   2.175
 3849SOL     OW12445   6.691   5.770   6.807
 3849SOL    HW112446   6.714   5.867   6.814
 3849SOL    HW212447   6.642   5.742   6.890
 3850SOL     OW12448   2.572   2.550   1.085
 3850SOL    HW112449   2.596   2.507   1.172
 3850SOL    HW212450   2.529   2.639   1.102
 3851SOL     OW12451   0.431   5.689   2.639
 3851SOL    HW112452   0.342   5.731   2.658
 3851SOL    HW212453   0.420   5.591   2.629
 3852SOL     OW12454   3.597   6.214   5.601
 3852SOL    HW112455   3.555   6.225   5.691
 3852SOL    HW212456   3.690   6.178   5.611
 3853SOL     OW12457   2.483   0.883   4.063
 3853SOL    HW112458   2.561   0.911   4.118
 3853SOL    HW212459   2.448   0.961   4.011
 3854SOL     OW12460   1.787   2.782   2.586
 3854SOL    HW112461   1.867   2.744   2.540
 3854SOL    HW212462   1.771   2.733   2.672
 3855SOL     OW12463   4.218   6.800   0.583
 3855SOL    HW112464   4.204   6.884   0.636
 3855SOL    HW212465   4.162   6.726   0.622
 3856SOL     OW12466   0.402   1.847   6.441
 3856SOL    HW112467   0.440   1.754   6.446
 3856SOL    HW212468   0.313   1.844   6.395
 3857SOL     OW12469   2.219   1.101   5.488
 3857SOL    HW112470   2.162   1.181   5.472
 3857SOL    HW212471   2.256   1.104   5.581
 3858SOL     OW12472   4.122   1.258   4.983
 3858SOL    HW112473   4.094   1.176   4.933
 3858SOL    HW212474   4.221   1.254   5.000
 3859SOL     OW12475   5.497   0.447   1.255
 3859SOL    HW112476   5.549   0.366   1.281
 3859SOL    HW212477   5.558   0.527   1.253
 3860SOL     OW12478   1.477   0.321   4.159
 3860SOL    HW112479   1.553   0.361   4.108
 3860SOL    HW212480   1.395   0.323   4.101
 3861SOL     OW12481   4.333   5.634   1.533
 3861SOL    HW112482   4.321   5.536   1.545
 3861SOL    HW212483   4.412   5.665   1.584
 3862SOL     OW12484   1.036   6.515   3.862
 3862SOL    HW112485   1.054   6.471   3.773
 3862SOL    HW212486   0.948   6.485   3.897
 3863SOL     OW12487   4.751   0.679   1.076
 3863SOL    HW112488   4.814   0.603   1.095
 3863SOL    HW212489   4.690   0.653   1.001
 3864SOL     OW12490   2.546   0.388   4.375
 3864SOL    HW112491   2.616   0.423   4.436
 3864SOL    HW212492   2.472   0.454   4.366
 3865SOL     OW12493   4.071   0.478   0.004
 3865SOL    HW112494   4.107   0.414   0.072
 3865SOL    HW212495   3.981   0.510   0.033
 3866SOL     OW12496   2.351   2.669   6.784
 3866SOL    HW112497   2.436   2.718   6.803
 3866SOL    HW212498   2.309   2.641   6.870
 3867SOL     OW12499   0.593   4.129   2.727
 3867SOL    HW112500   0.579   4.099   2.633
 3867SOL    HW212501   0.512   4.108   2.782
 3868SOL     OW12502   3.562   1.008   6.657
 3868SOL    HW112503   3.475   0.988   6.703
 3868SOL    HW212504   3.636   0.958   6.702
 3869SOL     OW12505   6.373   3.296   3.260
 3869SOL    HW112506   6.407   3.327   3.349
 3869SOL    HW212507   6.381   3.197   3.255
 3870SOL     OW12508   6.462   0.476   3.661
 3870SOL    HW112509   6.486   0.566   3.625
 3870SOL    HW212510   6.509   0.405   3.609
 3871SOL     OW12511   2.955   5.785   3.902
 3871SOL    HW112512   2.926   5.787   3.806
 3871SOL    HW212513   3.053   5.806   3.908
 3872SOL     OW12514   3.402   3.215   4.294
 3872SOL    HW112515   3.327   3.149   4.291
 3872SOL    HW212516   3.454   3.212   4.209
 3873SOL     OW12517   4.571   2.199   0.406
 3873SOL    HW112518   4.634   2.268   0.369
 3873SOL    HW212519   4.477   2.228   0.389
 3874SOL     OW12520   3.989   0.285   1.052
 3874SOL    HW112521   3.989   0.298   1.151
 3874SOL    HW212522   3.908   0.234   1.025
 3875SOL     OW12523   1.421   1.944   5.032
 3875SOL    HW112524   1.485   1.939   4.955
 3875SOL    HW212525   1.355   1.869   5.024
 3876SOL     OW12526   4.359   6.540   1.220
 3876SOL    HW112527   4.413   6.467   1.261
 3876SOL    HW212528   4.403   6.628   1.239
 3877SOL     OW12529   6.927   2.314   0.467
 3877SOL    HW112530   7.002   2.355   0.415
 3877SOL    HW212531   6.860   2.275   0.404
 3878SOL     OW12532   4.494   0.139   3.971
 3878SOL    HW112533   4.581   0.179   3.997
 3878SOL    HW212534   4.500   0.039   3.977
 3879SOL     OW12535   4.922   5.024   6.932
 3879SOL    HW112536   4.888   4.996   6.842
 3879SOL    HW212537   4.977   4.950   6.972
 3880SOL     OW12538   5.362   4.310   4.361
 3880SOL    HW112539   5.341   4.216   4.334
 3880SOL    HW212540   5.462   4.323   4.360
 3881SOL     OW12541   1.117   4.201   0.291
 3881SOL    HW112542   1.144   4.248   0.376
 3881SOL    HW212543   1.196   4.198   0.229
 3882SOL     OW12544   1.333   1.681   0.376
 3882SOL    HW112545   1.291   1.769   0.397
 3882SOL    HW212546   1.271   1.607   0.400
 3883SOL     OW12547   4.483   6.944   3.248
 3883SOL    HW112548   4.427   7.020   3.215
 3883SOL    HW212549   4.501   6.955   3.345
 3884SOL     OW12550   0.920   5.966   3.516
 3884SOL    HW112551   0.943   5.997   3.608
 3884SOL    HW212552   0.904   5.867   3.517
 3885SOL     OW12553   5.724   6.950   3.247
 3885SOL    HW112554   5.747   6.867   3.197
 3885SOL    HW212555   5.768   6.948   3.337
 3886SOL     OW12556   4.448   6.648   5.619
 3886SOL    HW112557   4.496   6.733   5.643
 3886SOL    HW212558   4.387   6.623   5.694
 3887SOL     OW12559   0.507   6.117   1.154
 3887SOL    HW112560   0.570   6.141   1.228
 3887SOL    HW212561   0.455   6.035   1.179
 3888SOL     OW12562   6.125   6.120   4.376
 3888SOL    HW112563   6.169   6.186   4.315
 3888SOL    HW212564   6.192   6.050   4.403
 3889SOL     OW12565   6.279   3.133   6.682
 3889SOL    HW112566   6.183   3.153   6.702
 3889SOL    HW212567   6.334   3.149   6.764
 3890SOL     OW12568   5.690   4.170   4.148
 3890SOL    HW112569   5.661   4.243   4.087
 3890SOL    HW212570   5.624   4.095   4.144
 3891SOL     OW12571   5.515   4.523   3.655
 3891SOL    HW112572   5.566   4.437   3.656
 3891SOL    HW212573   5.504   4.555   3.561
 3892SOL     OW12574   6.911   2.173   1.061
 3892SOL    HW112575   6.860   2.094   1.028
 3892SOL    HW212576   7.009   2.156   1.053
 3893SOL     OW12577   4.478   3.384   1.454
 3893SOL    HW112578   4.559   3.387   1.513
 3893SOL    HW212579   4.396   3.375   1.512
 3894SOL     OW12580   5.017   0.372   6.646
 3894SOL    HW112581   4.957   0.391   6.724
 3894SOL    HW212582   5.103   0.332   6.679
 3895SOL     OW12583   1.329   6.780   5.424
 3895SOL    HW112584   1.421   6.748   5.447
 3895SOL    HW212585   1.313   6.869   5.467
 3896SOL     OW12586   0.682   1.173   6.965
 3896SOL    HW112587   0.780   1.185   6.946
 3896SOL    HW212588   0.648   1.253   7.014
 3897SOL     OW12589   4.456   5.493   1.901
 3897SOL    HW112590   4.505   5.473   1.986
 3897SOL    HW212591   4.521   5.522   1.831
 3898SOL     OW12592   3.914   2.304   6.669
 3898SOL    HW112593   3.978   2.355   6.612
 3898SOL    HW212594   3.823   2.344   6.661
 3899SOL     OW12595   4.943   0.264   5.999
 3899SOL    HW112596   4.874   0.268   5.927
 3899SOL    HW212597   5.034   0.274   5.959
 3900SOL     OW12598   5.613   3.520   3.661
 3900SOL    HW112599   5.661   3.466   3.593
 3900SOL    HW212600   5.679   3.572   3.716
 3901SOL     OW12601   3.173   0.314   6.205
 3901SOL    HW112602   3.186   0.412   6.213
 3901SOL    HW212603   3.171   0.288   6.108
 3902SOL     OW12604   5.751   3.370   2.482
 3902SOL    HW112605   5.750   3.351   2.384
 3902SOL    HW212606   5.667   3.418   2.507
 3903SOL     OW12607   3.912   6.451   0.410
 3903SOL    HW112608   3.829   6.477   0.361
 3903SOL    HW212609   3.889   6.431   0.505
 3904SOL     OW12610   0.944   0.705   6.807
 3904SOL    HW112611   0.882   0.628   6.793
 3904SOL    HW212612   1.008   0.683   6.881
 3905SOL     OW12613   6.968   6.491   6.875
 3905SOL    HW112614   6.906   6.480   6.952
 3905SOL    HW212615   6.945   6.576   6.826
 3906SOL     OW12616   5.786   6.374   5.788
 3906SOL    HW112617   5.862   6.356   5.851
 3906SOL    HW212618   5.769   6.473   5.785
 3907SOL     OW12619   5.752   1.675   3.693
 3907SOL    HW112620   5.797   1.760   3.718
 3907SOL    HW212621   5.820   1.608   3.662
 3908SOL     OW12622   1.007   2.445   6.615
 3908SOL    HW112623   0.971   2.535   6.590
 3908SOL    HW212624   0.932   2.378   6.614
 3909SOL     OW12625   4.779   5.589   4.733
 3909SOL    HW112626   4.826   5.672   4.705
 3909SOL    HW212627   4.836   5.510   4.710
 3910SOL     OW12628   3.086   4.000   2.588
 3910SOL    HW112629   3.175   3.982   2.547
 3910SOL    HW212630   3.050   4.086   2.553
 3911SOL     OW12631   6.049   1.804   4.625
 3911SOL    HW112632   6.082   1.898   4.621
 3911SOL    HW212633   6.047   1.765   4.533
 3912SOL     OW12634   5.312   2.079   5.127
 3912SOL    HW112635   5.254   2.001   5.104
 3912SOL    HW212636   5.258   2.163   5.128
 3913SOL     OW12637   1.658   0.211   6.310
 3913SOL    HW112638   1.747   0.215   6.356
 3913SOL    HW212639   1.608   0.296   6.326
 3914SOL     OW12640   2.888   0.077   0.252
 3914SOL    HW112641   2.981   0.056   0.283
 3914SOL    HW212642   2.828   7.024   0.273
 3915SOL     OW12643   5.460   5.447   1.211
 3915SOL    HW112644   5.528   5.388   1.168
 3915SOL    HW212645   5.380   5.393   1.235
 3916SOL     OW12646   0.697   0.036   2.556
 3916SOL    HW112647   0.652   7.015   2.633
 3916SOL    HW212648   0.794   0.050   2.577
 3917SOL     OW12649   1.180   6.790   6.836
 3917SOL    HW112650   1.126   6.866   6.800
 3917SOL    HW212651   1.197   6.725   6.762
 3918SOL     OW12652   5.356   4.741   1.471
 3918SOL    HW112653   5.414   4.808   1.424
 3918SOL    HW212654   5.323   4.780   1.557
 3919SOL     OW12655   4.195   0.304   0.869
 3919SOL    HW112656   4.159   0.262   0.785
 3919SOL    HW212657   4.130   0.292   0.943
 3920SOL     OW12658   2.633   3.487   0.379
 3920SOL    HW112659   2.677   3.577   0.381
 3920SOL    HW212660   2.545   3.492   0.427
 3921SOL     OW12661   0.198   3.906   1.597
 3921SOL    HW112662   0.107   3.926   1.634
 3921SOL    HW212663   0.217   3.968   1.521
 3922SOL     OW12664   6.917   3.921   2.307
 3922SOL    HW112665   6.992   3.883   2.252
 3922SOL    HW212666   6.954   3.977   2.380
 3923SOL     OW12667   0.610   0.803   0.734
 3923SOL    HW112668   0.546   0.743   0.782
 3923SOL    HW212669   0.605   0.895   0.773
 3924SOL     OW12670   6.070   4.499   4.530
 3924SOL    HW112671   6.134   4.495   4.607
 3924SOL    HW212672   6.111   4.551   4.455
 3925SOL     OW12673   1.433   4.474   1.643
 3925SOL    HW112674   1.390   4.525   1.717
 3925SOL    HW212675   1.465   4.537   1.572
 3926SOL     OW12676   4.304   4.963   2.502
 3926SOL    HW112677   4.366   4.941   2.578
 3926SOL    HW212678   4.222   4.906   2.508
 3927SOL     OW12679   6.893   2.921   5.904
 3927SOL    HW112680   6.826   2.972   5.958
 3927SOL    HW212681   6.943   2.859   5.964
 3928SOL     OW12682   4.578   6.179   6.670
 3928SOL    HW112683   4.511   6.151   6.738
 3928SOL    HW212684   4.632   6.255   6.706
 3929SOL     OW12685   0.828   0.302   4.938
 3929SOL    HW112686   0.918   0.345   4.939
 3929SOL    HW212687   0.765   0.357   4.883
 3930SOL     OW12688   2.761   2.045   4.169
 3930SOL    HW112689   2.794   1.963   4.122
 3930SOL    HW212690   2.838   2.105   4.189
 3931SOL     OW12691   0.359   1.444   1.722
 3931SOL    HW112692   0.429   1.479   1.784
 3931SOL    HW212693   0.293   1.389   1.773
 3932SOL     OW12694   0.672   3.426   3.910
 3932SOL    HW112695   0.630   3.383   3.990
 3932SOL    HW212696   0.762   3.387   3.895
 3933SOL     OW12697   2.327   0.272   6.045
 3933SOL    HW112698   2.296   0.260   5.950
 3933SOL    HW212699   2.248   0.286   6.104
 3934SOL     OW12700   6.024   0.320   6.006
 3934SOL    HW112701   6.016   0.221   5.993
 3934SOL    HW212702   5.955   0.350   6.071
 3935SOL     OW12703   3.735   0.034   0.579
 3935SOL    HW112704   3.784   6.989   0.526
 3935SOL    HW212705   3.729   0.119   0.527
 3936SOL     OW12706   6.767   5.677   4.607
 3936SOL    HW112707   6.768   5.775   4.590
 3936SOL    HW212708   6.814   5.629   4.533
 3937SOL     OW12709   0.585   2.402   2.335
 3937SOL    HW112710   0.609   2.497   2.313
 3937SOL    HW212711   0.645   2.340   2.284
 3938SOL     OW12712   0.787   1.628   3.352
 3938SOL    HW112713   0.836   1.713   3.332
 3938SOL    HW212714   0.695   1.649   3.384
 3939SOL     OW12715   2.680   1.926   2.853
 3939SOL    HW112716   2.724   1.942   2.765
 3939SOL    HW212717   2.740   1.870   2.911
 3940SOL     OW12718   4.076   3.513   1.588
 3940SOL    HW112719   4.026   3.534   1.672
 3940SOL    HW212720   4.161   3.565   1.586
 3941SOL     OW12721   4.867   5.292   6.019
 3941SOL    HW112722   4.866   5.390   6.039
 3941SOL    HW212723   4.921   5.274   5.937
 3942SOL     OW12724   6.730   5.959   0.053
 3942SOL    HW112725   6.698   5.978   6.985
 3942SOL    HW212726   6.675   5.886   0.093
 3943SOL     OW12727   0.773   3.158   4.201
 3943SOL    HW112728   0.784   3.255   4.178
 3943SOL    HW212729   0.841   3.105   4.151
 3944SOL     OW12730   4.639   2.658   4.951
 3944SOL    HW112731   4.568   2.614   4.897
 3944SOL    HW212732   4.729   2.630   4.918
 3945SOL     OW12733   0.192   1.790   0.592
 3945SOL    HW112734   0.093   1.807   0.598
 3945SOL    HW212735   0.227   1.825   0.506
 3946SOL     OW12736   5.186   4.020   3.695
 3946SOL    HW112737   5.211   3.961   3.771
 3946SOL    HW212738   5.161   4.110   3.730
 3947SOL     OW12739   4.744   6.464   0.243
 3947SOL    HW112740   4.721   6.452   0.339
 3947SOL    HW212741   4.708   6.388   0.190
 3948SOL     OW12742   6.712   4.488   1.731
 3948SOL    HW112743   6.769   4.499   1.812
 3948SOL    HW212744   6.653   4.408   1.741
 3949SOL     OW12745   5.192   5.748   3.086
 3949SOL    HW112746   5.169   5.709   2.997
 3949SOL    HW212747   5.111   5.748   3.144
 3950SOL     OW12748   1.290   5.354   0.929
 3950SOL    HW112749   1.225   5.424   0.901
 3950SOL    HW212750   1.255   5.264   0.904
 3951SOL     OW12751   5.355   0.768   1.322
 3951SOL    HW112752   5.255   0.778   1.325
 3951SOL    HW212753   5.396   0.825   1.392
 3952SOL     OW12754   0.133   2.006   0.995
 3952SOL    HW112755   0.147   2.058   0.911
 3952SOL    HW212756   0.163   1.912   0.981
 3953SOL     OW12757   3.997   3.760   1.048
 3953SOL    HW112758   3.909   3.723   1.077
 3953SOL    HW212759   4.061   3.685   1.030
 3954SOL     OW12760   4.395   5.858   5.521
 3954SOL    HW112761   4.475   5.912   5.494
 3954SOL    HW212762   4.387   5.778   5.461
 3955SOL     OW12763   2.998   1.329   5.867
 3955SOL    HW112764   3.007   1.427   5.850
 3955SOL    HW212765   2.921   1.293   5.814
 3956SOL     OW12766   1.322   0.935   2.340
 3956SOL    HW112767   1.295   0.853   2.288
 3956SOL    HW212768   1.397   0.980   2.292
 3957SOL     OW12769   4.076   0.118   4.310
 3957SOL    HW112770   4.022   0.194   4.348
 3957SOL    HW212771   4.159   0.154   4.268
 3958SOL     OW12772   6.216   2.059   3.989
 3958SOL    HW112773   6.308   2.096   3.979
 3958SOL    HW212774   6.169   2.106   4.064
 3959SOL     OW12775   5.048   5.073   0.478
 3959SOL    HW112776   5.046   5.073   0.378
 3959SOL    HW212777   5.030   5.165   0.512
 3960SOL     OW12778   5.783   1.662   5.304
 3960SOL    HW112779   5.749   1.738   5.358
 3960SOL    HW212780   5.806   1.694   5.212
 3961SOL     OW12781   5.079   0.606   3.387
 3961SOL    HW112782   5.082   0.694   3.341
 3961SOL    HW212783   5.010   0.548   3.344
 3962SOL     OW12784   1.168   4.796   5.877
 3962SOL    HW112785   1.140   4.762   5.787
 3962SOL    HW212786   1.142   4.730   5.947
 3963SOL     OW12787   4.866   6.246   2.203
 3963SOL    HW112788   4.815   6.162   2.186
 3963SOL    HW212789   4.863   6.304   2.121
 3964SOL     OW12790   4.705   4.311   3.514
 3964SOL    HW112791   4.725   4.254   3.435
 3964SOL    HW212792   4.757   4.397   3.508
 3965SOL     OW12793   4.847   3.252   4.154
 3965SOL    HW112794   4.838   3.223   4.058
 3965SOL    HW212795   4.763   3.232   4.203
 3966SOL     OW12796   3.840   5.898   7.007
 3966SOL    HW112797   3.851   5.799   6.993
 3966SOL    HW212798   3.764   5.931   6.951
 3967SOL     OW12799   2.297   4.303   1.567
 3967SOL    HW112800   2.369   4.373   1.567
 3967SOL    HW212801   2.326   4.225   1.513
 3968SOL     OW12802   4.959   0.688   0.672
 3968SOL    HW112803   5.018   0.767   0.686
 3968SOL    HW212804   4.898   0.705   0.594
 3969SOL     OW12805   1.252   5.401   1.862
 3969SOL    HW112806   1.245   5.347   1.947
 3969SOL    HW212807   1.319   5.474   1.875
 3970SOL     OW12808   5.226   6.091   2.504
 3970SOL    HW112809   5.152   6.103   2.438
 3970SOL    HW212810   5.190   6.052   2.589
 3971SOL     OW12811   2.766   6.027   4.380
 3971SOL    HW112812   2.724   5.947   4.423
 3971SOL    HW212813   2.716   6.050   4.296
 3972SOL     OW12814   1.183   3.872   7.012
 3972SOL    HW112815   1.217   3.780   0.009
 3972SOL    HW212816   1.156   3.876   6.916
 3973SOL     OW12817   1.093   5.507   0.778
 3973SOL    HW112818   1.082   5.603   0.753
 3973SOL    HW212819   1.046   5.450   0.711
 3974SOL     OW12820   2.178   0.896   5.942
 3974SOL    HW112821   2.114   0.882   6.018
 3974SOL    HW212822   2.162   0.826   5.872
 3975SOL     OW12823   5.231   2.041   6.089
 3975SOL    HW112824   5.219   1.968   6.156
 3975SOL    HW212825   5.156   2.107   6.098
 3976SOL     OW12826   1.989   6.407   2.299
 3976SOL    HW112827   1.985   6.412   2.199
 3976SOL    HW212828   2.026   6.318   2.326
 3977SOL     OW12829   1.335   3.749   6.701
 3977SOL    HW112830   1.376   3.692   6.630
 3977SOL    HW212831   1.236   3.739   6.698
 3978SOL     OW12832   6.452   4.989   3.174
 3978SOL    HW112833   6.363   4.945   3.183
 3978SOL    HW212834   6.513   4.931   3.121
 3979SOL     OW12835   3.570   1.015   6.085
 3979SOL    HW112836   3.477   0.993   6.055
 3979SOL    HW212837   3.577   1.005   6.184
 3980SOL     OW12838   6.060   6.736   6.440
 3980SOL    HW112839   6.098   6.826   6.461
 3980SOL    HW212840   6.027   6.693   6.524
 3981SOL     OW12841   4.551   5.863   1.001
 3981SOL    HW112842   4.591   5.944   0.957
 3981SOL    HW212843   4.474   5.891   1.059
 3982SOL     OW12844   2.441   0.033   2.565
 3982SOL    HW112845   2.459   6.959   2.564
 3982SOL    HW212846   2.527   0.083   2.573
 3983SOL     OW12847   5.066   4.820   3.776
 3983SOL    HW112848   5.149   4.822   3.832
 3983SOL    HW212849   5.024   4.911   3.776
 3984SOL     OW12850   5.995   1.392   2.794
 3984SOL    HW112851   5.990   1.293   2.805
 3984SOL    HW212852   5.970   1.436   2.880
 3985SOL     OW12853   3.805   5.406   6.621
 3985SOL    HW112854   3.842   5.336   6.560
 3985SOL    HW212855   3.736   5.365   6.680
 3986SOL     OW12856   4.712   1.652   3.069
 3986SOL    HW112857   4.737   1.745   3.095
 3986SOL    HW212858   4.653   1.613   3.140
 3987SOL     OW12859   3.281   4.980   4.315
 3987SOL    HW112860   3.278   5.008   4.412
 3987SOL    HW212861   3.374   4.994   4.280
 3988SOL     OW12862   3.814   5.592   7.018
 3988SOL    HW112863   3.895   5.542   6.990
 3988SOL    HW212864   3.737   5.528   0.005
 3989SOL     OW12865   6.533   2.303   0.324
 3989SOL    HW112866   6.511   2.241   0.399
 3989SOL    HW212867   6.565   2.250   0.245
 3990SOL     OW12868   5.209   2.166   1.563
 3990SOL    HW112869   5.203   2.260   1.532
 3990SOL    HW212870   5.171   2.105   1.493
 3991SOL     OW12871   0.501   1.470   2.346
 3991SOL    HW112872   0.539   1.432   2.262
 3991SOL    HW212873   0.567   1.534   2.386
 3992SOL     OW12874   2.780   1.958   0.646
 3992SOL    HW112875   2.854   1.959   0.578
 3992SOL    HW212876   2.799   1.889   0.715
 3993SOL     OW12877   1.409   2.765   1.777
 3993SOL    HW112878   1.470   2.785   1.700
 3993SOL    HW212879   1.342   2.839   1.788
 3994SOL     OW12880   2.854   0.228   5.062
 3994SOL    HW112881   2.755   0.233   5.074
 3994SOL    HW212882   2.881   0.134   5.041
 3995SOL     OW12883   1.716   3.414   5.370
 3995SOL    HW112884   1.673   3.500   5.398
 3995SOL    HW212885   1.685   3.389   5.278
 3996SOL     OW12886   0.629   6.714   5.661
 3996SOL    HW112887   0.542   6.761   5.646
 3996SOL    HW212888   0.682   6.715   5.577
 3997SOL     OW12889   5.953   1.392   4.784
 3997SOL    HW112890   5.932   1.336   4.704
 3997SOL    HW212891   5.882   1.379   4.853
 3998SOL     OW12892   3.478   1.601   4.172
 3998SOL    HW112893   3.394   1.592   4.118
 3998SOL    HW212894   3.456   1.605   4.269
 3999SOL     OW12895   6.399   2.652   4.209
 3999SOL    HW112896   6.359   2.705   4.284
 3999SOL    HW212897   6.445   2.714   4.146
 4000SOL     OW12898   3.144   6.760   4.041
 4000SOL    HW112899   3.192   6.675   4.020
 4000SOL    HW212900   3.187   6.835   3.990
 4001SOL     OW12901   2.253   1.774   3.921
 4001SOL    HW112902   2.182   1.806   3.858
 4001SOL    HW212903   2.233   1.807   4.013
 4002SOL     OW12904   2.490   3.631   1.654
 4002SOL    HW112905   2.467   3.582   1.738
 4002SOL    HW212906   2.505   3.728   1.675
 4003SOL     OW12907   3.267   6.925   4.598
 4003SOL    HW112908   3.171   6.937   4.572
 4003SOL    HW212909   3.326   6.952   4.521
 4004SOL     OW12910   6.793   2.416   4.609
 4004SOL    HW112911   6.845   2.346   4.657
 4004SOL    HW212912   6.812   2.506   4.650
 4005SOL     OW12913   4.819   6.396   6.586
 4005SOL    HW112914   4.825   6.495   6.594
 4005SOL    HW212915   4.773   6.372   6.501
 4006SOL     OW12916   3.692   5.247   2.171
 4006SOL    HW112917   3.648   5.165   2.207
 4006SOL    HW212918   3.686   5.321   2.237
 4007SOL     OW12919   0.505   2.798   0.135
 4007SOL    HW112920   0.528   2.753   0.048
 4007SOL    HW212921   0.569   2.769   0.206
 4008SOL     OW12922   2.585   2.434   4.597
 4008SOL    HW112923   2.544   2.408   4.684
 4008SOL    HW212924   2.543   2.381   4.523
 4009SOL     OW12925   4.120   3.543   2.262
 4009SOL    HW112926   4.140   3.446   2.248
 4009SOL    HW212927   4.155   3.596   2.186
 4010SOL     OW12928   2.740   3.032   1.207
 4010SOL    HW112929   2.694   2.971   1.271
 4010SOL    HW212930   2.800   2.978   1.147
 4011SOL     OW12931   0.861   2.067   1.340
 4011SOL    HW112932   0.955   2.081   1.307
 4011SOL    HW212933   0.834   2.143   1.398
 4012SOL     OW12934   6.469   4.374   2.545
 4012SOL    HW112935   6.567   4.358   2.531
 4012SOL    HW212936   6.421   4.368   2.457
 4013SOL     OW12937   4.480   2.170   4.442
 4013SOL    HW112938   4.472   2.080   4.485
 4013SOL    HW212939   4.397   2.223   4.461
 4014SOL     OW12940   5.558   6.201   3.117
 4014SOL    HW112941   5.482   6.228   3.057
 4014SOL    HW212942   5.546   6.244   3.207
 4015SOL     OW12943   4.898   4.292   5.717
 4015SOL    HW112944   4.957   4.340   5.782
 4015SOL    HW212945   4.941   4.207   5.689
 4016SOL     OW12946   3.355   5.821   6.046
 4016SOL    HW112947   3.370   5.742   6.107
 4016SOL    HW212948   3.353   5.789   5.951
 4017SOL     OW12949   6.540   5.735   0.030
 4017SOL    HW112950   6.517   5.648   7.011
 4017SOL    HW212951   6.459   5.771   0.077
 4018SOL     OW12952   3.955   5.752   1.304
 4018SOL    HW112953   4.037   5.719   1.350
 4018SOL    HW212954   3.879   5.689   1.322
 4019SOL     OW12955   5.809   4.543   2.936
 4019SOL    HW112956   5.904   4.575   2.937
 4019SOL    HW212957   5.807   4.445   2.916
 4020SOL     OW12958   5.287   2.160   5.749
 4020SOL    HW112959   5.299   2.115   5.838
 4020SOL    HW212960   5.347   2.241   5.745
 4021SOL     OW12961   3.192   4.672   5.616
 4021SOL    HW112962   3.095   4.682   5.597
 4021SOL    HW212963   3.212   4.577   5.641
 4022SOL     OW12964   5.405   0.791   0.379
 4022SOL    HW112965   5.370   0.880   0.349
 4022SOL    HW212966   5.435   0.799   0.474
 4023SOL     OW12967   6.151   1.716   5.156
 4023SOL    HW112968   6.128   1.801   5.108
 4023SOL    HW212969   6.129   1.638   5.097
 4024SOL     OW12970   4.341   4.746   4.103
 4024SOL    HW112971   4.362   4.701   4.016
 4024SOL    HW212972   4.282   4.825   4.087
 4025SOL     OW12973   0.746   4.237   3.505
 4025SOL    HW112974   0.708   4.284   3.584
 4025SOL    HW212975   0.705   4.146   3.497
 4026SOL     OW12976   5.328   6.106   4.235
 4026SOL    HW112977   5.366   6.150   4.316
 4026SOL    HW212978   5.256   6.042   4.262
 4027SOL     OW12979   4.125   4.883   1.624
 4027SOL    HW112980   4.090   4.974   1.648
 4027SOL    HW212981   4.222   4.876   1.649
 4028SOL     OW12982   2.335   1.661   4.259
 4028SOL    HW112983   2.375   1.604   4.331
 4028SOL    HW212984   2.268   1.607   4.207
 4029SOL     OW12985   1.793   4.882   5.083
 4029SOL    HW112986   1.709   4.836   5.057
 4029SOL    HW212987   1.779   4.931   5.169
 4030SOL     OW12988   0.529   2.344   5.645
 4030SOL    HW112989   0.606   2.397   5.609
 4030SOL    HW212990   0.541   2.248   5.621
 4031SOL     OW12991   3.945   5.500   3.929
 4031SOL    HW112992   3.952   5.527   4.025
 4031SOL    HW212993   3.850   5.503   3.900
 4032SOL     OW12994   5.284   0.323   4.602
 4032SOL    HW112995   5.306   0.409   4.556
 4032SOL    HW212996   5.216   0.273   4.549
 4033SOL     OW12997   2.835   3.921   5.507
 4033SOL    HW112998   2.739   3.914   5.537
 4033SOL    HW212999   2.839   3.916   5.407
 4034SOL     OW13000   0.131   2.348   3.804
 4034SOL    HW113001   0.222   2.307   3.791
 4034SOL    HW213002   0.064   2.301   3.748
 4035SOL     OW13003   6.808   4.348   0.330
 4035SOL    HW113004   6.884   4.283   0.322
 4035SOL    HW213005   6.835   4.436   0.290
 4036SOL     OW13006   6.926   6.981   2.428
 4036SOL    HW113007   6.943   6.942   2.519
 4036SOL    HW213008   6.862   6.923   2.378
 4037SOL     OW13009   0.390   3.873   6.953
 4037SOL    HW113010   0.329   3.933   6.901
 4037SOL    HW213011   0.400   3.786   6.906
 4038SOL     OW13012   6.115   4.475   3.928
 4038SOL    HW113013   6.046   4.508   3.992
 4038SOL    HW213014   6.081   4.485   3.834
 4039SOL     OW13015   4.825   6.554   0.659
 4039SOL    HW113016   4.838   6.653   0.655
 4039SOL    HW213017   4.862   6.519   0.745
 4040SOL     OW13018   3.765   6.382   1.493
 4040SOL    HW113019   3.831   6.448   1.530
 4040SOL    HW213020   3.708   6.347   1.567
 4041SOL     OW13021   1.297   6.716   3.798
 4041SOL    HW113022   1.386   6.753   3.774
 4041SOL    HW213023   1.239   6.711   3.716
 4042SOL     OW13024   5.804   5.182   1.811
 4042SOL    HW113025   5.828   5.278   1.795
 4042SOL    HW213026   5.888   5.129   1.821
 4043SOL     OW13027   6.187   2.084   1.098
 4043SOL    HW113028   6.273   2.136   1.101
 4043SOL    HW213029   6.149   2.088   1.006
 4044SOL     OW13030   6.035   6.281   3.670
 4044SOL    HW113031   6.088   6.365   3.656
 4044SOL    HW213032   6.057   6.243   3.760
 4045SOL     OW13033   2.964   6.014   5.962
 4045SOL    HW113034   2.905   6.094   5.968
 4045SOL    HW213035   3.057   6.038   5.989
 4046SOL     OW13036   0.955   3.266   1.150
 4046SOL    HW113037   0.994   3.296   1.237
 4046SOL    HW213038   0.912   3.345   1.105
 4047SOL     OW13039   2.793   4.055   1.345
 4047SOL    HW113040   2.878   4.081   1.298
 4047SOL    HW213041   2.738   4.137   1.362
 4048SOL     OW13042   5.259   1.067   1.326
 4048SOL    HW113043   5.311   1.152   1.332
 4048SOL    HW213044   5.295   1.002   1.392
 4049SOL     OW13045   5.542   0.285   5.013
 4049SOL    HW113046   5.578   0.328   4.930
 4049SOL    HW213047   5.590   0.198   5.029
 4050SOL     OW13048   2.841   0.071   1.009
 4050SOL    HW113049   2.876   0.121   1.089
 4050SOL    HW213050   2.766   0.012   1.038
 4051SOL     OW13051   3.176   3.696   0.932
 4051SOL    HW113052   3.155   3.606   0.896
 4051SOL    HW213053   3.099   3.730   0.986
 4052SOL     OW13054   1.021   6.675   1.526
 4052SOL    HW113055   0.947   6.688   1.593
 4052SOL    HW213056   0.988   6.618   1.451
 4053SOL     OW13057   3.473   4.951   3.154
 4053SOL    HW113058   3.550   4.912   3.205
 4053SOL    HW213059   3.495   4.955   3.057
 4054SOL     OW13060   4.618   1.771   0.627
 4054SOL    HW113061   4.573   1.845   0.578
 4054SOL    HW213062   4.717   1.789   0.631
 4055SOL     OW13063   3.157   2.256   6.903
 4055SOL    HW113064   3.201   2.264   6.992
 4055SOL    HW213065   3.165   2.343   6.854
 4056SOL     OW13066   4.358   3.684   0.796
 4056SOL    HW113067   4.426   3.686   0.723
 4056SOL    HW213068   4.390   3.624   0.869
 4057SOL     OW13069   4.991   2.845   6.520
 4057SOL    HW113070   4.952   2.934   6.543
 4057SOL    HW213071   5.046   2.811   6.596
 4058SOL     OW13072   1.407   0.798   4.819
 4058SOL    HW113073   1.363   0.731   4.879
 4058SOL    HW213074   1.337   0.847   4.768
 4059SOL     OW13075   0.423   2.408   4.452
 4059SOL    HW113076   0.466   2.467   4.384
 4059SOL    HW213077   0.451   2.436   4.544
 4060SOL     OW13078   4.588   4.955   3.912
 4060SOL    HW113079   4.519   4.988   3.977
 4060SOL    HW213080   4.543   4.922   3.829
 4061SOL     OW13081   2.820   3.188   1.461
 4061SOL    HW113082   2.801   3.177   1.364
 4061SOL    HW213083   2.827   3.098   1.504
 4062SOL     OW13084   2.165   0.214   2.973
 4062SOL    HW113085   2.195   0.165   2.891
 4062SOL    HW213086   2.245   0.242   3.026
 4063SOL     OW13087   2.622   5.290   6.574
 4063SOL    HW113088   2.642   5.294   6.672
 4063SOL    HW213089   2.608   5.195   6.547
 4064SOL     OW13090   6.828   6.539   3.938
 4064SOL    HW113091   6.905   6.528   3.875
 4064SOL    HW213092   6.772   6.617   3.908
 4065SOL     OW13093   5.956   5.276   6.942
 4065SOL    HW113094   5.943   5.375   6.952
 4065SOL    HW213095   5.981   5.236   0.006
 4066SOL     OW13096   5.942   4.707   2.040
 4066SOL    HW113097   5.845   4.729   2.052
 4066SOL    HW213098   5.980   4.679   2.128
 4067SOL     OW13099   5.808   1.016   2.136
 4067SOL    HW113100   5.782   0.931   2.181
 4067SOL    HW213101   5.729   1.055   2.088
 4068SOL     OW13102   6.490   0.919   3.699
 4068SOL    HW113103   6.525   0.855   3.630
 4068SOL    HW213104   6.548   0.999   3.703
 4069SOL     OW13105   6.715   5.416   0.972
 4069SOL    HW113106   6.712   5.480   0.895
 4069SOL    HW213107   6.779   5.343   0.952
 4070SOL     OW13108   1.282   3.201   2.870
 4070SOL    HW113109   1.350   3.136   2.836
 4070SOL    HW213110   1.292   3.288   2.821
 4071SOL     OW13111   1.942   6.519   4.134
 4071SOL    HW113112   1.863   6.486   4.081
 4071SOL    HW213113   1.930   6.616   4.155
 4072SOL     OW13114   0.735   0.521   4.052
 4072SOL    HW113115   0.673   0.590   4.088
 4072SOL    HW213116   0.689   0.433   4.047
 4073SOL     OW13117   1.841   5.328   7.005
 4073SOL    HW113118   1.908   5.331   0.055
 4073SOL    HW213119   1.860   5.248   6.947
 4074SOL     OW13120   1.909   2.544   0.461
 4074SOL    HW113121   1.933   2.480   0.535
 4074SOL    HW213122   1.813   2.571   0.471
 4075SOL     OW13123   5.223   0.967   3.527
 4075SOL    HW113124   5.317   0.999   3.536
 4075SOL    HW213125   5.175   0.980   3.614
 4076SOL     OW13126   1.554   2.497   3.720
 4076SOL    HW113127   1.588   2.499   3.814
 4076SOL    HW213128   1.626   2.525   3.657
 4077SOL     OW13129   2.333   1.522   1.067
 4077SOL    HW113130   2.432   1.513   1.054
 4077SOL    HW213131   2.286   1.453   1.012
 4078SOL     OW13132   5.578   3.811   1.752
 4078SOL    HW113133   5.589   3.909   1.767
 4078SOL    HW213134   5.492   3.794   1.704
 4079SOL     OW13135   0.357   1.401   4.090
 4079SOL    HW113136   0.319   1.474   4.033
 4079SOL    HW213137   0.288   1.330   4.104
 4080SOL     OW13138   3.770   2.885   2.302
 4080SOL    HW113139   3.854   2.879   2.247
 4080SOL    HW213140   3.695   2.917   2.245
 4081SOL     OW13141   2.496   2.347   6.407
 4081SOL    HW113142   2.418   2.404   6.432
 4081SOL    HW213143   2.574   2.406   6.384
 4082SOL     OW13144   1.211   2.717   5.470
 4082SOL    HW113145   1.218   2.796   5.409
 4082SOL    HW213146   1.222   2.748   5.565
 4083SOL     OW13147   5.822   4.728   3.333
 4083SOL    HW113148   5.741   4.717   3.276
 4083SOL    HW213149   5.865   4.816   3.314
 4084SOL     OW13150   4.799   0.323   3.459
 4084SOL    HW113151   4.741   0.241   3.463
 4084SOL    HW213152   4.882   0.302   3.407
 4085SOL     OW13153   3.940   5.212   2.328
 4085SOL    HW113154   3.846   5.247   2.330
 4085SOL    HW213155   3.939   5.113   2.343
 4086SOL     OW13156   6.078   4.870   6.405
 4086SOL    HW113157   6.036   4.833   6.322
 4086SOL    HW213158   6.094   4.968   6.394
 4087SOL     OW13159   2.368   0.354   2.103
 4087SOL    HW113160   2.314   0.274   2.131
 4087SOL    HW213161   2.418   0.331   2.019
 4088SOL     OW13162   0.392   2.078   5.326
 4088SOL    HW113163   0.385   2.167   5.281
 4088SOL    HW213164   0.447   2.088   5.409
 4089SOL     OW13165   1.554   0.590   2.977
 4089SOL    HW113166   1.587   0.673   2.932
 4089SOL    HW213167   1.482   0.613   3.042
 4090SOL     OW13168   2.745   1.484   5.975
 4090SOL    HW113169   2.803   1.525   5.905
 4090SOL    HW213170   2.789   1.491   6.064
 4091SOL     OW13171   3.272   5.995   1.029
 4091SOL    HW113172   3.317   5.977   0.941
 4091SOL    HW213173   3.173   5.996   1.016
 4092SOL     OW13174   5.652   2.896   3.836
 4092SOL    HW113175   5.594   2.814   3.832
 4092SOL    HW213176   5.674   2.917   3.931
 4093SOL     OW13177   5.332   4.659   4.082
 4093SOL    HW113178   5.314   4.722   4.006
 4093SOL    HW213179   5.245   4.634   4.126
 4094SOL     OW13180   6.759   5.441   6.901
 4094SOL    HW113181   6.808   5.500   6.838
 4094SOL    HW213182   6.735   5.492   6.984
 4095SOL     OW13183   0.664   5.376   0.228
 4095SOL    HW113184   0.614   5.340   0.149
 4095SOL    HW213185   0.662   5.476   0.225
 4096SOL     OW13186   0.288   1.151   7.007
 4096SOL    HW113187   0.319   1.239   0.019
 4096SOL    HW213188   0.368   1.094   6.988
 4097SOL     OW13189   6.491   4.568   5.202
 4097SOL    HW113190   6.558   4.594   5.133
 4097SOL    HW213191   6.492   4.469   5.214
 4098SOL     OW13192   2.239   4.333   3.160
 4098SOL    HW113193   2.191   4.371   3.081
 4098SOL    HW213194   2.197   4.365   3.244
 4099SOL     OW13195   4.246   4.231   6.270
 4099SOL    HW113196   4.191   4.288   6.209
 4099SOL    HW213197   4.195   4.212   6.354
 4100SOL     OW13198   1.151   0.013   3.876
 4100SOL    HW113199   1.077   6.976   3.902
 4100SOL    HW213200   1.177   7.020   3.781
 4101SOL     OW13201   6.124   5.868   0.285
 4101SOL    HW113202   6.175   5.832   0.363
 4101SOL    HW213203   6.082   5.792   0.235
 4102SOL     OW13204   1.763   6.965   0.015
 4102SOL    HW113205   1.747   6.869   0.037
 4102SOL    HW213206   1.727   7.023   0.089
 4103SOL     OW13207   1.898   6.366   3.645
 4103SOL    HW113208   1.952   6.435   3.693
 4103SOL    HW213209   1.893   6.389   3.548
 4104SOL     OW13210   2.101   5.527   4.302
 4104SOL    HW113211   2.193   5.567   4.312
 4104SOL    HW213212   2.034   5.601   4.291
 4105SOL     OW13213   4.722   0.525   1.459
 4105SOL    HW113214   4.667   0.490   1.384
 4105SOL    HW213215   4.818   0.509   1.440
 4106SOL     OW13216   1.501   0.955   3.352
 4106SOL    HW113217   1.432   0.895   3.310
 4106SOL    HW213218   1.455   1.036   3.390
 4107SOL     OW13219   1.177   6.791   0.307
 4107SOL    HW113220   1.110   6.769   0.237
 4107SOL    HW213221   1.266   6.809   0.265
 4108SOL     OW13222   6.587   5.901   5.638
 4108SOL    HW113223   6.599   5.851   5.552
 4108SOL    HW213224   6.613   5.997   5.625
 4109SOL     OW13225   5.678   6.125   3.813
 4109SOL    HW113226   5.583   6.097   3.797
 4109SOL    HW213227   5.735   6.044   3.823
 4110SOL     OW13228   4.950   2.764   0.608
 4110SOL    HW113229   4.989   2.821   0.681
 4110SOL    HW213230   5.016   2.758   0.532
 4111SOL     OW13231   6.546   3.949   4.272
 4111SOL    HW113232   6.600   3.946   4.188
 4111SOL    HW213233   6.553   3.861   4.319
 4112SOL     OW13234   4.771   6.006   4.779
 4112SOL    HW113235   4.742   6.087   4.728
 4112SOL    HW213236   4.840   6.031   4.847
 4113SOL     OW13237   3.982   5.196   4.765
 4113SOL    HW113238   3.956   5.193   4.861
 4113SOL    HW213239   4.064   5.141   4.750
 4114SOL     OW13240   0.539   0.986   1.724
 4114SOL    HW113241   0.529   1.002   1.626
 4114SOL    HW213242   0.450   0.967   1.764
 4115SOL     OW13243   3.938   5.883   4.218
 4115SOL    HW113244   3.991   5.811   4.172
 4115SOL    HW213245   3.847   5.849   4.239
 4116SOL     OW13246   4.826   4.161   2.389
 4116SOL    HW113247   4.870   4.220   2.321
 4116SOL    HW213248   4.847   4.065   2.369
 4117SOL     OW13249   1.326   1.825   3.921
 4117SOL    HW113250   1.405   1.780   3.881
 4117SOL    HW213251   1.321   1.803   4.019
 4118SOL     OW13252   0.357   6.236   0.449
 4118SOL    HW113253   0.296   6.283   0.514
 4118SOL    HW213254   0.422   6.302   0.411
 4119SOL     OW13255   0.267   0.412   4.169
 4119SOL    HW113256   0.329   0.484   4.139
 4119SOL    HW213257   0.181   0.453   4.199
 4120SOL     OW13258   2.253   0.581   6.277
 4120SOL    HW113259   2.277   0.585   6.374
 4120SOL    HW213260   2.287   0.664   6.232
 4121SOL     OW13261   6.233   6.803   2.639
 4121SOL    HW113262   6.222   6.874   2.708
 4121SOL    HW213263   6.202   6.715   2.676
 4122SOL     OW13264   0.142   4.179   2.896
 4122SOL    HW113265   0.073   4.176   2.824
 4122SOL    HW213266   0.157   4.273   2.924
 4123SOL     OW13267   4.719   4.518   1.542
 4123SOL    HW113268   4.671   4.438   1.504
 4123SOL    HW213269   4.779   4.489   1.616
 4124SOL     OW13270   5.581   5.672   0.133
 4124SOL    HW113271   5.620   5.600   0.191
 4124SOL    HW213272   5.647   5.746   0.124
 4125SOL     OW13273   5.969   1.795   1.310
 4125SOL    HW113274   5.947   1.828   1.218
 4125SOL    HW213275   6.046   1.731   1.305
 4126SOL     OW13276   1.802   2.827   2.002
 4126SOL    HW113277   1.776   2.922   2.019
 4126SOL    HW213278   1.720   2.769   2.004
 4127SOL     OW13279   4.518   1.945   4.774
 4127SOL    HW113280   4.597   1.934   4.835
 4127SOL    HW213281   4.544   1.919   4.681
 4128SOL     OW13282   1.209   3.205   0.338
 4128SOL    HW113283   1.249   3.144   0.269
 4128SOL    HW213284   1.163   3.281   0.292
 4129SOL     OW13285   2.669   2.666   0.285
 4129SOL    HW113286   2.743   2.717   0.240
 4129SOL    HW213287   2.584   2.718   0.278
 4130SOL     OW13288   5.905   3.025   0.755
 4130SOL    HW113289   5.988   3.068   0.791
 4130SOL    HW213290   5.872   3.076   0.675
 4131SOL     OW13291   4.612   6.889   3.494
 4131SOL    HW113292   4.699   6.936   3.504
 4131SOL    HW213293   4.561   6.895   3.579
 4132SOL     OW13294   0.403   5.217   4.456
 4132SOL    HW113295   0.416   5.215   4.357
 4132SOL    HW213296   0.486   5.250   4.500
 4133SOL     OW13297   5.784   0.420   2.695
 4133SOL    HW113298   5.855   0.491   2.695
 4133SOL    HW213299   5.767   0.390   2.788
 4134SOL     OW13300   1.464   3.598   1.570
 4134SOL    HW113301   1.510   3.643   1.646
 4134SOL    HW213302   1.374   3.640   1.556
 4135SOL     OW13303   6.785   1.028   1.653
 4135SOL    HW113304   6.730   1.111   1.661
 4135SOL    HW213305   6.804   0.992   1.744
 4136SOL     OW13306   1.517   4.674   1.453
 4136SOL    HW113307   1.513   4.745   1.383
 4136SOL    HW213308   1.598   4.617   1.438
 4137SOL     OW13309   1.634   2.577   0.491
 4137SOL    HW113310   1.549   2.547   0.448
 4137SOL    HW213311   1.658   2.514   0.565
 4138SOL     OW13312   5.358   7.004   0.336
 4138SOL    HW113313   5.441   6.968   0.379
 4138SOL    HW213314   5.327   6.941   0.265
 4139SOL     OW13315   2.043   3.756   2.919
 4139SOL    HW113316   1.979   3.679   2.925
 4139SOL    HW213317   2.057   3.781   2.824
 4140SOL     OW13318   2.201   0.849   6.421
 4140SOL    HW113319   2.105   0.875   6.434
 4140SOL    HW213320   2.241   0.824   6.509
 4141SOL     OW13321   5.235   0.479   6.137
 4141SOL    HW113322   5.153   0.527   6.169
 4141SOL    HW213323   5.208   0.394   6.091
 4142SOL     OW13324   1.144   4.892   2.382
 4142SOL    HW113325   1.221   4.938   2.338
 4142SOL    HW213326   1.130   4.931   2.473
 4143SOL     OW13327   5.707   3.218   6.649
 4143SOL    HW113328   5.712   3.299   6.708
 4143SOL    HW213329   5.741   3.138   6.699
 4144SOL     OW13330   6.366   0.706   0.536
 4144SOL    HW113331   6.355   0.683   0.633
 4144SOL    HW213332   6.410   0.629   0.488
 4145SOL     OW13333   0.003   6.784   1.482
 4145SOL    HW113334   0.055   6.709   1.523
 4145SOL    HW213335   6.931   6.774   1.506
 4146SOL     OW13336   4.830   5.756   2.902
 4146SOL    HW113337   4.863   5.669   2.865
 4146SOL    HW213338   4.845   5.829   2.836
 4147SOL     OW13339   4.797   4.791   6.108
 4147SOL    HW113340   4.845   4.879   6.111
 4147SOL    HW213341   4.711   4.798   6.159
 4148SOL     OW13342   2.385   1.287   5.720
 4148SOL    HW113343   2.370   1.325   5.811
 4148SOL    HW213344   2.363   1.189   5.720
 4149SOL     OW13345   1.966   3.390   6.525
 4149SOL    HW113346   1.935   3.309   6.576
 4149SOL    HW213347   1.888   3.430   6.477
 4150SOL     OW13348   5.345   2.003   6.550
 4150SOL    HW113349   5.431   2.045   6.578
 4150SOL    HW213350   5.352   1.904   6.557
 4151SOL     OW13351   3.092   6.244   4.034
 4151SOL    HW113352   3.128   6.240   4.127
 4151SOL    HW213353   3.166   6.228   3.969
 4152SOL     OW13354   2.587   4.574   1.289
 4152SOL    HW113355   2.661   4.518   1.251
 4152SOL    HW213356   2.624   4.633   1.360
 4153SOL     OW13357   6.999   5.762   1.336
 4153SOL    HW113358   6.933   5.747   1.410
 4153SOL    HW213359   0.039   5.687   1.333
 4154SOL     OW13360   1.075   6.363   3.632
 4154SOL    HW113361   0.987   6.326   3.603
 4154SOL    HW213362   1.138   6.288   3.650
 4155SOL     OW13363   0.619   0.773   1.313
 4155SOL    HW113364   0.689   0.840   1.336
 4155SOL    HW213365   0.562   0.755   1.393
 4156SOL     OW13366   0.495   5.302   6.159
 4156SOL    HW113367   0.578   5.313   6.104
 4156SOL    HW213368   0.476   5.387   6.208
 4157SOL     OW13369   6.496   5.999   1.490
 4157SOL    HW113370   6.514   6.004   1.392
 4157SOL    HW213371   6.564   6.054   1.539
 4158SOL     OW13372   0.899   2.614   1.368
 4158SOL    HW113373   0.827   2.626   1.300
 4158SOL    HW213374   0.867   2.648   1.456
 4159SOL     OW13375   3.234   0.805   4.394
 4159SOL    HW113376   3.296   0.763   4.327
 4159SOL    HW213377   3.148   0.829   4.350
 4160SOL     OW13378   6.670   6.883   6.808
 4160SOL    HW113379   6.672   6.792   6.851
 4160SOL    HW213380   6.578   6.902   6.777
 4161SOL     OW13381   3.710   3.277   1.715
 4161SOL    HW113382   3.805   3.249   1.701
 4161SOL    HW213383   3.693   3.363   1.667
 4162SOL     OW13384   5.133   5.602   2.006
 4162SOL    HW113385   5.111   5.520   1.952
 4162SOL    HW213386   5.155   5.574   2.100
 4163SOL     OW13387   3.541   6.338   1.696
 4163SOL    HW113388   3.514   6.425   1.737
 4163SOL    HW213389   3.467   6.304   1.638
 4164SOL     OW13390   6.868   0.328   5.467
 4164SOL    HW113391   6.796   0.312   5.399
 4164SOL    HW213392   6.847   0.411   5.519
 4165SOL     OW13393   4.554   0.946   5.000
 4165SOL    HW113394   4.550   0.980   5.094
 4165SOL    HW213395   4.535   1.021   4.937
 4166SOL     OW13396   5.696   1.308   1.417
 4166SOL    HW113397   5.724   1.377   1.484
 4166SOL    HW213398   5.760   1.308   1.341
 4167SOL     OW13399   3.672   5.409   4.247
 4167SOL    HW113400   3.634   5.411   4.339
 4167SOL    HW213401   3.662   5.499   4.205
 4168SOL     OW13402   5.125   3.628   6.593
 4168SOL    HW113403   5.074   3.701   6.548
 4168SOL    HW213404   5.211   3.666   6.630
 4169SOL     OW13405   4.976   3.445   5.358
 4169SOL    HW113406   4.981   3.381   5.281
 4169SOL    HW213407   5.027   3.408   5.436
 4170SOL     OW13408   0.429   3.349   4.036
 4170SOL    HW113409   0.402   3.298   3.954
 4170SOL    HW213410   0.349   3.395   4.075
 4171SOL     OW13411   0.630   2.726   0.372
 4171SOL    HW113412   0.592   2.804   0.421
 4171SOL    HW213413   0.562   2.653   0.365
 4172SOL     OW13414   2.726   4.357   0.909
 4172SOL    HW113415   2.712   4.321   1.001
 4172SOL    HW213416   2.737   4.457   0.914
 4173SOL     OW13417   4.578   2.360   6.059
 4173SOL    HW113418   4.558   2.265   6.033
 4173SOL    HW213419   4.651   2.395   6.001
 4174SOL     OW13420   3.419   0.407   5.104
 4174SOL    HW113421   3.338   0.381   5.156
 4174SOL    HW213422   3.439   0.336   5.036
 4175SOL     OW13423   0.926   4.611   6.748
 4175SOL    HW113424   0.881   4.696   6.719
 4175SOL    HW213425   1.012   4.633   6.795
 4176SOL     OW13426   5.053   0.281   6.341
 4176SOL    HW113427   5.084   0.345   6.270
 4176SOL    HW213428   4.983   0.326   6.397
 4177SOL     OW13429   4.044   4.773   2.826
 4177SOL    HW113430   4.021   4.759   2.729
 4177SOL    HW213431   4.143   4.770   2.838
 4178SOL     OW13432   4.100   5.442   1.210
 4178SOL    HW113433   4.144   5.480   1.129
 4178SOL    HW213434   4.009   5.481   1.221
 4179SOL     OW13435   5.367   2.656   5.410
 4179SOL    HW113436   5.297   2.646   5.340
 4179SOL    HW213437   5.334   2.718   5.482
 4180SOL     OW13438   4.482   4.043   0.052
 4180SOL    HW113439   4.554   3.980   0.081
 4180SOL    HW213440   4.449   4.095   0.131
 4181SOL     OW13441   4.651   6.963   4.629
 4181SOL    HW113442   4.644   6.930   4.535
 4181SOL    HW213443   4.723   6.912   4.677
 4182SOL     OW13444   0.256   6.395   4.273
 4182SOL    HW113445   0.287   6.326   4.207
 4182SOL    HW213446   0.271   6.486   4.235
 4183SOL     OW13447   3.584   2.153   1.374
 4183SOL    HW113448   3.677   2.169   1.410
 4183SOL    HW213449   3.543   2.077   1.423
 4184SOL     OW13450   3.454   5.467   3.623
 4184SOL    HW113451   3.540   5.518   3.620
 4184SOL    HW213452   3.379   5.530   3.639
 4185SOL     OW13453   5.746   3.031   3.149
 4185SOL    HW113454   5.766   3.031   3.051
 4185SOL    HW213455   5.824   3.069   3.198
 4186SOL     OW13456   1.454   6.183   0.613
 4186SOL    HW113457   1.520   6.186   0.538
 4186SOL    HW213458   1.374   6.238   0.589
 4187SOL     OW13459   1.881   3.760   6.610
 4187SOL    HW113460   1.870   3.688   6.678
 4187SOL    HW213461   1.844   3.846   6.646
 4188SOL     OW13462   4.572   0.117   0.629
 4188SOL    HW113463   4.513   0.169   0.567
 4188SOL    HW213464   4.532   0.028   0.646
 4189SOL     OW13465   4.946   4.571   3.770
 4189SOL    HW113466   4.987   4.662   3.768
 4189SOL    HW213467   4.877   4.568   3.843
 4190SOL     OW13468   6.909   6.029   0.869
 4190SOL    HW113469   6.853   6.112   0.866
 4190SOL    HW213470   6.882   5.968   0.794
 4191SOL     OW13471   4.664   4.544   6.284
 4191SOL    HW113472   4.639   4.635   6.249
 4191SOL    HW213473   4.700   4.553   6.376
 4192SOL     OW13474   1.055   3.374   1.386
 4192SOL    HW113475   1.058   3.318   1.468
 4192SOL    HW213476   1.033   3.469   1.411
 4193SOL     OW13477   6.953   0.295   0.662
 4193SOL    HW113478   6.922   0.228   0.729
 4193SOL    HW213479   0.015   0.265   0.622
 4194SOL     OW13480   4.167   1.402   5.261
 4194SOL    HW113481   4.151   1.361   5.351
 4194SOL    HW213482   4.191   1.331   5.196
 4195SOL     OW13483   3.290   6.007   1.301
 4195SOL    HW113484   3.196   6.028   1.327
 4195SOL    HW213485   3.307   6.040   1.208
 4196SOL     OW13486   6.390   2.835   1.889
 4196SOL    HW113487   6.419   2.751   1.843
 4196SOL    HW213488   6.369   2.815   1.985
 4197SOL     OW13489   3.742   0.636   6.705
 4197SOL    HW113490   3.827   0.587   6.725
 4197SOL    HW213491   3.665   0.590   6.749
 4198SOL     OW13492   5.878   2.010   2.479
 4198SOL    HW113493   5.836   2.094   2.445
 4198SOL    HW213494   5.964   1.994   2.431
 4199SOL     OW13495   0.738   4.022   5.901
 4199SOL    HW113496   0.661   4.085   5.913
 4199SOL    HW213497   0.757   4.011   5.803
 4200SOL     OW13498   4.598   1.000   3.473
 4200SOL    HW113499   4.669   0.932   3.491
 4200SOL    HW213500   4.539   1.008   3.554
 4201SOL     OW13501   5.413   6.707   3.854
 4201SOL    HW113502   5.507   6.741   3.850
 4201SOL    HW213503   5.407   6.634   3.923
 4202SOL     OW13504   5.075   4.087   1.015
 4202SOL    HW113505   5.167   4.118   1.036
 4202SOL    HW213506   5.020   4.164   0.983
 4203SOL     OW13507   6.214   5.716   6.362
 4203SOL    HW113508   6.124   5.686   6.395
 4203SOL    HW213509   6.217   5.709   6.263
 4204SOL     OW13510   2.165   3.529   6.654
 4204SOL    HW113511   2.087   3.471   6.629
 4204SOL    HW213512   2.247   3.496   6.606
 4205SOL     OW13513   3.880   6.586   5.077
 4205SOL    HW113514   3.833   6.499   5.061
 4205SOL    HW213515   3.904   6.628   4.989
 4206SOL     OW13516   1.271   2.672   4.842
 4206SOL    HW113517   1.329   2.695   4.920
 4206SOL    HW213518   1.326   2.630   4.770
 4207SOL     OW13519   1.324   2.583   2.321
 4207SOL    HW113520   1.415   2.608   2.354
 4207SOL    HW213521   1.288   2.658   2.264
 4208SOL     OW13522   2.072   3.443   5.038
 4208SOL    HW113523   2.094   3.470   5.131
 4208SOL    HW213524   2.109   3.352   5.020
 4209SOL     OW13525   0.271   6.483   2.536
 4209SOL    HW113526   0.261   6.558   2.471
 4209SOL    HW213527   0.184   6.470   2.585
 4210SOL     OW13528   4.060   3.262   5.080
 4210SOL    HW113529   4.068   3.362   5.073
 4210SOL    HW213530   4.092   3.221   4.995
 4211SOL     OW13531   4.234   2.519   5.618
 4211SOL    HW113532   4.172   2.509   5.696
 4211SOL    HW213533   4.194   2.579   5.550
 4212SOL     OW13534   0.116   2.792   3.161
 4212SOL    HW113535   0.141   2.882   3.124
 4212SOL    HW213536   0.198   2.746   3.194
 4213SOL     OW13537   3.436   0.721   3.447
 4213SOL    HW113538   3.376   0.781   3.393
 4213SOL    HW213539   3.484   0.776   3.516
 4214SOL     OW13540   0.506   5.531   3.994
 4214SOL    HW113541   0.438   5.458   3.986
 4214SOL    HW213542   0.597   5.494   3.979
 4215SOL     OW13543   4.906   6.244   5.341
 4215SOL    HW113544   4.969   6.204   5.408
 4215SOL    HW213545   4.836   6.177   5.317
 4216SOL     OW13546   2.686   5.756   2.196
 4216SOL    HW113547   2.662   5.694   2.121
 4216SOL    HW213548   2.676   5.851   2.166
 4217SOL     OW13549   0.670   0.718   2.929
 4217SOL    HW113550   0.718   0.632   2.913
 4217SOL    HW213551   0.726   0.795   2.899
 4218SOL     OW13552   2.694   1.430   1.723
 4218SOL    HW113553   2.752   1.509   1.707
 4218SOL    HW213554   2.736   1.370   1.791
 4219SOL     OW13555   4.548   6.198   3.703
 4219SOL    HW113556   4.550   6.098   3.701
 4219SOL    HW213557   4.633   6.234   3.666
 4220SOL     OW13558   5.029   2.561   1.644
 4220SOL    HW113559   5.023   2.498   1.721
 4220SOL    HW213560   5.088   2.638   1.668
 4221SOL     OW13561   0.309   5.840   6.866
 4221SOL    HW113562   0.385   5.846   6.931
 4221SOL    HW213563   0.304   5.925   6.813
 4222SOL     OW13564   5.085   2.795   3.730
 4222SOL    HW113565   5.184   2.805   3.715
 4222SOL    HW213566   5.036   2.865   3.677
 4223SOL     OW13567   4.107   3.815   2.122
 4223SOL    HW113568   4.192   3.864   2.141
 4223SOL    HW213569   4.073   3.841   2.032
 4224SOL     OW13570   4.954   3.315   4.670
 4224SOL    HW113571   5.051   3.301   4.650
 4224SOL    HW213572   4.926   3.253   4.744
 4225SOL     OW13573   0.147   2.162   5.544
 4225SOL    HW113574   0.174   2.066   5.544
 4225SOL    HW213575   0.222   2.218   5.508
 4226SOL     OW13576   1.708   5.455   4.840
 4226SOL    HW113577   1.798   5.490   4.866
 4226SOL    HW213578   1.637   5.513   4.878
 4227SOL     OW13579   5.433   5.879   2.492
 4227SOL    HW113580   5.355   5.942   2.487
 4227SOL    HW213581   5.444   5.833   2.404
 4228SOL     OW13582   0.909   4.974   3.985
 4228SOL    HW113583   0.965   4.899   3.951
 4228SOL    HW213584   0.939   4.999   4.077
 4229SOL     OW13585   6.520   4.721   5.513
 4229SOL    HW113586   6.440   4.716   5.454
 4229SOL    HW213587   6.596   4.670   5.472
 4230SOL     OW13588   0.461   0.835   2.063
 4230SOL    HW113589   0.429   0.769   1.996
 4230SOL    HW213590   0.383   0.882   2.104
 4231SOL     OW13591   5.800   1.866   5.704
 4231SOL    HW113592   5.842   1.791   5.755
 4231SOL    HW213593   5.758   1.829   5.621
 4232SOL     OW13594   1.743   5.741   3.700
 4232SOL    HW113595   1.743   5.804   3.777
 4232SOL    HW213596   1.771   5.790   3.617
 4233SOL     OW13597   5.354   5.281   3.651
 4233SOL    HW113598   5.448   5.297   3.682
 4233SOL    HW213599   5.355   5.252   3.556
 4234SOL     OW13600   2.908   5.768   5.865
 4234SOL    HW113601   2.943   5.850   5.909
 4234SOL    HW213602   2.984   5.715   5.827
 4235SOL     OW13603   0.405   5.563   5.545
 4235SOL    HW113604   0.389   5.622   5.466
 4235SOL    HW213605   0.378   5.610   5.629
 4236SOL     OW13606   0.531   5.467   2.888
 4236SOL    HW113607   0.574   5.462   2.798
 4236SOL    HW213608   0.501   5.376   2.916
 4237SOL     OW13609   6.532   4.525   3.749
 4237SOL    HW113610   6.493   4.456   3.811
 4237SOL    HW213611   6.596   4.481   3.687
 4238SOL     OW13612   2.325   7.020   3.376
 4238SOL    HW113613   2.305   0.018   3.471
 4238SOL    HW213614   2.294   6.927   3.355
 4239SOL     OW13615   4.021   1.163   3.583
 4239SOL    HW113616   3.995   1.239   3.643
 4239SOL    HW213617   4.013   1.191   3.488
 4240SOL     OW13618   0.025   6.231   1.198
 4240SOL    HW113619   6.950   6.233   1.187
 4240SOL    HW213620   0.063   6.320   1.173
 4241SOL     OW13621   6.287   2.837   0.335
 4241SOL    HW113622   6.197   2.805   0.363
 4241SOL    HW213623   6.358   2.780   0.377
 4242SOL     OW13624   1.959   1.908   3.583
 4242SOL    HW113625   1.997   1.966   3.511
 4242SOL    HW213626   1.994   1.815   3.572
 4243SOL     OW13627   5.493   0.261   3.268
 4243SOL    HW113628   5.491   0.161   3.257
 4243SOL    HW213629   5.569   0.299   3.216
 4244SOL     OW13630   3.579   3.628   2.517
 4244SOL    HW113631   3.627   3.681   2.448
 4244SOL    HW213632   3.631   3.545   2.539
 4245SOL     OW13633   6.163   2.444   6.332
 4245SOL    HW113634   6.175   2.348   6.361
 4245SOL    HW213635   6.142   2.500   6.412
 4246SOL     OW13636   0.853   3.794   2.137
 4246SOL    HW113637   0.818   3.803   2.044
 4246SOL    HW213638   0.817   3.709   2.177
 4247SOL     OW13639   0.148   5.722   4.937
 4247SOL    HW113640   0.074   5.727   4.870
 4247SOL    HW213641   0.236   5.731   4.890
 4248SOL     OW13642   1.232   3.179   5.411
 4248SOL    HW113643   1.230   3.088   5.371
 4248SOL    HW213644   1.268   3.175   5.504
 4249SOL     OW13645   5.439   3.705   6.096
 4249SOL    HW113646   5.530   3.746   6.090
 4249SOL    HW213647   5.431   3.652   6.180
 4250SOL     OW13648   6.976   4.888   3.205
 4250SOL    HW113649   0.040   4.933   3.198
 4250SOL    HW213650   6.987   4.789   3.193
 4251SOL     OW13651   5.734   4.671   0.433
 4251SOL    HW113652   5.697   4.747   0.486
 4251SOL    HW213653   5.834   4.668   0.443
 4252SOL     OW13654   0.950   5.146   5.825
 4252SOL    HW113655   0.892   5.064   5.822
 4252SOL    HW213656   1.007   5.150   5.743
 4253SOL     OW13657   4.565   0.315   2.780
 4253SOL    HW113658   4.523   0.406   2.771
 4253SOL    HW213659   4.528   0.254   2.711
 4254SOL     OW13660   2.363   4.118   1.384
 4254SOL    HW113661   2.386   4.195   1.324
 4254SOL    HW213662   2.439   4.052   1.383
 4255SOL     OW13663   0.041   2.931   4.357
 4255SOL    HW113664   6.999   2.991   4.314
 4255SOL    HW213665   0.048   2.952   4.455
 4256SOL     OW13666   1.954   0.025   1.606
 4256SOL    HW113667   2.027   0.013   1.673
 4256SOL    HW213668   1.980   0.096   1.540
 4257SOL     OW13669   3.840   1.781   4.644
 4257SOL    HW113670   3.775   1.706   4.635
 4257SOL    HW213671   3.859   1.797   4.741
 4258SOL     OW13672   5.620   6.800   2.648
 4258SOL    HW113673   5.640   6.898   2.652
 4258SOL    HW213674   5.688   6.750   2.701
 4259SOL     OW13675   2.243   2.392   6.757
 4259SOL    HW113676   2.320   2.330   6.737
 4259SOL    HW213677   2.278   2.484   6.772
 4260SOL     OW13678   4.952   5.492   3.304
 4260SOL    HW113679   4.985   5.542   3.383
 4260SOL    HW213680   4.855   5.510   3.290
 4261SOL     OW13681   1.427   6.245   1.938
 4261SOL    HW113682   1.401   6.341   1.923
 4261SOL    HW213683   1.518   6.241   1.979
 4262SOL     OW13684   0.821   5.088   6.815
 4262SOL    HW113685   0.849   5.035   6.895
 4262SOL    HW213686   0.866   5.050   6.734
 4263SOL     OW13687   2.848   4.399   5.852
 4263SOL    HW113688   2.819   4.481   5.801
 4263SOL    HW213689   2.888   4.333   5.788
 4264SOL     OW13690   0.276   0.890   0.716
 4264SOL    HW113691   0.179   0.912   0.705
 4264SOL    HW213692   0.290   0.847   0.806
 4265SOL     OW13693   6.612   1.521   0.836
 4265SOL    HW113694   6.582   1.429   0.810
 4265SOL    HW213695   6.712   1.526   0.828
 4266SOL     OW13696   2.729   5.565   0.036
 4266SOL    HW113697   2.711   5.467   0.042
 4266SOL    HW213698   2.811   5.581   7.007
 4267SOL     OW13699   1.630   3.660   5.454
 4267SOL    HW113700   1.709   3.712   5.486
 4267SOL    HW213701   1.604   3.692   5.363
 4268SOL     OW13702   2.155   0.830   0.706
 4268SOL    HW113703   2.161   0.807   0.609
 4268SOL    HW213704   2.236   0.795   0.754
 4269SOL     OW13705   3.493   3.374   0.232
 4269SOL    HW113706   3.549   3.300   0.270
 4269SOL    HW213707   3.440   3.340   0.154
 4270SOL     OW13708   2.957   3.215   4.956
 4270SOL    HW113709   3.028   3.170   5.010
 4270SOL    HW213710   2.867   3.194   4.995
 4271SOL     OW13711   0.784   0.107   5.973
 4271SOL    HW113712   0.774   0.008   5.964
 4271SOL    HW213713   0.752   0.135   6.064
 4272SOL     OW13714   6.592   4.750   4.919
 4272SOL    HW113715   6.546   4.743   4.831
 4272SOL    HW213716   6.650   4.832   4.920
 4273SOL     OW13717   5.189   6.858   5.538
 4273SOL    HW113718   5.189   6.767   5.497
 4273SOL    HW213719   5.283   6.889   5.551
 4274SOL     OW13720   1.541   6.552   3.210
 4274SOL    HW113721   1.574   6.631   3.262
 4274SOL    HW213722   1.459   6.515   3.254
 4275SOL     OW13723   0.944   0.354   6.181
 4275SOL    HW113724   0.960   0.368   6.084
 4275SOL    HW213725   0.958   0.257   6.204
 4276SOL     OW13726   2.112   4.386   2.924
 4276SOL    HW113727   2.130   4.308   2.865
 4276SOL    HW213728   2.155   4.468   2.885
 4277SOL     OW13729   6.885   5.433   3.923
 4277SOL    HW113730   6.919   5.372   3.851
 4277SOL    HW213731   6.787   5.419   3.936
 4278SOL     OW13732   6.870   6.668   4.544
 4278SOL    HW113733   6.812   6.729   4.598
 4278SOL    HW213734   6.857   6.574   4.575
 4279SOL     OW13735   3.588   6.440   5.289
 4279SOL    HW113736   3.517   6.399   5.346
 4279SOL    HW213737   3.548   6.473   5.204
 4280SOL     OW13738   5.919   2.066   4.639
 4280SOL    HW113739   5.868   2.146   4.670
 4280SOL    HW213740   5.993   2.096   4.578
 4281SOL     OW13741   2.257   4.301   5.080
 4281SOL    HW113742   2.290   4.209   5.058
 4281SOL    HW213743   2.189   4.295   5.153
 4282SOL     OW13744   2.008   2.369   0.973
 4282SOL    HW113745   2.061   2.451   0.997
 4282SOL    HW213746   2.010   2.357   0.873
 4283SOL     OW13747   1.993   0.335   4.493
 4283SOL    HW113748   1.975   0.339   4.395
 4283SOL    HW213749   1.942   0.407   4.540
 4284SOL     OW13750   5.556   2.016   2.160
 4284SOL    HW113751   5.466   1.992   2.196
 4284SOL    HW213752   5.619   1.939   2.173
 4285SOL     OW13753   1.187   0.198   5.398
 4285SOL    HW113754   1.146   0.280   5.358
 4285SOL    HW213755   1.201   0.129   5.327
 4286SOL     OW13756   4.709   5.915   0.086
 4286SOL    HW113757   4.648   5.868   0.150
 4286SOL    HW213758   4.679   5.898   7.016
 4287SOL     OW13759   5.916   0.243   4.843
 4287SOL    HW113760   5.825   0.255   4.804
 4287SOL    HW213761   5.964   0.170   4.794
 4288SOL     OW13762   1.643   6.534   2.652
 4288SOL    HW113763   1.708   6.563   2.722
 4288SOL    HW213764   1.663   6.439   2.626
 4289SOL     OW13765   5.561   2.755   1.246
 4289SOL    HW113766   5.602   2.784   1.160
 4289SOL    HW213767   5.615   2.791   1.323
 4290SOL     OW13768   2.195   0.855   1.929
 4290SOL    HW113769   2.261   0.781   1.943
 4290SOL    HW213770   2.210   0.897   1.839
 4291SOL     OW13771   5.799   3.392   0.692
 4291SOL    HW113772   5.717   3.376   0.749
 4291SOL    HW213773   5.881   3.369   0.745
 4292SOL     OW13774   5.841   4.617   6.482
 4292SOL    HW113775   5.889   4.662   6.407
 4292SOL    HW213776   5.903   4.556   6.530
 4293SOL     OW13777   0.283   3.095   6.891
 4293SOL    HW113778   0.352   3.122   6.959
 4293SOL    HW213779   0.231   3.017   6.926
 4294SOL     OW13780   4.174   2.302   6.025
 4294SOL    HW113781   4.118   2.341   5.952
 4294SOL    HW213782   4.202   2.210   6.000
 4295SOL     OW13783   3.674   0.053   4.498
 4295SOL    HW113784   3.729   7.000   4.467
 4295SOL    HW213785   3.664   0.050   4.597
 4296SOL     OW13786   2.553   1.660   1.465
 4296SOL    HW113787   2.465   1.647   1.421
 4296SOL    HW213788   2.581   1.756   1.457
 4297SOL     OW13789   5.690   0.576   5.589
 4297SOL    HW113790   5.780   0.566   5.631
 4297SOL    HW213791   5.698   0.567   5.490
 4298SOL     OW13792   2.950   5.849   1.580
 4298SOL    HW113793   2.920   5.753   1.576
 4298SOL    HW213794   2.942   5.890   1.490
 4299SOL     OW13795   1.026   3.778   6.182
 4299SOL    HW113796   1.059   3.686   6.162
 4299SOL    HW213797   0.927   3.781   6.170
 4300SOL     OW13798   3.726   1.390   6.952
 4300SOL    HW113799   3.700   1.425   6.862
 4300SOL    HW213800   3.823   1.364   6.951
 4301SOL     OW13801   2.692   1.796   0.444
 4301SOL    HW113802   2.669   1.817   0.539
 4301SOL    HW213803   2.776   1.741   0.441
 4302SOL     OW13804   1.159   6.474   6.936
 4302SOL    HW113805   1.202   6.423   7.011
 4302SOL    HW213806   1.168   6.572   6.953
 4303SOL     OW13807   6.941   3.614   2.438
 4303SOL    HW113808   6.955   3.707   2.405
 4303SOL    HW213809   6.915   3.555   2.362
 4304SOL     OW13810   3.505   3.494   3.778
 4304SOL    HW113811   3.564   3.505   3.857
 4304SOL    HW213812   3.412   3.523   3.801
 4305SOL     OW13813   6.207   1.125   3.692
 4305SOL    HW113814   6.164   1.214   3.703
 4305SOL    HW213815   6.255   1.121   3.605
 4306SOL     OW13816   6.690   4.306   5.831
 4306SOL    HW113817   6.760   4.310   5.902
 4306SOL    HW213818   6.613   4.250   5.863
 4307SOL     OW13819   4.795   3.913   5.968
 4307SOL    HW113820   4.731   3.887   6.040
 4307SOL    HW213821   4.767   4.000   5.928
 4308SOL     OW13822   5.213   5.591   4.727
 4308SOL    HW113823   5.233   5.675   4.777
 4308SOL    HW213824   5.204   5.515   4.792
 4309SOL     OW13825   1.828   1.253   0.453
 4309SOL    HW113826   1.900   1.215   0.510
 4309SOL    HW213827   1.809   1.347   0.481
 4310SOL     OW13828   1.853   2.123   2.869
 4310SOL    HW113829   1.837   2.132   2.771
 4310SOL    HW213830   1.942   2.162   2.892
 4311SOL     OW13831   1.743   6.193   3.359
 4311SOL    HW113832   1.804   6.272   3.353
 4311SOL    HW213833   1.662   6.209   3.303
 4312SOL     OW13834   2.117   5.571   2.192
 4312SOL    HW113835   2.166   5.564   2.105
 4312SOL    HW213836   2.042   5.505   2.194
 4313SOL     OW13837   4.782   1.634   1.874
 4313SOL    HW113838   4.690   1.659   1.905
 4313SOL    HW213839   4.778   1.602   1.780
 4314SOL     OW13840   4.892   3.385   2.594
 4314SOL    HW113841   4.912   3.362   2.499
 4314SOL    HW213842   4.903   3.304   2.652
 4315SOL     OW13843   2.803   0.646   2.171
 4315SOL    HW113844   2.776   0.552   2.152
 4315SOL    HW213845   2.737   0.709   2.129
 4316SOL     OW13846   5.725   0.744   1.877
 4316SOL    HW113847   5.722   0.747   1.977
 4316SOL    HW213848   5.654   0.803   1.839
 4317SOL     OW13849   3.227   1.243   4.245
 4317SOL    HW113850   3.156   1.198   4.192
 4317SOL    HW213851   3.203   1.339   4.259
 4318SOL     OW13852   0.544   3.225   3.641
 4318SOL    HW113853   0.482   3.267   3.574
 4318SOL    HW213854   0.499   3.221   3.730
 4319SOL     OW13855   2.992   3.518   6.410
 4319SOL    HW113856   2.921   3.565   6.463
 4319SOL    HW213857   3.076   3.571   6.411
 4320SOL     OW13858   0.460   6.658   2.902
 4320SOL    HW113859   0.389   6.599   2.864
 4320SOL    HW213860   0.542   6.604   2.920
 4321SOL     OW13861   6.679   0.382   5.269
 4321SOL    HW113862   6.685   0.292   5.227
 4321SOL    HW213863   6.742   0.445   5.223
 4322SOL     OW13864   6.103   1.047   0.239
 4322SOL    HW113865   6.127   1.010   0.329
 4322SOL    HW213866   6.186   1.076   0.192
 4323SOL     OW13867   6.306   3.066   2.446
 4323SOL    HW113868   6.334   3.123   2.524
 4323SOL    HW213869   6.358   3.093   2.365
 4324SOL     OW13870   5.968   4.314   6.318
 4324SOL    HW113871   5.966   4.215   6.305
 4324SOL    HW213872   5.954   4.336   6.414
 4325SOL     OW13873   1.965   1.533   6.647
 4325SOL    HW113874   1.883   1.580   6.615
 4325SOL    HW213875   2.039   1.599   6.660
 4326SOL     OW13876   6.268   2.954   5.481
 4326SOL    HW113877   6.297   2.960   5.576
 4326SOL    HW213878   6.196   3.022   5.464
 4327SOL     OW13879   6.086   6.176   1.823
 4327SOL    HW113880   6.136   6.132   1.749
 4327SOL    HW213881   6.149   6.231   1.878
 4328SOL     OW13882   4.888   5.441   6.720
 4328SOL    HW113883   4.791   5.429   6.701
 4328SOL    HW213884   4.900   5.493   6.805
 4329SOL     OW13885   4.000   2.149   5.795
 4329SOL    HW113886   3.901   2.154   5.787
 4329SOL    HW213887   4.027   2.056   5.817
 4330SOL     OW13888   1.222   0.432   5.911
 4330SOL    HW113889   1.222   0.531   5.897
 4330SOL    HW213890   1.131   0.402   5.939
 4331SOL     OW13891   5.820   2.628   6.515
 4331SOL    HW113892   5.802   2.559   6.585
 4331SOL    HW213893   5.756   2.704   6.525
 4332SOL     OW13894   5.008   3.156   1.974
 4332SOL    HW113895   5.081   3.101   1.933
 4332SOL    HW213896   4.919   3.117   1.951
 4333SOL     OW13897   5.807   1.458   5.058
 4333SOL    HW113898   5.793   1.453   5.157
 4333SOL    HW213899   5.885   1.517   5.038
 4334SOL     OW13900   3.915   2.071   2.131
 4334SOL    HW113901   3.823   2.096   2.102
 4334SOL    HW213902   3.978   2.079   2.054
 4335SOL     OW13903   3.296   4.104   4.723
 4335SOL    HW113904   3.199   4.083   4.723
 4335SOL    HW213905   3.313   4.186   4.778
 4336SOL     OW13906   1.403   6.437   4.784
 4336SOL    HW113907   1.371   6.511   4.843
 4336SOL    HW213908   1.387   6.462   4.688
 4337SOL     OW13909   6.877   5.169   0.207
 4337SOL    HW113910   6.929   5.152   0.123
 4337SOL    HW213911   6.783   5.136   0.195
 4338SOL     OW13912   6.331   6.026   4.048
 4338SOL    HW113913   6.361   5.995   4.138
 4338SOL    HW213914   6.409   6.029   3.986
 4339SOL     OW13915   5.884   1.967   5.209
 4339SOL    HW113916   5.798   1.956   5.160
 4339SOL    HW213917   5.961   1.949   5.148
 4340SOL     OW13918   5.733   4.142   1.064
 4340SOL    HW113919   5.795   4.106   1.133
 4340SOL    HW213920   5.646   4.092   1.067
 4341SOL     OW13921   1.901   4.039   1.720
 4341SOL    HW113922   1.901   4.101   1.641
 4341SOL    HW213923   1.981   4.059   1.777
 4342SOL     OW13924   0.897   2.879   2.846
 4342SOL    HW113925   0.981   2.879   2.791
 4342SOL    HW213926   0.822   2.840   2.793
 4343SOL     OW13927   2.999   1.390   0.828
 4343SOL    HW113928   3.048   1.476   0.840
 4343SOL    HW213929   3.055   1.314   0.862
 4344SOL     OW13930   1.837   5.137   3.320
 4344SOL    HW113931   1.868   5.109   3.411
 4344SOL    HW213932   1.885   5.083   3.251
 4345SOL     OW13933   1.605   2.628   5.241
 4345SOL    HW113934   1.589   2.542   5.191
 4345SOL    HW213935   1.568   2.620   5.333
 4346SOL     OW13936   1.986   3.416   1.844
 4346SOL    HW113937   2.065   3.435   1.902
 4346SOL    HW213938   1.986   3.319   1.819
 4347SOL     OW13939   5.792   6.759   2.872
 4347SOL    HW113940   5.879   6.714   2.889
 4347SOL    HW213941   5.720   6.716   2.927
 4348SOL     OW13942   1.517   3.873   0.590
 4348SOL    HW113943   1.541   3.789   0.540
 4348SOL    HW213944   1.546   3.953   0.537
 4349SOL     OW13945   0.336   1.409   3.711
 4349SOL    HW113946   0.429   1.380   3.732
 4349SOL    HW213947   0.282   1.331   3.679
 4350SOL     OW13948   5.457   2.414   4.216
 4350SOL    HW113949   5.373   2.361   4.202
 4350SOL    HW213950   5.491   2.398   4.309
 4351SOL     OW13951   3.075   5.954   1.998
 4351SOL    HW113952   3.018   5.993   1.925
 4351SOL    HW213953   3.044   5.862   2.020
 4352SOL     OW13954   6.691   1.572   2.247
 4352SOL    HW113955   6.788   1.572   2.271
 4352SOL    HW213956   6.640   1.520   2.316
 4353SOL     OW13957   3.396   5.760   6.593
 4353SOL    HW113958   3.370   5.725   6.503
 4353SOL    HW213959   3.313   5.784   6.644
 4354SOL     OW13960   2.722   0.077   7.013
 4354SOL    HW113961   2.645   0.060   6.951
 4354SOL    HW213962   2.787   0.139   6.970
 4355SOL     OW13963   4.309   1.379   0.517
 4355SOL    HW113964   4.321   1.304   0.581
 4355SOL    HW213965   4.380   1.448   0.531
 4356SOL     OW13966   4.161   4.192   0.576
 4356SOL    HW113967   4.249   4.214   0.618
 4356SOL    HW213968   4.123   4.110   0.620
 4357SOL     OW13969   6.511   0.276   0.079
 4357SOL    HW113970   6.466   0.364   0.094
 4357SOL    HW213971   6.524   0.261   7.005
 4358SOL     OW13972   0.629   0.120   1.627
 4358SOL    HW113973   0.714   0.083   1.665
 4358SOL    HW213974   0.651   0.181   1.551
 4359SOL     OW13975   0.455   2.391   4.100
 4359SOL    HW113976   0.503   2.317   4.147
 4359SOL    HW213977   0.357   2.372   4.098
 4360SOL     OW13978   1.107   2.924   1.426
 4360SOL    HW113979   1.204   2.907   1.408
 4360SOL    HW213980   1.054   2.901   1.344
 4361SOL     OW13981   5.075   2.632   1.959
 4361SOL    HW113982   4.996   2.690   1.942
 4361SOL    HW213983   5.105   2.644   2.054
 4362SOL     OW13984   6.452   4.242   4.926
 4362SOL    HW113985   6.365   4.194   4.913
 4362SOL    HW213986   6.514   4.218   4.852
 4363SOL     OW13987   5.367   3.096   5.467
 4363SOL    HW113988   5.338   3.123   5.375
 4363SOL    HW213989   5.377   3.178   5.524
 4364SOL     OW13990   3.093   3.945   4.560
 4364SOL    HW113991   2.994   3.950   4.573
 4364SOL    HW213992   3.131   3.878   4.624
 4365SOL     OW13993   4.204   2.323   2.668
 4365SOL    HW113994   4.245   2.414   2.662
 4365SOL    HW213995   4.273   2.254   2.646
 4366SOL     OW13996   5.471   6.044   1.285
 4366SOL    HW113997   5.564   6.039   1.248
 4366SOL    HW213998   5.425   5.957   1.271
 4367SOL     OW13999   1.630   6.027   6.090
 4367SOL    HW114000   1.724   6.062   6.087
 4367SOL    HW214001   1.625   5.951   6.154
 4368SOL     OW14002   5.595   4.069   1.539
 4368SOL    HW114003   5.597   3.977   1.501
 4368SOL    HW214004   5.507   4.085   1.584
 4369SOL     OW14005   4.197   5.539   2.061
 4369SOL    HW114006   4.244   5.576   1.981
 4369SOL    HW214007   4.264   5.494   2.121
 4370SOL     OW14008   5.919   4.566   4.096
 4370SOL    HW114009   5.834   4.557   4.148
 4370SOL    HW214010   5.905   4.628   4.019
 4371SOL     OW14011   5.522   1.170   2.202
 4371SOL    HW114012   5.543   1.125   2.289
 4371SOL    HW214013   5.558   1.263   2.203
 4372SOL     OW14014   4.259   1.598   3.707
 4372SOL    HW114015   4.161   1.596   3.728
 4372SOL    HW214016   4.310   1.622   3.789
 4373SOL     OW14017   6.340   1.973   6.550
 4373SOL    HW114018   6.391   1.938   6.472
 4373SOL    HW214019   6.268   1.908   6.575
 4374SOL     OW14020   1.871   2.420   1.765
 4374SOL    HW114021   1.824   2.345   1.810
 4374SOL    HW214022   1.804   2.488   1.734
 4375SOL     OW14023   2.464   6.450   4.964
 4375SOL    HW114024   2.470   6.493   5.054
 4375SOL    HW214025   2.552   6.460   4.917
 4376SOL     OW14026   5.848   0.446   2.984
 4376SOL    HW114027   5.943   0.418   2.970
 4376SOL    HW214028   5.846   0.532   3.035
 4377SOL     OW14029   5.860   4.170   6.713
 4377SOL    HW114030   5.774   4.219   6.722
 4377SOL    HW214031   5.846   4.088   6.657
 4378SOL     OW14032   1.739   0.034   4.264
 4378SOL    HW114033   1.658   0.028   4.206
 4378SOL    HW214034   1.790   0.117   4.242
 4379SOL     OW14035   2.616   2.107   4.735
 4379SOL    HW114036   2.559   2.156   4.801
 4379SOL    HW214037   2.670   2.173   4.683
 4380SOL     OW14038   0.209   1.389   1.939
 4380SOL    HW114039   0.241   1.424   2.026
 4380SOL    HW214040   0.113   1.413   1.927
 4381SOL     OW14041   2.516   6.467   5.758
 4381SOL    HW114042   2.445   6.407   5.796
 4381SOL    HW214043   2.596   6.412   5.733
 4382SOL     OW14044   0.034   3.450   5.554
 4382SOL    HW114045   6.979   3.388   5.555
 4382SOL    HW214046   0.046   3.490   5.645
 4383SOL     OW14047   5.398   3.122   6.714
 4383SOL    HW114048   5.483   3.136   6.765
 4383SOL    HW214049   5.356   3.036   6.742
 4384SOL     OW14050   6.189   6.497   3.641
 4384SOL    HW114051   6.271   6.500   3.698
 4384SOL    HW214052   6.142   6.585   3.646
 4385SOL     OW14053   5.687   1.683   4.414
 4385SOL    HW114054   5.721   1.752   4.478
 4385SOL    HW214055   5.743   1.683   4.332
 4386SOL     OW14056   0.846   3.341   5.178
 4386SOL    HW114057   0.841   3.280   5.257
 4386SOL    HW214058   0.887   3.428   5.206
 4387SOL     OW14059   6.491   2.113   0.510
 4387SOL    HW114060   6.455   2.020   0.521
 4387SOL    HW214061   6.478   2.163   0.595
 4388SOL     OW14062   4.736   1.725   6.526
 4388SOL    HW114063   4.752   1.627   6.515
 4388SOL    HW214064   4.667   1.756   6.461
 4389SOL     OW14065   0.105   3.645   1.679
 4389SOL    HW114066   0.202   3.631   1.657
 4389SOL    HW214067   0.053   3.654   1.594
 4390SOL     OW14068   6.036   0.830   1.576
 4390SOL    HW114069   5.986   0.790   1.652
 4390SOL    HW214070   5.973   0.844   1.499
 4391SOL     OW14071   2.216   5.924   6.213
 4391SOL    HW114072   2.265   5.859   6.155
 4391SOL    HW214073   2.142   5.877   6.261
 4392SOL     OW14074   1.906   2.546   4.994
 4392SOL    HW114075   1.825   2.571   4.940
 4392SOL    HW214076   1.948   2.464   4.955
 4393SOL     OW14077   4.924   0.017   1.767
 4393SOL    HW114078   4.906   0.033   1.864
 4393SOL    HW214079   5.011   0.060   1.741
 4394SOL     OW14080   1.428   0.569   1.446
 4394SOL    HW114081   1.382   0.485   1.474
 4394SOL    HW214082   1.518   0.574   1.488
 4395SOL     OW14083   2.632   5.518   1.065
 4395SOL    HW114084   2.547   5.467   1.073
 4395SOL    HW214085   2.709   5.454   1.056
 4396SOL     OW14086   1.925   0.409   3.412
 4396SOL    HW114087   2.018   0.421   3.376
 4396SOL    HW214088   1.862   0.393   3.336
 4397SOL     OW14089   3.055   1.926   4.038
 4397SOL    HW114090   3.030   1.853   4.101
 4397SOL    HW214091   3.081   2.007   4.091
 4398SOL     OW14092   2.086   2.901   5.696
 4398SOL    HW114093   2.146   2.961   5.749
 4398SOL    HW214094   2.038   2.956   5.627
 4399SOL     OW14095   3.189   6.796   1.948
 4399SOL    HW114096   3.220   6.884   1.913
 4399SOL    HW214097   3.115   6.810   2.013
 4400SOL     OW14098   2.284   5.767   5.133
 4400SOL    HW114099   2.305   5.861   5.108
 4400SOL    HW214100   2.331   5.744   5.218
 4401SOL     OW14101   3.721   6.847   6.102
 4401SOL    HW114102   3.764   6.905   6.171
 4401SOL    HW214103   3.655   6.901   6.050
 4402SOL     OW14104   1.132   0.256   3.343
 4402SOL    HW114105   1.174   0.303   3.420
 4402SOL    HW214106   1.195   0.187   3.307
 4403SOL     OW14107   1.197   4.765   1.125
 4403SOL    HW114108   1.141   4.781   1.207
 4403SOL    HW214109   1.289   4.800   1.140
 4404SOL     OW14110   0.294   6.101   6.495
 4404SOL    HW114111   0.373   6.162   6.490
 4404SOL    HW214112   0.324   6.009   6.522
 4405SOL     OW14113   1.875   5.077   3.598
 4405SOL    HW114114   1.797   5.020   3.627
 4405SOL    HW214115   1.956   5.051   3.651
 4406SOL     OW14116   6.025   3.576   2.410
 4406SOL    HW114117   6.016   3.532   2.499
 4406SOL    HW214118   5.948   3.638   2.394
 4407SOL     OW14119   6.262   6.259   2.057
 4407SOL    HW114120   6.178   6.314   2.055
 4407SOL    HW214121   6.281   6.231   2.150
 4408SOL     OW14122   4.070   0.282   1.365
 4408SOL    HW114123   4.141   0.213   1.352
 4408SOL    HW214124   4.037   0.279   1.459
 4409SOL     OW14125   3.618   0.769   2.342
 4409SOL    HW114126   3.612   0.869   2.344
 4409SOL    HW214127   3.541   0.731   2.394
 4410SOL     OW14128   0.824   5.910   1.240
 4410SOL    HW114129   0.809   5.959   1.154
 4410SOL    HW214130   0.741   5.912   1.295
 4411SOL     OW14131   3.330   4.561   5.393
 4411SOL    HW114132   3.291   4.469   5.383
 4411SOL    HW214133   3.281   4.611   5.464
 4412SOL     OW14134   4.907   6.342   2.592
 4412SOL    HW114135   4.862   6.267   2.543
 4412SOL    HW214136   4.844   6.380   2.659
 4413SOL     OW14137   4.395   6.404   3.540
 4413SOL    HW114138   4.298   6.417   3.520
 4413SOL    HW214139   4.405   6.339   3.616
 4414SOL     OW14140   4.321   4.266   1.188
 4414SOL    HW114141   4.354   4.299   1.277
 4414SOL    HW214142   4.397   4.268   1.122
 4415SOL     OW14143   3.210   3.670   1.460
 4415SOL    HW114144   3.210   3.643   1.556
 4415SOL    HW214145   3.118   3.699   1.434
 4416SOL     OW14146   4.746   2.571   3.246
 4416SOL    HW114147   4.702   2.647   3.294
 4416SOL    HW214148   4.820   2.605   3.189
 4417SOL     OW14149   0.815   3.658   3.779
 4417SOL    HW114150   0.767   3.606   3.850
 4417SOL    HW214151   0.769   3.645   3.692
 4418SOL     OW14152   6.301   6.957   6.987
 4418SOL    HW114153   6.354   6.922   6.910
 4418SOL    HW214154   6.294   6.888   0.034
 4419SOL     OW14155   6.309   5.864   6.562
 4419SOL    HW114156   6.408   5.856   6.556
 4419SOL    HW214157   6.267   5.822   6.482
 4420SOL     OW14158   3.614   2.320   0.764
 4420SOL    HW114159   3.675   2.316   0.843
 4420SOL    HW214160   3.566   2.407   0.763
 4421SOL     OW14161   1.419   2.743   5.068
 4421SOL    HW114162   1.482   2.696   5.130
 4421SOL    HW214163   1.428   2.841   5.080
 4422SOL     OW14164   6.965   4.516   0.155
 4422SOL    HW114165   7.013   4.428   0.158
 4422SOL    HW214166   6.984   4.568   0.238
 4423SOL     OW14167   5.286   4.014   5.063
 4423SOL    HW114168   5.305   3.916   5.070
 4423SOL    HW214169   5.218   4.040   5.132
 4424SOL     OW14170   4.761   5.665   3.636
 4424SOL    HW114171   4.713   5.621   3.712
 4424SOL    HW214172   4.844   5.709   3.669
 4425SOL     OW14173   1.589   5.728   1.671
 4425SOL    HW114174   1.544   5.817   1.664
 4425SOL    HW214175   1.676   5.730   1.622
 4426SOL     OW14176   1.170   6.952   4.160
 4426SOL    HW114177   1.168   6.859   4.123
 4426SOL    HW214178   1.183   7.017   4.086
 4427SOL     OW14179   3.149   6.238   2.640
 4427SOL    HW114180   3.154   6.153   2.691
 4427SOL    HW214181   3.053   6.267   2.633
 4428SOL     OW14182   5.937   0.977   3.959
 4428SOL    HW114183   5.986   0.936   3.882
 4428SOL    HW214184   6.001   0.994   4.034
 4429SOL     OW14185   2.119   6.543   3.743
 4429SOL    HW114186   2.173   6.594   3.809
 4429SOL    HW214187   2.160   6.551   3.652
 4430SOL     OW14188   5.030   4.498   5.032
 4430SOL    HW114189   4.981   4.411   5.025
 4430SOL    HW214190   5.033   4.542   4.942
 4431SOL     OW14191   3.391   0.295   4.157
 4431SOL    HW114192   3.313   0.353   4.134
 4431SOL    HW214193   3.418   0.313   4.252
 4432SOL     OW14194   1.209   3.867   6.347
 4432SOL    HW114195   1.151   3.835   6.272
 4432SOL    HW214196   1.210   3.967   6.347
 4433SOL     OW14197   0.957   0.763   4.962
 4433SOL    HW114198   0.928   0.762   4.866
 4433SOL    HW214199   1.020   0.839   4.977
 4434SOL     OW14200   6.956   0.557   2.016
 4434SOL    HW114201   6.899   0.532   2.094
 4434SOL    HW214202   6.966   0.657   2.012
 4435SOL     OW14203   2.568   3.740   0.289
 4435SOL    HW114204   2.641   3.764   0.226
 4435SOL    HW214205   2.491   3.701   0.237
 4436SOL     OW14206   4.568   1.322   1.716
 4436SOL    HW114207   4.637   1.392   1.698
 4436SOL    HW214208   4.491   1.363   1.765
 4437SOL     OW14209   0.021   3.790   1.223
 4437SOL    HW114210   0.067   3.878   1.208
 4437SOL    HW214211   7.012   3.755   1.136
 4438SOL     OW14212   3.917   0.358   6.204
 4438SOL    HW114213   3.998   0.369   6.261
 4438SOL    HW214214   3.843   0.319   6.259
 4439SOL     OW14215   2.113   6.222   2.013
 4439SOL    HW114216   2.065   6.306   1.987
 4439SOL    HW214217   2.176   6.241   2.088
 4440SOL     OW14218   1.460   4.983   6.927
 4440SOL    HW114219   1.394   5.019   6.861
 4440SOL    HW214220   1.507   5.059   6.972
 4441SOL     OW14221   0.273   1.209   0.374
 4441SOL    HW114222   0.194   1.151   0.355
 4441SOL    HW214223   0.316   1.179   0.460
 4442SOL     OW14224   2.047   4.593   6.498
 4442SOL    HW114225   1.961   4.548   6.521
 4442SOL    HW214226   2.122   4.527   6.507
 4443SOL     OW14227   0.160   5.385   6.166
 4443SOL    HW114228   0.236   5.426   6.118
 4443SOL    HW214229   0.089   5.359   6.101
 4444SOL     OW14230   5.152   3.961   0.178
 4444SOL    HW114231   5.237   4.012   0.162
 4444SOL    HW214232   5.083   3.990   0.113
 4445SOL     OW14233   0.007   5.704   0.396
 4445SOL    HW114234   0.072   5.768   0.356
 4445SOL    HW214235   6.962   5.680   0.328
 4446SOL     OW14236   5.122   0.693   0.988
 4446SOL    HW114237   5.090   0.774   0.939
 4446SOL    HW214238   5.054   0.620   0.980
 4447SOL     OW14239   5.224   5.132   5.479
 4447SOL    HW114240   5.126   5.145   5.464
 4447SOL    HW214241   5.255   5.193   5.552
 4448SOL     OW14242   3.798   6.464   2.091
 4448SOL    HW114243   3.714   6.423   2.054
 4448SOL    HW214244   3.852   6.393   2.137
 4449SOL     OW14245   3.405   1.083   5.364
 4449SOL    HW114246   3.365   1.147   5.430
 4449SOL    HW214247   3.379   0.990   5.389
 4450SOL     OW14248   3.628   0.139   0.264
 4450SOL    HW114249   3.694   0.194   0.315
 4450SOL    HW214250   3.670   0.051   0.241
 4451SOL     OW14251   4.774   4.281   3.119
 4451SOL    HW114252   4.727   4.252   3.036
 4451SOL    HW214253   4.781   4.204   3.182
 4452SOL     OW14254   4.938   5.821   4.656
 4452SOL    HW114255   4.876   5.886   4.699
 4452SOL    HW214256   5.001   5.869   4.595
 4453SOL     OW14257   0.207   3.787   0.876
 4453SOL    HW114258   0.223   3.800   0.779
 4453SOL    HW214259   0.212   3.875   0.923
 4454SOL     OW14260   0.925   2.834   6.893
 4454SOL    HW114261   0.858   2.893   6.938
 4454SOL    HW214262   0.923   2.851   6.794
 4455SOL     OW14263   0.497   6.624   5.140
 4455SOL    HW114264   0.566   6.694   5.123
 4455SOL    HW214265   0.500   6.596   5.236
 4456SOL     OW14266   2.001   0.023   4.805
 4456SOL    HW114267   1.908   0.030   4.769
 4456SOL    HW214268   2.067   0.025   4.730
 4457SOL     OW14269   0.738   2.393   4.866
 4457SOL    HW114270   0.816   2.341   4.899
 4457SOL    HW214271   0.729   2.477   4.921
 4458SOL     OW14272   1.971   3.428   0.322
 4458SOL    HW114273   2.014   3.512   0.289
 4458SOL    HW214274   2.040   3.357   0.332
 4459SOL     OW14275   1.084   2.375   3.271
 4459SOL    HW114276   0.993   2.415   3.257
 4459SOL    HW214277   1.153   2.441   3.242
 4460SOL     OW14278   6.654   3.557   4.172
 4460SOL    HW114279   6.566   3.515   4.148
 4460SOL    HW214280   6.647   3.600   4.262
 4461SOL     OW14281   2.864   0.855   1.357
 4461SOL    HW114282   2.914   0.880   1.274
 4461SOL    HW214283   2.918   0.881   1.438
 4462SOL     OW14284   6.352   4.553   2.949
 4462SOL    HW114285   6.375   4.507   3.035
 4462SOL    HW214286   6.306   4.639   2.969
 4463SOL     OW14287   5.874   1.882   0.634
 4463SOL    HW114288   5.897   1.805   0.575
 4463SOL    HW214289   5.919   1.871   0.723
 4464SOL     OW14290   0.446   5.546   0.366
 4464SOL    HW114291   0.426   5.641   0.391
 4464SOL    HW214292   0.523   5.513   0.420
 4465SOL     OW14293   2.635   5.918   1.224
 4465SOL    HW114294   2.539   5.943   1.211
 4465SOL    HW214295   2.658   5.927   1.321
 4466SOL     OW14296   1.825   1.788   3.314
 4466SOL    HW114297   1.785   1.876   3.291
 4466SOL    HW214298   1.889   1.799   3.390
 4467SOL     OW14299   4.036   6.046   3.118
 4467SOL    HW114300   4.108   6.104   3.081
 4467SOL    HW214301   3.949   6.094   3.115
 4468SOL     OW14302   1.474   3.096   1.421
 4468SOL    HW114303   1.568   3.113   1.392
 4468SOL    HW214304   1.461   3.133   1.513
 4469SOL     OW14305   3.389   6.261   0.875
 4469SOL    HW114306   3.299   6.231   0.842
 4469SOL    HW214307   3.424   6.194   0.941
 4470SOL     OW14308   1.340   0.409   2.590
 4470SOL    HW114309   1.358   0.501   2.554
 4470SOL    HW214310   1.305   0.351   2.517
 4471SOL     OW14311   1.139   1.188   6.245
 4471SOL    HW114312   1.190   1.181   6.331
 4471SOL    HW214313   1.051   1.143   6.254
 4472SOL     OW14314   1.698   2.394   0.688
 4472SOL    HW114315   1.660   2.317   0.636
 4472SOL    HW214316   1.670   2.386   0.784
 4473SOL     OW14317   6.858   3.268   4.526
 4473SOL    HW114318   6.814   3.354   4.500
 4473SOL    HW214319   6.880   3.216   4.443
 4474SOL     OW14320   2.967   6.031   1.049
 4474SOL    HW114321   2.948   6.101   0.980
 4474SOL    HW214322   2.941   5.941   1.013
 4475SOL     OW14323   1.215   3.728   1.538
 4475SOL    HW114324   1.264   3.747   1.452
 4475SOL    HW214325   1.117   3.721   1.520
 4476SOL     OW14326   4.853   1.363   3.779
 4476SOL    HW114327   4.857   1.288   3.845
 4476SOL    HW214328   4.758   1.392   3.768
 4477SOL     OW14329   1.553   0.613   5.514
 4477SOL    HW114330   1.650   0.602   5.492
 4477SOL    HW214331   1.504   0.529   5.492
 4478SOL     OW14332   1.572   0.276   0.533
 4478SOL    HW114333   1.551   0.254   0.438
 4478SOL    HW214334   1.514   0.351   0.564
 4479SOL     OW14335   1.679   2.850   0.465
 4479SOL    HW114336   1.651   2.756   0.484
 4479SOL    HW214337   1.617   2.891   0.398
 4480SOL     OW14338   0.837   5.599   4.119
 4480SOL    HW114339   0.860   5.508   4.155
 4480SOL    HW214340   0.912   5.631   4.060
 4481SOL     OW14341   2.228   3.739   6.314
 4481SOL    HW114342   2.195   3.830   6.287
 4481SOL    HW214343   2.228   3.678   6.234
 4482SOL     OW14344   2.930   5.756   6.605
 4482SOL    HW114345   2.892   5.667   6.627
 4482SOL    HW214346   2.996   5.783   6.674
 4483SOL     OW14347   0.714   3.231   1.349
 4483SOL    HW114348   0.727   3.329   1.339
 4483SOL    HW214349   0.760   3.183   1.274
 4484SOL     OW14350   2.294   2.579   0.003
 4484SOL    HW114351   2.392   2.562   0.005
 4484SOL    HW214352   2.250   2.530   0.078
 4485SOL     OW14353   5.446   2.728   5.112
 4485SOL    HW114354   5.375   2.705   5.180
 4485SOL    HW214355   5.422   2.687   5.024
 4486SOL     OW14356   4.756   5.220   5.541
 4486SOL    HW114357   4.704   5.144   5.580
 4486SOL    HW214358   4.822   5.185   5.475
 4487SOL     OW14359   1.246   3.018   0.074
 4487SOL    HW114360   1.171   3.079   0.046
 4487SOL    HW214361   1.234   2.929   0.031
 4488SOL     OW14362   6.871   3.833   4.482
 4488SOL    HW114363   6.892   3.867   4.391
 4488SOL    HW214364   6.956   3.806   4.528
 4489SOL     OW14365   4.489   5.309   5.738
 4489SOL    HW114366   4.492   5.215   5.773
 4489SOL    HW214367   4.582   5.346   5.734
 4490SOL     OW14368   5.071   1.296   0.950
 4490SOL    HW114369   5.072   1.355   1.031
 4490SOL    HW214370   5.151   1.314   0.894
 4491SOL     OW14371   1.020   2.983   3.137
 4491SOL    HW114372   1.010   2.932   3.052
 4491SOL    HW214373   1.026   2.919   3.214
 4492SOL     OW14374   5.989   0.809   1.861
 4492SOL    HW114375   6.033   0.723   1.838
 4492SOL    HW214376   5.889   0.798   1.860
 4493SOL     OW14377   4.732   1.595   4.739
 4493SOL    HW114378   4.764   1.506   4.707
 4493SOL    HW214379   4.636   1.606   4.714
 4494SOL     OW14380   1.130   0.122   1.086
 4494SOL    HW114381   1.210   0.094   1.139
 4494SOL    HW214382   1.159   0.179   1.009
 4495SOL     OW14383   4.585   5.359   1.575
 4495SOL    HW114384   4.494   5.325   1.597
 4495SOL    HW214385   4.599   5.355   1.476
 4496SOL     OW14386   3.539   6.129   6.597
 4496SOL    HW114387   3.569   6.065   6.526
 4496SOL    HW214388   3.500   6.211   6.554
 4497SOL     OW14389   3.880   1.769   6.361
 4497SOL    HW114390   3.865   1.865   6.381
 4497SOL    HW214391   3.958   1.759   6.298
 4498SOL     OW14392   1.789   5.393   5.534
 4498SOL    HW114393   1.845   5.327   5.484
 4498SOL    HW214394   1.710   5.420   5.478
 4499SOL     OW14395   5.926   2.271   2.211
 4499SOL    HW114396   5.835   2.239   2.238
 4499SOL    HW214397   5.987   2.268   2.291
 4500SOL     OW14398   3.603   5.807   6.831
 4500SOL    HW114399   3.652   5.785   6.746
 4500SOL    HW214400   3.526   5.866   6.809
 4501SOL     OW14401   5.172   1.009   2.992
 4501SOL    HW114402   5.116   0.931   3.018
 4501SOL    HW214403   5.135   1.093   3.031
 4502SOL     OW14404   0.755   3.836   6.509
 4502SOL    HW114405   0.711   3.882   6.585
 4502SOL    HW214406   0.696   3.763   6.475
 4503SOL     OW14407   2.324   0.383   2.755
 4503SOL    HW114408   2.381   0.312   2.797
 4503SOL    HW214409   2.263   0.422   2.823
 4504SOL     OW14410   0.660   2.508   2.851
 4504SOL    HW114411   0.712   2.423   2.853
 4504SOL    HW214412   0.567   2.491   2.884
 4505SOL     OW14413   6.179   4.079   4.130
 4505SOL    HW114414   6.208   4.019   4.205
 4505SOL    HW214415   6.191   4.175   4.158
 4506SOL     OW14416   4.783   2.812   4.695
 4506SOL    HW114417   4.738   2.863   4.768
 4506SOL    HW214418   4.839   2.739   4.735
 4507SOL     OW14419   6.425   2.411   3.279
 4507SOL    HW114420   6.403   2.412   3.182
 4507SOL    HW214421   6.447   2.317   3.307
 4508SOL     OW14422   0.547   4.960   0.810
 4508SOL    HW114423   0.479   4.954   0.883
 4508SOL    HW214424   0.532   5.044   0.757
 4509SOL     OW14425   4.683   2.676   2.139
 4509SOL    HW114426   4.778   2.665   2.167
 4509SOL    HW214427   4.680   2.695   2.041
 4510SOL     OW14428   4.245   1.738   4.534
 4510SOL    HW114429   4.198   1.750   4.446
 4510SOL    HW214430   4.244   1.824   4.584
 4511SOL     OW14431   0.541   4.055   0.868
 4511SOL    HW114432   0.640   4.039   0.860
 4511SOL    HW214433   0.512   4.119   0.796
 4512SOL     OW14434   3.136   2.897   5.719
 4512SOL    HW114435   3.195   2.841   5.661
 4512SOL    HW214436   3.188   2.929   5.798
 4513SOL     OW14437   1.024   6.387   0.365
 4513SOL    HW114438   1.104   6.435   0.328
 4513SOL    HW214439   1.026   6.291   0.334
 4514SOL     OW14440   3.034   4.340   6.927
 4514SOL    HW114441   3.041   4.319   6.830
 4514SOL    HW214442   3.122   4.323   6.972
 4515SOL     OW14443   4.999   0.583   6.209
 4515SOL    HW114444   4.961   0.576   6.301
 4515SOL    HW214445   4.933   0.627   6.148
 4516SOL     OW14446   3.390   2.077   4.601
 4516SOL    HW114447   3.465   2.137   4.629
 4516SOL    HW214448   3.362   2.021   4.679
 4517SOL     OW14449   3.950   0.583   5.495
 4517SOL    HW114450   3.928   0.579   5.397
 4517SOL    HW214451   3.869   0.611   5.546
 4518SOL     OW14452   1.592   7.021   1.034
 4518SOL    HW114453   1.666   0.000   1.101
 4518SOL    HW214454   1.611   6.949   0.968
 4519SOL     OW14455   5.020   6.594   6.847
 4519SOL    HW114456   5.053   6.499   6.847
 4519SOL    HW214457   4.951   6.605   6.919
 4520SOL     OW14458   4.572   5.929   4.956
 4520SOL    HW114459   4.637   5.958   4.886
 4520SOL    HW214460   4.497   5.878   4.913
 4521SOL     OW14461   4.241   2.329   4.468
 4521SOL    HW114462   4.210   2.328   4.373
 4521SOL    HW214463   4.279   2.419   4.489
 4522SOL     OW14464   5.116   4.355   3.219
 4522SOL    HW114465   5.122   4.362   3.318
 4522SOL    HW214466   5.030   4.309   3.194
 4523SOL     OW14467   0.308   3.537   5.501
 4523SOL    HW114468   0.220   3.501   5.532
 4523SOL    HW214469   0.322   3.628   5.540
 4524SOL     OW14470   0.803   3.389   3.047
 4524SOL    HW114471   0.783   3.473   2.996
 4524SOL    HW214472   0.899   3.365   3.036
 4525SOL     OW14473   2.851   1.961   4.947
 4525SOL    HW114474   2.875   2.032   4.881
 4525SOL    HW214475   2.770   1.912   4.915
 4526SOL     OW14476   0.498   0.233   5.589
 4526SOL    HW114477   0.538   0.157   5.539
 4526SOL    HW214478   0.521   0.225   5.686
 4527SOL     OW14479   6.831   0.834   2.781
 4527SOL    HW114480   6.819   0.821   2.682
 4527SOL    HW214481   6.908   0.895   2.797
 4528SOL     OW14482   4.258   0.928   5.029
 4528SOL    HW114483   4.168   0.906   4.990
 4528SOL    HW214484   4.318   0.848   5.021
 4529SOL     OW14485   2.119   1.029   4.470
 4529SOL    HW114486   2.047   1.081   4.425
 4529SOL    HW214487   2.173   0.980   4.401
 4530SOL     OW14488   3.515   5.239   6.059
 4530SOL    HW114489   3.574   5.274   6.132
 4530SOL    HW214490   3.422   5.230   6.093
 4531SOL     OW14491   1.041   5.459   6.058
 4531SOL    HW114492   1.031   5.515   6.140
 4531SOL    HW214493   1.080   5.514   5.984
 4532SOL     OW14494   5.995   0.594   2.646
 4532SOL    HW114495   6.058   0.618   2.719
 4532SOL    HW214496   5.949   0.676   2.613
 4533SOL     OW14497   2.729   0.388   2.094
 4533SOL    HW114498   2.777   0.310   2.133
 4533SOL    HW214499   2.642   0.358   2.055
 4534SOL     OW14500   4.595   1.475   3.670
 4534SOL    HW114501   4.571   1.568   3.643
 4534SOL    HW214502   4.676   1.446   3.619
 4535SOL     OW14503   2.738   1.060   1.124
 4535SOL    HW114504   2.757   1.013   1.210
 4535SOL    HW214505   2.656   1.116   1.134
 4536SOL     OW14506   2.877   0.925   5.808
 4536SOL    HW114507   2.797   0.976   5.839
 4536SOL    HW214508   2.886   0.935   5.709
 4537SOL     OW14509   3.188   2.935   3.783
 4537SOL    HW114510   3.153   3.024   3.754
 4537SOL    HW214511   3.111   2.874   3.805
 4538SOL     OW14512   0.080   2.124   0.557
 4538SOL    HW114513   0.101   2.180   0.637
 4538SOL    HW214514   7.014   2.148   0.521
 4539SOL     OW14515   1.781   6.201   5.392
 4539SOL    HW114516   1.840   6.238   5.320
 4539SOL    HW214517   1.688   6.194   5.358
 4540SOL     OW14518   0.371   0.780   0.211
 4540SOL    HW114519   0.327   0.698   0.247
 4540SOL    HW214520   0.470   0.767   0.209
 4541SOL     OW14521   4.278   3.017   5.833
 4541SOL    HW114522   4.261   2.932   5.884
 4541SOL    HW214523   4.204   3.031   5.767
 4542SOL     OW14524   6.682   2.223   0.792
 4542SOL    HW114525   6.697   2.133   0.752
 4542SOL    HW214526   6.593   2.258   0.764
 4543SOL     OW14527   3.591   2.302   0.197
 4543SOL    HW114528   3.586   2.219   0.142
 4543SOL    HW214529   3.555   2.379   0.145
 4544SOL     OW14530   5.584   6.365   0.562
 4544SOL    HW114531   5.495   6.356   0.517
 4544SOL    HW214532   5.580   6.324   0.652
 4545SOL     OW14533   2.182   3.173   4.642
 4545SOL    HW114534   2.153   3.217   4.728
 4545SOL    HW214535   2.197   3.076   4.658
 4546SOL     OW14536   3.072   1.431   6.362
 4546SOL    HW114537   3.167   1.449   6.386
 4546SOL    HW214538   3.055   1.332   6.367
 4547SOL     OW14539   6.798   0.617   6.751
 4547SOL    HW114540   6.804   0.600   6.849
 4547SOL    HW214541   6.711   0.662   6.730
 4548SOL     OW14542   2.394   2.361   2.488
 4548SOL    HW114543   2.297   2.350   2.507
 4548SOL    HW214544   2.426   2.284   2.433
 4549SOL     OW14545   6.128   3.859   4.547
 4549SOL    HW114546   6.157   3.940   4.597
 4549SOL    HW214547   6.163   3.777   4.592
 4550SOL     OW14548   1.591   4.877   3.315
 4550SOL    HW114549   1.637   4.964   3.298
 4550SOL    HW214550   1.584   4.825   3.230
 4551SOL     OW14551   1.233   2.922   4.712
 4551SOL    HW114552   1.213   2.837   4.761
 4551SOL    HW214553   1.318   2.962   4.748
 4552SOL     OW14554   5.562   1.095   1.000
 4552SOL    HW114555   5.655   1.062   1.016
 4552SOL    HW214556   5.500   1.017   0.990
 4553SOL     OW14557   6.540   5.334   6.536
 4553SOL    HW114558   6.452   5.351   6.490
 4553SOL    HW214559   6.585   5.422   6.554
 4554SOL     OW14560   6.527   6.189   2.922
 4554SOL    HW114561   6.461   6.122   2.891
 4554SOL    HW214562   6.589   6.147   2.989
 4555SOL     OW14563   1.657   0.776   6.750
 4555SOL    HW114564   1.616   0.744   6.664
 4555SOL    HW214565   1.720   0.706   6.785
 4556SOL     OW14566   5.917   4.844   5.337
 4556SOL    HW114567   5.856   4.920   5.313
 4556SOL    HW214568   5.999   4.848   5.281
 4557SOL     OW14569   6.744   4.594   2.837
 4557SOL    HW114570   6.677   4.649   2.788
 4557SOL    HW214571   6.715   4.498   2.838
 4558SOL     OW14572   0.626   3.239   5.429
 4558SOL    HW114573   0.578   3.196   5.352
 4558SOL    HW214574   0.711   3.191   5.446
 4559SOL     OW14575   0.034   2.733   2.373
 4559SOL    HW114576   0.110   2.743   2.436
 4559SOL    HW214577   6.972   2.740   2.423
 4560SOL     OW14578   6.107   4.415   2.835
 4560SOL    HW114579   6.066   4.340   2.887
 4560SOL    HW214580   6.201   4.431   2.867
 4561SOL     OW14581   3.855   1.898   4.017
 4561SOL    HW114582   3.781   1.879   4.081
 4561SOL    HW214583   3.822   1.956   3.943
 4562SOL     OW14584   3.251   1.098   1.392
 4562SOL    HW114585   3.185   1.112   1.466
 4562SOL    HW214586   3.318   1.029   1.420
 4563SOL     OW14587   1.183   3.947   1.826
 4563SOL    HW114588   1.092   3.907   1.816
 4563SOL    HW214589   1.176   4.045   1.841
 4564SOL     OW14590   1.094   3.771   2.463
 4564SOL    HW114591   1.100   3.800   2.368
 4564SOL    HW214592   1.066   3.675   2.466
 4565SOL     OW14593   2.432   5.649   6.333
 4565SOL    HW114594   2.433   5.715   6.258
 4565SOL    HW214595   2.337   5.628   6.357
 4566SOL     OW14596   5.851   4.854   2.308
 4566SOL    HW114597   5.772   4.888   2.359
 4566SOL    HW214598   5.924   4.921   2.311
 4567SOL     OW14599   0.599   0.627   6.679
 4567SOL    HW114600   0.630   0.714   6.640
 4567SOL    HW214601   0.601   0.633   6.779
 4568SOL     OW14602   1.393   5.822   3.598
 4568SOL    HW114603   1.434   5.739   3.634
 4568SOL    HW214604   1.455   5.900   3.614
 4569SOL     OW14605   2.340   0.691   3.379
 4569SOL    HW114606   2.322   0.665   3.284
 4569SOL    HW214607   2.395   0.774   3.381
 4570SOL     OW14608   5.524   5.836   2.222
 4570SOL    HW114609   5.454   5.801   2.160
 4570SOL    HW214610   5.613   5.833   2.176
 4571SOL     OW14611   3.033   3.268   6.534
 4571SOL    HW114612   3.042   3.351   6.480
 4571SOL    HW214613   3.070   3.190   6.482
 4572SOL     OW14614   2.839   3.212   1.900
 4572SOL    HW114615   2.754   3.251   1.865
 4572SOL    HW214616   2.910   3.218   1.830
 4573SOL     OW14617   2.075   5.534   1.589
 4573SOL    HW114618   2.140   5.590   1.537
 4573SOL    HW214619   2.025   5.474   1.526
 4574SOL     OW14620   5.072   1.463   1.441
 4574SOL    HW114621   5.152   1.455   1.500
 4574SOL    HW214622   5.042   1.371   1.413
 4575SOL     OW14623   0.182   6.613   4.814
 4575SOL    HW114624   0.173   6.567   4.726
 4575SOL    HW214625   0.234   6.697   4.802
 4576SOL     OW14626   2.673   4.969   4.908
 4576SOL    HW114627   2.628   4.904   4.970
 4576SOL    HW214628   2.766   4.937   4.887
 4577SOL     OW14629   1.535   1.771   2.245
 4577SOL    HW114630   1.507   1.676   2.261
 4577SOL    HW214631   1.554   1.785   2.148
 4578SOL     OW14632   1.547   1.165   2.471
 4578SOL    HW114633   1.524   1.096   2.402
 4578SOL    HW214634   1.551   1.255   2.427
 4579SOL     OW14635   4.082   1.608   2.470
 4579SOL    HW114636   3.983   1.614   2.484
 4579SOL    HW214637   4.129   1.647   2.550
 4580SOL     OW14638   6.858   2.561   0.244
 4580SOL    HW114639   6.833   2.646   0.200
 4580SOL    HW214640   6.795   2.542   0.320
 4581SOL     OW14641   3.514   0.404   1.363
 4581SOL    HW114642   3.491   0.380   1.458
 4581SOL    HW214643   3.585   0.475   1.363
 4582SOL     OW14644   6.056   1.343   3.758
 4582SOL    HW114645   6.118   1.421   3.766
 4582SOL    HW214646   5.978   1.367   3.701
 4583SOL     OW14647   1.297   0.170   6.745
 4583SOL    HW114648   1.253   0.119   6.670
 4583SOL    HW214649   1.388   0.133   6.761
 4584SOL     OW14650   1.483   0.457   4.983
 4584SOL    HW114651   1.409   0.523   4.972
 4584SOL    HW214652   1.454   0.385   5.046
 4585SOL     OW14653   1.766   3.567   3.392
 4585SOL    HW114654   1.739   3.654   3.351
 4585SOL    HW214655   1.765   3.495   3.322
 4586SOL     OW14656   5.331   4.720   6.480
 4586SOL    HW114657   5.288   4.743   6.393
 4586SOL    HW214658   5.428   4.746   6.476
 4587SOL     OW14659   2.897   3.369   4.737
 4587SOL    HW114660   2.815   3.339   4.687
 4587SOL    HW214661   2.910   3.310   4.817
 4588SOL     OW14662   3.339   3.659   6.069
 4588SOL    HW114663   3.256   3.621   6.110
 4588SOL    HW214664   3.385   3.589   6.015
 4589SOL     OW14665   5.958   0.168   2.541
 4589SOL    HW114666   5.923   0.261   2.532
 4589SOL    HW214667   5.910   0.108   2.478
 4590SOL     OW14668   3.367   5.728   1.089
 4590SOL    HW114669   3.337   5.813   1.047
 4590SOL    HW214670   3.356   5.734   1.188
 4591SOL     OW14671   1.821   0.567   5.469
 4591SOL    HW114672   1.856   0.651   5.510
 4591SOL    HW214673   1.839   0.490   5.530
 4592SOL     OW14674   1.973   1.525   3.809
 4592SOL    HW114675   1.952   1.491   3.717
 4592SOL    HW214676   1.952   1.622   3.814
 4593SOL     OW14677   1.765   6.075   4.372
 4593SOL    HW114678   1.759   5.995   4.313
 4593SOL    HW214679   1.676   6.120   4.377
 4594SOL     OW14680   1.830   0.483   2.765
 4594SOL    HW114681   1.862   0.411   2.703
 4594SOL    HW214682   1.750   0.450   2.816
 4595SOL     OW14683   5.190   2.167   6.395
 4595SOL    HW114684   5.250   2.232   6.348
 4595SOL    HW214685   5.245   2.104   6.450
 4596SOL     OW14686   0.292   0.982   2.457
 4596SOL    HW114687   0.288   0.882   2.449
 4596SOL    HW214688   0.225   1.023   2.394
 4597SOL     OW14689   2.607   6.642   6.917
 4597SOL    HW114690   2.624   6.570   6.851
 4597SOL    HW214691   2.689   6.657   6.972
 4598SOL     OW14692   1.681   4.975   0.326
 4598SOL    HW114693   1.630   4.932   0.400
 4598SOL    HW214694   1.769   4.930   0.315
 4599SOL     OW14695   2.438   5.612   2.439
 4599SOL    HW114696   2.460   5.681   2.508
 4599SOL    HW214697   2.353   5.566   2.464
 4600SOL     OW14698   0.081   6.801   5.920
 4600SOL    HW114699   0.058   6.757   6.007
 4600SOL    HW214700   0.035   6.890   5.915
 4601SOL     OW14701   1.746   1.265   4.855
 4601SOL    HW114702   1.748   1.165   4.851
 4601SOL    HW214703   1.674   1.295   4.917
 4602SOL     OW14704   2.687   2.180   6.505
 4602SOL    HW114705   2.773   2.180   6.454
 4602SOL    HW214706   2.620   2.237   6.458
 4603SOL     OW14707   5.061   0.084   0.886
 4603SOL    HW114708   5.086   0.178   0.862
 4603SOL    HW214709   4.995   0.049   0.821
 4604SOL     OW14710   5.832   0.199   5.626
 4604SOL    HW114711   5.890   0.275   5.654
 4604SOL    HW214712   5.866   0.161   5.539
 4605SOL     OW14713   3.577   0.481   2.127
 4605SOL    HW114714   3.642   0.541   2.174
 4605SOL    HW214715   3.616   0.452   2.040
 4606SOL     OW14716   6.984   6.623   4.308
 4606SOL    HW114717   7.011   6.527   4.308
 4606SOL    HW214718   6.921   6.640   4.384
 4607SOL     OW14719   2.147   2.616   1.224
 4607SOL    HW114720   2.150   2.560   1.308
 4607SOL    HW214721   2.055   2.655   1.214
 4608SOL     OW14722   6.582   3.213   4.274
 4608SOL    HW114723   6.558   3.247   4.365
 4608SOL    HW214724   6.524   3.259   4.206
 4609SOL     OW14725   4.245   6.367   6.931
 4609SOL    HW114726   4.162   6.399   6.978
 4609SOL    HW214727   4.325   6.406   6.976
 4610SOL     OW14728   5.035   3.303   0.085
 4610SOL    HW114729   5.003   3.279   0.177
 4610SOL    HW214730   5.133   3.284   0.077
 4611SOL     OW14731   1.131   0.799   6.389
 4611SOL    HW114732   1.115   0.723   6.453
 4611SOL    HW214733   1.181   0.871   6.436
 4612SOL     OW14734   2.317   0.511   1.177
 4612SOL    HW114735   2.258   0.498   1.097
 4612SOL    HW214736   2.399   0.561   1.151
 4613SOL     OW14737   1.818   4.639   1.515
 4613SOL    HW114738   1.795   4.633   1.613
 4613SOL    HW214739   1.827   4.546   1.478
 4614SOL     OW14740   6.233   4.070   4.666
 4614SOL    HW114741   6.190   4.145   4.614
 4614SOL    HW214742   6.219   4.086   4.764
 4615SOL     OW14743   1.083   2.234   0.275
 4615SOL    HW114744   1.158   2.263   0.333
 4615SOL    HW214745   0.996   2.267   0.313
 4616SOL     OW14746   6.486   2.737   5.805
 4616SOL    HW114747   6.458   2.742   5.709
 4616SOL    HW214748   6.498   2.642   5.832
 4617SOL     OW14749   0.165   3.074   3.048
 4617SOL    HW114750   0.256   3.071   3.006
 4617SOL    HW214751   0.175   3.083   3.147
 4618SOL     OW14752   1.990   4.722   5.651
 4618SOL    HW114753   2.075   4.689   5.610
 4618SOL    HW214754   1.938   4.644   5.687
 4619SOL     OW14755   3.881   6.309   5.718
 4619SOL    HW114756   3.957   6.248   5.694
 4619SOL    HW214757   3.826   6.327   5.637
 4620SOL     OW14758   0.118   4.693   2.161
 4620SOL    HW114759   0.034   4.704   2.214
 4620SOL    HW214760   0.168   4.779   2.159
 4621SOL     OW14761   4.128   0.775   3.027
 4621SOL    HW114762   4.180   0.819   3.101
 4621SOL    HW214763   4.126   0.676   3.042
 4622SOL     OW14764   5.020   5.844   1.962
 4622SOL    HW114765   5.049   5.748   1.961
 4622SOL    HW214766   5.101   5.903   1.966
 4623SOL     OW14767   2.799   4.850   1.252
 4623SOL    HW114768   2.822   4.764   1.296
 4623SOL    HW214769   2.821   4.927   1.312
 4624SOL     OW14770   4.408   0.754   2.015
 4624SOL    HW114771   4.329   0.742   1.955
 4624SOL    HW214772   4.388   0.827   2.081
 4625SOL     OW14773   1.198   5.912   1.454
 4625SOL    HW114774   1.192   5.961   1.367
 4625SOL    HW214775   1.150   5.825   1.447
 4626SOL     OW14776   3.955   3.961   1.916
 4626SOL    HW114777   4.036   3.991   1.866
 4626SOL    HW214778   3.876   3.962   1.855
 4627SOL     OW14779   5.966   6.603   5.124
 4627SOL    HW114780   5.933   6.683   5.074
 4627SOL    HW214781   5.945   6.520   5.073
 4628SOL     OW14782   5.299   5.000   4.182
 4628SOL    HW114783   5.254   5.078   4.226
 4628SOL    HW214784   5.360   4.955   4.247
 4629SOL     OW14785   2.197   6.144   6.376
 4629SOL    HW114786   2.206   6.080   6.299
 4629SOL    HW214787   2.143   6.102   6.449
 4630SOL     OW14788   1.718   3.406   2.251
 4630SOL    HW114789   1.746   3.484   2.195
 4630SOL    HW214790   1.798   3.350   2.273
 4631SOL     OW14791   6.947   0.891   3.451
 4631SOL    HW114792   6.882   0.823   3.419
 4631SOL    HW214793   6.906   0.943   3.526
 4632SOL     OW14794   3.210   4.983   2.304
 4632SOL    HW114795   3.281   4.967   2.373
 4632SOL    HW214796   3.128   4.931   2.328
 4633SOL     OW14797   5.386   1.122   4.450
 4633SOL    HW114798   5.313   1.169   4.500
 4633SOL    HW214799   5.462   1.103   4.512
 4634SOL     OW14800   2.939   3.739   4.689
 4634SOL    HW114801   2.962   3.792   4.770
 4634SOL    HW214802   2.861   3.679   4.709
 4635SOL     OW14803   4.942   6.595   1.144
 4635SOL    HW114804   4.989   6.644   1.218
 4635SOL    HW214805   4.844   6.591   1.164
 4636SOL     OW14806   2.368   5.239   0.487
 4636SOL    HW114807   2.313   5.161   0.460
 4636SOL    HW214808   2.435   5.211   0.556
 4637SOL     OW14809   2.634   1.252   2.732
 4637SOL    HW114810   2.636   1.255   2.632
 4637SOL    HW214811   2.599   1.163   2.762
 4638SOL     OW14812   3.368   4.898   0.076
 4638SOL    HW114813   3.440   4.840   0.038
 4638SOL    HW214814   3.282   4.880   0.029
 4639SOL     OW14815   2.567   2.112   1.113
 4639SOL    HW114816   2.638   2.168   1.155
 4639SOL    HW214817   2.607   2.061   1.036
 4640SOL     OW14818   6.633   2.705   6.652
 4640SOL    HW114819   6.686   2.722   6.735
 4640SOL    HW214820   6.538   2.733   6.667
 4641SOL     OW14821   1.070   5.663   4.009
 4641SOL    HW114822   1.154   5.717   4.008
 4641SOL    HW214823   1.092   5.567   3.991
 4642SOL     OW14824   6.988   1.342   3.765
 4642SOL    HW114825   6.973   1.440   3.754
 4642SOL    HW214826   0.003   1.324   3.856
 4643SOL     OW14827   0.239   1.967   0.360
 4643SOL    HW114828   0.197   1.982   0.271
 4643SOL    HW214829   0.191   2.019   0.429
 4644SOL     OW14830   1.609   1.110   0.401
 4644SOL    HW114831   1.699   1.152   0.413
 4644SOL    HW214832   1.541   1.162   0.452
 4645SOL     OW14833   0.882   1.662   3.870
 4645SOL    HW114834   0.941   1.740   3.851
 4645SOL    HW214835   0.802   1.664   3.809
 4646SOL     OW14836   2.209   4.926   3.744
 4646SOL    HW114837   2.165   4.875   3.818
 4646SOL    HW214838   2.210   5.024   3.766
 4647SOL     OW14839   1.345   6.216   2.206
 4647SOL    HW114840   1.347   6.246   2.110
 4647SOL    HW214841   1.385   6.288   2.263
 4648SOL     OW14842   2.922   1.738   4.699
 4648SOL    HW114843   2.831   1.768   4.727
 4648SOL    HW214844   2.914   1.656   4.642
 4649SOL     OW14845   6.120   0.577   0.061
 4649SOL    HW114846   6.049   0.570   0.132
 4649SOL    HW214847   6.208   0.550   0.099
 4650SOL     OW14848   5.416   6.227   1.490
 4650SOL    HW114849   5.411   6.178   1.403
 4650SOL    HW214850   5.435   6.162   1.564
 4651SOL     OW14851   6.675   3.544   6.428
 4651SOL    HW114852   6.595   3.560   6.370
 4651SOL    HW214853   6.722   3.461   6.397
 4652SOL     OW14854   0.265   6.582   4.545
 4652SOL    HW114855   0.331   6.512   4.518
 4652SOL    HW214856   0.299   6.672   4.518
 4653SOL     OW14857   5.611   5.611   0.642
 4653SOL    HW114858   5.537   5.647   0.585
 4653SOL    HW214859   5.590   5.628   0.738
 4654SOL     OW14860   0.224   6.765   5.153
 4654SOL    HW114861   0.188   6.691   5.209
 4654SOL    HW214862   0.324   6.758   5.149
 4655SOL     OW14863   4.430   2.330   1.275
 4655SOL    HW114864   4.402   2.310   1.369
 4655SOL    HW214865   4.370   2.282   1.211
 4656SOL     OW14866   0.778   1.051   2.233
 4656SOL    HW114867   0.799   1.143   2.202
 4656SOL    HW214868   0.750   0.995   2.155
 4657SOL     OW14869   5.033   0.278   2.104
 4657SOL    HW114870   4.958   0.213   2.092
 4657SOL    HW214871   5.119   0.234   2.079
 4658SOL     OW14872   1.749   2.571   5.800
 4658SOL    HW114873   1.823   2.513   5.767
 4658SOL    HW214874   1.705   2.617   5.723
 4659SOL     OW14875   2.839   4.680   0.641
 4659SOL    HW114876   2.780   4.760   0.649
 4659SOL    HW214877   2.849   4.636   0.730
 4660SOL     OW14878   1.470   6.158   4.478
 4660SOL    HW114879   1.390   6.200   4.436
 4660SOL    HW214880   1.452   6.061   4.496
 4661SOL     OW14881   0.956   2.664   5.421
 4661SOL    HW114882   1.056   2.658   5.419
 4661SOL    HW214883   0.929   2.758   5.399
 4662SOL     OW14884   2.918   6.302   5.128
 4662SOL    HW114885   2.881   6.395   5.137
 4662SOL    HW214886   2.850   6.244   5.082
 4663SOL     OW14887   1.421   6.862   0.165
 4663SOL    HW114888   1.421   6.824   0.073
 4663SOL    HW214889   1.448   6.958   0.161
 4664SOL     OW14890   6.843   6.474   0.097
 4664SOL    HW114891   6.771   6.544   0.104
 4664SOL    HW214892   6.803   6.384   0.110
 4665SOL     OW14893   2.250   0.299   4.646
 4665SOL    HW114894   2.305   0.229   4.600
 4665SOL    HW214895   2.182   0.334   4.582
 4666SOL     OW14896   2.231   2.061   4.912
 4666SOL    HW114897   2.226   2.132   4.982
 4666SOL    HW214898   2.196   2.097   4.825
 4667SOL     OW14899   6.457   4.025   1.492
 4667SOL    HW114900   6.555   4.006   1.492
 4667SOL    HW214901   6.423   4.024   1.586
 4668SOL     OW14902   4.255   1.992   3.910
 4668SOL    HW114903   4.350   2.022   3.919
 4668SOL    HW214904   4.244   1.940   3.826
 4669SOL     OW14905   5.586   0.059   6.448
 4669SOL    HW114906   5.620   6.990   6.444
 4669SOL    HW214907   5.588   0.100   6.357
 4670SOL     OW14908   0.564   2.680   0.779
 4670SOL    HW114909   0.606   2.762   0.818
 4670SOL    HW214910   0.519   2.628   0.851
 4671SOL     OW14911   0.841   3.784   1.019
 4671SOL    HW114912   0.786   3.709   0.982
 4671SOL    HW214913   0.822   3.795   1.116
 4672SOL     OW14914   2.489   3.459   6.220
 4672SOL    HW114915   2.403   3.487   6.177
 4672SOL    HW214916   2.552   3.536   6.223
 4673SOL     OW14917   5.915   0.781   6.976
 4673SOL    HW114918   5.988   0.789   6.909
 4673SOL    HW214919   5.954   0.756   0.041
 4674SOL     OW14920   1.408   2.164   0.836
 4674SOL    HW114921   1.474   2.090   0.825
 4674SOL    HW214922   1.335   2.154   0.769
 4675SOL     OW14923   1.987   5.948   6.764
 4675SOL    HW114924   2.035   5.919   6.681
 4675SOL    HW214925   1.927   6.025   6.742
 4676SOL     OW14926   0.292   6.088   4.005
 4676SOL    HW114927   0.306   6.182   3.973
 4676SOL    HW214928   0.304   6.085   4.104
 4677SOL     OW14929   4.688   0.333   6.568
 4677SOL    HW114930   4.692   0.289   6.478
 4677SOL    HW214931   4.665   0.265   6.637
 4678SOL     OW14932   2.211   4.434   6.730
 4678SOL    HW114933   2.272   4.513   6.740
 4678SOL    HW214934   2.116   4.466   6.730
 4679SOL     OW14935   3.219   1.147   6.184
 4679SOL    HW114936   3.252   1.240   6.169
 4679SOL    HW214937   3.207   1.101   6.096
 4680SOL     OW14938   1.587   4.826   0.532
 4680SOL    HW114939   1.492   4.850   0.552
 4680SOL    HW214940   1.602   4.730   0.558
 4681SOL     OW14941   0.419   5.490   5.238
 4681SOL    HW114942   0.396   5.449   5.150
 4681SOL    HW214943   0.504   5.451   5.272
 4682SOL     OW14944   3.943   6.696   0.749
 4682SOL    HW114945   4.024   6.637   0.752
 4682SOL    HW214946   3.878   6.666   0.819
 4683SOL     OW14947   6.284   4.588   3.634
 4683SOL    HW114948   6.290   4.680   3.672
 4683SOL    HW214949   6.367   4.537   3.656
 4684SOL     OW14950   1.454   1.079   4.554
 4684SOL    HW114951   1.386   1.070   4.626
 4684SOL    HW214952   1.522   1.147   4.580
 4685SOL     OW14953   5.250   4.808   4.814
 4685SOL    HW114954   5.285   4.818   4.721
 4685SOL    HW214955   5.315   4.756   4.869
 4686SOL     OW14956   4.078   6.236   0.258
 4686SOL    HW114957   4.029   6.304   0.314
 4686SOL    HW214958   4.096   6.155   0.313
 4687SOL     OW14959   6.122   6.209   4.650
 4687SOL    HW114960   6.079   6.189   4.738
 4687SOL    HW214961   6.069   6.165   4.577
 4688SOL     OW14962   0.751   2.284   6.628
 4688SOL    HW114963   0.717   2.296   6.535
 4688SOL    HW214964   0.783   2.190   6.641
 4689SOL     OW14965   1.363   5.878   5.105
 4689SOL    HW114966   1.404   5.873   5.014
 4689SOL    HW214967   1.329   5.788   5.131
 4690SOL     OW14968   1.436   2.040   6.834
 4690SOL    HW114969   1.401   2.030   6.927
 4690SOL    HW214970   1.476   2.131   6.824
 4691SOL     OW14971   2.518   5.766   0.735
 4691SOL    HW114972   2.560   5.806   0.653
 4691SOL    HW214973   2.581   5.774   0.812
 4692SOL     OW14974   0.077   5.266   3.312
 4692SOL    HW114975   0.046   5.269   3.217
 4692SOL    HW214976   0.108   5.173   3.333
 4693SOL     OW14977   0.529   1.178   3.523
 4693SOL    HW114978   0.437   1.211   3.505
 4693SOL    HW214979   0.550   1.188   3.620
 4694SOL     OW14980   1.494   2.090   6.246
 4694SOL    HW114981   1.546   2.090   6.331
 4694SOL    HW214982   1.426   2.017   6.248
 4695SOL     OW14983   3.494   3.225   1.880
 4695SOL    HW114984   3.483   3.310   1.931
 4695SOL    HW214985   3.588   3.220   1.845
 4696SOL     OW14986   0.265   3.282   6.678
 4696SOL    HW114987   0.248   3.218   6.753
 4696SOL    HW214988   0.184   3.287   6.619
 4697SOL     OW14989   0.881   5.017   0.057
 4697SOL    HW114990   0.833   4.935   0.089
 4697SOL    HW214991   0.819   5.096   0.063
 4698SOL     OW14992   6.047   3.346   0.830
 4698SOL    HW114993   6.088   3.402   0.902
 4698SOL    HW214994   6.084   3.253   0.835
 4699SOL     OW14995   0.149   0.179   2.756
 4699SOL    HW114996   0.244   0.196   2.781
 4699SOL    HW214997   0.117   0.095   2.801
 4700SOL     OW14998   4.719   1.109   1.263
 4700SOL    HW114999   4.661   1.043   1.311
 4700SOL    HW215000   4.724   1.085   1.166
 4701SOL     OW15001   0.562   1.064   0.848
 4701SOL    HW115002   0.595   1.027   0.935
 4701SOL    HW215003   0.463   1.079   0.854
 4702SOL     OW15004   3.501   3.966   0.429
 4702SOL    HW115005   3.544   3.958   0.518
 4702SOL    HW215006   3.467   4.060   0.417
 4703SOL     OW15007   2.117   0.600   1.741
 4703SOL    HW115008   2.145   0.593   1.645
 4703SOL    HW215009   2.017   0.607   1.745
 4704SOL     OW15010   5.317   6.555   0.827
 4704SOL    HW115011   5.247   6.627   0.822
 4704SOL    HW215012   5.408   6.597   0.831
 4705SOL     OW15013   3.076   3.854   4.225
 4705SOL    HW115014   3.157   3.815   4.268
 4705SOL    HW215015   3.103   3.914   4.150
 4706SOL     OW15016   3.802   5.629   0.271
 4706SOL    HW115017   3.840   5.652   0.181
 4706SOL    HW215018   3.859   5.560   0.314
 4707SOL     OW15019   2.215   5.638   1.340
 4707SOL    HW115020   2.221   5.557   1.282
 4707SOL    HW215021   2.163   5.709   1.293
 4708SOL     OW15022   2.244   2.560   1.850
 4708SOL    HW115023   2.272   2.651   1.817
 4708SOL    HW215024   2.148   2.563   1.877
 4709SOL     OW15025   3.895   4.513   5.930
 4709SOL    HW115026   3.806   4.558   5.926
 4709SOL    HW215027   3.967   4.582   5.941
 4710SOL     OW15028   4.796   1.490   0.428
 4710SOL    HW115029   4.854   1.508   0.508
 4710SOL    HW215030   4.786   1.391   0.416
 4711SOL     OW15031   3.061   0.520   2.827
 4711SOL    HW115032   3.090   0.509   2.732
 4711SOL    HW215033   3.089   0.610   2.860
 4712SOL     OW15034   2.035   5.040   0.576
 4712SOL    HW115035   2.000   4.953   0.613
 4712SOL    HW215036   2.018   5.113   0.641
 4713SOL     OW15037   1.930   5.972   0.841
 4713SOL    HW115038   1.859   5.943   0.777
 4713SOL    HW215039   2.020   5.949   0.802
 4714SOL     OW15040   2.875   2.175   1.072
 4714SOL    HW115041   2.969   2.206   1.069
 4714SOL    HW215042   2.823   2.231   1.136
 4715SOL     OW15043   0.047   3.226   3.555
 4715SOL    HW115044   0.093   3.191   3.474
 4715SOL    HW215045   0.061   3.162   3.631
 4716SOL     OW15046   3.393   5.938   0.790
 4716SOL    HW115047   3.360   5.964   0.699
 4716SOL    HW215048   3.467   5.872   0.781
 4717SOL     OW15049   1.778   6.189   3.812
 4717SOL    HW115050   1.727   6.127   3.752
 4717SOL    HW215051   1.821   6.260   3.757
 4718SOL     OW15052   6.047   1.296   5.744
 4718SOL    HW115053   6.086   1.332   5.659
 4718SOL    HW215054   5.951   1.271   5.728
 4719SOL     OW15055   4.151   2.807   0.809
 4719SOL    HW115056   4.209   2.851   0.741
 4719SOL    HW215057   4.059   2.848   0.807
 4720SOL     OW15058   2.681   0.477   4.812
 4720SOL    HW115059   2.642   0.549   4.869
 4720SOL    HW215060   2.621   0.397   4.814
 4721SOL     OW15061   1.519   1.926   1.242
 4721SOL    HW115062   1.576   1.995   1.197
 4721SOL    HW215063   1.508   1.950   1.339
 4722SOL     OW15064   2.465   0.259   0.634
 4722SOL    HW115065   2.505   0.350   0.646
 4722SOL    HW215066   2.415   0.257   0.547
 4723SOL     OW15067   2.179   6.665   6.761
 4723SOL    HW115068   2.248   6.703   6.699
 4723SOL    HW215069   2.128   6.593   6.713
 4724SOL     OW15070   4.042   6.032   1.705
 4724SOL    HW115071   3.978   5.984   1.645
 4724SOL    HW215072   3.995   6.108   1.750
 4725SOL     OW15073   5.013   6.435   3.279
 4725SOL    HW115074   4.972   6.503   3.339
 4725SOL    HW215075   4.997   6.344   3.317
 4726SOL     OW15076   0.169   5.150   6.291
 4726SOL    HW115077   0.254   5.108   6.263
 4726SOL    HW215078   0.156   5.237   6.243
 4727SOL     OW15079   0.541   5.870   7.024
 4727SOL    HW115080   0.620   5.906   6.974
 4727SOL    HW215081   0.497   5.944   0.050
 4728SOL     OW15082   6.879   0.909   0.078
 4728SOL    HW115083   6.826   0.897   7.018
 4728SOL    HW215084   6.972   0.875   0.064
 4729SOL     OW15085   3.366   0.801   1.687
 4729SOL    HW115086   3.417   0.745   1.752
 4729SOL    HW215087   3.423   0.880   1.661
 4730SOL     OW15088   1.948   0.389   5.628
 4730SOL    HW115089   2.017   0.334   5.582
 4730SOL    HW215090   1.982   0.419   5.717
 4731SOL     OW15091   5.406   1.556   5.293
 4731SOL    HW115092   5.450   1.474   5.328
 4731SOL    HW215093   5.476   1.625   5.274
 4732SOL     OW15094   0.097   2.093   0.153
 4732SOL    HW115095   0.144   2.179   0.133
 4732SOL    HW215096   0.009   2.113   0.197
 4733SOL     OW15097   6.879   2.938   3.193
 4733SOL    HW115098   6.921   2.928   3.282
 4733SOL    HW215099   6.945   2.916   3.121
 4734SOL     OW15100   4.342   4.267   6.655
 4734SOL    HW115101   4.300   4.261   6.746
 4734SOL    HW215102   4.308   4.194   6.597
 4735SOL     OW15103   1.178   5.134   3.381
 4735SOL    HW115104   1.227   5.218   3.355
 4735SOL    HW215105   1.117   5.107   3.307
 4736SOL     OW15106   1.157   0.813   0.505
 4736SOL    HW115107   1.173   0.911   0.493
 4736SOL    HW215108   1.129   0.795   0.599
 4737SOL     OW15109   2.332   5.177   1.678
 4737SOL    HW115110   2.409   5.208   1.622
 4737SOL    HW215111   2.258   5.244   1.675
 4738SOL     OW15112   6.563   6.223   2.330
 4738SOL    HW115113   6.640   6.285   2.318
 4738SOL    HW215114   6.597   6.130   2.346
 4739SOL     OW15115   4.525   0.572   1.188
 4739SOL    HW115116   4.452   0.626   1.230
 4739SOL    HW215117   4.606   0.630   1.175
 4740SOL     OW15118   0.632   1.985   3.226
 4740SOL    HW115119   0.542   1.942   3.230
 4740SOL    HW215120   0.664   2.003   3.319
 4741SOL     OW15121   4.017   3.625   1.835
 4741SOL    HW115122   4.101   3.679   1.840
 4741SOL    HW215123   3.941   3.684   1.810
 4742SOL     OW15124   3.583   6.732   0.684
 4742SOL    HW115125   3.554   6.644   0.719
 4742SOL    HW215126   3.668   6.720   0.632
 4743SOL     OW15127   2.533   5.146   1.320
 4743SOL    HW115128   2.488   5.195   1.245
 4743SOL    HW215129   2.470   5.078   1.358
 4744SOL     OW15130   2.159   6.012   1.014
 4744SOL    HW115131   2.090   6.064   0.964
 4744SOL    HW215132   2.116   5.932   1.057
 4745SOL     OW15133   1.137   4.477   0.175
 4745SOL    HW115134   1.108   4.563   0.134
 4745SOL    HW215135   1.056   4.425   0.205
 4746SOL     OW15136   4.452   5.399   4.128
 4746SOL    HW115137   4.450   5.444   4.039
 4746SOL    HW215138   4.421   5.304   4.119
 4747SOL     OW15139   1.543   2.222   0.490
 4747SOL    HW115140   1.461   2.201   0.543
 4747SOL    HW215141   1.518   2.270   0.406
 4748SOL     OW15142   1.382   6.693   3.017
 4748SOL    HW115143   1.458   6.696   3.083
 4748SOL    HW215144   1.365   6.785   2.982
 4749SOL     OW15145   1.964   0.880   6.566
 4749SOL    HW115146   2.013   0.937   6.632
 4749SOL    HW215147   1.867   0.903   6.568
 4750SOL     OW15148   4.834   2.964   5.268
 4750SOL    HW115149   4.876   2.925   5.350
 4750SOL    HW215150   4.743   2.999   5.291
 4751SOL     OW15151   4.242   0.913   3.253
 4751SOL    HW115152   4.318   0.851   3.270
 4751SOL    HW215153   4.183   0.918   3.333
 4752SOL     OW15154   4.386   1.614   0.197
 4752SOL    HW115155   4.461   1.639   0.259
 4752SOL    HW215156   4.401   1.655   0.107
 4753SOL     OW15157   3.346   5.843   5.145
 4753SOL    HW115158   3.445   5.854   5.155
 4753SOL    HW215159   3.327   5.763   5.089
 4754SOL     OW15160   5.057   5.022   6.367
 4754SOL    HW115161   5.070   5.114   6.405
 4754SOL    HW215162   4.988   5.025   6.295
 4755SOL     OW15163   1.211   1.029   1.536
 4755SOL    HW115164   1.137   1.070   1.588
 4755SOL    HW215165   1.178   1.005   1.444
 4756SOL     OW15166   6.023   3.939   6.477
 4756SOL    HW115167   5.981   3.979   6.396
 4756SOL    HW215168   6.116   3.974   6.488
 4757SOL     OW15169   1.947   3.853   1.477
 4757SOL    HW115170   1.983   3.927   1.420
 4757SOL    HW215171   1.917   3.891   1.565
 4758SOL     OW15172   3.172   6.354   3.213
 4758SOL    HW115173   3.159   6.399   3.125
 4758SOL    HW215174   3.086   6.354   3.263
 4759SOL     OW15175   0.743   5.163   1.530
 4759SOL    HW115176   0.660   5.212   1.555
 4759SOL    HW215177   0.725   5.105   1.450
 4760SOL     OW15178   1.542   6.036   1.345
 4760SOL    HW115179   1.493   5.996   1.268
 4760SOL    HW215180   1.507   5.998   1.430
 4761SOL     OW15181   6.595   6.822   1.089
 4761SOL    HW115182   6.502   6.813   1.123
 4761SOL    HW215183   6.607   6.912   1.048
 4762SOL     OW15184   1.543   0.141   1.802
 4762SOL    HW115185   1.515   0.229   1.763
 4762SOL    HW215186   1.474   0.072   1.781
 4763SOL     OW15187   5.708   4.525   1.854
 4763SOL    HW115188   5.684   4.588   1.928
 4763SOL    HW215189   5.675   4.562   1.767
 4764SOL     OW15190   4.240   3.314   6.695
 4764SOL    HW115191   4.270   3.232   6.743
 4764SOL    HW215192   4.146   3.336   6.720
 4765SOL     OW15193   3.455   1.744   4.437
 4765SOL    HW115194   3.535   1.801   4.417
 4765SOL    HW215195   3.434   1.750   4.535
 4766SOL     OW15196   0.754   0.144   4.309
 4766SOL    HW115197   0.724   0.227   4.355
 4766SOL    HW215198   0.854   0.138   4.314
 4767SOL     OW15199   1.439   4.500   3.660
 4767SOL    HW115200   1.474   4.410   3.632
 4767SOL    HW215201   1.510   4.569   3.650
 4768SOL     OW15202   3.637   2.340   6.901
 4768SOL    HW115203   3.585   2.412   6.947
 4768SOL    HW215204   3.640   2.359   6.803
 4769SOL     OW15205   2.398   4.842   0.713
 4769SOL    HW115206   2.368   4.796   0.797
 4769SOL    HW215207   2.336   4.817   0.639
 4770SOL     OW15208   0.684   1.541   5.621
 4770SOL    HW115209   0.756   1.472   5.620
 4770SOL    HW215210   0.717   1.625   5.577
 4771SOL     OW15211   2.203   6.321   5.249
 4771SOL    HW115212   2.239   6.257   5.317
 4771SOL    HW215213   2.216   6.415   5.280
 4772SOL     OW15214   3.109   5.442   1.741
 4772SOL    HW115215   3.157   5.401   1.663
 4772SOL    HW215216   3.176   5.487   1.801
 4773SOL     OW15217   2.211   5.005   4.835
 4773SOL    HW115218   2.179   4.986   4.928
 4773SOL    HW215219   2.302   4.965   4.822
 4774SOL     OW15220   1.324   4.080   0.118
 4774SOL    HW115221   1.290   4.033   0.037
 4774SOL    HW215222   1.331   4.016   0.194
 4775SOL     OW15223   6.493   6.028   5.104
 4775SOL    HW115224   6.477   6.127   5.096
 4775SOL    HW215225   6.574   6.004   5.050
 4776SOL     OW15226   0.320   1.229   6.649
 4776SOL    HW115227   0.226   1.240   6.681
 4776SOL    HW215228   0.346   1.132   6.655
 4777SOL     OW15229   0.897   6.883   2.340
 4777SOL    HW115230   0.805   6.921   2.348
 4777SOL    HW215231   0.945   6.927   2.264
 4778SOL     OW15232   0.667   1.812   6.192
 4778SOL    HW115233   0.699   1.804   6.286
 4778SOL    HW215234   0.746   1.819   6.130
 4779SOL     OW15235   5.624   0.171   4.162
 4779SOL    HW115236   5.534   0.209   4.140
 4779SOL    HW215237   5.664   0.222   4.238
 4780SOL     OW15238   6.253   3.072   5.097
 4780SOL    HW115239   6.190   3.027   5.034
 4780SOL    HW215240   6.310   3.004   5.143
 4781SOL     OW15241   2.308   5.913   2.501
 4781SOL    HW115242   2.297   5.890   2.598
 4781SOL    HW215243   2.281   6.009   2.487
 4782SOL     OW15244   0.105   6.494   3.952
 4782SOL    HW115245   0.128   6.568   3.889
 4782SOL    HW215246   0.136   6.518   4.044
 4783SOL     OW15247   6.520   3.548   0.558
 4783SOL    HW115248   6.534   3.642   0.591
 4783SOL    HW215249   6.533   3.545   0.459
 4784SOL     OW15250   4.919   3.110   6.595
 4784SOL    HW115251   4.835   3.103   6.650
 4784SOL    HW215252   4.991   3.153   6.649
 4785SOL     OW15253   0.431   6.388   4.008
 4785SOL    HW115254   0.396   6.364   3.917
 4785SOL    HW215255   0.476   6.477   4.004
 4786SOL     OW15256   1.906   6.156   0.350
 4786SOL    HW115257   1.885   6.062   0.376
 4786SOL    HW215258   1.919   6.212   0.432
 4787SOL     OW15259   3.535   1.368   3.962
 4787SOL    HW115260   3.597   1.366   4.040
 4787SOL    HW215261   3.455   1.424   3.984
 4788SOL     OW15262   5.881   6.455   0.156
 4788SOL    HW115263   5.912   6.374   0.207
 4788SOL    HW215264   5.849   6.525   0.221
 4789SOL     OW15265   5.533   1.127   3.227
 4789SOL    HW115266   5.530   1.037   3.184
 4789SOL    HW215267   5.444   1.172   3.216
 4790SOL     OW15268   6.855   1.949   4.899
 4790SOL    HW115269   6.758   1.967   4.918
 4790SOL    HW215270   6.897   2.030   4.858
 4791SOL     OW15271   6.952   0.745   0.443
 4791SOL    HW115272   6.882   0.804   0.400
 4791SOL    HW215273   6.910   0.658   0.469
 4792SOL     OW15274   2.155   3.024   2.845
 4792SOL    HW115275   2.149   3.061   2.753
 4792SOL    HW215276   2.217   2.945   2.845
 4793SOL     OW15277   0.860   3.724   5.847
 4793SOL    HW115278   0.860   3.808   5.791
 4793SOL    HW215279   0.847   3.645   5.787
 4794SOL     OW15280   4.462   1.612   4.699
 4794SOL    HW115281   4.415   1.545   4.756
 4794SOL    HW215282   4.408   1.629   4.616
 4795SOL     OW15283   0.291   0.558   6.003
 4795SOL    HW115284   0.194   0.573   5.984
 4795SOL    HW215285   0.345   0.628   5.957
 4796SOL     OW15286   4.176   1.312   4.702
 4796SOL    HW115287   4.138   1.294   4.793
 4796SOL    HW215288   4.247   1.245   4.682
 4797SOL     OW15289   1.722   5.256   5.013
 4797SOL    HW115290   1.810   5.209   5.003
 4797SOL    HW215291   1.717   5.333   4.950
 4798SOL     OW15292   3.949   4.965   6.617
 4798SOL    HW115293   4.028   4.919   6.575
 4798SOL    HW215294   3.960   4.966   6.716
 4799SOL     OW15295   3.683   3.418   6.956
 4799SOL    HW115296   3.664   3.331   6.910
 4799SOL    HW215297   3.780   3.438   6.952
 4800SOL     OW15298   0.834   4.590   0.708
 4800SOL    HW115299   0.784   4.527   0.767
 4800SOL    HW215300   0.930   4.594   0.737
 4801SOL     OW15301   5.201   2.782   1.712
 4801SOL    HW115302   5.132   2.840   1.670
 4801SOL    HW215303   5.292   2.816   1.689
 4802SOL     OW15304   6.698   6.769   3.845
 4802SOL    HW115305   6.608   6.765   3.802
 4802SOL    HW215306   6.738   6.859   3.831
 4803SOL     OW15307   4.826   4.307   6.115
 4803SOL    HW115308   4.887   4.383   6.092
 4803SOL    HW215309   4.765   4.334   6.190
 4804SOL     OW15310   4.802   1.443   0.944
 4804SOL    HW115311   4.769   1.536   0.923
 4804SOL    HW215312   4.875   1.448   1.011
 4805SOL     OW15313   6.501   1.061   0.247
 4805SOL    HW115314   6.410   1.089   0.276
 4805SOL    HW215315   6.562   1.140   0.245
 4806SOL     OW15316   1.320   0.859   2.881
 4806SOL    HW115317   1.276   0.876   2.793
 4806SOL    HW215318   1.371   0.940   2.909
 4807SOL     OW15319   0.628   3.765   5.481
 4807SOL    HW115320   0.558   3.831   5.452
 4807SOL    HW215321   0.614   3.678   5.434
 4808SOL     OW15322   4.223   5.642   1.042
 4808SOL    HW115323   4.154   5.713   1.025
 4808SOL    HW215324   4.299   5.682   1.094
 4809SOL     OW15325   3.332   4.631   1.494
 4809SOL    HW115326   3.406   4.695   1.513
 4809SOL    HW215327   3.268   4.630   1.571
 4810SOL     OW15328   0.385   4.548   3.807
 4810SOL    HW115329   0.431   4.563   3.894
 4810SOL    HW215330   0.302   4.605   3.803
 4811SOL     OW15331   3.162   4.047   4.082
 4811SOL    HW115332   3.188   4.112   4.154
 4811SOL    HW215333   3.244   4.017   4.033
 4812SOL     OW15334   1.028   0.098   2.147
 4812SOL    HW115335   0.983   0.020   2.104
 4812SOL    HW215336   0.962   0.149   2.202
 4813SOL     OW15337   6.144   1.900   5.887
 4813SOL    HW115338   6.073   1.838   5.919
 4813SOL    HW215339   6.212   1.849   5.835
 4814SOL     OW15340   6.338   3.974   1.758
 4814SOL    HW115341   6.413   4.036   1.781
 4814SOL    HW215342   6.254   4.026   1.744
 4815SOL     OW15343   5.583   5.395   2.377
 4815SOL    HW115344   5.604   5.406   2.280
 4815SOL    HW215345   5.514   5.323   2.389
 4816SOL     OW15346   1.897   1.267   2.448
 4816SOL    HW115347   1.985   1.223   2.431
 4816SOL    HW215348   1.825   1.217   2.401
 4817SOL     OW15349   3.792   2.087   0.653
 4817SOL    HW115350   3.806   2.185   0.639
 4817SOL    HW215351   3.811   2.063   0.748
 4818SOL     OW15352   3.678   0.166   5.731
 4818SOL    HW115353   3.598   0.225   5.741
 4818SOL    HW215354   3.760   0.219   5.750
 4819SOL     OW15355   3.242   0.645   1.214
 4819SOL    HW115356   3.148   0.643   1.179
 4819SOL    HW215357   3.292   0.565   1.181
 4820SOL     OW15358   5.950   4.360   2.116
 4820SOL    HW115359   5.949   4.390   2.021
 4820SOL    HW215360   5.953   4.440   2.176
 4821SOL     OW15361   0.061   4.274   1.673
 4821SOL    HW115362   0.022   4.271   1.581
 4821SOL    HW215363   0.023   4.201   1.728
 4822SOL     OW15364   2.052   4.152   2.774
 4822SOL    HW115365   2.130   4.116   2.825
 4822SOL    HW215366   1.975   4.088   2.782
 4823SOL     OW15367   1.128   1.066   4.425
 4823SOL    HW115368   1.201   1.032   4.366
 4823SOL    HW215369   1.105   1.159   4.399
 4824SOL     OW15370   5.149   2.956   2.141
 4824SOL    HW115371   5.184   2.972   2.049
 4824SOL    HW215372   5.063   3.006   2.154
 4825SOL     OW15373   0.519   3.081   2.806
 4825SOL    HW115374   0.493   2.985   2.801
 4825SOL    HW215375   0.608   3.089   2.849
 4826SOL     OW15376   6.489   6.359   0.313
 4826SOL    HW115377   6.401   6.358   0.361
 4826SOL    HW215378   6.544   6.436   0.344
 4827SOL     OW15379   5.554   0.614   0.902
 4827SOL    HW115380   5.567   0.668   0.819
 4827SOL    HW215381   5.503   0.531   0.879
 4828SOL     OW15382   5.748   3.383   0.431
 4828SOL    HW115383   5.779   3.403   0.525
 4828SOL    HW215384   5.657   3.422   0.418
 4829SOL     OW15385   2.768   0.608   6.183
 4829SOL    HW115386   2.730   0.696   6.154
 4829SOL    HW215387   2.746   0.593   6.280
 4830SOL     OW15388   4.338   6.866   4.468
 4830SOL    HW115389   4.342   6.961   4.498
 4830SOL    HW215390   4.269   6.856   4.396
 4831SOL     OW15391   6.125   3.938   5.804
 4831SOL    HW115392   6.211   3.892   5.824
 4831SOL    HW215393   6.134   3.990   5.719
 4832SOL     OW15394   2.395   3.580   6.465
 4832SOL    HW115395   2.429   3.528   6.388
 4832SOL    HW215396   2.317   3.636   6.436
 4833SOL     OW15397   4.985   1.606   2.681
 4833SOL    HW115398   5.077   1.578   2.655
 4833SOL    HW215399   4.960   1.562   2.767
 4834SOL     OW15400   5.319   1.093   2.583
 4834SOL    HW115401   5.233   1.060   2.545
 4834SOL    HW215402   5.352   1.028   2.652
 4835SOL     OW15403   2.310   0.500   6.600
 4835SOL    HW115404   2.243   0.541   6.662
 4835SOL    HW215405   2.346   0.416   6.641
 4836SOL     OW15406   5.485   2.278   3.903
 4836SOL    HW115407   5.467   2.360   3.958
 4836SOL    HW215408   5.536   2.212   3.957
 4837SOL     OW15409   1.684   3.680   0.432
 4837SOL    HW115410   1.690   3.584   0.457
 4837SOL    HW215411   1.662   3.689   0.335
 4838SOL     OW15412   3.161   5.970   2.701
 4838SOL    HW115413   3.242   5.966   2.760
 4838SOL    HW215414   3.121   5.879   2.692
 4839SOL     OW15415   0.381   6.133   6.763
 4839SOL    HW115416   0.372   6.214   6.821
 4839SOL    HW215417   0.338   6.151   6.674
 4840SOL     OW15418   0.292   6.985   0.515
 4840SOL    HW115419   0.244   6.908   0.473
 4840SOL    HW215420   0.227   0.032   0.538
 4841SOL     OW15421   2.931   5.599   1.985
 4841SOL    HW115422   2.949   5.597   2.083
 4841SOL    HW215423   2.900   5.508   1.955
 4842SOL     OW15424   4.352   6.025   1.334
 4842SOL    HW115425   4.348   6.055   1.239
 4842SOL    HW215426   4.301   6.089   1.391
 4843SOL     OW15427   0.139   3.467   6.851
 4843SOL    HW115428   0.190   3.525   6.915
 4843SOL    HW215429   0.203   3.411   6.798
 4844SOL     OW15430   5.599   2.116   6.339
 4844SOL    HW115431   5.676   2.173   6.308
 4844SOL    HW215432   5.610   2.095   6.436
 4845SOL     OW15433   6.221   5.759   3.992
 4845SOL    HW115434   6.191   5.725   4.081
 4845SOL    HW215435   6.273   5.844   4.004
 4846SOL     OW15436   1.284   4.072   0.514
 4846SOL    HW115437   1.202   4.041   0.564
 4846SOL    HW215438   1.304   4.006   0.441
 4847SOL     OW15439   3.728   2.094   4.305
 4847SOL    HW115440   3.812   2.122   4.257
 4847SOL    HW215441   3.690   2.013   4.260
 4848SOL     OW15442   2.545   2.539   2.628
 4848SOL    HW115443   2.575   2.604   2.558
 4848SOL    HW215444   2.489   2.468   2.586
 4849SOL     OW15445   1.315   6.563   0.689
 4849SOL    HW115446   1.348   6.654   0.712
 4849SOL    HW215447   1.380   6.519   0.627
 4850SOL     OW15448   4.254   0.545   2.396
 4850SOL    HW115449   4.193   0.591   2.332
 4850SOL    HW215450   4.334   0.603   2.414
 4851SOL     OW15451   5.314   5.941   4.642
 4851SOL    HW115452   5.335   6.004   4.717
 4851SOL    HW215453   5.233   5.973   4.593
 4852SOL     OW15454   1.966   0.876   0.332
 4852SOL    HW115455   1.899   0.802   0.334
 4852SOL    HW215456   2.049   0.847   0.381
 4853SOL     OW15457   2.976   1.772   2.271
 4853SOL    HW115458   3.031   1.782   2.354
 4853SOL    HW215459   3.036   1.752   2.194
 4854SOL     OW15460   5.334   6.991   1.320
 4854SOL    HW115461   5.262   6.945   1.372
 4854SOL    HW215462   5.342   0.061   1.353
 4855SOL     OW15463   0.053   2.064   2.242
 4855SOL    HW115464   0.151   2.048   2.230
 4855SOL    HW215465   0.039   2.127   2.318
 4856SOL     OW15466   2.744   4.766   3.316
 4856SOL    HW115467   2.684   4.711   3.257
 4856SOL    HW215468   2.720   4.751   3.411
 4857SOL     OW15469   6.508   1.884   5.693
 4857SOL    HW115470   6.555   1.854   5.610
 4857SOL    HW215471   6.410   1.867   5.684
 4858SOL     OW15472   1.383   1.716   4.197
 4858SOL    HW115473   1.355   1.627   4.161
 4858SOL    HW215474   1.419   1.704   4.290
 4859SOL     OW15475   2.810   5.919   4.758
 4859SOL    HW115476   2.747   5.992   4.730
 4859SOL    HW215477   2.886   5.915   4.694
 4860SOL     OW15478   4.577   5.255   0.748
 4860SOL    HW115479   4.530   5.209   0.673
 4860SOL    HW215480   4.581   5.193   0.827
 4861SOL     OW15481   4.971   3.803   4.978
 4861SOL    HW115482   4.939   3.734   4.913
 4861SOL    HW215483   5.071   3.804   4.979
 4862SOL     OW15484   1.326   6.740   2.196
 4862SOL    HW115485   1.277   6.755   2.282
 4862SOL    HW215486   1.394   6.668   2.208
 4863SOL     OW15487   5.939   4.019   0.076
 4863SOL    HW115488   5.905   3.988   7.012
 4863SOL    HW215489   6.029   4.060   0.064
 4864SOL     OW15490   2.886   1.089   3.243
 4864SOL    HW115491   2.862   1.159   3.175
 4864SOL    HW215492   2.941   1.131   3.315
 4865SOL     OW15493   2.433   6.332   4.617
 4865SOL    HW115494   2.471   6.411   4.569
 4865SOL    HW215495   2.360   6.362   4.678
 4866SOL     OW15496   7.017   3.984   0.877
 4866SOL    HW115497   7.001   4.007   0.780
 4866SOL    HW215498   6.994   3.888   0.892
 4867SOL     OW15499   4.978   0.071   3.133
 4867SOL    HW115500   5.028   0.004   3.188
 4867SOL    HW215501   4.898   0.028   3.093
 4868SOL     OW15502   6.671   4.878   1.039
 4868SOL    HW115503   6.743   4.816   1.070
 4868SOL    HW215504   6.605   4.892   1.113
 4869SOL     OW15505   0.327   1.448   0.039
 4869SOL    HW115506   0.391   1.408   0.105
 4869SOL    HW215507   0.357   1.541   0.016
 4870SOL     OW15508   0.641   6.243   2.192
 4870SOL    HW115509   0.582   6.323   2.187
 4870SOL    HW215510   0.722   6.256   2.134
 4871SOL     OW15511   1.060   1.584   4.403
 4871SOL    HW115512   1.089   1.678   4.388
 4871SOL    HW215513   0.960   1.579   4.397
 4872SOL     OW15514   5.814   0.054   3.979
 4872SOL    HW115515   5.902   0.077   4.021
 4872SOL    HW215516   5.740   0.082   4.039
 4873SOL     OW15517   6.605   6.206   5.616
 4873SOL    HW115518   6.533   6.189   5.548
 4873SOL    HW215519   6.647   6.295   5.599
 4874SOL     OW15520   4.873   3.041   3.066
 4874SOL    HW115521   4.875   3.014   3.162
 4874SOL    HW215522   4.923   3.127   3.055
 4875SOL     OW15523   5.622   6.279   5.565
 4875SOL    HW115524   5.587   6.355   5.511
 4875SOL    HW215525   5.687   6.313   5.633
 4876SOL     OW15526   1.895   1.100   2.688
 4876SOL    HW115527   1.959   1.030   2.658
 4876SOL    HW215528   1.870   1.159   2.611
 4877SOL     OW15529   0.234   2.250   4.720
 4877SOL    HW115530   0.320   2.235   4.673
 4877SOL    HW215531   0.250   2.255   4.819
 4878SOL     OW15532   0.751   2.702   2.674
 4878SOL    HW115533   0.817   2.669   2.606
 4878SOL    HW215534   0.725   2.626   2.734
 4879SOL     OW15535   5.141   1.618   3.010
 4879SOL    HW115536   5.114   1.714   3.008
 4879SOL    HW215537   5.059   1.561   3.014
 4880SOL     OW15538   5.958   2.682   6.292
 4880SOL    HW115539   5.907   2.617   6.236
 4880SOL    HW215540   5.917   2.688   6.382
 4881SOL     OW15541   1.516   3.397   2.023
 4881SOL    HW115542   1.567   3.373   2.105
 4881SOL    HW215543   1.576   3.394   1.943
 4882SOL     OW15544   4.452   2.484   4.841
 4882SOL    HW115545   4.373   2.481   4.902
 4882SOL    HW215546   4.422   2.495   4.747
 4883SOL     OW15547   6.522   4.122   1.889
 4883SOL    HW115548   6.474   4.081   1.966
 4883SOL    HW215549   6.610   4.076   1.876
 4884SOL     OW15550   2.225   6.393   1.644
 4884SOL    HW115551   2.143   6.426   1.692
 4884SOL    HW215552   2.246   6.455   1.569
 4885SOL     OW15553   1.001   4.694   0.955
 4885SOL    HW115554   1.045   4.613   0.917
 4885SOL    HW215555   1.071   4.758   0.987
 4886SOL     OW15556   3.076   1.367   2.463
 4886SOL    HW115557   3.009   1.429   2.424
 4886SOL    HW215558   3.128   1.324   2.390
 4887SOL     OW15559   0.351   6.979   1.266
 4887SOL    HW115560   0.441   6.965   1.308
 4887SOL    HW215561   0.286   7.007   1.337
 4888SOL     OW15562   3.480   6.477   3.025
 4888SOL    HW115563   3.526   6.456   2.939
 4888SOL    HW215564   3.381   6.479   3.010
 4889SOL     OW15565   7.011   2.901   3.446
 4889SOL    HW115566   6.994   2.900   3.544
 4889SOL    HW215567   0.085   2.895   3.429
 4890SOL     OW15568   0.496   1.312   4.824
 4890SOL    HW115569   0.588   1.349   4.814
 4890SOL    HW215570   0.429   1.382   4.797
 4891SOL     OW15571   2.645   5.644   6.039
 4891SOL    HW115572   2.724   5.701   6.018
 4891SOL    HW215573   2.652   5.611   6.133
 4892SOL     OW15574   5.235   5.920   2.859
 4892SOL    HW115575   5.329   5.902   2.830
 4892SOL    HW215576   5.226   5.901   2.957
 4893SOL     OW15577   0.671   3.560   1.873
 4893SOL    HW115578   0.706   3.513   1.954
 4893SOL    HW215579   0.595   3.508   1.834
 4894SOL     OW15580   4.428   6.572   2.124
 4894SOL    HW115581   4.474   6.588   2.212
 4894SOL    HW215582   4.456   6.483   2.088
 4895SOL     OW15583   6.906   4.680   3.951
 4895SOL    HW115584   6.829   4.741   3.971
 4895SOL    HW215585   6.888   4.629   3.867
 4896SOL     OW15586   2.129   5.047   4.091
 4896SOL    HW115587   2.131   4.962   4.144
 4896SOL    HW215588   2.085   5.119   4.145
 4897SOL     OW15589   1.963   6.597   5.584
 4897SOL    HW115590   2.044   6.614   5.640
 4897SOL    HW215591   1.990   6.591   5.488
 4898SOL     OW15592   3.791   2.014   3.785
 4898SOL    HW115593   3.765   2.090   3.726
 4898SOL    HW215594   3.832   1.941   3.730
 4899SOL     OW15595   0.003   5.044   1.486
 4899SOL    HW115596   6.977   5.078   1.406
 4899SOL    HW215597   7.017   4.944   1.491
 4900SOL     OW15598   3.844   6.048   5.571
 4900SOL    HW115599   3.936   6.060   5.534
 4900SOL    HW215600   3.796   5.977   5.520
 4901SOL     OW15601   0.298   1.619   6.034
 4901SOL    HW115602   0.278   1.590   5.941
 4901SOL    HW215603   0.395   1.602   6.055
 4902SOL     OW15604   2.026   0.282   6.093
 4902SOL    HW115605   2.016   0.324   6.184
 4902SOL    HW215606   1.957   0.211   6.082
 4903SOL     OW15607   5.548   4.892   1.750
 4903SOL    HW115608   5.598   4.910   1.835
 4903SOL    HW215609   5.561   4.797   1.723
 4904SOL     OW15610   1.762   0.463   0.494
 4904SOL    HW115611   1.682   0.408   0.518
 4904SOL    HW215612   1.806   0.496   0.578
 4905SOL     OW15613   3.237   6.793   2.570
 4905SOL    HW115614   3.332   6.801   2.597
 4905SOL    HW215615   3.223   6.707   2.522
 4906SOL     OW15616   5.646   3.047   4.918
 4906SOL    HW115617   5.582   3.120   4.895
 4906SOL    HW215618   5.659   3.044   5.017
 4907SOL     OW15619   4.324   1.518   6.200
 4907SOL    HW115620   4.352   1.582   6.129
 4907SOL    HW215621   4.390   1.443   6.205
 4908SOL     OW15622   4.582   6.908   0.048
 4908SOL    HW115623   4.560   6.932   6.978
 4908SOL    HW215624   4.628   6.986   0.092
 4909SOL     OW15625   5.700   4.533   4.270
 4909SOL    HW115626   5.643   4.477   4.211
 4909SOL    HW215627   5.694   4.500   4.364
 4910SOL     OW15628   4.559   1.235   5.742
 4910SOL    HW115629   4.574   1.162   5.676
 4910SOL    HW215630   4.625   1.226   5.817
 4911SOL     OW15631   0.519   2.128   1.787
 4911SOL    HW115632   0.502   2.040   1.829
 4911SOL    HW215633   0.575   2.185   1.848
 4912SOL     OW15634   6.168   2.245   4.173
 4912SOL    HW115635   6.078   2.264   4.213
 4912SOL    HW215636   6.238   2.249   4.244
 4913SOL     OW15637   6.642   2.611   5.529
 4913SOL    HW115638   6.648   2.529   5.587
 4913SOL    HW215639   6.656   2.585   5.434
 4914SOL     OW15640   4.673   0.580   4.105
 4914SOL    HW115641   4.632   0.541   4.023
 4914SOL    HW215642   4.754   0.633   4.080
 4915SOL     OW15643   3.969   5.649   5.791
 4915SOL    HW115644   3.901   5.721   5.798
 4915SOL    HW215645   4.061   5.689   5.790
 4916SOL     OW15646   6.160   1.794   3.959
 4916SOL    HW115647   6.116   1.757   4.041
 4916SOL    HW215648   6.185   1.889   3.975
 4917SOL     OW15649   4.740   0.221   0.930
 4917SOL    HW115650   4.777   0.131   0.912
 4917SOL    HW215651   4.793   0.291   0.883
 4918SOL     OW15652   6.287   5.505   2.149
 4918SOL    HW115653   6.269   5.586   2.094
 4918SOL    HW215654   6.375   5.466   2.124
 4919SOL     OW15655   3.505   4.071   2.353
 4919SOL    HW115656   3.575   4.082   2.424
 4919SOL    HW215657   3.427   4.131   2.373
 4920SOL     OW15658   5.927   0.727   5.206
 4920SOL    HW115659   5.968   0.650   5.254
 4920SOL    HW215660   5.840   0.752   5.250
 4921SOL     OW15661   0.096   6.904   2.201
 4921SOL    HW115662   0.029   6.928   2.271
 4921SOL    HW215663   0.162   6.977   2.191
 4922SOL     OW15664   3.733   2.243   6.182
 4922SOL    HW115665   3.699   2.201   6.098
 4922SOL    HW215666   3.667   2.228   6.255
 4923SOL     OW15667   3.302   1.743   2.769
 4923SOL    HW115668   3.391   1.788   2.771
 4923SOL    HW215669   3.236   1.797   2.821
 4924SOL     OW15670   2.505   0.739   5.621
 4924SOL    HW115671   2.567   0.706   5.692
 4924SOL    HW215672   2.467   0.660   5.571
 4925SOL     OW15673   5.323   6.095   3.532
 4925SOL    HW115674   5.414   6.101   3.490
 4925SOL    HW215675   5.258   6.058   3.466
 4926SOL     OW15676   5.355   1.937   0.921
 4926SOL    HW115677   5.309   1.896   0.999
 4926SOL    HW215678   5.308   2.021   0.894
 4927SOL     OW15679   3.666   1.582   6.339
 4927SOL    HW115680   3.586   1.638   6.361
 4927SOL    HW215681   3.742   1.642   6.312
 4928SOL     OW15682   0.536   2.321   0.521
 4928SOL    HW115683   0.542   2.288   0.427
 4928SOL    HW215684   0.628   2.345   0.554
 4929SOL     OW15685   0.509   6.276   4.970
 4929SOL    HW115686   0.586   6.229   5.012
 4929SOL    HW215687   0.513   6.265   4.870
 4930SOL     OW15688   5.283   6.766   2.308
 4930SOL    HW115689   5.258   6.741   2.402
 4930SOL    HW215690   5.371   6.814   2.309
 4931SOL     OW15691   5.893   6.172   0.792
 4931SOL    HW115692   5.813   6.114   0.809
 4931SOL    HW215693   5.878   6.226   0.709
 4932SOL     OW15694   3.062   3.072   1.977
 4932SOL    HW115695   3.079   2.999   1.911
 4932SOL    HW215696   2.969   3.108   1.963
 4933SOL     OW15697   3.202   5.888   5.436
 4933SOL    HW115698   3.242   5.819   5.375
 4933SOL    HW215699   3.118   5.924   5.394
 4934SOL     OW15700   3.916   4.813   3.088
 4934SOL    HW115701   3.959   4.780   3.004
 4934SOL    HW215702   3.987   4.839   3.153
 4935SOL     OW15703   0.896   1.055   6.238
 4935SOL    HW115704   0.900   1.031   6.141
 4935SOL    HW215705   0.852   0.981   6.289
 4936SOL     OW15706   2.932   3.350   1.044
 4936SOL    HW115707   2.928   3.390   1.136
 4936SOL    HW215708   2.874   3.403   0.982
 4937SOL     OW15709   4.524   2.660   5.216
 4937SOL    HW115710   4.459   2.724   5.257
 4937SOL    HW215711   4.555   2.695   5.127
 4938SOL     OW15712   4.226   5.769   5.759
 4938SOL    HW115713   4.316   5.796   5.792
 4938SOL    HW215714   4.225   5.769   5.659
 4939SOL     OW15715   4.496   3.058   5.680
 4939SOL    HW115716   4.413   3.050   5.736
 4939SOL    HW215717   4.565   2.994   5.713
 4940SOL     OW15718   2.504   6.550   4.408
 4940SOL    HW115719   2.468   6.644   4.413
 4940SOL    HW215720   2.594   6.551   4.366
 4941SOL     OW15721   5.589   0.527   0.556
 4941SOL    HW115722   5.680   0.561   0.580
 4941SOL    HW215723   5.521   0.578   0.608
 4942SOL     OW15724   4.861   3.723   5.317
 4942SOL    HW115725   4.906   3.661   5.381
 4942SOL    HW215726   4.837   3.674   5.234
 4943SOL     OW15727   4.326   2.158   1.050
 4943SOL    HW115728   4.328   2.208   0.963
 4943SOL    HW215729   4.420   2.134   1.076
 4944SOL     OW15730   2.301   4.578   2.390
 4944SOL    HW115731   2.354   4.598   2.307
 4944SOL    HW215732   2.222   4.521   2.366
 4945SOL     OW15733   0.492   6.743   4.489
 4945SOL    HW115734   0.548   6.823   4.511
 4945SOL    HW215735   0.552   6.668   4.460
 4946SOL     OW15736   1.263   3.775   2.682
 4946SOL    HW115737   1.202   3.781   2.603
 4946SOL    HW215738   1.233   3.841   2.752
 4947SOL     OW15739   0.499   6.591   0.647
 4947SOL    HW115740   0.530   6.672   0.697
 4947SOL    HW215741   0.499   6.512   0.709
 4948SOL     OW15742   2.276   1.519   2.000
 4948SOL    HW115743   2.339   1.591   1.972
 4948SOL    HW215744   2.278   1.510   2.100
 4949SOL     OW15745   5.566   1.492   4.152
 4949SOL    HW115746   5.491   1.557   4.155
 4949SOL    HW215747   5.653   1.541   4.152
 4950SOL     OW15748   3.229   5.625   4.591
 4950SOL    HW115749   3.196   5.533   4.568
 4950SOL    HW215750   3.186   5.655   4.676
 4951SOL     OW15751   4.404   2.229   3.786
 4951SOL    HW115752   4.469   2.288   3.737
 4951SOL    HW215753   4.314   2.236   3.743
 4952SOL     OW15754   0.794   5.968   5.325
 4952SOL    HW115755   0.842   5.959   5.238
 4952SOL    HW215756   0.719   6.034   5.315
 4953SOL     OW15757   1.796   5.148   1.751
 4953SOL    HW115758   1.703   5.140   1.715
 4953SOL    HW215759   1.796   5.210   1.829
 4954SOL     OW15760   5.352   6.116   6.963
 4954SOL    HW115761   5.359   6.208   6.925
 4954SOL    HW215762   5.430   6.099   7.023
 4955SOL     OW15763   1.095   6.373   1.263
 4955SOL    HW115764   1.107   6.283   1.304
 4955SOL    HW215765   1.178   6.427   1.276
 4956SOL     OW15766   4.485   6.273   4.096
 4956SOL    HW115767   4.404   6.236   4.140
 4956SOL    HW215768   4.557   6.204   4.094
 4957SOL     OW15769   1.110   0.369   4.163
 4957SOL    HW115770   1.058   0.454   4.171
 4957SOL    HW215771   1.068   0.298   4.219
 4958SOL     OW15772   6.994   5.913   0.052
 4958SOL    HW115773   7.002   5.833   7.017
 4958SOL    HW215774   6.901   5.950   0.046
 4959SOL     OW15775   0.753   1.003   1.077
 4959SOL    HW115776   0.798   1.091   1.095
 4959SOL    HW215777   0.812   0.948   1.018
 4960SOL     OW15778   4.236   6.846   4.785
 4960SOL    HW115779   4.334   6.853   4.768
 4960SOL    HW215780   4.206   6.752   4.769
 4961SOL     OW15781   4.693   0.648   5.433
 4961SOL    HW115782   4.725   0.619   5.343
 4961SOL    HW215783   4.597   0.675   5.428
 4962SOL     OW15784   6.879   1.248   0.908
 4962SOL    HW115785   6.935   1.230   0.827
 4962SOL    HW215786   6.910   1.191   0.983
 4963SOL     OW15787   0.330   4.817   1.727
 4963SOL    HW115788   0.345   4.773   1.815
 4963SOL    HW215789   0.282   4.755   1.666
 4964SOL     OW15790   3.635   6.637   3.237
 4964SOL    HW115791   3.703   6.645   3.164
 4964SOL    HW215792   3.554   6.589   3.203
 4965SOL     OW15793   7.003   0.087   4.373
 4965SOL    HW115794   6.968   0.108   4.281
 4965SOL    HW215795   0.060   0.143   4.390
 4966SOL     OW15796   3.639   4.927   3.606
 4966SOL    HW115797   3.562   4.960   3.551
 4966SOL    HW215798   3.606   4.904   3.697
 4967SOL     OW15799   4.053   2.451   5.810
 4967SOL    HW115800   3.961   2.413   5.811
 4967SOL    HW215801   4.052   2.544   5.848
 4968SOL     OW15802   6.013   2.755   5.565
 4968SOL    HW115803   6.093   2.805   5.532
 4968SOL    HW215804   5.930   2.806   5.543
 4969SOL     OW15805   1.332   1.618   2.066
 4969SOL    HW115806   1.312   1.579   1.976
 4969SOL    HW215807   1.374   1.708   2.055
 4970SOL     OW15808   0.764   2.621   5.907
 4970SOL    HW115809   0.795   2.596   5.815
 4970SOL    HW215810   0.720   2.542   5.950
 4971SOL     OW15811   5.537   5.779   3.567
 4971SOL    HW115812   5.623   5.800   3.521
 4971SOL    HW215813   5.510   5.855   3.625
 4972SOL     OW15814   1.530   2.550   6.177
 4972SOL    HW115815   1.488   2.539   6.087
 4972SOL    HW215816   1.500   2.476   6.237
 4973SOL     OW15817   5.171   6.671   2.552
 4973SOL    HW115818   5.176   6.573   2.536
 4973SOL    HW215819   5.142   6.688   2.646
 4974SOL     OW15820   5.561   6.887   2.314
 4974SOL    HW115821   5.627   6.956   2.342
 4974SOL    HW215822   5.592   6.797   2.345
 4975SOL     OW15823   5.618   5.981   0.733
 4975SOL    HW115824   5.529   5.951   0.767
 4975SOL    HW215825   5.690   5.926   0.775
 4976SOL     OW15826   3.808   0.720   4.900
 4976SOL    HW115827   3.723   0.684   4.938
 4976SOL    HW215828   3.837   0.663   4.823
 4977SOL     OW15829   3.815   4.032   0.562
 4977SOL    HW115830   3.825   4.123   0.522
 4977SOL    HW215831   3.727   4.026   0.610
 4978SOL     OW15832   5.706   3.196   6.380
 4978SOL    HW115833   5.608   3.191   6.361
 4978SOL    HW215834   5.721   3.200   6.478
 4979SOL     OW15835   1.270   1.025   5.647
 4979SOL    HW115836   1.318   0.941   5.673
 4979SOL    HW215837   1.237   1.070   5.730
 4980SOL     OW15838   2.266   5.473   1.983
 4980SOL    HW115839   2.327   5.422   2.044
 4980SOL    HW215840   2.225   5.411   1.916
 4981SOL     OW15841   4.493   6.560   5.363
 4981SOL    HW115842   4.559   6.485   5.370
 4981SOL    HW215843   4.484   6.605   5.451
 4982SOL     OW15844   2.633   2.950   0.457
 4982SOL    HW115845   2.680   2.893   0.525
 4982SOL    HW215846   2.583   2.891   0.393
 4983SOL     OW15847   5.391   3.077   4.385
 4983SOL    HW115848   5.424   3.079   4.291
 4983SOL    HW215849   5.345   3.164   4.406
 4984SOL     OW15850   4.750   4.160   2.643
 4984SOL    HW115851   4.766   4.063   2.656
 4984SOL    HW215852   4.760   4.183   2.546
 4985SOL     OW15853   5.720   4.875   2.648
 4985SOL    HW115854   5.716   4.780   2.618
 4985SOL    HW215855   5.797   4.888   2.710
 4986SOL     OW15856   4.514   4.795   1.897
 4986SOL    HW115857   4.458   4.862   1.946
 4986SOL    HW215858   4.521   4.712   1.951
 4987SOL     OW15859   0.018   3.336   1.662
 4987SOL    HW115860   0.022   3.434   1.682
 4987SOL    HW215861   6.965   3.318   1.602
 4988SOL     OW15862   0.526   2.043   4.700
 4988SOL    HW115863   0.497   2.010   4.790
 4988SOL    HW215864   0.546   1.965   4.641
 4989SOL     OW15865   0.624   0.874   0.417
 4989SOL    HW115866   0.659   0.844   0.506
 4989SOL    HW215867   0.626   0.797   0.353
 4990SOL     OW15868   1.038   2.241   5.512
 4990SOL    HW115869   1.137   2.253   5.511
 4990SOL    HW215870   1.008   2.217   5.605
 4991SOL     OW15871   1.304   2.817   4.305
 4991SOL    HW115872   1.320   2.885   4.376
 4991SOL    HW215873   1.391   2.788   4.266
 4992SOL     OW15874   3.243   0.596   6.217
 4992SOL    HW115875   3.166   0.650   6.251
 4992SOL    HW215876   3.313   0.657   6.181
 4993SOL     OW15877   2.883   6.054   4.003
 4993SOL    HW115878   2.947   6.080   4.075
 4993SOL    HW215879   2.893   5.956   3.983
 4994SOL     OW15880   0.364   6.893   2.557
 4994SOL    HW115881   0.316   6.978   2.535
 4994SOL    HW215882   0.445   6.913   2.612
 4995SOL     OW15883   5.688   2.969   6.111
 4995SOL    HW115884   5.733   2.919   6.037
 4995SOL    HW215885   5.660   2.905   6.183
 4996SOL     OW15886   1.087   1.286   3.870
 4996SOL    HW115887   1.059   1.216   3.804
 4996SOL    HW215888   1.110   1.370   3.822
 4997SOL     OW15889   0.501   2.504   3.647
 4997SOL    HW115890   0.561   2.558   3.707
 4997SOL    HW215891   0.406   2.534   3.659
 4998SOL     OW15892   1.946   5.531   4.938
 4998SOL    HW115893   2.031   5.478   4.931
 4998SOL    HW215894   1.960   5.608   5.000
 4999SOL     OW15895   6.107   4.896   1.460
 4999SOL    HW115896   6.019   4.916   1.504
 4999SOL    HW215897   6.092   4.876   1.363
 5000SOL     OW15898   0.106   6.342   4.586
 5000SOL    HW115899   0.158   6.406   4.529
 5000SOL    HW215900   0.014   6.380   4.603
 5001SOL     OW15901   4.391   4.353   5.835
 5001SOL    HW115902   4.477   4.380   5.790
 5001SOL    HW215903   4.318   4.348   5.767
 5002SOL     OW15904   2.151   1.289   2.014
 5002SOL    HW115905   2.205   1.372   1.999
 5002SOL    HW215906   2.147   1.236   1.929
 5003SOL     OW15907   6.373   5.964   2.876
 5003SOL    HW115908   6.318   5.907   2.815
 5003SOL    HW215909   6.451   5.911   2.910
 5004SOL     OW15910   3.183   5.829   0.015
 5004SOL    HW115911   3.129   5.782   0.085
 5004SOL    HW215912   3.274   5.848   0.051
 5005SOL     OW15913   4.665   2.052   6.732
 5005SOL    HW115914   4.631   2.137   6.773
 5005SOL    HW215915   4.590   2.004   6.687
 5006SOL     OW15916   5.592   5.817   4.208
 5006SOL    HW115917   5.617   5.911   4.183
 5006SOL    HW215918   5.629   5.795   4.298
 5007SOL     OW15919   3.686   1.675   5.116
 5007SOL    HW115920   3.760   1.726   5.073
 5007SOL    HW215921   3.598   1.710   5.082
 5008SOL     OW15922   6.235   1.539   3.830
 5008SOL    HW115923   6.329   1.506   3.833
 5008SOL    HW215924   6.232   1.634   3.863
 5009SOL     OW15925   1.496   6.207   3.255
 5009SOL    HW115926   1.499   6.201   3.355
 5009SOL    HW215927   1.417   6.262   3.227
 5010SOL     OW15928   3.985   3.196   4.413
 5010SOL    HW115929   3.933   3.112   4.406
 5010SOL    HW215930   4.017   3.209   4.507
 5011SOL     OW15931   1.541   2.653   2.469
 5011SOL    HW115932   1.513   2.624   2.561
 5011SOL    HW215933   1.547   2.753   2.467
 5012SOL     OW15934   6.250   2.902   6.450
 5012SOL    HW115935   6.207   2.975   6.503
 5012SOL    HW215936   6.240   2.922   6.352
 5013SOL     OW15937   4.120   0.976   6.739
 5013SOL    HW115938   4.029   1.016   6.730
 5013SOL    HW215939   4.134   0.947   6.834
 5014SOL     OW15940   6.177   6.689   0.100
 5014SOL    HW115941   6.119   6.674   0.019
 5014SOL    HW215942   6.120   6.695   0.181
 5015SOL     OW15943   4.915   2.528   3.493
 5015SOL    HW115944   4.856   2.521   3.413
 5015SOL    HW215945   4.859   2.527   3.576
 5016SOL     OW15946   1.694   6.888   2.800
 5016SOL    HW115947   1.711   6.790   2.804
 5016SOL    HW215948   1.778   6.938   2.819
 5017SOL     OW15949   2.602   2.873   1.395
 5017SOL    HW115950   2.548   2.805   1.445
 5017SOL    HW215951   2.626   2.948   1.456
 5018SOL     OW15952   6.687   5.824   3.983
 5018SOL    HW115953   6.724   5.850   4.072
 5018SOL    HW215954   6.724   5.735   3.956
 5019SOL     OW15955   2.575   5.020   6.557
 5019SOL    HW115956   2.662   4.974   6.575
 5019SOL    HW215957   2.505   4.984   6.618
 5020SOL     OW15958   5.126   5.866   6.372
 5020SOL    HW115959   5.054   5.852   6.305
 5020SOL    HW215960   5.214   5.842   6.332
 5021SOL     OW15961   1.606   4.670   6.051
 5021SOL    HW115962   1.687   4.724   6.073
 5021SOL    HW215963   1.628   4.573   6.057
 5022SOL     OW15964   1.311   5.530   0.357
 5022SOL    HW115965   1.244   5.604   0.362
 5022SOL    HW215966   1.324   5.490   0.448
 5023SOL     OW15967   6.202   2.937   2.699
 5023SOL    HW115968   6.230   2.856   2.648
 5023SOL    HW215969   6.211   3.018   2.641
 5024SOL     OW15970   5.972   3.427   4.704
 5024SOL    HW115971   5.947   3.519   4.733
 5024SOL    HW215972   6.071   3.415   4.713
 5025SOL     OW15973   5.983   1.261   3.280
 5025SOL    HW115974   5.979   1.193   3.353
 5025SOL    HW215975   6.077   1.292   3.268
 5026SOL     OW15976   0.698   6.394   3.832
 5026SOL    HW115977   0.743   6.402   3.920
 5026SOL    HW215978   0.612   6.344   3.843
 5027SOL     OW15979   1.017   6.705   3.582
 5027SOL    HW115980   1.013   6.785   3.522
 5027SOL    HW215981   0.964   6.723   3.664
 5028SOL     OW15982   0.558   0.473   2.608
 5028SOL    HW115983   0.649   0.452   2.646
 5028SOL    HW215984   0.539   0.570   2.620
 5029SOL     OW15985   0.173   1.143   1.578
 5029SOL    HW115986   0.241   1.130   1.650
 5029SOL    HW215987   0.117   1.223   1.599
 5030SOL     OW15988   1.393   6.060   6.996
 5030SOL    HW115989   1.370   6.144   6.946
 5030SOL    HW215990   1.373   6.074   0.069
 5031SOL     OW15991   5.263   0.256   4.857
 5031SOL    HW115992   5.327   0.187   4.891
 5031SOL    HW215993   5.263   0.255   4.757
 5032SOL     OW15994   1.421   5.935   1.107
 5032SOL    HW115995   1.403   5.839   1.088
 5032SOL    HW215996   1.513   5.958   1.074
 5033SOL     OW15997   2.073   4.517   5.870
 5033SOL    HW115998   2.098   4.530   5.966
 5033SOL    HW215999   1.975   4.533   5.859
 5034SOL     OW16000   6.980   3.692   0.990
 5034SOL    HW116001   0.031   3.690   0.925
 5034SOL    HW216002   6.955   3.598   1.014
 5035SOL     OW16003   5.896   4.290   0.695
 5035SOL    HW116004   5.992   4.294   0.721
 5035SOL    HW216005   5.856   4.205   0.728
 5036SOL     OW16006   1.717   0.451   2.027
 5036SOL    HW116007   1.697   0.360   2.063
 5036SOL    HW216008   1.632   0.503   2.020
 5037SOL     OW16009   4.649   2.298   3.617
 5037SOL    HW116010   4.625   2.331   3.525
 5037SOL    HW216011   4.681   2.374   3.672
 5038SOL     OW16012   3.015   6.309   5.792
 5038SOL    HW116013   3.021   6.409   5.786
 5038SOL    HW216014   2.920   6.283   5.808
 5039SOL     OW16015   1.684   1.651   4.496
 5039SOL    HW116016   1.672   1.570   4.554
 5039SOL    HW216017   1.776   1.689   4.510
 5040SOL     OW16018   2.746   3.483   5.975
 5040SOL    HW116019   2.755   3.577   5.943
 5040SOL    HW216020   2.669   3.439   5.929
 5041SOL     OW16021   1.228   4.899   0.835
 5041SOL    HW116022   1.216   4.817   0.890
 5041SOL    HW216023   1.139   4.928   0.798
 5042SOL     OW16024   5.505   2.701   6.163
 5042SOL    HW116025   5.550   2.673   6.079
 5042SOL    HW216026   5.563   2.677   6.241
 5043SOL     OW16027   4.183   0.503   3.369
 5043SOL    HW116028   4.195   0.478   3.273
 5043SOL    HW216029   4.270   0.492   3.417
 5044SOL     OW16030   6.549   4.446   3.322
 5044SOL    HW116031   6.558   4.400   3.410
 5044SOL    HW216032   6.480   4.519   3.329
 5045SOL     OW16033   6.467   3.198   6.479
 5045SOL    HW116034   6.410   3.202   6.397
 5045SOL    HW216035   6.409   3.197   6.561
 5046SOL     OW16036   3.519   2.826   5.122
 5046SOL    HW116037   3.496   2.731   5.100
 5046SOL    HW216038   3.611   2.846   5.091
 5047SOL     OW16039   0.870   1.143   2.773
 5047SOL    HW116040   0.829   1.157   2.683
 5047SOL    HW216041   0.915   1.227   2.803
 5048SOL     OW16042   5.676   2.823   1.481
 5048SOL    HW116043   5.751   2.772   1.522
 5048SOL    HW216044   5.701   2.920   1.473
 5049SOL     OW16045   1.232   2.453   2.702
 5049SOL    HW116046   1.236   2.376   2.766
 5049SOL    HW216047   1.320   2.501   2.704
 5050SOL     OW16048   0.713   3.495   1.292
 5050SOL    HW116049   0.668   3.566   1.347
 5050SOL    HW216050   0.735   3.532   1.202
 5051SOL     OW16051   3.026   5.199   0.138
 5051SOL    HW116052   3.093   5.254   0.087
 5051SOL    HW216053   3.005   5.116   0.086
 5052SOL     OW16054   5.678   4.401   1.075
 5052SOL    HW116055   5.667   4.302   1.065
 5052SOL    HW216056   5.690   4.443   0.985
 5053SOL     OW16057   2.235   4.440   0.435
 5053SOL    HW116058   2.294   4.370   0.475
 5053SOL    HW216059   2.192   4.403   0.352
 5054SOL     OW16060   3.868   5.745   4.605
 5054SOL    HW116061   3.840   5.758   4.700
 5054SOL    HW216062   3.865   5.833   4.557
 5055SOL     OW16063   1.469   2.037   4.320
 5055SOL    HW116064   1.475   1.961   4.385
 5055SOL    HW216065   1.536   2.024   4.246
 5056SOL     OW16066   1.963   2.981   5.481
 5056SOL    HW116067   1.949   2.882   5.472
 5056SOL    HW216068   2.000   3.017   5.396
 5057SOL     OW16069   0.664   4.625   2.768
 5057SOL    HW116070   0.729   4.644   2.695
 5057SOL    HW216071   0.715   4.604   2.852
 5058SOL     OW16072   3.335   4.025   6.565
 5058SOL    HW116073   3.344   4.067   6.475
 5058SOL    HW216074   3.404   4.064   6.627
 5059SOL     OW16075   3.192   1.481   3.558
 5059SOL    HW116076   3.226   1.388   3.545
 5059SOL    HW216077   3.100   1.490   3.518
 5060SOL     OW16078   0.442   3.185   6.106
 5060SOL    HW116079   0.431   3.266   6.047
 5060SOL    HW216080   0.469   3.214   6.197
 5061SOL     OW16081   3.703   2.769   5.855
 5061SOL    HW116082   3.710   2.735   5.948
 5061SOL    HW216083   3.787   2.817   5.831
 5062SOL     OW16084   5.354   1.385   3.270
 5062SOL    HW116085   5.353   1.423   3.362
 5062SOL    HW216086   5.376   1.457   3.204
 5063SOL     OW16087   0.708   0.752   2.497
 5063SOL    HW116088   0.786   0.770   2.437
 5063SOL    HW216089   0.705   0.655   2.520
 5064SOL     OW16090   4.992   5.637   1.301
 5064SOL    HW116091   4.968   5.597   1.390
 5064SOL    HW216092   4.979   5.569   1.229
 5065SOL     OW16093   2.235   0.551   2.551
 5065SOL    HW116094   2.190   0.629   2.595
 5065SOL    HW216095   2.262   0.485   2.621
 5066SOL     OW16096   2.649   5.005   2.046
 5066SOL    HW116097   2.638   5.092   1.998
 5066SOL    HW216098   2.575   4.993   2.112
 5067SOL     OW16099   4.744   2.924   0.457
 5067SOL    HW116100   4.812   2.864   0.499
 5067SOL    HW216101   4.779   2.960   0.370
 5068SOL     OW16102   2.931   6.364   0.751
 5068SOL    HW116103   2.840   6.332   0.725
 5068SOL    HW216104   2.923   6.424   0.831
 5069SOL     OW16105   3.335   4.915   5.534
 5069SOL    HW116106   3.434   4.908   5.523
 5069SOL    HW216107   3.299   4.829   5.571
 5070SOL     OW16108   5.889   3.403   4.009
 5070SOL    HW116109   5.820   3.335   4.033
 5070SOL    HW216110   5.980   3.367   4.027
 5071SOL     OW16111   2.724   0.808   4.385
 5071SOL    HW116112   2.767   0.717   4.383
 5071SOL    HW216113   2.633   0.800   4.425
 5072SOL     OW16114   0.712   1.493   0.227
 5072SOL    HW116115   0.763   1.429   0.285
 5072SOL    HW216116   0.617   1.462   0.220
 5073SOL     OW16117   2.364   0.963   2.522
 5073SOL    HW116118   2.264   0.961   2.528
 5073SOL    HW216119   2.392   0.946   2.428
 5074SOL     OW16120   3.469   2.218   1.704
 5074SOL    HW116121   3.386   2.250   1.750
 5074SOL    HW216122   3.550   2.252   1.754
 5075SOL     OW16123   1.040   3.403   0.241
 5075SOL    HW116124   1.029   3.479   0.176
 5075SOL    HW216125   0.955   3.393   0.293
 5076SOL     OW16126   5.814   0.363   6.189
 5076SOL    HW116127   5.758   0.445   6.196
 5076SOL    HW216128   5.771   0.298   6.127
 5077SOL     OW16129   0.834   4.377   3.939
 5077SOL    HW116130   0.782   4.321   4.004
 5077SOL    HW216131   0.873   4.455   3.988
 5078SOL     OW16132   0.466   1.832   4.278
 5078SOL    HW116133   0.385   1.775   4.266
 5078SOL    HW216134   0.544   1.790   4.231
 5079SOL     OW16135   1.031   3.082   5.657
 5079SOL    HW116136   1.037   3.148   5.732
 5079SOL    HW216137   1.114   3.025   5.657
 5080SOL     OW16138   5.619   5.736   6.496
 5080SOL    HW116139   5.638   5.718   6.593
 5080SOL    HW216140   5.699   5.778   6.453
 5081SOL     OW16141   3.195   5.131   5.513
 5081SOL    HW116142   3.241   5.045   5.538
 5081SOL    HW216143   3.243   5.174   5.437
 5082SOL     OW16144   5.094   6.095   2.242
 5082SOL    HW116145   5.027   6.169   2.247
 5082SOL    HW216146   5.146   6.103   2.156
 5083SOL     OW16147   1.562   0.250   3.220
 5083SOL    HW116148   1.485   0.311   3.241
 5083SOL    HW216149   1.622   0.295   3.155
 5084SOL     OW16150   2.025   4.954   5.487
 5084SOL    HW116151   2.106   4.993   5.529
 5084SOL    HW216152   1.984   4.887   5.548
 5085SOL     OW16153   0.549   4.205   5.976
 5085SOL    HW116154   0.610   4.245   6.044
 5085SOL    HW216155   0.511   4.278   5.919
 5086SOL     OW16156   1.931   5.361   2.206
 5086SOL    HW116157   1.974   5.281   2.248
 5086SOL    HW216158   1.844   5.379   2.251
 5087SOL     OW16159   6.506   4.932   1.875
 5087SOL    HW116160   6.576   4.878   1.828
 5087SOL    HW216161   6.417   4.918   1.830
 5088SOL     OW16162   4.982   6.489   2.008
 5088SOL    HW116163   5.015   6.513   2.099
 5088SOL    HW216164   5.037   6.414   1.971
 5089SOL     OW16165   6.066   5.167   5.531
 5089SOL    HW116166   6.000   5.117   5.475
 5089SOL    HW216167   6.017   5.237   5.585
 5090SOL     OW16168   3.032   0.001   5.020
 5090SOL    HW116169   3.007   6.957   4.952
 5090SOL    HW216170   3.066   0.083   4.973
 5091SOL     OW16171   6.434   0.254   6.639
 5091SOL    HW116172   6.392   0.344   6.647
 5091SOL    HW216173   6.503   0.243   6.710
 5092SOL     OW16174   2.926   3.560   4.052
 5092SOL    HW116175   2.998   3.553   4.121
 5092SOL    HW216176   2.852   3.618   4.086
 5093SOL     OW16177   2.114   2.189   2.948
 5093SOL    HW116178   2.187   2.124   2.971
 5093SOL    HW216179   2.155   2.278   2.925
 5094SOL     OW16180   2.574   5.439   5.672
 5094SOL    HW116181   2.664   5.437   5.627
 5094SOL    HW216182   2.511   5.493   5.618
 5095SOL     OW16183   6.593   1.445   3.307
 5095SOL    HW116184   6.527   1.500   3.256
 5095SOL    HW216185   6.635   1.378   3.246
 5096SOL     OW16186   5.648   3.454   5.563
 5096SOL    HW116187   5.709   3.387   5.519
 5096SOL    HW216188   5.689   3.486   5.648
 5097SOL     OW16189   1.187   0.423   6.314
 5097SOL    HW116190   1.118   0.418   6.242
 5097SOL    HW216191   1.148   0.467   6.395
 5098SOL     OW16192   3.506   2.945   1.687
 5098SOL    HW116193   3.505   2.852   1.725
 5098SOL    HW216194   3.559   3.005   1.748
 5099SOL     OW16195   1.190   0.204   1.723
 5099SOL    HW116196   1.181   0.241   1.815
 5099SOL    HW216197   1.213   0.107   1.727
 5100SOL     OW16198   5.696   4.579   2.634
 5100SOL    HW116199   5.725   4.588   2.729
 5100SOL    HW216200   5.723   4.490   2.598
 5101SOL     OW16201   3.737   0.122   6.514
 5101SOL    HW116202   3.753   0.182   6.593
 5101SOL    HW216203   3.713   0.178   6.435
 5102SOL     OW16204   5.063   4.212   4.560
 5102SOL    HW116205   5.151   4.167   4.544
 5102SOL    HW216206   4.997   4.145   4.593
 5103SOL     OW16207   1.061   0.961   6.724
 5103SOL    HW116208   1.161   0.961   6.727
 5103SOL    HW216209   1.026   0.880   6.772
 5104SOL     OW16210   3.535   3.611   1.727
 5104SOL    HW116211   3.459   3.672   1.749
 5104SOL    HW216212   3.546   3.606   1.628
 5105SOL     OW16213   4.212   3.875   6.441
 5105SOL    HW116214   4.173   3.847   6.354
 5105SOL    HW216215   4.187   3.809   6.512
 5106SOL     OW16216   4.330   2.286   0.825
 5106SOL    HW116217   4.281   2.374   0.823
 5106SOL    HW216218   4.427   2.303   0.806
 5107SOL     OW16219   4.622   3.379   0.303
 5107SOL    HW116220   4.591   3.407   0.212
 5107SOL    HW216221   4.543   3.368   0.363
 5108SOL     OW16222   4.021   4.800   0.089
 5108SOL    HW116223   4.107   4.825   0.132
 5108SOL    HW216224   4.035   4.716   0.035
 5109SOL     OW16225   1.360   2.836   1.425
 5109SOL    HW116226   1.428   2.765   1.403
 5109SOL    HW216227   1.401   2.926   1.413
 5110SOL     OW16228   4.977   0.672   5.800
 5110SOL    HW116229   5.021   0.741   5.857
 5110SOL    HW216230   5.024   0.668   5.711
 5111SOL     OW16231   0.934   6.358   4.953
 5111SOL    HW116232   1.010   6.307   4.993
 5111SOL    HW216233   0.902   6.427   5.018
 5112SOL     OW16234   0.426   0.146   2.820
 5112SOL    HW116235   0.525   0.143   2.829
 5112SOL    HW216236   0.386   0.062   2.858
 5113SOL     OW16237   1.793   3.967   0.167
 5113SOL    HW116238   1.727   4.014   0.109
 5113SOL    HW216239   1.886   3.990   0.137
 5114SOL     OW16240   4.660   5.402   1.036
 5114SOL    HW116241   4.583   5.455   1.070
 5114SOL    HW216242   4.641   5.370   0.943
 5115SOL     OW16243   2.182   3.615   1.075
 5115SOL    HW116244   2.166   3.561   0.993
 5115SOL    HW216245   2.109   3.681   1.087
 5116SOL     OW16246   2.009   6.992   6.506
 5116SOL    HW116247   2.109   7.002   6.500
 5116SOL    HW216248   1.987   6.927   6.580
 5117SOL     OW16249   1.221   2.443   4.131
 5117SOL    HW116250   1.183   2.453   4.040
 5117SOL    HW216251   1.243   2.346   4.148
 5118SOL     OW16252   5.177   6.167   6.144
 5118SOL    HW116253   5.166   6.265   6.127
 5118SOL    HW216254   5.230   6.153   6.228
 5119SOL     OW16255   5.334   1.418   0.372
 5119SOL    HW116256   5.427   1.447   0.347
 5119SOL    HW216257   5.275   1.499   0.379
 5120SOL     OW16258   5.448   6.936   5.592
 5120SOL    HW116259   5.531   6.967   5.545
 5120SOL    HW216260   5.458   6.952   5.691
 5121SOL     OW16261   1.391   4.006   6.593
 5121SOL    HW116262   1.393   3.907   6.583
 5121SOL    HW216263   1.450   4.034   6.669
 5122SOL     OW16264   5.031   5.096   4.105
 5122SOL    HW116265   5.057   5.189   4.076
 5122SOL    HW216266   4.936   5.078   4.080
 5123SOL     OW16267   5.213   3.171   1.643
 5123SOL    HW116268   5.272   3.128   1.575
 5123SOL    HW216269   5.129   3.204   1.599
 5124SOL     OW16270   2.567   5.856   4.057
 5124SOL    HW116271   2.564   5.900   3.967
 5124SOL    HW216272   2.514   5.909   4.122
 5125SOL     OW16273   0.107   1.824   3.692
 5125SOL    HW116274   0.147   1.765   3.623
 5125SOL    HW216275   0.177   1.885   3.730
 5126SOL     OW16276   2.343   0.248   0.371
 5126SOL    HW116277   2.282   0.192   0.315
 5126SOL    HW216278   2.428   0.264   0.322
 5127SOL     OW16279   1.585   5.300   6.912
 5127SOL    HW116280   1.676   5.325   6.946
 5127SOL    HW216281   1.594   5.259   6.821
 5128SOL     OW16282   6.209   6.857   1.681
 5128SOL    HW116283   6.194   6.827   1.775
 5128SOL    HW216284   6.301   6.895   1.671
 5129SOL     OW16285   5.707   6.761   1.258
 5129SOL    HW116286   5.805   6.771   1.244
 5129SOL    HW216287   5.668   6.849   1.288
 5130SOL     OW16288   6.652   4.885   3.010
 5130SOL    HW116289   6.721   4.841   3.067
 5130SOL    HW216290   6.697   4.950   2.948
 5131SOL     OW16291   2.518   2.538   3.167
 5131SOL    HW116292   2.505   2.578   3.077
 5131SOL    HW216293   2.555   2.445   3.157
 5132SOL     OW16294   2.835   5.563   5.126
 5132SOL    HW116295   2.825   5.620   5.208
 5132SOL    HW216296   2.933   5.550   5.107
 5133SOL     OW16297   3.768   6.704   6.379
 5133SOL    HW116298   3.839   6.652   6.331
 5133SOL    HW216299   3.720   6.763   6.314
 5134SOL     OW16300   0.213   3.647   0.479
 5134SOL    HW116301   0.149   3.605   0.544
 5134SOL    HW216302   0.275   3.577   0.444
 5135SOL     OW16303   6.555   1.863   4.628
 5135SOL    HW116304   6.542   1.768   4.602
 5135SOL    HW216305   6.632   1.902   4.577
 5136SOL     OW16306   4.152   1.423   4.213
 5136SOL    HW116307   4.127   1.515   4.244
 5136SOL    HW216308   4.184   1.427   4.119
 5137SOL     OW16309   3.519   4.435   6.176
 5137SOL    HW116310   3.610   4.468   6.204
 5137SOL    HW216311   3.528   4.382   6.092
 5138SOL     OW16312   2.499   3.773   5.937
 5138SOL    HW116313   2.599   3.773   5.941
 5138SOL    HW216314   2.463   3.851   5.987
 5139SOL     OW16315   0.436   0.446   3.468
 5139SOL    HW116316   0.423   0.434   3.566
 5139SOL    HW216317   0.534   0.445   3.447
 5140SOL     OW16318   3.108   2.735   1.401
 5140SOL    HW116319   3.139   2.674   1.327
 5140SOL    HW216320   3.127   2.830   1.375
 5141SOL     OW16321   6.365   3.299   6.925
 5141SOL    HW116322   6.407   3.209   6.940
 5141SOL    HW216323   6.303   3.319   7.001
 5142SOL     OW16324   5.510   3.386   4.255
 5142SOL    HW116325   5.595   3.372   4.307
 5142SOL    HW216326   5.480   3.298   4.216
 5143SOL     OW16327   6.831   5.565   4.368
 5143SOL    HW116328   6.761   5.494   4.375
 5143SOL    HW216329   6.874   5.560   4.278
 5144SOL     OW16330   1.233   1.132   5.265
 5144SOL    HW116331   1.192   1.094   5.348
 5144SOL    HW216332   1.332   1.132   5.274
 5145SOL     OW16333   2.943   5.416   5.984
 5145SOL    HW116334   2.883   5.387   6.059
 5145SOL    HW216335   3.037   5.423   6.018
 5146SOL     OW16336   2.908   4.969   0.074
 5146SOL    HW116337   2.878   4.913   0.151
 5146SOL    HW216338   2.829   5.005   0.025
 5147SOL     OW16339   6.147   4.543   6.842
 5147SOL    HW116340   6.171   4.603   6.765
 5147SOL    HW216341   6.050   4.557   6.865
 5148SOL     OW16342   0.578   5.896   1.426
 5148SOL    HW116343   0.530   5.833   1.366
 5148SOL    HW216344   0.638   5.846   1.487
 5149SOL     OW16345   6.857   1.243   4.692
 5149SOL    HW116346   6.824   1.336   4.680
 5149SOL    HW216347   6.956   1.244   4.707
 5150SOL     OW16348   1.702   5.038   4.524
 5150SOL    HW116349   1.724   5.104   4.595
 5150SOL    HW216350   1.632   4.976   4.556
 5151SOL     OW16351   4.454   0.760   6.713
 5151SOL    HW116352   4.487   0.830   6.777
 5151SOL    HW216353   4.416   0.804   6.632
 5152SOL     OW16354   0.539   4.996   0.121
 5152SOL    HW116355   0.464   4.961   0.065
 5152SOL    HW216356   0.513   4.993   0.217
 5153SOL     OW16357   1.648   1.991   0.786
 5153SOL    HW116358   1.680   1.914   0.842
 5153SOL    HW216359   1.714   2.066   0.793
 5154SOL     OW16360   1.931   2.864   4.693
 5154SOL    HW116361   1.899   2.957   4.677
 5154SOL    HW216362   2.031   2.861   4.683
 5155SOL     OW16363   3.041   0.670   2.527
 5155SOL    HW116364   3.058   0.671   2.429
 5155SOL    HW216365   3.123   0.701   2.576
 5156SOL     OW16366   5.930   2.672   5.024
 5156SOL    HW116367   5.869   2.712   5.092
 5156SOL    HW216368   5.947   2.576   5.047
 5157SOL     OW16369   5.299   3.121   3.559
 5157SOL    HW116370   5.372   3.133   3.626
 5157SOL    HW216371   5.335   3.138   3.467
 5158SOL     OW16372   4.447   1.765   1.609
 5158SOL    HW116373   4.426   1.811   1.695
 5158SOL    HW216374   4.528   1.708   1.621
 5159SOL     OW16375   1.641   3.202   3.808
 5159SOL    HW116376   1.723   3.144   3.816
 5159SOL    HW216377   1.564   3.146   3.776
 5160SOL     OW16378   1.790   3.069   4.121
 5160SOL    HW116379   1.721   3.098   4.186
 5160SOL    HW216380   1.872   3.125   4.132
 5161SOL     OW16381   1.456   2.999   5.944
 5161SOL    HW116382   1.478   2.922   6.004
 5161SOL    HW216383   1.541   3.044   5.916
 5162SOL     OW16384   6.704   6.373   4.224
 5162SOL    HW116385   6.674   6.279   4.213
 5162SOL    HW216386   6.801   6.381   4.202
 5163SOL     OW16387   5.780   3.791   0.784
 5163SOL    HW116388   5.860   3.731   0.790
 5163SOL    HW216389   5.697   3.737   0.797
 5164SOL     OW16390   5.919   4.484   6.097
 5164SOL    HW116391   5.931   4.438   6.185
 5164SOL    HW216392   5.923   4.417   6.023
 5165SOL     OW16393   6.530   4.193   4.402
 5165SOL    HW116394   6.535   4.099   4.370
 5165SOL    HW216395   6.435   4.223   4.402
 5166SOL     OW16396   1.403   6.625   1.825
 5166SOL    HW116397   1.474   6.661   1.765
 5166SOL    HW216398   1.327   6.590   1.770
 5167SOL     OW16399   0.445   6.584   5.863
 5167SOL    HW116400   0.413   6.490   5.850
 5167SOL    HW216401   0.496   6.613   5.782
 5168SOL     OW16402   4.210   2.257   2.943
 5168SOL    HW116403   4.205   2.304   2.855
 5168SOL    HW216404   4.303   2.224   2.958
 5169SOL     OW16405   3.562   4.286   5.928
 5169SOL    HW116406   3.510   4.202   5.912
 5169SOL    HW216407   3.646   4.264   5.978
 5170SOL     OW16408   5.414   3.847   4.836
 5170SOL    HW116409   5.395   3.864   4.740
 5170SOL    HW216410   5.398   3.750   4.857
 5171SOL     OW16411   2.690   4.712   4.572
 5171SOL    HW116412   2.689   4.625   4.523
 5171SOL    HW216413   2.771   4.764   4.546
 5172SOL     OW16414   1.051   5.319   1.666
 5172SOL    HW116415   1.076   5.246   1.602
 5172SOL    HW216416   1.131   5.376   1.684
 5173SOL     OW16417   5.609   3.476   5.853
 5173SOL    HW116418   5.575   3.407   5.916
 5173SOL    HW216419   5.538   3.498   5.786
 5174SOL     OW16420   1.085   4.603   6.046
 5174SOL    HW116421   1.054   4.631   6.137
 5174SOL    HW216422   1.077   4.504   6.037
 5175SOL     OW16423   0.312   4.764   6.478
 5175SOL    HW116424   0.265   4.785   6.392
 5175SOL    HW216425   0.366   4.680   6.467
 5176SOL     OW16426   5.492   3.487   0.411
 5176SOL    HW116427   5.502   3.586   0.404
 5176SOL    HW216428   5.427   3.465   0.483
 5177SOL     OW16429   5.358   0.113   6.585
 5177SOL    HW116430   5.298   0.066   6.520
 5177SOL    HW216431   5.453   0.104   6.555
 5178SOL     OW16432   2.420   2.490   2.081
 5178SOL    HW116433   2.393   2.395   2.098
 5178SOL    HW216434   2.377   2.521   1.996
 5179SOL     OW16435   3.269   6.064   5.978
 5179SOL    HW116436   3.254   6.048   5.881
 5179SOL    HW216437   3.311   5.984   6.020
 5180SOL     OW16438   3.048   2.034   1.329
 5180SOL    HW116439   3.014   2.071   1.243
 5180SOL    HW216440   3.125   2.090   1.361
 5181SOL     OW16441   4.068   6.301   2.559
 5181SOL    HW116442   4.124   6.321   2.479
 5181SOL    HW216443   4.050   6.203   2.564
 5182SOL     OW16444   5.089   4.578   1.828
 5182SOL    HW116445   5.132   4.589   1.918
 5182SOL    HW216446   5.108   4.486   1.793
 5183SOL     OW16447   4.223   0.282   2.304
 5183SOL    HW116448   4.247   0.222   2.380
 5183SOL    HW216449   4.229   0.377   2.334
 5184SOL     OW16450   1.052   1.165   3.126
 5184SOL    HW116451   0.988   1.154   3.202
 5184SOL    HW216452   1.008   1.138   3.041
 5185SOL     OW16453   3.839   0.715   2.489
 5185SOL    HW116454   3.823   0.734   2.586
 5185SOL    HW216455   3.757   0.738   2.436
 5186SOL     OW16456   6.287   4.768   0.488
 5186SOL    HW116457   6.359   4.700   0.471
 5186SOL    HW216458   6.291   4.797   0.583
 5187SOL     OW16459   5.068   1.887   3.751
 5187SOL    HW116460   5.074   1.886   3.652
 5187SOL    HW216461   5.082   1.980   3.785
 5188SOL     OW16462   1.086   3.919   5.778
 5188SOL    HW116463   1.156   3.954   5.716
 5188SOL    HW216464   1.117   3.931   5.872
 5189SOL     OW16465   4.609   5.609   6.440
 5189SOL    HW116466   4.511   5.616   6.421
 5189SOL    HW216467   4.623   5.564   6.528
 5190SOL     OW16468   1.352   2.441   3.521
 5190SOL    HW116469   1.419   2.473   3.588
 5190SOL    HW216470   1.399   2.404   3.441
 5191SOL     OW16471   3.582   6.920   1.774
 5191SOL    HW116472   3.591   6.927   1.873
 5191SOL    HW216473   3.558   7.009   1.736
 5192SOL     OW16474   6.265   5.157   2.575
 5192SOL    HW116475   6.170   5.131   2.590
 5192SOL    HW216476   6.288   5.233   2.635
 5193SOL     OW16477   4.838   3.873   2.649
 5193SOL    HW116478   4.838   3.825   2.561
 5193SOL    HW216479   4.923   3.924   2.659
 5194SOL     OW16480   6.108   0.849   5.471
 5194SOL    HW116481   6.085   0.942   5.496
 5194SOL    HW216482   6.175   0.850   5.396
 5195SOL     OW16483   6.432   5.976   6.199
 5195SOL    HW116484   6.508   6.011   6.144
 5195SOL    HW216485   6.382   5.907   6.147
 5196SOL     OW16486   0.337   3.706   1.975
 5196SOL    HW116487   0.374   3.634   1.917
 5196SOL    HW216488   0.240   3.689   1.993
 5197SOL     OW16489   3.299   6.000   4.840
 5197SOL    HW116490   3.219   5.946   4.815
 5197SOL    HW216491   3.382   5.947   4.822
 5198SOL     OW16492   4.424   6.758   5.179
 5198SOL    HW116493   4.467   6.681   5.227
 5198SOL    HW216494   4.329   6.767   5.209
 5199SOL     OW16495   1.362   4.901   1.889
 5199SOL    HW116496   1.394   4.994   1.903
 5199SOL    HW216497   1.262   4.901   1.884
 5200SOL     OW16498   6.874   0.545   5.176
 5200SOL    HW116499   6.831   0.607   5.241
 5200SOL    HW216500   6.958   0.587   5.140
 5201SOL     OW16501   6.690   5.267   4.324
 5201SOL    HW116502   6.767   5.203   4.324
 5201SOL    HW216503   6.622   5.237   4.258
 5202SOL     OW16504   3.892   3.048   6.218
 5202SOL    HW116505   3.923   3.141   6.201
 5202SOL    HW216506   3.970   2.989   6.236
 5203SOL     OW16507   1.989   0.134   0.132
 5203SOL    HW116508   1.982   0.164   0.227
 5203SOL    HW216509   1.907   0.162   0.082
 5204SOL     OW16510   3.204   0.635   0.613
 5204SOL    HW116511   3.240   0.654   0.521
 5204SOL    HW216512   3.105   0.641   0.612
 5205SOL     OW16513   0.342   5.585   0.733
 5205SOL    HW116514   0.427   5.621   0.696
 5205SOL    HW216515   0.269   5.653   0.726
 5206SOL     OW16516   1.155   4.573   4.263
 5206SOL    HW116517   1.119   4.660   4.296
 5206SOL    HW216518   1.211   4.530   4.334
 5207SOL     OW16519   0.117   0.158   3.491
 5207SOL    HW116520   0.139   0.067   3.526
 5207SOL    HW216521   0.179   0.225   3.532
 5208SOL     OW16522   4.951   2.044   0.493
 5208SOL    HW116523   5.007   2.108   0.546
 5208SOL    HW216524   4.858   2.079   0.485
 5209SOL     OW16525   6.019   6.168   2.498
 5209SOL    HW116526   5.960   6.135   2.424
 5209SOL    HW216527   6.043   6.264   2.481
 5210SOL     OW16528   5.429   4.373   6.847
 5210SOL    HW116529   5.376   4.422   6.778
 5210SOL    HW216530   5.525   4.369   6.818
 5211SOL     OW16531   4.945   2.891   4.423
 5211SOL    HW116532   5.029   2.859   4.467
 5211SOL    HW216533   4.871   2.892   4.490
 5212SOL     OW16534   1.032   3.608   0.597
 5212SOL    HW116535   1.030   3.530   0.659
 5212SOL    HW216536   1.042   3.692   0.651
 5213SOL     OW16537   4.072   3.533   2.832
 5213SOL    HW116538   4.008   3.583   2.773
 5213SOL    HW216539   4.085   3.441   2.796
 5214SOL     OW16540   5.229   3.451   5.522
 5214SOL    HW116541   5.223   3.473   5.424
 5214SOL    HW216542   5.206   3.531   5.576
 5215SOL     OW16543   0.322   3.625   4.911
 5215SOL    HW116544   0.348   3.533   4.881
 5215SOL    HW216545   0.384   3.655   4.984
 5216SOL     OW16546   5.249   5.273   1.265
 5216SOL    HW116547   5.150   5.267   1.251
 5216SOL    HW216548   5.269   5.266   1.363
 5217SOL     OW16549   4.397   6.159   3.377
 5217SOL    HW116550   4.451   6.230   3.423
 5217SOL    HW216551   4.334   6.118   3.442
 5218SOL     OW16552   0.877   6.763   1.236
 5218SOL    HW116553   0.894   6.850   1.283
 5218SOL    HW216554   0.881   6.778   1.137
 5219SOL     OW16555   3.374   1.303   4.774
 5219SOL    HW116556   3.365   1.291   4.675
 5219SOL    HW216557   3.468   1.329   4.796
 5220SOL     OW16558   2.188   4.808   4.218
 5220SOL    HW116559   2.174   4.709   4.218
 5220SOL    HW216560   2.278   4.829   4.257
 5221SOL     OW16561   6.238   5.686   1.034
 5221SOL    HW116562   6.299   5.719   1.107
 5221SOL    HW216563   6.292   5.644   0.961
 5222SOL     OW16564   6.066   3.961   1.018
 5222SOL    HW116565   6.005   3.887   1.047
 5222SOL    HW216566   6.067   4.032   1.088
 5223SOL     OW16567   7.012   3.259   0.924
 5223SOL    HW116568   0.034   3.283   0.838
 5223SOL    HW216569   6.971   3.168   0.915
 5224SOL     OW16570   0.387   2.292   4.968
 5224SOL    HW116571   0.408   2.379   5.013
 5224SOL    HW216572   0.433   2.289   4.880
 5225SOL     OW16573   0.026   1.847   4.722
 5225SOL    HW116574   0.103   1.821   4.781
 5225SOL    HW216575   6.972   1.873   4.778
 5226SOL     OW16576   0.767   6.709   3.745
 5226SOL    HW116577   0.757   6.729   3.843
 5226SOL    HW216578   0.755   6.611   3.730
 5227SOL     OW16579   6.998   2.876   5.153
 5227SOL    HW116580   7.011   2.829   5.241
 5227SOL    HW216581   6.904   2.861   5.121
 5228SOL     OW16582   1.020   1.560   5.985
 5228SOL    HW116583   0.981   1.470   5.964
 5228SOL    HW216584   1.119   1.556   5.979
 5229SOL     OW16585   3.270   1.369   5.963
 5229SOL    HW116586   3.196   1.312   5.929
 5229SOL    HW216587   3.258   1.463   5.932
 5230SOL     OW16588   6.816   6.580   2.179
 5230SOL    HW116589   6.805   6.543   2.271
 5230SOL    HW216590   6.867   6.514   2.123
 5231SOL     OW16591   6.792   2.009   1.358
 5231SOL    HW116592   6.872   1.993   1.300
 5231SOL    HW216593   6.783   2.107   1.376
 5232SOL     OW16594   1.517   2.896   5.501
 5232SOL    HW116595   1.586   2.942   5.445
 5232SOL    HW216596   1.464   2.965   5.550
 5233SOL     OW16597   2.734   0.270   3.033
 5233SOL    HW116598   2.743   0.305   2.940
 5233SOL    HW216599   2.755   0.172   3.035
 5234SOL     OW16600   1.756   2.040   6.987
 5234SOL    HW116601   1.843   1.994   7.004
 5234SOL    HW216602   1.697   1.981   6.932
 5235SOL     OW16603   2.403   2.656   1.427
 5235SOL    HW116604   2.348   2.573   1.414
 5235SOL    HW216605   2.372   2.726   1.363
 5236SOL     OW16606   3.408   5.448   1.844
 5236SOL    HW116607   3.472   5.520   1.868
 5236SOL    HW216608   3.390   5.450   1.746
 5237SOL     OW16609   1.605   2.021   2.648
 5237SOL    HW116610   1.685   2.080   2.635
 5237SOL    HW216611   1.559   2.009   2.560
 5238SOL     OW16612   0.784   6.448   2.816
 5238SOL    HW116613   0.685   6.435   2.816
 5238SOL    HW216614   0.819   6.439   2.723
 5239SOL     OW16615   2.357   3.789   0.970
 5239SOL    HW116616   2.367   3.756   0.876
 5239SOL    HW216617   2.298   3.727   1.021
 5240SOL     OW16618   1.970   3.490   5.634
 5240SOL    HW116619   2.063   3.487   5.595
 5240SOL    HW216620   1.931   3.581   5.618
 5241SOL     OW16621   0.434   5.589   2.149
 5241SOL    HW116622   0.526   5.603   2.114
 5241SOL    HW216623   0.423   5.496   2.182
 5242SOL     OW16624   4.586   0.533   0.088
 5242SOL    HW116625   4.630   0.567   0.004
 5242SOL    HW216626   4.501   0.584   0.103
 5243SOL     OW16627   2.259   6.899   2.197
 5243SOL    HW116628   2.317   6.883   2.117
 5243SOL    HW216629   2.293   6.979   2.246
 5244SOL     OW16630   4.530   2.274   6.862
 5244SOL    HW116631   4.498   2.337   6.933
 5244SOL    HW216632   4.451   2.229   6.820
 5245SOL     OW16633   3.801   3.712   1.681
 5245SOL    HW116634   3.803   3.806   1.715
 5245SOL    HW216635   3.709   3.675   1.691
 5246SOL     OW16636   6.234   3.527   0.345
 5246SOL    HW116637   6.228   3.627   0.347
 5246SOL    HW216638   6.250   3.493   0.438
 5247SOL     OW16639   4.216   2.060   6.377
 5247SOL    HW116640   4.202   2.063   6.476
 5247SOL    HW216641   4.135   2.094   6.331
 5248SOL     OW16642   6.512   1.075   3.286
 5248SOL    HW116643   6.579   1.007   3.255
 5248SOL    HW216644   6.508   1.150   3.220
 5249SOL     OW16645   0.287   4.836   0.017
 5249SOL    HW116646   0.253   4.794   6.957
 5249SOL    HW216647   0.245   4.926   0.028
 5250SOL     OW16648   1.778   5.448   1.168
 5250SOL    HW116649   1.729   5.369   1.131
 5250SOL    HW216650   1.713   5.511   1.210
 5251SOL     OW16651   0.814   4.644   0.436
 5251SOL    HW116652   0.865   4.569   0.395
 5251SOL    HW216653   0.819   4.638   0.536
 5252SOL     OW16654   4.279   6.717   2.525
 5252SOL    HW116655   4.180   6.708   2.514
 5252SOL    HW216656   4.325   6.643   2.476
 5253SOL     OW16657   6.883   6.093   4.741
 5253SOL    HW116658   6.957   6.152   4.773
 5253SOL    HW216659   6.821   6.073   4.817
 5254SOL     OW16660   5.676   6.877   3.867
 5254SOL    HW116661   5.738   6.943   3.908
 5254SOL    HW216662   5.635   6.916   3.785
 5255SOL     OW16663   6.141   1.770   5.430
 5255SOL    HW116664   6.078   1.831   5.477
 5255SOL    HW216665   6.117   1.765   5.333
 5256SOL     OW16666   0.231   1.630   2.392
 5256SOL    HW116667   0.222   1.531   2.400
 5256SOL    HW216668   0.312   1.660   2.443
 5257SOL     OW16669   3.827   0.762   6.257
 5257SOL    HW116670   3.865   0.797   6.170
 5257SOL    HW216671   3.816   0.839   6.320
 5258SOL     OW16672   4.124   1.528   3.111
 5258SOL    HW116673   4.068   1.556   3.189
 5258SOL    HW216674   4.181   1.605   3.082
 5259SOL     OW16675   6.592   5.319   3.458
 5259SOL    HW116676   6.615   5.399   3.513
 5259SOL    HW216677   6.549   5.250   3.515
 5260SOL     OW16678   2.810   1.103   0.848
 5260SOL    HW116679   2.755   1.172   0.801
 5260SOL    HW216680   2.778   1.094   0.943
 5261SOL     OW16681   5.524   4.020   6.850
 5261SOL    HW116682   5.566   4.078   6.920
 5261SOL    HW216683   5.425   4.029   6.854
 5262SOL     OW16684   2.088   0.920   2.552
 5262SOL    HW116685   2.018   0.878   2.493
 5262SOL    HW216686   2.106   0.860   2.629
 5263SOL     OW16687   1.069   6.343   2.252
 5263SOL    HW116688   1.069   6.330   2.352
 5263SOL    HW216689   1.157   6.315   2.215
 5264SOL     OW16690   6.197   1.568   2.108
 5264SOL    HW116691   6.257   1.506   2.057
 5264SOL    HW216692   6.106   1.527   2.118
 5265SOL     OW16693   6.257   5.141   4.597
 5265SOL    HW116694   6.315   5.222   4.605
 5265SOL    HW216695   6.219   5.136   4.504
 5266SOL     OW16696   2.116   0.386   0.005
 5266SOL    HW116697   2.066   0.466   0.037
 5266SOL    HW216698   2.055   0.307   7.024
 5267SOL     OW16699   5.413   2.902   4.583
 5267SOL    HW116700   5.449   2.965   4.514
 5267SOL    HW216701   5.489   2.869   4.639
 5268SOL     OW16702   5.489   0.613   6.083
 5268SOL    HW116703   5.523   0.686   6.022
 5268SOL    HW216704   5.389   0.615   6.084
 5269SOL     OW16705   0.610   6.968   4.173
 5269SOL    HW116706   0.672   0.021   4.189
 5269SOL    HW216707   0.646   6.912   4.099
 5270SOL     OW16708   7.023   2.101   5.914
 5270SOL    HW116709   0.017   2.017   5.964
 5270SOL    HW216710   0.083   2.154   5.905
 5271SOL     OW16711   0.384   4.726   3.132
 5271SOL    HW116712   0.369   4.791   3.206
 5271SOL    HW216713   0.335   4.641   3.152
 5272SOL     OW16714   4.722   0.550   0.331
 5272SOL    HW116715   4.665   0.574   0.252
 5272SOL    HW216716   4.672   0.570   0.415
 5273SOL     OW16717   1.467   2.057   2.863
 5273SOL    HW116718   1.510   2.050   2.773
 5273SOL    HW216719   1.536   2.046   2.934
 5274SOL     OW16720   4.716   5.122   1.641
 5274SOL    HW116721   4.639   5.165   1.595
 5274SOL    HW216722   4.763   5.060   1.578
 5275SOL     OW16723   4.476   1.897   6.576
 5275SOL    HW116724   4.380   1.897   6.548
 5275SOL    HW216725   4.534   1.888   6.495
 5276SOL     OW16726   4.402   5.879   1.947
 5276SOL    HW116727   4.413   5.952   1.879
 5276SOL    HW216728   4.491   5.838   1.966
 5277SOL     OW16729   2.465   2.826   1.787
 5277SOL    HW116730   2.521   2.904   1.757
 5277SOL    HW216731   2.516   2.741   1.775
 5278SOL     OW16732   4.422   3.897   1.480
 5278SOL    HW116733   4.445   3.975   1.538
 5278SOL    HW216734   4.467   3.815   1.515
 5279SOL     OW16735   2.466   5.674   2.699
 5279SOL    HW116736   2.501   5.738   2.767
 5279SOL    HW216737   2.497   5.581   2.722
 5280SOL     OW16738   5.080   6.003   4.519
 5280SOL    HW116739   5.022   6.083   4.537
 5280SOL    HW216740   5.080   5.983   4.421
 5281SOL     OW16741   0.113   2.270   1.694
 5281SOL    HW116742   0.016   2.296   1.688
 5281SOL    HW216743   0.124   2.178   1.656
 5282SOL     OW16744   5.068   1.970   2.257
 5282SOL    HW116745   5.007   1.896   2.288
 5282SOL    HW216746   5.064   2.046   2.322
 5283SOL     OW16747   5.255   5.281   6.741
 5283SOL    HW116748   5.200   5.346   6.689
 5283SOL    HW216749   5.269   5.199   6.687
 5284SOL     OW16750   5.818   2.863   3.609
 5284SOL    HW116751   5.731   2.900   3.642
 5284SOL    HW216752   5.852   2.794   3.673
 5285SOL     OW16753   3.264   5.709   2.851
 5285SOL    HW116754   3.239   5.745   2.941
 5285SOL    HW216755   3.340   5.763   2.814
 5286SOL     OW16756   2.228   4.844   2.054
 5286SOL    HW116757   2.131   4.836   2.074
 5286SOL    HW216758   2.258   4.938   2.070
 5287SOL     OW16759   0.755   1.353   1.434
 5287SOL    HW116760   0.725   1.448   1.423
 5287SOL    HW216761   0.695   1.293   1.381
 5288SOL     OW16762   4.348   1.011   0.523
 5288SOL    HW116763   4.361   1.068   0.605
 5288SOL    HW216764   4.286   1.057   0.460
 5289SOL     OW16765   2.181   5.389   1.141
 5289SOL    HW116766   2.139   5.435   1.063
 5289SOL    HW216767   2.111   5.370   1.211
 5290SOL     OW16768   5.152   5.714   0.777
 5290SOL    HW116769   5.200   5.663   0.706
 5290SOL    HW216770   5.214   5.780   0.819
 5291SOL     OW16771   1.578   5.269   5.911
 5291SOL    HW116772   1.497   5.288   5.965
 5291SOL    HW216773   1.569   5.180   5.867
 5292SOL     OW16774   5.321   3.062   6.065
 5292SOL    HW116775   5.360   3.129   6.127
 5292SOL    HW216776   5.241   3.019   6.107
 5293SOL     OW16777   0.943   0.801   4.699
 5293SOL    HW116778   0.968   0.734   4.630
 5293SOL    HW216779   0.891   0.875   4.656
 5294SOL     OW16780   5.159   2.266   5.457
 5294SOL    HW116781   5.212   2.186   5.431
 5294SOL    HW216782   5.061   2.244   5.456
 5295SOL     OW16783   5.837   1.045   2.434
 5295SOL    HW116784   5.764   1.088   2.486
 5295SOL    HW216785   5.826   1.066   2.337
 5296SOL     OW16786   0.829   3.962   0.540
 5296SOL    HW116787   0.745   4.016   0.550
 5296SOL    HW216788   0.816   3.895   0.467
 5297SOL     OW16789   1.770   3.110   1.409
 5297SOL    HW116790   1.781   3.191   1.467
 5297SOL    HW216791   1.844   3.108   1.341
 5298SOL     OW16792   0.983   5.217   1.931
 5298SOL    HW116793   1.000   5.281   1.856
 5298SOL    HW216794   1.067   5.205   1.984
 5299SOL     OW16795   2.965   0.471   1.600
 5299SOL    HW116796   2.905   0.549   1.586
 5299SOL    HW216797   3.010   0.479   1.689
 5300SOL     OW16798   6.662   5.576   3.127
 5300SOL    HW116799   6.680   5.512   3.052
 5300SOL    HW216800   6.586   5.542   3.182
 5301SOL     OW16801   5.138   0.676   0.312
 5301SOL    HW116802   5.237   0.689   0.316
 5301SOL    HW216803   5.092   0.764   0.326
 5302SOL     OW16804   6.388   4.677   3.387
 5302SOL    HW116805   6.341   4.635   3.464
 5302SOL    HW216806   6.475   4.716   3.417
 5303SOL     OW16807   0.463   4.903   3.387
 5303SOL    HW116808   0.531   4.842   3.346
 5303SOL    HW216809   0.491   4.998   3.372
 5304SOL     OW16810   5.366   2.036   5.513
 5304SOL    HW116811   5.320   2.081   5.590
 5304SOL    HW216812   5.389   1.942   5.538
 5305SOL     OW16813   2.694   0.931   2.799
 5305SOL    HW116814   2.603   0.967   2.817
 5305SOL    HW216815   2.690   0.870   2.720
 5306SOL     OW16816   2.510   0.240   4.875
 5306SOL    HW116817   2.539   0.244   4.971
 5306SOL    HW216818   2.410   0.249   4.871
 5307SOL     OW16819   4.494   6.917   6.551
 5307SOL    HW116820   4.400   6.884   6.551
 5307SOL    HW216821   4.528   6.922   6.457
 5308SOL     OW16822   6.865   1.134   3.035
 5308SOL    HW116823   6.921   1.091   2.964
 5308SOL    HW216824   6.858   1.071   3.113
 5309SOL     OW16825   3.576   3.560   4.051
 5309SOL    HW116826   3.654   3.577   4.111
 5309SOL    HW216827   3.544   3.466   4.064
 5310SOL     OW16828   5.621   1.867   0.542
 5310SOL    HW116829   5.572   1.785   0.571
 5310SOL    HW216830   5.711   1.870   0.585
 5311SOL     OW16831   1.925   5.634   0.035
 5311SOL    HW116832   1.970   5.554   0.074
 5311SOL    HW216833   1.921   5.707   0.103
 5312SOL     OW16834   0.695   2.577   1.951
 5312SOL    HW116835   0.677   2.657   2.008
 5312SOL    HW216836   0.652   2.590   1.861
 5313SOL     OW16837   1.422   5.745   6.935
 5313SOL    HW116838   1.481   5.700   7.001
 5313SOL    HW216839   1.434   5.844   6.941
 5314SOL     OW16840   3.452   5.107   0.957
 5314SOL    HW116841   3.384   5.100   1.030
 5314SOL    HW216842   3.429   5.042   0.884
 5315SOL     OW16843   5.213   3.358   2.484
 5315SOL    HW116844   5.225   3.299   2.565
 5315SOL    HW216845   5.128   3.335   2.438
 5316SOL     OW16846   6.393   5.264   5.100
 5316SOL    HW116847   6.370   5.272   5.004
 5316SOL    HW216848   6.397   5.355   5.142
 5317SOL     OW16849   5.506   5.766   2.776
 5317SOL    HW116850   5.485   5.792   2.682
 5317SOL    HW216851   5.523   5.667   2.780
 5318SOL     OW16852   0.395   2.502   5.133
 5318SOL    HW116853   0.305   2.524   5.169
 5318SOL    HW216854   0.464   2.520   5.203
 5319SOL     OW16855   4.001   6.813   1.577
 5319SOL    HW116856   4.067   6.885   1.598
 5319SOL    HW216857   4.033   6.726   1.615
 5320SOL     OW16858   5.752   3.742   6.044
 5320SOL    HW116859   5.719   3.736   6.138
 5320SOL    HW216860   5.736   3.655   5.997
 5321SOL     OW16861   1.655   5.311   6.358
 5321SOL    HW116862   1.736   5.360   6.389
 5321SOL    HW216863   1.680   5.219   6.331
 5322SOL     OW16864   3.405   6.285   0.404
 5322SOL    HW116865   3.347   6.265   0.325
 5322SOL    HW216866   3.491   6.326   0.373
 5323SOL     OW16867   6.101   3.195   0.147
 5323SOL    HW116868   6.021   3.162   0.197
 5323SOL    HW216869   6.100   3.295   0.146
 5324SOL     OW16870   3.945   2.929   1.776
 5324SOL    HW116871   3.861   2.968   1.814
 5324SOL    HW216872   3.926   2.836   1.743
 5325SOL     OW16873   4.877   5.638   4.354
 5325SOL    HW116874   4.906   5.563   4.294
 5325SOL    HW216875   4.951   5.660   4.417
 5326SOL     OW16876   6.989   0.169   2.231
 5326SOL    HW116877   6.949   0.104   2.295
 5326SOL    HW216878   6.956   0.151   2.138
 5327SOL     OW16879   6.859   0.634   4.862
 5327SOL    HW116880   6.935   0.623   4.926
 5327SOL    HW216881   6.887   0.694   4.787
 5328SOL     OW16882   3.699   4.835   0.826
 5328SOL    HW116883   3.627   4.890   0.869
 5328SOL    HW216884   3.780   4.891   0.812
 5329SOL     OW16885   6.527   5.353   0.189
 5329SOL    HW116886   6.612   5.390   0.225
 5329SOL    HW216887   6.474   5.312   0.264
 5330SOL     OW16888   3.830   5.007   0.324
 5330SOL    HW116889   3.835   5.095   0.371
 5330SOL    HW216890   3.784   5.019   0.236
 5331SOL     OW16891   4.072   2.445   6.506
 5331SOL    HW116892   4.123   2.406   6.430
 5331SOL    HW216893   4.120   2.526   6.541
 5332SOL     OW16894   6.364   3.082   0.219
 5332SOL    HW116895   6.275   3.119   0.193
 5332SOL    HW216896   6.355   3.027   0.302
 5333SOL     OW16897   1.373   2.097   3.929
 5333SOL    HW116898   1.343   2.002   3.926
 5333SOL    HW216899   1.358   2.140   3.841
 5334SOL     OW16900   3.260   5.826   1.807
 5334SOL    HW116901   3.218   5.890   1.872
 5334SOL    HW216902   3.326   5.875   1.750
 5335SOL     OW16903   0.352   4.174   1.412
 5335SOL    HW116904   0.378   4.266   1.440
 5335SOL    HW216905   0.261   4.176   1.371
 5336SOL     OW16906   1.529   2.944   4.845
 5336SOL    HW116907   1.509   3.038   4.818
 5336SOL    HW216908   1.613   2.942   4.899
 5337SOL     OW16909   6.269   5.134   0.670
 5337SOL    HW116910   6.290   5.037   0.654
 5337SOL    HW216911   6.354   5.186   0.675
 5338SOL     OW16912   6.196   3.535   0.968
 5338SOL    HW116913   6.195   3.574   1.060
 5338SOL    HW216914   6.266   3.581   0.913
 5339SOL     OW16915   5.442   3.698   2.816
 5339SOL    HW116916   5.513   3.759   2.780
 5339SOL    HW216917   5.361   3.705   2.759
 5340SOL     OW16918   4.894   3.918   2.335
 5340SOL    HW116919   4.859   3.892   2.245
 5340SOL    HW216920   4.952   3.845   2.370
 5341SOL     OW16921   4.407   4.662   3.872
 5341SOL    HW116922   4.423   4.730   3.801
 5341SOL    HW216923   4.418   4.570   3.833
 5342SOL     OW16924   6.731   5.896   4.956
 5342SOL    HW116925   6.812   5.870   5.010
 5342SOL    HW216926   6.671   5.817   4.948
 5343SOL     OW16927   3.355   2.910   6.346
 5343SOL    HW116928   3.270   2.929   6.396
 5343SOL    HW216929   3.427   2.884   6.411
 5344SOL     OW16930   0.637   1.354   6.240
 5344SOL    HW116931   0.717   1.363   6.299
 5344SOL    HW216932   0.579   1.279   6.273
 5345SOL     OW16933   4.714   1.363   6.757
 5345SOL    HW116934   4.690   1.266   6.747
 5345SOL    HW216935   4.636   1.412   6.796
 5346SOL     OW16936   2.748   6.203   3.318
 5346SOL    HW116937   2.730   6.297   3.348
 5346SOL    HW216938   2.678   6.142   3.356
 5347SOL     OW16939   5.587   1.836   4.006
 5347SOL    HW116940   5.668   1.814   4.062
 5347SOL    HW216941   5.553   1.752   3.963
 5348SOL     OW16942   5.119   2.533   4.343
 5348SOL    HW116943   5.197   2.592   4.321
 5348SOL    HW216944   5.034   2.582   4.328
 5349SOL     OW16945   0.959   3.664   1.442
 5349SOL    HW116946   0.882   3.650   1.504
 5349SOL    HW216947   0.929   3.719   1.365
 5350SOL     OW16948   0.911   6.045   6.638
 5350SOL    HW116949   0.862   6.068   6.722
 5350SOL    HW216950   1.005   6.021   6.659
 5351SOL     OW16951   6.403   6.282   3.419
 5351SOL    HW116952   6.327   6.346   3.411
 5351SOL    HW216953   6.479   6.314   3.361
 5352SOL     OW16954   1.237   3.179   5.946
 5352SOL    HW116955   1.313   3.116   5.929
 5352SOL    HW216956   1.245   3.216   6.039
 5353SOL     OW16957   3.910   4.955   3.496
 5353SOL    HW116958   3.963   4.981   3.576
 5353SOL    HW216959   3.821   4.920   3.524
 5354SOL     OW16960   4.009   5.835   1.054
 5354SOL    HW116961   3.978   5.819   1.147
 5354SOL    HW216962   4.044   5.928   1.046
 5355SOL     OW16963   5.274   4.546   5.180
 5355SOL    HW116964   5.201   4.511   5.122
 5355SOL    HW216965   5.266   4.504   5.271
 5356SOL     OW16966   0.013   5.363   0.811
 5356SOL    HW116967   0.011   5.463   0.808
 5356SOL    HW216968   0.098   5.330   0.770
 5357SOL     OW16969   6.373   3.611   2.948
 5357SOL    HW116970   6.283   3.640   2.915
 5357SOL    HW216971   6.375   3.618   3.048
 5358SOL     OW16972   3.994   1.338   6.907
 5358SOL    HW116973   4.008   1.333   7.006
 5358SOL    HW216974   4.082   1.353   6.862
 5359SOL     OW16975   3.327   2.152   6.412
 5359SOL    HW116976   3.345   2.249   6.422
 5359SOL    HW216977   3.266   2.122   6.485
 5360SOL     OW16978   5.593   4.751   4.175
 5360SOL    HW116979   5.652   4.675   4.200
 5360SOL    HW216980   5.500   4.717   4.157
 5361SOL     OW16981   1.449   5.433   2.175
 5361SOL    HW116982   1.406   5.378   2.247
 5361SOL    HW216983   1.396   5.517   2.162
 5362SOL     OW16984   5.976   1.401   2.491
 5362SOL    HW116985   6.066   1.376   2.456
 5362SOL    HW216986   5.974   1.389   2.590
 5363SOL     OW16987   5.966   5.144   3.866
 5363SOL    HW116988   5.927   5.234   3.847
 5363SOL    HW216989   5.922   5.106   3.948
 5364SOL     OW16990   4.461   1.549   2.879
 5364SOL    HW116991   4.559   1.565   2.887
 5364SOL    HW216992   4.445   1.470   2.820
 5365SOL     OW16993   3.044   3.471   4.282
 5365SOL    HW116994   3.042   3.388   4.339
 5365SOL    HW216995   2.992   3.543   4.327
 5366SOL     OW16996   6.142   6.402   3.230
 5366SOL    HW116997   6.140   6.379   3.133
 5366SOL    HW216998   6.054   6.381   3.271
 5367SOL     OW16999   6.150   5.795   1.303
 5367SOL    HW117000   6.248   5.797   1.321
 5367SOL    HW217001   6.117   5.700   1.310
 5368SOL     OW17002   6.948   5.921   3.914
 5368SOL    HW117003   6.870   5.967   3.871
 5368SOL    HW217004   6.946   5.824   3.892
 5369SOL     OW17005   3.586   5.787   2.653
 5369SOL    HW117006   3.666   5.806   2.709
 5369SOL    HW217007   3.505   5.828   2.696
 5370SOL     OW17008   1.511   3.198   0.578
 5370SOL    HW117009   1.492   3.232   0.486
 5370SOL    HW217010   1.482   3.265   0.645
 5371SOL     OW17011   5.921   5.280   4.783
 5371SOL    HW117012   5.857   5.335   4.837
 5371SOL    HW217013   5.882   5.189   4.768
 5372SOL     OW17014   1.391   6.987   2.984
 5372SOL    HW117015   1.358   0.057   2.997
 5372SOL    HW217016   1.472   6.988   2.927
 5373SOL     OW17017   2.986   1.204   6.824
 5373SOL    HW117018   2.976   1.170   6.918
 5373SOL    HW217019   2.899   1.194   6.775
 5374SOL     OW17020   2.179   4.481   2.103
 5374SOL    HW117021   2.099   4.493   2.162
 5374SOL    HW217022   2.151   4.488   2.007
 5375SOL     OW17023   2.427   4.809   4.788
 5375SOL    HW117024   2.492   4.741   4.755
 5375SOL    HW217025   2.423   4.805   4.888
 5376SOL     OW17026   0.800   6.859   5.872
 5376SOL    HW117027   0.854   6.893   5.795
 5376SOL    HW217028   0.738   6.787   5.840
 5377SOL     OW17029   1.503   0.982   2.669
 5377SOL    HW117030   1.491   1.045   2.592
 5377SOL    HW217031   1.585   1.008   2.721
 5378SOL     OW17032   4.486   0.565   2.660
 5378SOL    HW117033   4.483   0.558   2.560
 5378SOL    HW217034   4.488   0.661   2.687
 5379SOL     OW17035   1.863   2.203   4.914
 5379SOL    HW117036   1.943   2.260   4.895
 5379SOL    HW217037   1.877   2.153   4.999
 5380SOL     OW17038   4.009   6.307   1.806
 5380SOL    HW117039   3.916   6.274   1.787
 5380SOL    HW217040   4.003   6.400   1.843
 5381SOL     OW17041   2.965   0.365   3.961
 5381SOL    HW117042   2.888   0.330   4.014
 5381SOL    HW217043   2.981   0.306   3.881
 5382SOL     OW17044   4.685   0.863   2.218
 5382SOL    HW117045   4.604   0.921   2.222
 5382SOL    HW217046   4.766   0.917   2.242
 5383SOL     OW17047   2.295   2.807   4.383
 5383SOL    HW117048   2.292   2.888   4.325
 5383SOL    HW217049   2.205   2.765   4.386
 5384SOL     OW17050   5.892   5.476   5.207
 5384SOL    HW117051   5.984   5.441   5.217
 5384SOL    HW217052   5.855   5.450   5.118
 5385SOL     OW17053   3.931   3.314   6.150
 5385SOL    HW117054   4.019   3.357   6.169
 5385SOL    HW217055   3.864   3.384   6.127
 5386SOL     OW17056   5.141   4.495   4.320
 5386SOL    HW117057   5.054   4.448   4.306
 5386SOL    HW217058   5.213   4.426   4.333
 5387SOL     OW17059   0.983   1.960   4.136
 5387SOL    HW117060   0.908   1.995   4.193
 5387SOL    HW217061   0.959   1.970   4.040
 5388SOL     OW17062   0.525   6.371   2.829
 5388SOL    HW117063   0.445   6.335   2.875
 5388SOL    HW217064   0.505   6.385   2.732
 5389SOL     OW17065   5.061   1.423   3.645
 5389SOL    HW117066   5.075   1.352   3.575
 5389SOL    HW217067   4.988   1.395   3.707
 5390SOL     OW17068   0.346   3.322   3.448
 5390SOL    HW117069   0.276   3.370   3.501
 5390SOL    HW217070   0.401   3.389   3.399
 5391SOL     OW17071   2.933   2.627   0.616
 5391SOL    HW117072   3.030   2.645   0.601
 5391SOL    HW217073   2.898   2.570   0.542
 5392SOL     OW17074   6.147   0.872   3.746
 5392SOL    HW117075   6.242   0.848   3.723
 5392SOL    HW217076   6.135   0.971   3.739
 5393SOL     OW17077   4.474   2.509   4.561
 5393SOL    HW117078   4.524   2.423   4.553
 5393SOL    HW217079   4.535   2.585   4.539
 5394SOL     OW17080   0.885   1.738   1.273
 5394SOL    HW117081   0.968   1.790   1.255
 5394SOL    HW217082   0.805   1.796   1.253
 5395SOL     OW17083   6.385   1.541   0.624
 5395SOL    HW117084   6.395   1.564   0.527
 5395SOL    HW217085   6.475   1.522   0.663
 5396SOL     OW17086   4.659   4.035   0.544
 5396SOL    HW117087   4.604   4.113   0.514
 5396SOL    HW217088   4.723   4.009   0.472
 5397SOL     OW17089   0.177   0.844   2.900
 5397SOL    HW117090   0.205   0.920   2.842
 5397SOL    HW217091   0.258   0.799   2.937
 5398SOL     OW17092   6.055   2.906   2.372
 5398SOL    HW117093   6.142   2.942   2.406
 5398SOL    HW217094   6.039   2.939   2.279
 5399SOL     OW17095   1.605   1.946   0.183
 5399SOL    HW117096   1.663   1.999   0.121
 5399SOL    HW217097   1.551   1.880   0.130
 5400SOL     OW17098   4.664   3.128   1.469
 5400SOL    HW117099   4.616   3.045   1.499
 5400SOL    HW217100   4.642   3.147   1.374
 5401SOL     OW17101   5.049   2.850   1.057
 5401SOL    HW117102   5.017   2.921   1.121
 5401SOL    HW217103   5.120   2.795   1.101
 5402SOL     OW17104   1.465   6.472   2.225
 5402SOL    HW117105   1.521   6.507   2.150
 5402SOL    HW217106   1.510   6.490   2.312
 5403SOL     OW17107   4.455   2.742   6.966
 5403SOL    HW117108   4.526   2.717   0.007
 5403SOL    HW217109   4.431   2.663   6.911
 5404SOL     OW17110   4.897   0.411   6.885
 5404SOL    HW117111   4.804   0.440   6.862
 5404SOL    HW217112   4.944   0.485   6.933
 5405SOL     OW17113   0.319   4.640   0.208
 5405SOL    HW117114   0.403   4.667   0.256
 5405SOL    HW217115   0.290   4.714   0.148
 5406SOL     OW17116   2.422   1.013   6.326
 5406SOL    HW117117   2.391   1.076   6.254
 5406SOL    HW217118   2.352   0.943   6.341
 5407SOL     OW17119   1.647   0.050   3.368
 5407SOL    HW117120   1.741   0.023   3.347
 5407SOL    HW217121   1.625   0.134   3.320
 5408SOL     OW17122   2.232   1.600   4.580
 5408SOL    HW117123   2.275   1.546   4.507
 5408SOL    HW217124   2.300   1.616   4.652
 5409SOL     OW17125   1.040   2.773   2.018
 5409SOL    HW117126   1.031   2.846   2.085
 5409SOL    HW217127   0.973   2.787   1.945
 5410SOL     OW17128   6.680   2.490   0.468
 5410SOL    HW117129   6.745   2.444   0.529
 5410SOL    HW217130   6.629   2.421   0.417
 5411SOL     OW17131   3.240   5.567   6.915
 5411SOL    HW117132   3.242   5.661   6.950
 5411SOL    HW217133   3.332   5.542   6.884
 5412SOL     OW17134   6.927   2.270   6.223
 5412SOL    HW117135   0.001   2.265   6.202
 5412SOL    HW217136   6.906   2.208   6.298
 5413SOL     OW17137   0.962   5.261   4.659
 5413SOL    HW117138   0.938   5.357   4.674
 5413SOL    HW217139   1.005   5.251   4.570
 5414SOL     OW17140   5.119   4.429   5.831
 5414SOL    HW117141   5.193   4.371   5.867
 5414SOL    HW217142   5.148   4.524   5.830
 5415SOL     OW17143   4.108   0.771   0.611
 5415SOL    HW117144   4.017   0.733   0.595
 5415SOL    HW217145   4.099   0.862   0.653
 5416SOL     OW17146   3.522   5.531   6.816
 5416SOL    HW117147   3.596   5.470   6.846
 5416SOL    HW217148   3.543   5.624   6.845
 5417SOL     OW17149   4.412   6.915   4.026
 5417SOL    HW117150   4.419   6.850   4.101
 5417SOL    HW217151   4.316   6.926   4.000
 5418SOL     OW17152   6.849   3.021   5.616
 5418SOL    HW117153   6.945   3.037   5.592
 5418SOL    HW217154   6.845   2.951   5.688
 5419SOL     OW17155   4.169   1.359   6.062
 5419SOL    HW117156   4.216   1.427   6.119
 5419SOL    HW217157   4.122   1.405   5.986
 5420SOL     OW17158   1.495   2.381   1.947
 5420SOL    HW117159   1.574   2.330   1.913
 5420SOL    HW217160   1.458   2.334   2.028
 5421SOL     OW17161   3.620   5.001   2.192
 5421SOL    HW117162   3.690   4.990   2.121
 5421SOL    HW217163   3.530   4.988   2.151
 5422SOL     OW17164   2.653   5.094   3.948
 5422SOL    HW117165   2.555   5.108   3.960
 5422SOL    HW217166   2.670   5.001   3.915
 5423SOL     OW17167   4.711   6.566   1.609
 5423SOL    HW117168   4.737   6.633   1.679
 5423SOL    HW217169   4.793   6.534   1.562
 5424SOL     OW17170   4.135   3.580   5.474
 5424SOL    HW117171   4.182   3.573   5.386
 5424SOL    HW217172   4.117   3.489   5.510
 5425SOL     OW17173   1.514   4.484   5.387
 5425SOL    HW117174   1.443   4.528   5.333
 5425SOL    HW217175   1.575   4.432   5.326
 5426SOL     OW17176   6.500   5.352   1.159
 5426SOL    HW117177   6.543   5.377   1.246
 5426SOL    HW217178   6.566   5.361   1.085
 5427SOL     OW17179   4.009   3.011   0.133
 5427SOL    HW117180   3.958   3.097   0.136
 5427SOL    HW217181   4.096   3.025   0.086
 5428SOL     OW17182   5.632   5.254   2.951
 5428SOL    HW117183   5.581   5.339   2.940
 5428SOL    HW217184   5.698   5.244   2.877
 5429SOL     OW17185   3.177   0.564   4.544
 5429SOL    HW117186   3.199   0.561   4.641
 5429SOL    HW217187   3.207   0.652   4.506
 5430SOL     OW17188   2.763   3.889   5.220
 5430SOL    HW117189   2.759   3.989   5.226
 5430SOL    HW217190   2.674   3.854   5.192
 5431SOL     OW17191   4.912   4.689   0.481
 5431SOL    HW117192   4.895   4.628   0.559
 5431SOL    HW217193   4.865   4.776   0.497
 5432SOL     OW17194   0.211   5.533   6.461
 5432SOL    HW117195   0.237   5.438   6.475
 5432SOL    HW217196   0.216   5.583   6.548
 5433SOL     OW17197   3.315   0.365   1.170
 5433SOL    HW117198   3.358   0.357   1.260
 5433SOL    HW217199   3.223   0.325   1.173
 5434SOL     OW17200   4.752   0.713   4.366
 5434SOL    HW117201   4.704   0.635   4.325
 5434SOL    HW217202   4.695   0.754   4.437
 5435SOL     OW17203   6.299   4.863   0.744
 5435SOL    HW117204   6.395   4.853   0.717
 5435SOL    HW217205   6.279   4.800   0.818
 5436SOL     OW17206   1.864   4.480   2.946
 5436SOL    HW117207   1.776   4.434   2.959
 5436SOL    HW217208   1.936   4.412   2.935
 5437SOL     OW17209   3.371   6.292   1.265
 5437SOL    HW117210   3.455   6.266   1.217
 5437SOL    HW217211   3.377   6.388   1.294
 5438SOL     OW17212   4.766   5.995   2.280
 5438SOL    HW117213   4.687   5.937   2.267
 5438SOL    HW217214   4.850   5.941   2.270
 5439SOL     OW17215   1.104   4.623   1.708
 5439SOL    HW117216   1.183   4.677   1.680
 5439SOL    HW217217   1.021   4.679   1.697
 5440SOL     OW17218   5.980   6.991   3.753
 5440SOL    HW117219   6.067   7.006   3.800
 5440SOL    HW217220   5.911   0.028   3.790
 5441SOL     OW17221   5.888   2.797   4.589
 5441SOL    HW117222   5.951   2.720   4.586
 5441SOL    HW217223   5.854   2.808   4.682
 5442SOL     OW17224   3.141   0.145   6.602
 5442SOL    HW117225   3.190   0.232   6.605
 5442SOL    HW217226   3.129   0.110   6.695
 5443SOL     OW17227   4.969   0.986   3.286
 5443SOL    HW117228   4.906   0.958   3.359
 5443SOL    HW217229   5.052   0.931   3.291
 5444SOL     OW17230   6.467   0.800   5.899
 5444SOL    HW117231   6.471   0.832   5.994
 5444SOL    HW217232   6.546   0.835   5.849
 5445SOL     OW17233   5.603   5.750   5.774
 5445SOL    HW117234   5.611   5.656   5.806
 5445SOL    HW217235   5.579   5.810   5.851
 5446SOL     OW17236   6.850   4.007   6.090
 5446SOL    HW117237   6.839   4.107   6.090
 5446SOL    HW217238   6.944   3.984   6.067
 5447SOL     OW17239   0.031   1.581   1.653
 5447SOL    HW117240   0.046   1.482   1.649
 5447SOL    HW217241   6.967   1.603   1.613
 5448SOL     OW17242   5.283   4.785   2.825
 5448SOL    HW117243   5.264   4.790   2.727
 5448SOL    HW217244   5.201   4.810   2.876
 5449SOL     OW17245   2.972   1.028   1.875
 5449SOL    HW117246   3.071   1.012   1.868
 5449SOL    HW217247   2.923   0.941   1.871
 5450SOL     OW17248   4.046   5.698   1.562
 5450SOL    HW117249   4.027   5.686   1.659
 5450SOL    HW217250   4.143   5.680   1.544
 5451SOL     OW17251   6.511   7.019   3.278
 5451SOL    HW117252   6.509   6.921   3.300
 5451SOL    HW217253   6.605   0.026   3.274
 5452SOL     OW17254   2.158   3.836   2.368
 5452SOL    HW117255   2.171   3.917   2.310
 5452SOL    HW217256   2.140   3.865   2.462
 5453SOL     OW17257   6.238   4.127   3.731
 5453SOL    HW117258   6.236   4.039   3.778
 5453SOL    HW217259   6.161   4.132   3.667
 5454SOL     OW17260   6.583   3.918   3.414
 5454SOL    HW117261   6.567   3.852   3.340
 5454SOL    HW217262   6.661   3.976   3.389
 5455SOL     OW17263   2.490   1.948   3.780
 5455SOL    HW117264   2.465   1.995   3.864
 5455SOL    HW217265   2.506   2.015   3.708
 5456SOL     OW17266   4.874   2.365   0.790
 5456SOL    HW117267   4.918   2.286   0.748
 5456SOL    HW217268   4.927   2.395   0.869
 5457SOL     OW17269   5.060   1.434   6.490
 5457SOL    HW117270   5.104   1.354   6.532
 5457SOL    HW217271   5.108   1.517   6.520
 5458SOL     OW17272   5.706   3.120   0.537
 5458SOL    HW117273   5.754   3.154   0.456
 5458SOL    HW217274   5.694   3.194   0.603
 5459SOL     OW17275   1.795   3.556   5.138
 5459SOL    HW117276   1.804   3.541   5.236
 5459SOL    HW217277   1.875   3.518   5.091
 5460SOL     OW17278   0.842   0.922   1.441
 5460SOL    HW117279   0.863   0.922   1.538
 5460SOL    HW217280   0.926   0.908   1.388
 5461SOL     OW17281   6.484   0.856   5.495
 5461SOL    HW117282   6.450   0.949   5.511
 5461SOL    HW217283   6.531   0.822   5.577
 5462SOL     OW17284   4.708   4.209   6.506
 5462SOL    HW117285   4.705   4.305   6.534
 5462SOL    HW217286   4.626   4.186   6.454
 5463SOL     OW17287   1.123   2.753   6.130
 5463SOL    HW117288   1.172   2.829   6.173
 5463SOL    HW217289   1.100   2.685   6.200
 5464SOL     OW17290   2.192   5.868   5.877
 5464SOL    HW117291   2.252   5.816   5.938
 5464SOL    HW217292   2.180   5.819   5.791
 5465SOL     OW17293   0.613   7.002   4.556
 5465SOL    HW117294   0.614   0.033   4.473
 5465SOL    HW217295   0.705   7.002   4.596
 5466SOL     OW17296   6.313   2.150   4.721
 5466SOL    HW117297   6.392   2.185   4.671
 5466SOL    HW217298   6.336   2.061   4.761
 5467SOL     OW17299   4.867   2.847   4.151
 5467SOL    HW117300   4.841   2.752   4.171
 5467SOL    HW217301   4.907   2.888   4.233
 5468SOL     OW17302   0.057   0.903   1.033
 5468SOL    HW117303   0.045   0.827   0.969
 5468SOL    HW217304   0.124   0.879   1.102
 5469SOL     OW17305   3.800   0.174   4.175
 5469SOL    HW117306   3.853   0.102   4.220
 5469SOL    HW217307   3.841   0.263   4.194
 5470SOL     OW17308   3.690   5.539   3.832
 5470SOL    HW117309   3.661   5.446   3.808
 5470SOL    HW217310   3.630   5.575   3.903
 5471SOL     OW17311   4.877   0.919   3.572
 5471SOL    HW117312   4.909   0.835   3.616
 5471SOL    HW217313   4.905   0.998   3.627
 5472SOL     OW17314   3.104   3.322   6.787
 5472SOL    HW117315   3.060   3.412   6.796
 5472SOL    HW217316   3.093   3.289   6.693
 5473SOL     OW17317   2.310   4.729   1.822
 5473SOL    HW117318   2.271   4.751   1.911
 5473SOL    HW217319   2.400   4.771   1.813
 5474SOL     OW17320   1.186   4.990   2.653
 5474SOL    HW117321   1.248   5.068   2.652
 5474SOL    HW217322   1.227   4.916   2.708
 5475SOL     OW17323   0.730   1.039   4.881
 5475SOL    HW117324   0.768   0.979   4.951
 5475SOL    HW217325   0.631   1.049   4.896
 5476SOL     OW17326   2.570   6.983   5.262
 5476SOL    HW117327   2.599   6.954   5.171
 5476SOL    HW217328   2.506   0.035   5.254
 5477SOL     OW17329   1.666   4.106   4.004
 5477SOL    HW117330   1.619   4.060   3.930
 5477SOL    HW217331   1.653   4.056   4.090
 5478SOL     OW17332   5.181   4.810   6.008
 5478SOL    HW117333   5.100   4.869   6.006
 5478SOL    HW217334   5.188   4.760   5.922
 5479SOL     OW17335   4.927   1.766   4.919
 5479SOL    HW117336   4.963   1.755   4.826
 5479SOL    HW217337   4.935   1.679   4.967
 5480SOL     OW17338   0.640   3.866   4.082
 5480SOL    HW117339   0.548   3.905   4.087
 5480SOL    HW217340   0.635   3.766   4.092
 5481SOL     OW17341   4.690   1.504   5.940
 5481SOL    HW117342   4.687   1.525   6.038
 5481SOL    HW217343   4.694   1.405   5.927
 5482SOL     OW17344   5.176   3.073   1.278
 5482SOL    HW117345   5.191   3.121   1.192
 5482SOL    HW217346   5.081   3.085   1.307
 5483SOL     OW17347   6.662   2.495   6.479
 5483SOL    HW117348   6.677   2.563   6.551
 5483SOL    HW217349   6.594   2.530   6.414
 5484SOL     OW17350   0.111   6.891   4.561
 5484SOL    HW117351   0.047   6.815   4.555
 5484SOL    HW217352   0.084   6.964   4.498
 5485SOL     OW17353   3.401   0.018   5.227
 5485SOL    HW117354   3.440   0.050   5.141
 5485SOL    HW217355   3.302   0.033   5.227
 5486SOL     OW17356   0.968   0.606   4.190
 5486SOL    HW117357   0.960   0.656   4.276
 5486SOL    HW217358   0.877   0.594   4.150
 5487SOL     OW17359   4.571   5.106   0.964
 5487SOL    HW117360   4.481   5.130   0.999
 5487SOL    HW217361   4.638   5.111   1.038
 5488SOL     OW17362   4.732   1.224   5.942
 5488SOL    HW117363   4.688   1.184   6.023
 5488SOL    HW217364   4.826   1.190   5.935
 5489SOL     OW17365   1.052   3.820   3.156
 5489SOL    HW117366   1.051   3.780   3.248
 5489SOL    HW217367   0.975   3.784   3.104
 5490SOL     OW17368   1.676   1.797   6.847
 5490SOL    HW117369   1.682   1.731   6.921
 5490SOL    HW217370   1.650   1.751   6.762
 5491SOL     OW17371   0.740   5.138   1.177
 5491SOL    HW117372   0.829   5.154   1.221
 5491SOL    HW217373   0.699   5.056   1.217
 5492SOL     OW17374   1.250   0.761   5.242
 5492SOL    HW117375   1.167   0.789   5.289
 5492SOL    HW217376   1.330   0.798   5.290
 5493SOL     OW17377   3.389   3.234   7.024
 5493SOL    HW117378   3.325   3.306   6.998
 5493SOL    HW217379   3.472   3.242   6.969
 5494SOL     OW17380   5.759   3.328   1.935
 5494SOL    HW117381   5.750   3.243   1.883
 5494SOL    HW217382   5.713   3.402   1.886
 5495SOL     OW17383   3.412   2.887   2.463
 5495SOL    HW117384   3.409   2.789   2.480
 5495SOL    HW217385   3.475   2.930   2.528
 5496SOL     OW17386   3.410   5.789   1.377
 5496SOL    HW117387   3.364   5.875   1.354
 5496SOL    HW217388   3.363   5.746   1.454
 5497SOL     OW17389   6.560   6.616   2.119
 5497SOL    HW117390   6.525   6.685   2.183
 5497SOL    HW217391   6.646   6.579   2.153
 5498SOL     OW17392   4.336   1.165   5.121
 5498SOL    HW117393   4.387   1.168   5.207
 5498SOL    HW217394   4.328   1.071   5.089
 5499SOL     OW17395   0.290   1.961   3.831
 5499SOL    HW117396   0.271   1.974   3.928
 5499SOL    HW217397   0.324   2.047   3.792
 5500SOL     OW17398   1.837   5.910   2.139
 5500SOL    HW117399   1.853   5.949   2.049
 5500SOL    HW217400   1.744   5.932   2.169
 5501SOL     OW17401   2.006   6.756   2.488
 5501SOL    HW117402   2.022   6.711   2.401
 5501SOL    HW217403   1.922   6.811   2.483
 5502SOL     OW17404   4.532   3.904   6.558
 5502SOL    HW117405   4.624   3.942   6.570
 5502SOL    HW217406   4.492   3.938   6.474
 5503SOL     OW17407   1.914   5.608   4.009
 5503SOL    HW117408   1.968   5.691   4.024
 5503SOL    HW217409   1.817   5.631   4.008
 5504SOL     OW17410   3.250   2.052   4.916
 5504SOL    HW117411   3.350   2.060   4.922
 5504SOL    HW217412   3.208   2.134   4.956
 5505SOL     OW17413   2.264   5.093   5.979
 5505SOL    HW117414   2.340   5.151   6.007
 5505SOL    HW217415   2.215   5.136   5.903
 5506SOL     OW17416   6.397   6.870   5.468
 5506SOL    HW117417   6.338   6.851   5.546
 5506SOL    HW217418   6.401   6.969   5.452
 5507SOL     OW17419   2.798   6.293   3.939
 5507SOL    HW117420   2.829   6.198   3.943
 5507SOL    HW217421   2.847   6.347   4.007
 5508SOL     OW17422   2.629   0.873   6.129
 5508SOL    HW117423   2.600   0.919   6.212
 5508SOL    HW217424   2.728   0.881   6.119
 5509SOL     OW17425   5.644   6.151   6.661
 5509SOL    HW117426   5.678   6.113   6.747
 5509SOL    HW217427   5.579   6.087   6.619
 5510SOL     OW17428   5.296   1.062   5.339
 5510SOL    HW117429   5.306   1.152   5.297
 5510SOL    HW217430   5.384   1.016   5.340
 5511SOL     OW17431   0.258   1.363   2.396
 5511SOL    HW117432   0.341   1.403   2.357
 5511SOL    HW217433   0.271   1.349   2.494
 5512SOL     OW17434   1.456   0.238   0.982
 5512SOL    HW117435   1.496   0.158   1.026
 5512SOL    HW217436   1.461   0.317   1.043
 5513SOL     OW17437   3.729   4.976   4.575
 5513SOL    HW117438   3.826   4.951   4.586
 5513SOL    HW217439   3.680   4.955   4.660
 5514SOL     OW17440   6.061   5.408   2.791
 5514SOL    HW117441   6.082   5.474   2.863
 5514SOL    HW217442   6.026   5.324   2.832
 5515SOL     OW17443   6.460   2.620   1.131
 5515SOL    HW117444   6.484   2.527   1.161
 5515SOL    HW217445   6.523   2.685   1.173
 5516SOL     OW17446   1.562   3.353   6.234
 5516SOL    HW117447   1.585   3.404   6.317
 5516SOL    HW217448   1.503   3.276   6.257
 5517SOL     OW17449   2.424   1.624   2.504
 5517SOL    HW117450   2.481   1.616   2.422
 5517SOL    HW217451   2.462   1.694   2.564
 5518SOL     OW17452   6.063   4.855   4.861
 5518SOL    HW117453   6.147   4.840   4.809
 5518SOL    HW217454   6.032   4.768   4.901
 5519SOL     OW17455   5.041   3.455   4.097
 5519SOL    HW117456   4.963   3.399   4.123
 5519SOL    HW217457   5.090   3.412   4.021
 5520SOL     OW17458   1.852   3.574   1.673
 5520SOL    HW117459   1.855   3.528   1.761
 5520SOL    HW217460   1.785   3.647   1.676
 5521SOL     OW17461   5.300   4.924   1.669
 5521SOL    HW117462   5.396   4.909   1.694
 5521SOL    HW217463   5.292   5.007   1.615
 5522SOL     OW17464   2.152   3.626   1.705
 5522SOL    HW117465   2.066   3.585   1.736
 5522SOL    HW217466   2.229   3.570   1.735
 5523SOL     OW17467   2.550   0.759   2.002
 5523SOL    HW117468   2.500   0.673   2.000
 5523SOL    HW217469   2.514   0.817   2.076
 5524SOL     OW17470   0.201   6.114   6.047
 5524SOL    HW117471   0.127   6.067   6.096
 5524SOL    HW217472   0.281   6.120   6.106
 5525SOL     OW17473   6.937   5.792   5.112
 5525SOL    HW117474   6.908   5.712   5.164
 5525SOL    HW217475   7.013   5.766   5.051
 5526SOL     OW17476   6.406   3.047   4.671
 5526SOL    HW117477   6.310   3.028   4.651
 5526SOL    HW217478   6.430   3.006   4.759
 5527SOL     OW17479   1.834   3.558   1.318
 5527SOL    HW117480   1.832   3.624   1.243
 5527SOL    HW217481   1.758   3.495   1.309
 5528SOL     OW17482   0.272   3.815   3.011
 5528SOL    HW117483   0.192   3.843   2.958
 5528SOL    HW217484   0.261   3.845   3.106
 5529SOL     OW17485   1.545   1.381   5.043
 5529SOL    HW117486   1.451   1.413   5.038
 5529SOL    HW217487   1.567   1.359   5.138
 5530SOL     OW17488   0.769   2.556   0.659
 5530SOL    HW117489   0.698   2.567   0.729
 5530SOL    HW217490   0.814   2.467   0.670
 5531SOL     OW17491   3.439   2.612   5.978
 5531SOL    HW117492   3.523   2.628   6.030
 5531SOL    HW217493   3.462   2.591   5.883
 5532SOL     OW17494   2.608   1.247   1.513
 5532SOL    HW117495   2.619   1.286   1.604
 5532SOL    HW217496   2.698   1.223   1.476
 5533SOL     OW17497   4.244   0.517   1.735
 5533SOL    HW117498   4.157   0.510   1.686
 5533SOL    HW217499   4.318   0.493   1.673
 5534SOL     OW17500   0.238   3.921   5.846
 5534SOL    HW117501   0.222   3.876   5.758
 5534SOL    HW217502   0.159   3.906   5.906
 5535SOL     OW17503   6.388   2.673   3.344
 5535SOL    HW117504   6.324   2.713   3.279
 5535SOL    HW217505   6.397   2.575   3.326
 5536SOL     OW17506   2.016   0.583   3.761
 5536SOL    HW117507   1.975   0.638   3.834
 5536SOL    HW217508   1.947   0.522   3.723
 5537SOL     OW17509   4.424   1.017   4.340
 5537SOL    HW117510   4.415   0.973   4.251
 5537SOL    HW217511   4.335   1.050   4.371
 5538SOL     OW17512   5.013   1.367   0.093
 5538SOL    HW117513   4.987   1.281   0.139
 5538SOL    HW217514   4.947   1.438   0.117
 5539SOL     OW17515   3.381   0.134   0.398
 5539SOL    HW117516   3.449   0.141   0.325
 5539SOL    HW217517   3.424   0.098   0.481
 5540SOL     OW17518   5.147   0.833   6.426
 5540SOL    HW117519   5.201   0.901   6.474
 5540SOL    HW217520   5.173   0.741   6.457
 5541SOL     OW17521   4.587   3.840   6.189
 5541SOL    HW117522   4.522   3.904   6.230
 5541SOL    HW217523   4.582   3.752   6.238
 5542SOL     OW17524   4.216   4.444   0.448
 5542SOL    HW117525   4.180   4.370   0.505
 5542SOL    HW217526   4.315   4.446   0.455
 5543SOL     OW17527   1.057   0.537   0.980
 5543SOL    HW117528   0.975   0.590   0.956
 5543SOL    HW217529   1.072   0.467   0.911
 5544SOL     OW17530   4.290   5.505   5.945
 5544SOL    HW117531   4.274   5.512   5.846
 5544SOL    HW217532   4.236   5.575   5.992
 5545SOL     OW17533   3.807   0.453   3.132
 5545SOL    HW117534   3.858   0.468   3.218
 5545SOL    HW217535   3.709   0.447   3.152
 5546SOL     OW17536   1.080   5.571   5.005
 5546SOL    HW117537   1.094   5.559   4.907
 5546SOL    HW217538   0.986   5.604   5.021
 5547SOL     OW17539   5.595   1.507   4.857
 5547SOL    HW117540   5.643   1.499   4.944
 5547SOL    HW217541   5.497   1.519   4.874
 5548SOL     OW17542   6.805   4.457   5.444
 5548SOL    HW117543   6.859   4.454   5.360
 5548SOL    HW217544   6.844   4.524   5.506
 5549SOL     OW17545   4.209   2.820   1.093
 5549SOL    HW117546   4.135   2.850   1.153
 5549SOL    HW217547   4.180   2.828   0.998
 5550SOL     OW17548   1.493   3.589   2.410
 5550SOL    HW117549   1.576   3.573   2.462
 5550SOL    HW217550   1.513   3.652   2.335
 5551SOL     OW17551   2.061   5.143   3.835
 5551SOL    HW117552   2.069   5.110   3.929
 5551SOL    HW217553   1.965   5.157   3.812
 5552SOL     OW17554   0.522   6.944   6.529
 5552SOL    HW117555   0.503   6.859   6.479
 5552SOL    HW217556   0.621   6.952   6.544
 5553SOL     OW17557   4.798   0.131   6.950
 5553SOL    HW117558   4.854   0.213   6.935
 5553SOL    HW217559   4.746   0.111   6.867
 5554SOL     OW17560   5.432   2.733   1.550
 5554SOL    HW117561   5.528   2.759   1.540
 5554SOL    HW217562   5.424   2.634   1.540
 5555SOL     OW17563   1.733   4.109   2.466
 5555SOL    HW117564   1.762   4.014   2.453
 5555SOL    HW217565   1.672   4.115   2.545
 5556SOL     OW17566   6.910   0.374   4.910
 5556SOL    HW117567   6.894   0.458   4.858
 5556SOL    HW217568   6.866   0.382   5.000
 5557SOL     OW17569   3.171   6.243   1.876
 5557SOL    HW117570   3.214   6.333   1.871
 5557SOL    HW217571   3.238   6.176   1.909
 5558SOL     OW17572   3.775   4.701   6.942
 5558SOL    HW117573   3.709   4.704   7.017
 5558SOL    HW217574   3.867   4.683   6.979
 5559SOL     OW17575   1.592   0.124   2.820
 5559SOL    HW117576   1.646   0.044   2.796
 5559SOL    HW217577   1.612   0.198   2.755
 5560SOL     OW17578   0.478   5.830   2.907
 5560SOL    HW117579   0.477   5.800   3.002
 5560SOL    HW217580   0.481   5.750   2.847
 5561SOL     OW17581   3.299   0.524   3.735
 5561SOL    HW117582   3.256   0.612   3.753
 5561SOL    HW217583   3.248   0.451   3.781
 5562SOL     OW17584   4.051   4.023   1.022
 5562SOL    HW117585   3.979   4.066   0.968
 5562SOL    HW217586   4.037   3.924   1.026
 5563SOL     OW17587   2.633   4.730   2.690
 5563SOL    HW117588   2.631   4.648   2.634
 5563SOL    HW217589   2.550   4.735   2.746
 5564SOL     OW17590   5.618   0.889   5.612
 5564SOL    HW117591   5.668   0.910   5.696
 5564SOL    HW217592   5.638   0.795   5.584
 5565SOL     OW17593   2.981   2.408   6.513
 5565SOL    HW117594   2.988   2.314   6.481
 5565SOL    HW217595   3.047   2.466   6.464
 5566SOL     OW17596   1.122   3.419   6.621
 5566SOL    HW117597   1.118   3.467   6.534
 5566SOL    HW217598   1.045   3.355   6.627
 5567SOL     OW17599   6.485   4.336   1.700
 5567SOL    HW117600   6.391   4.370   1.695
 5567SOL    HW217601   6.494   4.276   1.780
 5568SOL     OW17602   4.439   6.317   2.028
 5568SOL    HW117603   4.415   6.330   1.931
 5568SOL    HW217604   4.385   6.241   2.065
 5569SOL     OW17605   2.324   2.844   4.052
 5569SOL    HW117606   2.277   2.891   4.127
 5569SOL    HW217607   2.381   2.771   4.089
 5570SOL     OW17608   7.001   3.457   2.868
 5570SOL    HW117609   0.025   3.448   2.780
 5570SOL    HW217610   0.040   3.437   2.943
 5571SOL     OW17611   6.868   5.204   1.705
 5571SOL    HW117612   6.905   5.274   1.644
 5571SOL    HW217613   6.918   5.118   1.692
 5572SOL     OW17614   1.103   3.234   4.371
 5572SOL    HW117615   1.117   3.318   4.319
 5572SOL    HW217616   1.011   3.233   4.410
 5573SOL     OW17617   2.417   5.425   4.343
 5573SOL    HW117618   2.512   5.393   4.335
 5573SOL    HW217619   2.357   5.346   4.358
 5574SOL     OW17620   0.278   2.453   6.785
 5574SOL    HW117621   0.224   2.435   6.702
 5574SOL    HW217622   0.283   2.370   6.840
 5575SOL     OW17623   0.605   0.578   1.120
 5575SOL    HW117624   0.628   0.645   1.191
 5575SOL    HW217625   0.515   0.539   1.140
 5576SOL     OW17626   1.910   3.847   3.775
 5576SOL    HW117627   1.991   3.788   3.775
 5576SOL    HW217628   1.828   3.790   3.782
 5577SOL     OW17629   1.605   3.522   6.445
 5577SOL    HW117630   1.595   3.456   6.519
 5577SOL    HW217631   1.539   3.596   6.456
 5578SOL     OW17632   3.555   3.120   2.622
 5578SOL    HW117633   3.561   3.198   2.560
 5578SOL    HW217634   3.570   3.150   2.716
 5579SOL     OW17635   0.073   2.702   1.355
 5579SOL    HW117636   0.088   2.801   1.344
 5579SOL    HW217637   0.000   2.687   1.422
 5580SOL     OW17638   4.537   2.127   5.329
 5580SOL    HW117639   4.442   2.157   5.336
 5580SOL    HW217640   4.541   2.030   5.306
 5581SOL     OW17641   0.715   1.788   0.275
 5581SOL    HW117642   0.692   1.691   0.265
 5581SOL    HW217643   0.811   1.797   0.298
 5582SOL     OW17644   2.143   3.351   6.284
 5582SOL    HW117645   2.089   3.388   6.360
 5582SOL    HW217646   2.198   3.274   6.317
 5583SOL     OW17647   4.999   1.559   2.030
 5583SOL    HW117648   4.911   1.586   1.992
 5583SOL    HW217649   5.003   1.460   2.039
 5584SOL     OW17650   0.189   4.562   5.073
 5584SOL    HW117651   0.207   4.601   4.982
 5584SOL    HW217652   0.257   4.491   5.093
 5585SOL     OW17653   4.587   5.191   2.202
 5585SOL    HW117654   4.670   5.205   2.147
 5585SOL    HW217655   4.536   5.277   2.207
 5586SOL     OW17656   6.707   3.049   6.064
 5586SOL    HW117657   6.732   2.979   6.130
 5586SOL    HW217658   6.622   3.023   6.019
 5587SOL     OW17659   4.680   0.773   6.398
 5587SOL    HW117660   4.744   0.850   6.402
 5587SOL    HW217661   4.590   0.803   6.428
 5588SOL     OW17662   3.112   6.708   1.662
 5588SOL    HW117663   3.065   6.644   1.723
 5588SOL    HW217664   3.165   6.773   1.717
 5589SOL     OW17665   5.643   4.544   6.785
 5589SOL    HW117666   5.699   4.492   6.849
 5589SOL    HW217667   5.682   4.635   6.772
 5590SOL     OW17668   5.992   5.999   4.136
 5590SOL    HW117669   5.990   6.093   4.171
 5590SOL    HW217670   5.993   5.936   4.213
 5591SOL     OW17671   6.337   1.430   1.457
 5591SOL    HW117672   6.292   1.420   1.546
 5591SOL    HW217673   6.323   1.346   1.403
 5592SOL     OW17674   0.887   4.416   3.378
 5592SOL    HW117675   0.834   4.335   3.404
 5592SOL    HW217676   0.870   4.489   3.444
 5593SOL     OW17677   6.231   1.972   6.925
 5593SOL    HW117678   6.258   2.061   6.887
 5593SOL    HW217679   6.310   1.911   6.926
 5594SOL     OW17680   5.547   2.184   5.366
 5594SOL    HW117681   5.542   2.126   5.284
 5594SOL    HW217682   5.466   2.168   5.423
 5595SOL     OW17683   0.824   2.552   5.157
 5595SOL    HW117684   0.754   2.486   5.185
 5595SOL    HW217685   0.869   2.589   5.239
 5596SOL     OW17686   4.709   7.013   3.074
 5596SOL    HW117687   4.693   0.084   3.049
 5596SOL    HW217688   4.630   6.978   3.124
 5597SOL     OW17689   5.300   2.855   3.518
 5597SOL    HW117690   5.377   2.794   3.498
 5597SOL    HW217691   5.331   2.950   3.514
 5598SOL     OW17692   5.652   2.673   4.516
 5598SOL    HW117693   5.741   2.689   4.559
 5598SOL    HW217694   5.599   2.757   4.517
 5599SOL     OW17695   0.632   1.698   4.675
 5599SOL    HW117696   0.550   1.728   4.626
 5599SOL    HW217697   0.709   1.757   4.649
 5600SOL     OW17698   1.552   2.712   4.157
 5600SOL    HW117699   1.576   2.657   4.237
 5600SOL    HW217700   1.599   2.674   4.077
 5601SOL     OW17701   2.607   1.016   5.882
 5601SOL    HW117702   2.598   0.956   5.961
 5601SOL    HW217703   2.576   1.108   5.905
 5602SOL     OW17704   0.791   1.247   0.846
 5602SOL    HW117705   0.836   1.241   0.936
 5602SOL    HW217706   0.709   1.191   0.846
 5603SOL     OW17707   5.303   2.230   0.100
 5603SOL    HW117708   5.390   2.189   0.126
 5603SOL    HW217709   5.234   2.158   0.090
 5604SOL     OW17710   5.985   2.155   5.847
 5604SOL    HW117711   6.034   2.068   5.849
 5604SOL    HW217712   5.936   2.168   5.932
 5605SOL     OW17713   0.743   1.928   4.492
 5605SOL    HW117714   0.758   1.840   4.447
 5605SOL    HW217715   0.773   2.001   4.431
 5606SOL     OW17716   5.000   6.809   1.349
 5606SOL    HW117717   4.990   6.866   1.268
 5606SOL    HW217718   5.062   6.853   1.414
 5607SOL     OW17719   5.173   1.680   1.760
 5607SOL    HW117720   5.178   1.665   1.859
 5607SOL    HW217721   5.250   1.735   1.731
 5608SOL     OW17722   4.363   0.394   4.725
 5608SOL    HW117723   4.407   0.363   4.810
 5608SOL    HW217724   4.393   0.487   4.704
 5609SOL     OW17725   2.640   6.184   6.647
 5609SOL    HW117726   2.667   6.090   6.628
 5609SOL    HW217727   2.582   6.218   6.573
 5610SOL     OW17728   5.050   0.533   0.093
 5610SOL    HW117729   5.121   0.516   0.024
 5610SOL    HW217730   5.092   0.577   0.173
 5611SOL     OW17731   1.560   5.189   3.282
 5611SOL    HW117732   1.658   5.170   3.285
 5611SOL    HW217733   1.532   5.204   3.187
 5612SOL     OW17734   3.717   0.627   5.743
 5612SOL    HW117735   3.632   0.587   5.708
 5612SOL    HW217736   3.745   0.579   5.826
 5613SOL     OW17737   4.447   4.484   2.400
 5613SOL    HW117738   4.353   4.457   2.380
 5613SOL    HW217739   4.510   4.438   2.337
 5614SOL     OW17740   4.674   2.757   3.446
 5614SOL    HW117741   4.661   2.729   3.541
 5614SOL    HW217742   4.747   2.826   3.442
 5615SOL     OW17743   1.510   0.440   0.299
 5615SOL    HW117744   1.535   0.442   0.202
 5615SOL    HW217745   1.437   0.506   0.316
 5616SOL     OW17746   1.908   1.143   4.364
 5616SOL    HW117747   1.938   1.208   4.434
 5616SOL    HW217748   1.866   1.194   4.288
 5617SOL     OW17749   2.179   0.321   4.913
 5617SOL    HW117750   2.206   0.312   4.817
 5617SOL    HW217751   2.206   0.411   4.947
 5618SOL     OW17752   5.876   4.192   3.709
 5618SOL    HW117753   5.950   4.255   3.685
 5618SOL    HW217754   5.880   4.173   3.807
 5619SOL     OW17755   2.214   3.854   5.546
 5619SOL    HW117756   2.147   3.914   5.501
 5619SOL    HW217757   2.306   3.882   5.519
 5620SOL     OW17758   3.642   2.071   6.719
 5620SOL    HW117759   3.671   2.165   6.739
 5620SOL    HW217760   3.571   2.044   6.783
 5621SOL     OW17761   1.436   1.520   5.377
 5621SOL    HW117762   1.373   1.563   5.312
 5621SOL    HW217763   1.468   1.433   5.340
 5622SOL     OW17764   4.543   0.729   5.854
 5622SOL    HW117765   4.585   0.643   5.824
 5622SOL    HW217766   4.596   0.806   5.820
 5623SOL     OW17767   1.846   6.321   6.418
 5623SOL    HW117768   1.778   6.366   6.361
 5623SOL    HW217769   1.913   6.388   6.449
 5624SOL     OW17770   1.293   4.629   3.355
 5624SOL    HW117771   1.284   4.553   3.420
 5624SOL    HW217772   1.205   4.644   3.309
 5625SOL     OW17773   6.467   2.685   4.554
 5625SOL    HW117774   6.540   2.752   4.541
 5625SOL    HW217775   6.500   2.594   4.530
 5626SOL     OW17776   3.668   6.783   5.072
 5626SOL    HW117777   3.730   6.855   5.041
 5626SOL    HW217778   3.687   6.699   5.021
 5627SOL     OW17779   1.812   6.217   1.629
 5627SOL    HW117780   1.716   6.201   1.654
 5627SOL    HW217781   1.816   6.284   1.555
 5628SOL     OW17782   1.873   1.795   5.204
 5628SOL    HW117783   1.792   1.737   5.208
 5628SOL    HW217784   1.940   1.762   5.271
 5629SOL     OW17785   3.501   3.961   2.680
 5629SOL    HW117786   3.556   3.992   2.602
 5629SOL    HW217787   3.520   4.020   2.759
 5630SOL     OW17788   0.607   4.622   1.190
 5630SOL    HW117789   0.561   4.534   1.196
 5630SOL    HW217790   0.614   4.649   1.094
 5631SOL     OW17791   4.571   1.282   0.347
 5631SOL    HW117792   4.593   1.294   0.250
 5631SOL    HW217793   4.596   1.365   0.398
 5632SOL     OW17794   4.421   3.995   6.320
 5632SOL    HW117795   4.426   4.062   6.246
 5632SOL    HW217796   4.326   3.984   6.349
 5633SOL     OW17797   6.738   2.746   4.136
 5633SOL    HW117798   6.658   2.759   4.078
 5633SOL    HW217799   6.805   2.818   4.118
 5634SOL     OW17800   3.752   5.236   4.647
 5634SOL    HW117801   3.746   5.144   4.607
 5634SOL    HW217802   3.839   5.246   4.696
 5635SOL     OW17803   2.439   2.667   4.888
 5635SOL    HW117804   2.389   2.753   4.890
 5635SOL    HW217805   2.411   2.615   4.807
 5636SOL     OW17806   4.218   5.342   2.707
 5636SOL    HW117807   4.165   5.259   2.722
 5636SOL    HW217808   4.274   5.361   2.788
 5637SOL     OW17809   6.045   6.968   4.340
 5637SOL    HW117810   5.947   6.983   4.329
 5637SOL    HW217811   6.085   0.021   4.389
 5638SOL     OW17812   5.116   3.148   6.855
 5638SOL    HW117813   5.152   3.161   6.948
 5638SOL    HW217814   5.040   3.083   6.858
 5639SOL     OW17815   0.975   1.582   6.335
 5639SOL    HW117816   0.942   1.491   6.362
 5639SOL    HW217817   1.040   1.572   6.260
 5640SOL     OW17818   2.405   0.005   3.921
 5640SOL    HW117819   2.502   0.029   3.927
 5640SOL    HW217820   2.396   6.935   3.889
 5641SOL     OW17821   6.563   4.980   5.461
 5641SOL    HW117822   6.571   4.885   5.491
 5641SOL    HW217823   6.572   4.984   5.361
 5642SOL     OW17824   1.800   1.727   6.300
 5642SOL    HW117825   1.866   1.698   6.230
 5642SOL    HW217826   1.846   1.786   6.366
 5643SOL     OW17827   6.266   2.485   4.400
 5643SOL    HW117828   6.362   2.480   4.374
 5643SOL    HW217829   6.209   2.494   4.318
 5644SOL     OW17830   3.037   6.862   6.396
 5644SOL    HW117831   3.050   6.935   6.329
 5644SOL    HW217832   2.940   6.839   6.402
 5645SOL     OW17833   5.875   3.379   3.631
 5645SOL    HW117834   5.884   3.464   3.682
 5645SOL    HW217835   5.957   3.323   3.644
 5646SOL     OW17836   1.646   4.348   3.035
 5646SOL    HW117837   1.672   4.252   3.034
 5646SOL    HW217838   1.552   4.358   3.001
 5647SOL     OW17839   6.002   6.077   3.240
 5647SOL    HW117840   5.919   6.067   3.186
 5647SOL    HW217841   6.076   6.110   3.181
 5648SOL     OW17842   3.902   6.302   2.843
 5648SOL    HW117843   3.891   6.264   2.752
 5648SOL    HW217844   3.856   6.390   2.848
 5649SOL     OW17845   0.452   5.648   3.752
 5649SOL    HW117846   0.359   5.620   3.728
 5649SOL    HW217847   0.466   5.635   3.850
 5650SOL     OW17848   6.991   4.468   0.756
 5650SOL    HW117849   7.024   4.377   0.780
 5650SOL    HW217850   7.024   4.534   0.824
 5651SOL     OW17851   1.504   0.762   1.279
 5651SOL    HW117852   1.494   0.687   1.345
 5651SOL    HW217853   1.520   0.847   1.328
 5652SOL     OW17854   0.824   5.024   1.752
 5652SOL    HW117855   0.890   5.079   1.803
 5652SOL    HW217856   0.800   5.070   1.667
 5653SOL     OW17857   0.049   6.177   1.722
 5653SOL    HW117858   0.001   6.261   1.697
 5653SOL    HW217859   0.132   6.168   1.667
 5654SOL     OW17860   2.441   5.925   4.675
 5654SOL    HW117861   2.343   5.908   4.687
 5654SOL    HW217862   2.486   5.840   4.650
 5655SOL     OW17863   6.487   2.836   4.029
 5655SOL    HW117864   6.466   2.919   4.081
 5655SOL    HW217865   6.499   2.860   3.933
 5656SOL     OW17866   0.456   3.086   6.547
 5656SOL    HW117867   0.408   3.153   6.604
 5656SOL    HW217868   0.454   2.997   6.591
 5657SOL     OW17869   4.333   5.170   4.965
 5657SOL    HW117870   4.305   5.266   4.972
 5657SOL    HW217871   4.291   5.129   4.885
 5658SOL     OW17872   1.948   2.122   5.758
 5658SOL    HW117873   1.915   2.087   5.846
 5658SOL    HW217874   2.038   2.164   5.770
 5659SOL     OW17875   3.411   4.116   6.320
 5659SOL    HW117876   3.475   4.182   6.360
 5659SOL    HW217877   3.444   4.088   6.230
 5660SOL     OW17878   4.138   0.139   6.762
 5660SOL    HW117879   4.216   0.174   6.814
 5660SOL    HW217880   4.063   0.116   6.825
 5661SOL     OW17881   1.097   5.538   5.804
 5661SOL    HW117882   1.048   5.594   5.737
 5661SOL    HW217883   1.129   5.454   5.759
 5662SOL     OW17884   2.808   6.059   2.227
 5662SOL    HW117885   2.869   6.139   2.225
 5662SOL    HW217886   2.857   5.981   2.265
 5663SOL     OW17887   1.345   2.954   0.541
 5663SOL    HW117888   1.388   3.044   0.531
 5663SOL    HW217889   1.362   2.900   0.459
 5664SOL     OW17890   5.257   4.057   4.344
 5664SOL    HW117891   5.287   3.962   4.334
 5664SOL    HW217892   5.188   4.078   4.275
 5665SOL     OW17893   2.216   0.822   1.217
 5665SOL    HW117894   2.283   0.791   1.284
 5665SOL    HW217895   2.144   0.753   1.209
 5666SOL     OW17896   6.394   0.984   5.038
 5666SOL    HW117897   6.379   0.916   4.966
 5666SOL    HW217898   6.340   0.961   5.118
 5667SOL     OW17899   2.650   5.706   4.656
 5667SOL    HW117900   2.723   5.771   4.682
 5667SOL    HW217901   2.654   5.690   4.557
 5668SOL     OW17902   5.534   2.695   3.453
 5668SOL    HW117903   5.587   2.735   3.378
 5668SOL    HW217904   5.560   2.599   3.465
 5669SOL     OW17905   6.257   4.146   6.788
 5669SOL    HW117906   6.329   4.212   6.805
 5669SOL    HW217907   6.187   4.153   6.859
 5670SOL     OW17908   1.268   2.361   2.449
 5670SOL    HW117909   1.286   2.450   2.407
 5670SOL    HW217910   1.242   2.373   2.545
 5671SOL     OW17911   0.433   6.978   3.659
 5671SOL    HW117912   0.389   7.005   3.744
 5671SOL    HW217913   0.371   6.919   3.607
 5672SOL     OW17914   5.139   3.828   5.319
 5672SOL    HW117915   5.053   3.777   5.325
 5672SOL    HW217916   5.190   3.819   5.404
 5673SOL     OW17917   0.812   0.623   0.954
 5673SOL    HW117918   0.825   0.720   0.935
 5673SOL    HW217919   0.724   0.609   0.998
 5674SOL     OW17920   2.028   5.591   5.322
 5674SOL    HW117921   2.048   5.494   5.306
 5674SOL    HW217922   1.930   5.607   5.312
 5675SOL     OW17923   2.193   1.699   0.343
 5675SOL    HW117924   2.108   1.743   0.315
 5675SOL    HW217925   2.253   1.688   0.263
 5676SOL     OW17926   2.824   1.984   1.744
 5676SOL    HW117927   2.759   1.978   1.819
 5676SOL    HW217928   2.858   2.078   1.736
 5677SOL     OW17929   6.702   0.190   1.238
 5677SOL    HW117930   6.662   0.251   1.306
 5677SOL    HW217931   6.800   0.182   1.254
 5678SOL     OW17932   3.446   1.959   1.660
 5678SOL    HW117933   3.463   2.053   1.690
 5678SOL    HW217934   3.491   1.895   1.723
 5679SOL     OW17935   6.035   3.601   5.398
 5679SOL    HW117936   5.985   3.676   5.443
 5679SOL    HW217937   6.022   3.607   5.299
 5680SOL     OW17938   1.597   5.961   5.791
 5680SOL    HW117939   1.677   5.995   5.740
 5680SOL    HW217940   1.613   5.972   5.889
 5681SOL     OW17941   0.740   4.217   3.120
 5681SOL    HW117942   0.670   4.267   3.068
 5681SOL    HW217943   0.830   4.256   3.101
 5682SOL     OW17944   2.357   4.257   2.068
 5682SOL    HW117945   2.442   4.292   2.109
 5682SOL    HW217946   2.291   4.332   2.061
 5683SOL     OW17947   4.787   1.414   6.503
 5683SOL    HW117948   4.886   1.424   6.491
 5683SOL    HW217949   4.768   1.381   6.595
 5684SOL     OW17950   2.300   2.630   5.183
 5684SOL    HW117951   2.371   2.690   5.219
 5684SOL    HW217952   2.324   2.535   5.200
 5685SOL     OW17953   2.683   1.636   3.995
 5685SOL    HW117954   2.589   1.633   3.964
 5685SOL    HW217955   2.687   1.616   4.093
 5686SOL     OW17956   3.487   6.218   6.309
 5686SOL    HW117957   3.415   6.266   6.259
 5686SOL    HW217958   3.573   6.225   6.258
 5687SOL     OW17959   2.492   6.424   6.072
 5687SOL    HW117960   2.448   6.392   5.988
 5687SOL    HW217961   2.440   6.394   6.151
 5688SOL     OW17962   2.159   3.027   3.529
 5688SOL    HW117963   2.202   3.117   3.523
 5688SOL    HW217964   2.169   2.991   3.622
 5689SOL     OW17965   0.728   1.603   1.706
 5689SOL    HW117966   0.815   1.645   1.733
 5689SOL    HW217967   0.695   1.647   1.623
 5690SOL     OW17968   1.491   5.602   0.184
 5690SOL    HW117969   1.425   5.562   0.248
 5690SOL    HW217970   1.571   5.543   0.177
 5691SOL     OW17971   3.893   1.109   2.702
 5691SOL    HW117972   3.935   1.088   2.791
 5691SOL    HW217973   3.940   1.188   2.661
 5692SOL     OW17974   4.186   5.027   1.143
 5692SOL    HW117975   4.246   5.067   1.073
 5692SOL    HW217976   4.152   4.938   1.110
 5693SOL     OW17977   3.626   0.950   1.636
 5693SOL    HW117978   3.640   1.043   1.669
 5693SOL    HW217979   3.715   0.903   1.630
 5694SOL     OW17980   0.651   0.022   2.307
 5694SOL    HW117981   0.659   0.108   2.257
 5694SOL    HW217982   0.672   0.036   2.403
 5695SOL     OW17983   1.150   0.764   0.787
 5695SOL    HW117984   1.212   0.833   0.825
 5695SOL    HW217985   1.174   0.674   0.822
 5696SOL     OW17986   1.533   6.819   3.768
 5696SOL    HW117987   1.573   6.869   3.691
 5696SOL    HW217988   1.600   6.813   3.842
 5697SOL     OW17989   6.100   2.496   0.087
 5697SOL    HW117990   6.167   2.488   0.161
 5697SOL    HW217991   6.056   2.585   0.092
 5698SOL     OW17992   2.307   2.736   3.801
 5698SOL    HW117993   2.274   2.791   3.878
 5698SOL    HW217994   2.229   2.710   3.744
 5699SOL     OW17995   2.286   2.801   2.821
 5699SOL    HW117996   2.223   2.732   2.787
 5699SOL    HW217997   2.321   2.773   2.910
 5700SOL     OW17998   5.999   0.789   3.519
 5700SOL    HW117999   6.045   0.805   3.606
 5700SOL    HW218000   5.982   0.691   3.508
 5701SOL     OW18001   6.728   0.490   1.021
 5701SOL    HW118002   6.718   0.403   0.973
 5701SOL    HW218003   6.638   0.533   1.032
 5702SOL     OW18004   2.369   7.002   4.739
 5702SOL    HW118005   2.467   7.020   4.733
 5702SOL    HW218006   2.352   6.905   4.728
 5703SOL     OW18007   0.070   2.888   6.776
 5703SOL    HW118008   0.116   2.974   6.756
 5703SOL    HW218009   0.103   2.817   6.714
 5704SOL     OW18010   5.530   4.448   4.103
 5704SOL    HW118011   5.529   4.377   4.032
 5704SOL    HW218012   5.451   4.509   4.089
 5705SOL     OW18013   5.931   6.803   5.955
 5705SOL    HW118014   5.848   6.837   5.912
 5705SOL    HW218015   5.925   6.816   6.054
 5706SOL     OW18016   5.598   2.321   6.761
 5706SOL    HW118017   5.631   2.228   6.781
 5706SOL    HW218018   5.565   2.363   6.846
 5707SOL     OW18019   5.509   6.262   2.763
 5707SOL    HW118020   5.550   6.172   2.778
 5707SOL    HW218021   5.484   6.270   2.666
 5708SOL     OW18022   4.466   5.727   3.258
 5708SOL    HW118023   4.489   5.683   3.172
 5708SOL    HW218024   4.548   5.771   3.296
 5709SOL     OW18025   0.699   1.638   2.463
 5709SOL    HW118026   0.728   1.718   2.410
 5709SOL    HW218027   0.777   1.575   2.474
 5710SOL     OW18028   2.384   2.253   0.744
 5710SOL    HW118029   2.332   2.329   0.704
 5710SOL    HW218030   2.469   2.288   0.784
 5711SOL     OW18031   5.556   2.232   1.986
 5711SOL    HW118032   5.569   2.164   2.058
 5711SOL    HW218033   5.604   2.202   1.903
 5712SOL     OW18034   6.209   6.096   1.547
 5712SOL    HW118035   6.193   6.193   1.530
 5712SOL    HW218036   6.307   6.081   1.561
 5713SOL     OW18037   2.151   6.471   0.692
 5713SOL    HW118038   2.102   6.388   0.666
 5713SOL    HW218039   2.098   6.520   0.762
 5714SOL     OW18040   6.172   6.347   1.465
 5714SOL    HW118041   6.243   6.383   1.404
 5714SOL    HW218042   6.095   6.410   1.467
 5715SOL     OW18043   0.897   0.242   1.488
 5715SOL    HW118044   0.842   0.185   1.427
 5715SOL    HW218045   0.917   0.329   1.444
 5716SOL     OW18046   6.681   4.247   6.199
 5716SOL    HW118047   6.622   4.322   6.169
 5716SOL    HW218048   6.639   4.202   6.278
 5717SOL     OW18049   1.220   5.156   2.916
 5717SOL    HW118050   1.282   5.160   2.838
 5717SOL    HW218051   1.262   5.102   2.989
 5718SOL     OW18052   0.704   3.264   0.141
 5718SOL    HW118053   0.740   3.314   0.220
 5718SOL    HW218054   0.651   3.326   0.083
 5719SOL     OW18055   2.685   3.791   0.836
 5719SOL    HW118056   2.596   3.807   0.794
 5719SOL    HW218057   2.757   3.832   0.779
 5720SOL     OW18058   1.946   5.053   5.901
 5720SOL    HW118059   2.012   5.113   5.854
 5720SOL    HW218060   1.989   4.965   5.918
 5721SOL     OW18061   4.115   4.210   0.293
 5721SOL    HW118062   4.200   4.251   0.261
 5721SOL    HW218063   4.108   4.220   0.393
 5722SOL     OW18064   0.698   1.143   5.451
 5722SOL    HW118065   0.735   1.125   5.360
 5722SOL    HW218066   0.671   1.057   5.494
 5723SOL     OW18067   4.111   2.937   6.815
 5723SOL    HW118068   4.115   2.875   6.894
 5723SOL    HW218069   4.188   3.000   6.818
 5724SOL     OW18070   5.372   2.207   3.573
 5724SOL    HW118071   5.353   2.303   3.553
 5724SOL    HW218072   5.347   2.150   3.494
 5725SOL     OW18073   6.715   4.159   3.751
 5725SOL    HW118074   6.633   4.140   3.697
 5725SOL    HW218075   6.793   4.111   3.710
 5726SOL     OW18076   5.426   4.604   2.564
 5726SOL    HW118077   5.383   4.525   2.608
 5726SOL    HW218078   5.522   4.609   2.591
 5727SOL     OW18079   0.352   2.696   4.840
 5727SOL    HW118080   0.435   2.652   4.875
 5727SOL    HW218081   0.328   2.657   4.751
 5728SOL     OW18082   5.398   6.063   4.911
 5728SOL    HW118083   5.370   6.149   4.953
 5728SOL    HW218084   5.375   5.987   4.972
 5729SOL     OW18085   1.768   1.473   5.556
 5729SOL    HW118086   1.790   1.554   5.611
 5729SOL    HW218087   1.771   1.497   5.459
 5730SOL     OW18088   6.268   4.093   5.595
 5730SOL    HW118089   6.354   4.049   5.571
 5730SOL    HW218090   6.284   4.163   5.665
 5731SOL     OW18091   0.514   6.458   1.860
 5731SOL    HW118092   0.518   6.453   1.960
 5731SOL    HW218093   0.454   6.385   1.826
 5732SOL     OW18094   1.287   7.021   3.631
 5732SOL    HW118095   1.382   0.029   3.637
 5732SOL    HW218096   1.282   6.943   3.569
 5733SOL     OW18097   3.840   0.305   5.479
 5733SOL    HW118098   3.839   0.216   5.525
 5733SOL    HW218099   3.886   0.372   5.536
 5734SOL     OW18100   2.162   6.386   2.972
 5734SOL    HW118101   2.070   6.351   2.958
 5734SOL    HW218102   2.228   6.324   2.929
 5735SOL     OW18103   2.977   1.195   2.159
 5735SOL    HW118104   2.999   1.241   2.073
 5735SOL    HW218105   2.879   1.207   2.179
 5736SOL     OW18106   1.169   5.397   0.135
 5736SOL    HW118107   1.199   5.434   0.223
 5736SOL    HW218108   1.073   5.369   0.142
 5737SOL     OW18109   5.517   4.803   0.578
 5737SOL    HW118110   5.525   4.721   0.636
 5737SOL    HW218111   5.421   4.832   0.574
 5738SOL     OW18112   1.598   4.018   6.177
 5738SOL    HW118113   1.561   4.079   6.247
 5738SOL    HW218114   1.556   3.928   6.185
 5739SOL     OW18115   1.199   1.285   1.225
 5739SOL    HW118116   1.259   1.205   1.232
 5739SOL    HW218117   1.214   1.330   1.137
 5740SOL     OW18118   4.327   6.027   6.102
 5740SOL    HW118119   4.371   5.963   6.038
 5740SOL    HW218120   4.330   5.989   6.194
 5741SOL     OW18121   0.466   4.964   3.730
 5741SOL    HW118122   0.530   4.985   3.804
 5741SOL    HW218123   0.478   4.869   3.701
 5742SOL     OW18124   6.632   6.619   4.132
 5742SOL    HW118125   6.667   6.526   4.142
 5742SOL    HW218126   6.672   6.662   4.051
 5743SOL     OW18127   1.665   6.617   5.603
 5743SOL    HW118128   1.644   6.689   5.536
 5743SOL    HW218129   1.764   6.610   5.614
 5744SOL     OW18130   6.234   0.144   2.456
 5744SOL    HW118131   6.148   0.157   2.505
 5744SOL    HW218132   6.311   0.147   2.520
 5745SOL     OW18133   1.476   1.956   3.422
 5745SOL    HW118134   1.401   1.890   3.426
 5745SOL    HW218135   1.535   1.944   3.501
 5746SOL     OW18136   5.567   3.577   0.125
 5746SOL    HW118137   5.550   3.489   0.169
 5746SOL    HW218138   5.486   3.635   0.132
 5747SOL     OW18139   1.100   5.773   2.994
 5747SOL    HW118140   1.076   5.857   2.945
 5747SOL    HW218141   1.197   5.775   3.019
 5748SOL     OW18142   2.472   6.162   2.411
 5748SOL    HW118143   2.490   6.121   2.501
 5748SOL    HW218144   2.489   6.095   2.339
 5749SOL     OW18145   2.510   1.700   3.668
 5749SOL    HW118146   2.503   1.797   3.692
 5749SOL    HW218147   2.485   1.644   3.748
 5750SOL     OW18148   6.648   6.120   2.675
 5750SOL    HW118149   6.612   6.148   2.764
 5750SOL    HW218150   6.572   6.111   2.610
 5751SOL     OW18151   2.380   4.048   5.839
 5751SOL    HW118152   2.300   3.994   5.815
 5751SOL    HW218153   2.352   4.141   5.862
 5752SOL     OW18154   6.791   0.402   6.581
 5752SOL    HW118155   6.796   0.487   6.634
 5752SOL    HW218156   6.734   0.336   6.629
 5753SOL     OW18157   3.549   2.254   0.508
 5753SOL    HW118158   3.595   2.289   0.589
 5753SOL    HW218159   3.595   2.289   0.426
 5754SOL     OW18160   5.908   4.628   1.314
 5754SOL    HW118161   5.813   4.654   1.328
 5754SOL    HW218162   5.952   4.693   1.252
 5755SOL     OW18163   3.634   3.927   1.067
 5755SOL    HW118164   3.594   3.835   1.062
 5755SOL    HW218165   3.680   3.939   1.155
 5756SOL     OW18166   0.194   5.905   4.606
 5756SOL    HW118167   0.196   5.812   4.570
 5756SOL    HW218168   0.172   5.969   4.533
 5757SOL     OW18169   0.316   4.702   0.805
 5757SOL    HW118170   0.394   4.655   0.846
 5757SOL    HW218171   0.252   4.729   0.877
 5758SOL     OW18172   0.929   1.790   5.731
 5758SOL    HW118173   0.906   1.846   5.651
 5758SOL    HW218174   1.028   1.790   5.744
 5759SOL     OW18175   5.439   1.835   4.908
 5759SOL    HW118176   5.460   1.865   5.001
 5759SOL    HW218177   5.341   1.846   4.890
 5760SOL     OW18178   1.681   5.383   2.328
 5760SOL    HW118179   1.710   5.458   2.386
 5760SOL    HW218180   1.598   5.409   2.278
 5761SOL     OW18181   4.865   0.260   4.742
 5761SOL    HW118182   4.921   0.327   4.789
 5761SOL    HW218183   4.868   0.173   4.791
 5762SOL     OW18184   5.389   6.030   1.721
 5762SOL    HW118185   5.458   6.022   1.793
 5762SOL    HW218186   5.384   5.944   1.670
 5763SOL     OW18187   0.906   1.204   1.892
 5763SOL    HW118188   0.992   1.221   1.844
 5763SOL    HW218189   0.829   1.219   1.830
 5764SOL     OW18190   4.265   3.948   5.294
 5764SOL    HW118191   4.285   3.941   5.392
 5764SOL    HW218192   4.168   3.930   5.279
 5765SOL     OW18193   5.548   5.026   0.382
 5765SOL    HW118194   5.642   5.008   0.352
 5765SOL    HW218195   5.524   4.965   0.457
 5766SOL     OW18196   3.048   1.143   3.466
 5766SOL    HW118197   3.000   1.170   3.549
 5766SOL    HW218198   3.147   1.153   3.480
 5767SOL     OW18199   0.183   6.593   1.602
 5767SOL    HW118200   0.238   6.553   1.529
 5767SOL    HW218201   0.107   6.531   1.624
 5768SOL     OW18202   6.806   1.604   2.887
 5768SOL    HW118203   6.823   1.505   2.888
 5768SOL    HW218204   6.862   1.647   2.817
 5769SOL     OW18205   2.291   5.749   3.523
 5769SOL    HW118206   2.221   5.680   3.506
 5769SOL    HW218207   2.280   5.786   3.615
 5770SOL     OW18208   6.174   0.415   1.593
 5770SOL    HW118209   6.140   0.371   1.510
 5770SOL    HW218210   6.272   0.395   1.604
 5771SOL     OW18211   0.601   1.627   2.093
 5771SOL    HW118212   0.691   1.658   2.124
 5771SOL    HW218213   0.611   1.574   2.009
 5772SOL     OW18214   6.643   3.809   0.301
 5772SOL    HW118215   6.553   3.844   0.324
 5772SOL    HW218216   6.638   3.710   0.285
 5773SOL     OW18217   5.570   5.706   3.961
 5773SOL    HW118218   5.553   5.757   4.045
 5773SOL    HW218219   5.512   5.742   3.888
 5774SOL     OW18220   2.214   5.249   3.555
 5774SOL    HW118221   2.143   5.310   3.590
 5774SOL    HW218222   2.304   5.282   3.585
 5775SOL     OW18223   0.033   0.359   0.334
 5775SOL    HW118224   6.968   0.317   0.318
 5775SOL    HW218225   0.091   0.346   0.254
 5776SOL     OW18226   5.585   1.152   5.579
 5776SOL    HW118227   5.492   1.185   5.595
 5776SOL    HW218228   5.591   1.055   5.602
 5777SOL     OW18229   6.749   0.739   5.331
 5777SOL    HW118230   6.682   0.736   5.256
 5777SOL    HW218231   6.701   0.740   5.419
 5778SOL     OW18232   2.667   7.002   4.070
 5778SOL    HW118233   2.632   0.037   4.142
 5778SOL    HW218234   2.671   6.908   4.103
 5779SOL     OW18235   4.673   1.321   2.629
 5779SOL    HW118236   4.725   1.296   2.547
 5779SOL    HW218237   4.707   1.270   2.707
 5780SOL     OW18238   5.979   3.779   1.674
 5780SOL    HW118239   5.926   3.697   1.695
 5780SOL    HW218240   5.972   3.843   1.750
 5781SOL     OW18241   2.163   5.307   4.626
 5781SOL    HW118242   2.221   5.228   4.606
 5781SOL    HW218243   2.132   5.348   4.540
 5782SOL     OW18244   2.678   1.488   2.887
 5782SOL    HW118245   2.638   1.417   2.829
 5782SOL    HW218246   2.672   1.576   2.839
 5783SOL     OW18247   2.005   6.758   0.775
 5783SOL    HW118248   2.064   6.705   0.836
 5783SOL    HW218249   1.911   6.726   0.783
 5784SOL     OW18250   1.728   5.469   0.246
 5784SOL    HW118251   1.767   5.534   0.312
 5784SOL    HW218252   1.785   5.468   0.163
 5785SOL     OW18253   1.920   1.773   0.229
 5785SOL    HW118254   1.962   1.841   0.168
 5785SOL    HW218255   1.879   1.700   0.174
 5786SOL     OW18256   1.217   3.262   0.987
 5786SOL    HW118257   1.278   3.322   1.038
 5786SOL    HW218258   1.131   3.252   1.037
 5787SOL     OW18259   0.111   3.127   5.503
 5787SOL    HW118260   0.167   3.125   5.586
 5787SOL    HW218261   0.165   3.093   5.426
 5788SOL     OW18262   2.102   2.260   1.708
 5788SOL    HW118263   2.032   2.329   1.723
 5788SOL    HW218264   2.058   2.172   1.688
 5789SOL     OW18265   3.231   5.071   6.817
 5789SOL    HW118266   3.282   5.069   6.731
 5789SOL    HW218267   3.209   4.978   6.846
 5790SOL     OW18268   6.253   6.112   3.570
 5790SOL    HW118269   6.300   6.152   3.492
 5790SOL    HW218270   6.196   6.182   3.614
 5791SOL     OW18271   3.733   1.304   2.499
 5791SOL    HW118272   3.741   1.378   2.566
 5791SOL    HW218273   3.817   1.250   2.499
 5792SOL     OW18274   4.960   3.181   2.757
 5792SOL    HW118275   5.047   3.180   2.707
 5792SOL    HW218276   4.899   3.112   2.720
 5793SOL     OW18277   4.250   2.349   6.278
 5793SOL    HW118278   4.209   2.334   6.188
 5793SOL    HW218279   4.328   2.288   6.290
 5794SOL     OW18280   4.172   6.821   6.864
 5794SOL    HW118281   4.127   6.740   6.826
 5794SOL    HW218282   4.235   6.793   6.937
 5795SOL     OW18283   2.381   5.657   1.768
 5795SOL    HW118284   2.375   5.747   1.725
 5795SOL    HW218285   2.303   5.645   1.830
 5796SOL     OW18286   5.205   1.253   6.610
 5796SOL    HW118287   5.268   1.195   6.557
 5796SOL    HW218288   5.191   1.213   6.700
 5797SOL     OW18289   5.983   2.350   1.195
 5797SOL    HW118290   6.043   2.390   1.126
 5797SOL    HW218291   6.018   2.260   1.222
 5798SOL     OW18292   1.685   3.325   4.905
 5798SOL    HW118293   1.605   3.282   4.865
 5798SOL    HW218294   1.671   3.423   4.913
 5799SOL     OW18295   2.337   6.773   3.814
 5799SOL    HW118296   2.321   6.722   3.898
 5799SOL    HW218297   2.423   6.742   3.773
 5800SOL     OW18298   1.662   0.114   1.470
 5800SOL    HW118299   1.565   0.136   1.479
 5800SOL    HW218300   1.691   0.056   1.546
 5801SOL     OW18301   2.144   1.828   1.938
 5801SOL    HW118302   2.063   1.787   1.980
 5801SOL    HW218303   2.220   1.763   1.941
 5802SOL     OW18304   0.813   0.513   1.656
 5802SOL    HW118305   0.767   0.435   1.613
 5802SOL    HW218306   0.753   0.592   1.655
 5803SOL     OW18307   0.328   5.634   4.163
 5803SOL    HW118308   0.335   5.562   4.233
 5803SOL    HW218309   0.408   5.630   4.104
 5804SOL     OW18310   5.781   2.000   2.978
 5804SOL    HW118311   5.782   1.950   3.064
 5804SOL    HW218312   5.723   2.081   2.987
 5805SOL     OW18313   1.309   2.723   2.049
 5805SOL    HW118314   1.226   2.771   2.019
 5805SOL    HW218315   1.378   2.728   1.977
 5806SOL     OW18316   6.823   4.322   2.183
 5806SOL    HW118317   6.746   4.263   2.203
 5806SOL    HW218318   6.802   4.380   2.104
 5807SOL     OW18319   1.805   0.372   1.180
 5807SOL    HW118320   1.804   0.349   1.277
 5807SOL    HW218321   1.769   0.464   1.167
 5808SOL     OW18322   6.805   0.497   5.700
 5808SOL    HW118323   6.858   0.416   5.722
 5808SOL    HW218324   6.721   0.499   5.755
 5809SOL     OW18325   0.334   2.354   5.444
 5809SOL    HW118326   0.390   2.355   5.527
 5809SOL    HW218327   0.278   2.436   5.440
 5810SOL     OW18328   3.151   6.630   4.989
 5810SOL    HW118329   3.235   6.674   5.021
 5810SOL    HW218330   3.133   6.549   5.044
 5811SOL     OW18331   3.784   4.784   6.482
 5811SOL    HW118332   3.857   4.838   6.524
 5811SOL    HW218333   3.697   4.803   6.529
 5812SOL     OW18334   5.283   2.862   6.780
 5812SOL    HW118335   5.356   2.830   6.719
 5812SOL    HW218336   5.205   2.800   6.773
 5813SOL     OW18337   5.009   5.631   0.287
 5813SOL    HW118338   5.021   5.727   0.262
 5813SOL    HW218339   4.955   5.625   0.371
 5814SOL     OW18340   5.070   1.396   1.751
 5814SOL    HW118341   5.094   1.492   1.762
 5814SOL    HW218342   5.079   1.349   1.839
 5815SOL     OW18343   6.639   2.591   3.851
 5815SOL    HW118344   6.589   2.670   3.815
 5815SOL    HW218345   6.624   2.512   3.792
 5816SOL     OW18346   0.080   3.437   2.610
 5816SOL    HW118347   0.052   3.354   2.562
 5816SOL    HW218348   0.054   3.517   2.557
 5817SOL     OW18349   5.918   3.898   3.269
 5817SOL    HW118350   5.947   3.991   3.294
 5817SOL    HW218351   5.837   3.874   3.322
 5818SOL     OW18352   2.085   0.571   4.646
 5818SOL    HW118353   2.122   0.616   4.727
 5818SOL    HW218354   2.020   0.632   4.601
 5819SOL     OW18355   4.549   5.100   0.325
 5819SOL    HW118356   4.478   5.122   0.258
 5819SOL    HW218357   4.580   5.006   0.311
 5820SOL     OW18358   5.747   6.327   2.458
 5820SOL    HW118359   5.790   6.246   2.418
 5820SOL    HW218360   5.654   6.305   2.487
 5821SOL     OW18361   0.121   0.152   0.934
 5821SOL    HW118362   0.027   0.119   0.935
 5821SOL    HW218363   0.135   0.213   0.856
 5822SOL     OW18364   1.502   3.577   3.233
 5822SOL    HW118365   1.597   3.551   3.247
 5822SOL    HW218366   1.448   3.495   3.214
 5823SOL     OW18367   1.654   5.773   3.037
 5823SOL    HW118368   1.739   5.819   3.011
 5823SOL    HW218369   1.671   5.714   3.116
 5824SOL     OW18370   0.958   0.373   2.409
 5824SOL    HW118371   0.868   0.414   2.393
 5824SOL    HW218372   0.982   0.380   2.506
 5825SOL     OW18373   5.362   1.200   4.200
 5825SOL    HW118374   5.361   1.172   4.296
 5825SOL    HW218375   5.428   1.274   4.187
 5826SOL     OW18376   0.833   6.476   5.613
 5826SOL    HW118377   0.916   6.460   5.665
 5826SOL    HW218378   0.850   6.547   5.545
 5827SOL     OW18379   2.104   4.032   3.623
 5827SOL    HW118380   2.029   4.098   3.619
 5827SOL    HW218381   2.114   3.988   3.533
 5828SOL     OW18382   3.806   0.589   5.213
 5828SOL    HW118383   3.878   0.635   5.161
 5828SOL    HW218384   3.734   0.654   5.235
 5829SOL     OW18385   2.301   0.467   3.554
 5829SOL    HW118386   2.334   0.543   3.497
 5829SOL    HW218387   2.263   0.396   3.495
 5830SOL     OW18388   4.009   4.902   4.642
 5830SOL    HW118389   4.010   4.926   4.545
 5830SOL    HW218390   4.065   4.821   4.657
 5831SOL     OW18391   1.717   2.183   5.616
 5831SOL    HW118392   1.670   2.098   5.592
 5831SOL    HW218393   1.808   2.162   5.651
 5832SOL     OW18394   3.003   5.112   2.038
 5832SOL    HW118395   3.092   5.095   2.080
 5832SOL    HW218396   2.956   5.024   2.024
 5833SOL     OW18397   3.715   5.043   0.097
 5833SOL    HW118398   3.761   5.112   0.041
 5833SOL    HW218399   3.619   5.039   0.071
 5834SOL     OW18400   6.026   2.783   6.648
 5834SOL    HW118401   6.089   2.800   6.573
 5834SOL    HW218402   5.952   2.723   6.617
 5835SOL     OW18403   4.927   2.501   2.772
 5835SOL    HW118404   4.850   2.437   2.781
 5835SOL    HW218405   5.008   2.450   2.742
 5836SOL     OW18406   4.700   6.133   3.054
 5836SOL    HW118407   4.754   6.077   2.990
 5836SOL    HW218408   4.757   6.206   3.091
 5837SOL     OW18409   2.498   5.605   6.748
 5837SOL    HW118410   2.432   5.531   6.740
 5837SOL    HW218411   2.502   5.637   6.842
 5838SOL     OW18412   3.926   2.340   0.546
 5838SOL    HW118413   3.898   2.298   0.460
 5838SOL    HW218414   3.938   2.438   0.533
 5839SOL     OW18415   1.877   2.440   0.202
 5839SOL    HW118416   1.934   2.369   0.162
 5839SOL    HW218417   1.918   2.471   0.289
 5840SOL     OW18418   6.926   3.333   3.164
 5840SOL    HW118419   6.923   3.341   3.263
 5840SOL    HW218420   6.849   3.277   3.132
 5841SOL     OW18421   4.994   1.185   0.634
 5841SOL    HW118422   4.924   1.126   0.675
 5841SOL    HW218423   4.978   1.280   0.662
 5842SOL     OW18424   2.168   2.154   0.966
 5842SOL    HW118425   2.088   2.213   0.974
 5842SOL    HW218426   2.236   2.198   0.908
 5843SOL     OW18427   2.763   3.604   0.996
 5843SOL    HW118428   2.670   3.576   1.017
 5843SOL    HW218429   2.761   3.676   0.926
 5844SOL     OW18430   0.583   6.181   4.706
 5844SOL    HW118431   0.592   6.082   4.714
 5844SOL    HW218432   0.673   6.223   4.714
 5845SOL     OW18433   1.277   0.267   2.379
 5845SOL    HW118434   1.338   0.190   2.358
 5845SOL    HW218435   1.183   0.243   2.355
 5846SOL     OW18436   0.008   3.928   5.149
 5846SOL    HW118437   0.107   3.936   5.134
 5846SOL    HW218438   7.010   3.956   5.242
 5847SOL     OW18439   1.812   4.054   6.670
 5847SOL    HW118440   1.911   4.061   6.682
 5847SOL    HW218441   1.785   4.100   6.585
 5848SOL     OW18442   1.815   5.203   2.498
 5848SOL    HW118443   1.742   5.239   2.439
 5848SOL    HW218444   1.904   5.222   2.456
 5849SOL     OW18445   3.510   5.907   5.747
 5849SOL    HW118446   3.418   5.868   5.753
 5849SOL    HW218447   3.515   5.989   5.802
 5850SOL     OW18448   0.824   1.126   2.499
 5850SOL    HW118449   0.864   1.129   2.407
 5850SOL    HW218450   0.736   1.079   2.496
 5851SOL     OW18451   6.341   3.643   4.299
 5851SOL    HW118452   6.278   3.590   4.356
 5851SOL    HW218453   6.424   3.663   4.351
 5852SOL     OW18454   4.959   4.272   2.145
 5852SOL    HW118455   4.927   4.366   2.142
 5852SOL    HW218456   5.041   4.263   2.089
 5853SOL     OW18457   4.908   5.050   6.140
 5853SOL    HW118458   4.925   5.028   6.044
 5853SOL    HW218459   4.866   5.141   6.146
 5854SOL     OW18460   3.018   4.756   5.259
 5854SOL    HW118461   3.008   4.664   5.220
 5854SOL    HW218462   2.935   4.809   5.241
 5855SOL     OW18463   2.196   2.882   3.276
 5855SOL    HW118464   2.180   2.970   3.232
 5855SOL    HW218465   2.201   2.895   3.375
 5856SOL     OW18466   1.086   6.038   2.873
 5856SOL    HW118467   0.988   6.055   2.873
 5856SOL    HW218468   1.131   6.097   2.940
 5857SOL     OW18469   5.326   4.995   6.613
 5857SOL    HW118470   5.397   4.968   6.678
 5857SOL    HW218471   5.258   4.922   6.607
 5858SOL     OW18472   1.882   0.792   2.446
 5858SOL    HW118473   1.851   0.813   2.538
 5858SOL    HW218474   1.818   0.730   2.402
 5859SOL     OW18475   5.487   5.769   1.553
 5859SOL    HW118476   5.553   5.705   1.591
 5859SOL    HW218477   5.495   5.770   1.453
 5860SOL     OW18478   0.404   4.406   3.436
 5860SOL    HW118479   0.501   4.391   3.459
 5860SOL    HW218480   0.350   4.328   3.467
 5861SOL     OW18481   4.982   0.949   4.896
 5861SOL    HW118482   4.921   0.899   4.958
 5861SOL    HW218483   5.010   0.889   4.821
 5862SOL     OW18484   6.256   5.889   2.646
 5862SOL    HW118485   6.245   5.790   2.645
 5862SOL    HW218486   6.168   5.933   2.628
 5863SOL     OW18487   4.108   6.483   6.527
 5863SOL    HW118488   4.175   6.545   6.486
 5863SOL    HW218489   4.148   6.392   6.538
 5864SOL     OW18490   3.228   4.099   2.348
 5864SOL    HW118491   3.177   4.179   2.315
 5864SOL    HW218492   3.269   4.052   2.271
 5865SOL     OW18493   6.845   0.448   6.081
 5865SOL    HW118494   6.847   0.350   6.102
 5865SOL    HW218495   6.932   0.475   6.040
 5866SOL     OW18496   3.257   3.279   2.900
 5866SOL    HW118497   3.316   3.265   2.979
 5866SOL    HW218498   3.166   3.243   2.920
 5867SOL     OW18499   2.837   1.585   2.010
 5867SOL    HW118500   2.894   1.657   2.051
 5867SOL    HW218501   2.895   1.509   1.981
 5868SOL     OW18502   0.945   1.294   5.963
 5868SOL    HW118503   0.980   1.271   6.054
 5868SOL    HW218504   0.867   1.236   5.941
 5869SOL     OW18505   1.253   6.049   3.209
 5869SOL    HW118506   1.280   5.999   3.291
 5869SOL    HW218507   1.154   6.049   3.201
 5870SOL     OW18508   3.436   5.827   4.576
 5870SOL    HW118509   3.358   5.770   4.550
 5870SOL    HW218510   3.464   5.884   4.498
 5871SOL     OW18511   2.946   3.266   3.962
 5871SOL    HW118512   2.965   3.194   4.029
 5871SOL    HW218513   2.917   3.349   4.009
 5872SOL     OW18514   4.922   5.598   1.664
 5872SOL    HW118515   4.903   5.524   1.600
 5872SOL    HW218516   5.016   5.631   1.651
 5873SOL     OW18517   4.448   6.206   2.335
 5873SOL    HW118518   4.392   6.157   2.401
 5873SOL    HW218519   4.475   6.143   2.261
 5874SOL     OW18520   1.635   4.045   5.062
 5874SOL    HW118521   1.688   4.088   5.136
 5874SOL    HW218522   1.682   3.962   5.031
 5875SOL     OW18523   3.071   1.624   1.025
 5875SOL    HW118524   3.152   1.682   1.030
 5875SOL    HW218525   3.065   1.569   1.108
 5876SOL     OW18526   3.295   3.099   1.774
 5876SOL    HW118527   3.336   3.147   1.852
 5876SOL    HW218528   3.366   3.049   1.725
 5877SOL     OW18529   5.862   4.352   1.285
 5877SOL    HW118530   5.806   4.355   1.202
 5877SOL    HW218531   5.895   4.444   1.306
 5878SOL     OW18532   2.225   4.577   2.745
 5878SOL    HW118533   2.162   4.620   2.679
 5878SOL    HW218534   2.270   4.499   2.702
 5879SOL     OW18535   0.440   4.778   4.573
 5879SOL    HW118536   0.342   4.779   4.594
 5879SOL    HW218537   0.475   4.684   4.580
 5880SOL     OW18538   3.127   5.688   0.599
 5880SOL    HW118539   3.106   5.620   0.668
 5880SOL    HW218540   3.199   5.653   0.539
 5881SOL     OW18541   1.729   5.810   4.637
 5881SOL    HW118542   1.748   5.791   4.733
 5881SOL    HW218543   1.810   5.849   4.594
 5882SOL     OW18544   4.868   0.681   2.312
 5882SOL    HW118545   4.879   0.699   2.410
 5882SOL    HW218546   4.784   0.723   2.279
 5883SOL     OW18547   0.050   3.342   5.177
 5883SOL    HW118548   0.002   3.317   5.261
 5883SOL    HW218549   0.030   3.274   5.106
 5884SOL     OW18550   1.112   1.607   3.489
 5884SOL    HW118551   1.034   1.669   3.480
 5884SOL    HW218552   1.174   1.620   3.411
 5885SOL     OW18553   6.046   6.894   0.893
 5885SOL    HW118554   5.946   6.887   0.886
 5885SOL    HW218555   6.071   6.991   0.898
 5886SOL     OW18556   0.751   0.915   6.013
 5886SOL    HW118557   0.737   0.919   6.112
 5886SOL    HW218558   0.760   0.820   5.984
 5887SOL     OW18559   4.564   6.550   3.382
 5887SOL    HW118560   4.528   6.501   3.462
 5887SOL    HW218561   4.613   6.631   3.412
 5888SOL     OW18562   1.693   0.518   3.260
 5888SOL    HW118563   1.730   0.571   3.336
 5888SOL    HW218564   1.596   0.540   3.248
 5889SOL     OW18565   3.031   0.820   0.874
 5889SOL    HW118566   3.027   0.886   0.800
 5889SOL    HW218567   3.116   0.767   0.867
 5890SOL     OW18568   3.499   4.745   6.066
 5890SOL    HW118569   3.422   4.740   6.002
 5890SOL    HW218570   3.485   4.677   6.139
 5891SOL     OW18571   2.356   3.564   0.246
 5891SOL    HW118572   2.355   3.572   0.345
 5891SOL    HW218573   2.346   3.469   0.219
 5892SOL     OW18574   0.877   0.120   1.753
 5892SOL    HW118575   0.944   0.047   1.768
 5892SOL    HW218576   0.903   0.173   1.672
 5893SOL     OW18577   1.810   0.900   3.232
 5893SOL    HW118578   1.802   0.993   3.269
 5893SOL    HW218579   1.756   0.837   3.288
 5894SOL     OW18580   0.585   3.232   3.247
 5894SOL    HW118581   0.583   3.152   3.307
 5894SOL    HW218582   0.660   3.293   3.274
 5895SOL     OW18583   5.398   3.710   3.905
 5895SOL    HW118584   5.429   3.724   3.811
 5895SOL    HW218585   5.473   3.672   3.960
 5896SOL     OW18586   3.749   2.118   5.636
 5896SOL    HW118587   3.733   2.167   5.550
 5896SOL    HW218588   3.723   2.022   5.626
 5897SOL     OW18589   3.978   0.517   1.716
 5897SOL    HW118590   3.975   0.459   1.798
 5897SOL    HW218591   3.930   0.470   1.642
 5898SOL     OW18592   1.809   0.168   2.301
 5898SOL    HW118593   1.754   0.166   2.217
 5898SOL    HW218594   1.906   0.170   2.278
 5899SOL     OW18595   5.245   0.008   4.001
 5899SOL    HW118596   5.165   0.003   4.061
 5899SOL    HW218597   5.327   0.026   4.056
 5900SOL     OW18598   4.689   5.080   2.548
 5900SOL    HW118599   4.777   5.034   2.554
 5900SOL    HW218600   4.638   5.046   2.469
 5901SOL     OW18601   3.880   6.851   5.320
 5901SOL    HW118602   3.968   6.807   5.338
 5901SOL    HW218603   3.845   6.822   5.231
 5902SOL     OW18604   6.302   1.226   6.624
 5902SOL    HW118605   6.338   1.296   6.562
 5902SOL    HW218606   6.281   1.143   6.573
 5903SOL     OW18607   6.721   3.294   6.341
 5903SOL    HW118608   6.735   3.201   6.307
 5903SOL    HW218609   6.627   3.302   6.375
 5904SOL     OW18610   0.487   4.618   2.398
 5904SOL    HW118611   0.504   4.560   2.477
 5904SOL    HW218612   0.432   4.568   2.331
 5905SOL     OW18613   6.684   5.259   2.356
 5905SOL    HW118614   6.773   5.240   2.397
 5905SOL    HW218615   6.685   5.349   2.313
 5906SOL     OW18616   6.681   1.343   3.968
 5906SOL    HW118617   6.765   1.325   4.019
 5906SOL    HW218618   6.626   1.259   3.962
 5907SOL     OW18619   1.763   6.940   1.778
 5907SOL    HW118620   1.833   6.990   1.727
 5907SOL    HW218621   1.686   7.001   1.797
 5908SOL     OW18622   0.356   2.881   6.369
 5908SOL    HW118623   0.406   2.965   6.390
 5908SOL    HW218624   0.259   2.902   6.357
 5909SOL     OW18625   6.747   4.239   0.988
 5909SOL    HW118626   6.719   4.335   0.984
 5909SOL    HW218627   6.720   4.200   1.075
 5910SOL     OW18628   2.127   1.675   3.558
 5910SOL    HW118629   2.212   1.701   3.512
 5910SOL    HW218630   2.141   1.589   3.607
 5911SOL     OW18631   6.786   5.511   6.127
 5911SOL    HW118632   6.697   5.550   6.101
 5911SOL    HW218633   6.840   5.495   6.045
 5912SOL     OW18634   0.684   0.812   4.019
 5912SOL    HW118635   0.741   0.892   4.003
 5912SOL    HW218636   0.670   0.800   4.118
 5913SOL     OW18637   5.339   1.868   6.842
 5913SOL    HW118638   5.256   1.892   6.892
 5913SOL    HW218639   5.362   1.772   6.862
 5914SOL     OW18640   0.177   5.841   0.717
 5914SOL    HW118641   0.126   5.916   0.672
 5914SOL    HW218642   0.243   5.880   0.780
 5915SOL     OW18643   3.723   1.219   5.954
 5915SOL    HW118644   3.774   1.273   6.021
 5915SOL    HW218645   3.671   1.148   6.002
 5916SOL     OW18646   1.011   6.064   2.583
 5916SOL    HW118647   1.063   6.011   2.651
 5916SOL    HW218648   1.059   6.150   2.565
 5917SOL     OW18649   3.728   4.452   0.496
 5917SOL    HW118650   3.826   4.451   0.516
 5917SOL    HW218651   3.714   4.453   0.397
 5918SOL     OW18652   2.995   6.093   5.412
 5918SOL    HW118653   2.968   6.189   5.418
 5918SOL    HW218654   3.034   6.075   5.321
 5919SOL     OW18655   3.551   2.856   3.918
 5919SOL    HW118656   3.518   2.943   3.883
 5919SOL    HW218657   3.547   2.787   3.846
 5920SOL     OW18658   6.217   0.127   5.049
 5920SOL    HW118659   6.267   0.204   5.090
 5920SOL    HW218660   6.267   0.093   4.970
 5921SOL     OW18661   2.726   4.605   6.293
 5921SOL    HW118662   2.798   4.553   6.339
 5921SOL    HW218663   2.650   4.545   6.271
 5922SOL     OW18664   5.048   3.846   3.068
 5922SOL    HW118665   4.977   3.820   3.003
 5922SOL    HW218666   5.079   3.765   3.118
 5923SOL     OW18667   6.929   0.480   3.047
 5923SOL    HW118668   6.878   0.409   2.998
 5923SOL    HW218669   6.958   0.551   2.983
 5924SOL     OW18670   6.007   0.267   3.641
 5924SOL    HW118671   6.087   0.323   3.619
 5924SOL    HW218672   5.924   0.318   3.619
 5925SOL     OW18673   4.304   0.114   1.413
 5925SOL    HW118674   4.384   0.173   1.420
 5925SOL    HW218675   4.330   0.028   1.369
 5926SOL     OW18676   4.814   4.753   3.987
 5926SOL    HW118677   4.782   4.662   4.014
 5926SOL    HW218678   4.743   4.797   3.931
 5927SOL     OW18679   0.907   4.529   2.044
 5927SOL    HW118680   0.910   4.607   2.106
 5927SOL    HW218681   0.828   4.472   2.068
 5928SOL     OW18682   3.608   0.580   0.518
 5928SOL    HW118683   3.587   0.519   0.594
 5928SOL    HW218684   3.551   0.557   0.439
 5929SOL     OW18685   1.868   0.623   6.442
 5929SOL    HW118686   1.822   0.712   6.435
 5929SOL    HW218687   1.919   0.618   6.527
 5930SOL     OW18688   1.062   3.404   2.210
 5930SOL    HW118689   1.013   3.439   2.130
 5930SOL    HW218690   1.150   3.452   2.219
 5931SOL     OW18691   4.776   6.166   3.527
 5931SOL    HW118692   4.712   6.141   3.454
 5931SOL    HW218693   4.841   6.233   3.492
 5932SOL     OW18694   2.771   0.744   0.131
 5932SOL    HW118695   2.805   0.651   0.141
 5932SOL    HW218696   2.776   0.772   0.035
 5933SOL     OW18697   6.081   6.164   3.910
 5933SOL    HW118698   6.179   6.159   3.929
 5933SOL    HW218699   6.031   6.181   3.995
 5934SOL     OW18700   3.501   3.371   6.083
 5934SOL    HW118701   3.415   3.371   6.134
 5934SOL    HW218702   3.558   3.295   6.114
 5935SOL     OW18703   0.931   6.071   5.809
 5935SOL    HW118704   0.845   6.028   5.782
 5935SOL    HW218705   0.916   6.126   5.891
 5936SOL     OW18706   3.373   3.343   1.572
 5936SOL    HW118707   3.420   3.425   1.607
 5936SOL    HW218708   3.384   3.268   1.637
 5937SOL     OW18709   0.013   2.912   1.776
 5937SOL    HW118710   0.007   2.972   1.856
 5937SOL    HW218711   6.946   2.877   1.754
 5938SOL     OW18712   0.051   4.854   4.914
 5938SOL    HW118713   0.093   4.935   4.953
 5938SOL    HW218714   0.117   4.778   4.915
 5939SOL     OW18715   3.426   0.915   5.054
 5939SOL    HW118716   3.349   0.935   4.993
 5939SOL    HW218717   3.487   0.994   5.058
 5940SOL     OW18718   5.047   5.900   2.671
 5940SOL    HW118719   5.112   5.890   2.747
 5940SOL    HW218720   5.049   5.818   2.614
 5941SOL     OW18721   0.040   2.302   2.360
 5941SOL    HW118722   0.120   2.361   2.364
 5941SOL    HW218723   7.023   2.308   2.270
 5942SOL     OW18724   5.246   3.326   6.201
 5942SOL    HW118725   5.193   3.336   6.285
 5942SOL    HW218726   5.184   3.312   6.124
 5943SOL     OW18727   2.965   4.260   1.654
 5943SOL    HW118728   2.878   4.217   1.630
 5943SOL    HW218729   2.948   4.339   1.714
 5944SOL     OW18730   0.309   3.489   6.400
 5944SOL    HW118731   0.231   3.445   6.355
 5944SOL    HW218732   0.393   3.443   6.372
 5945SOL     OW18733   0.405   5.854   5.149
 5945SOL    HW118734   0.466   5.792   5.099
 5945SOL    HW218735   0.343   5.899   5.085
 5946SOL     OW18736   3.310   4.290   0.765
 5946SOL    HW118737   3.298   4.380   0.806
 5946SOL    HW218738   3.357   4.229   0.829
 5947SOL     OW18739   3.533   3.273   4.800
 5947SOL    HW118740   3.528   3.312   4.708
 5947SOL    HW218741   3.562   3.177   4.794
 5948SOL     OW18742   4.865   3.879   1.559
 5948SOL    HW118743   4.809   3.822   1.499
 5948SOL    HW218744   4.807   3.923   1.627
 5949SOL     OW18745   6.633   4.139   2.256
 5949SOL    HW118746   6.559   4.206   2.261
 5949SOL    HW218747   6.630   4.080   2.337
 5950SOL     OW18748   4.554   0.509   5.101
 5950SOL    HW118749   4.572   0.422   5.056
 5950SOL    HW218750   4.555   0.582   5.033
 5951SOL     OW18751   1.009   3.695   6.507
 5951SOL    HW118752   0.925   3.742   6.534
 5951SOL    HW218753   1.075   3.761   6.471
 5952SOL     OW18754   3.969   4.969   0.810
 5952SOL    HW118755   3.965   5.067   0.793
 5952SOL    HW218756   4.042   4.949   0.876
 5953SOL     OW18757   6.527   2.906   4.899
 5953SOL    HW118758   6.602   2.895   4.833
 5953SOL    HW218759   6.454   2.841   4.879
 5954SOL     OW18760   1.655   6.190   4.050
 5954SOL    HW118761   1.705   6.128   4.111
 5954SOL    HW218762   1.714   6.217   3.974
 5955SOL     OW18763   6.004   3.808   0.502
 5955SOL    HW118764   6.033   3.751   0.579
 5955SOL    HW218765   6.027   3.904   0.520
 5956SOL     OW18766   5.169   2.689   5.211
 5956SOL    HW118767   5.112   2.748   5.155
 5956SOL    HW218768   5.130   2.596   5.213
 5957SOL     OW18769   0.655   1.392   2.982
 5957SOL    HW118770   0.675   1.410   2.886
 5957SOL    HW218771   0.735   1.413   3.038
 5958SOL     OW18772   3.787   6.848   2.786
 5958SOL    HW118773   3.853   6.865   2.713
 5958SOL    HW218774   3.780   6.929   2.844
 5959SOL     OW18775   5.379   2.533   4.552
 5959SOL    HW118776   5.408   2.437   4.545
 5959SOL    HW218777   5.458   2.589   4.577
 5960SOL     OW18778   4.396   0.366   6.221
 5960SOL    HW118779   4.484   0.412   6.217
 5960SOL    HW218780   4.365   0.344   6.128
 5961SOL     OW18781   2.567   2.134   3.017
 5961SOL    HW118782   2.630   2.199   3.060
 5961SOL    HW218783   2.619   2.070   2.960
 5962SOL     OW18784   4.885   6.812   0.616
 5962SOL    HW118785   4.820   6.859   0.556
 5962SOL    HW218786   4.976   6.814   0.574
 5963SOL     OW18787   3.321   4.303   6.955
 5963SOL    HW118788   3.403   4.355   6.931
 5963SOL    HW218789   3.345   4.207   6.970
 5964SOL     OW18790   2.201   6.835   2.681
 5964SOL    HW118791   2.143   6.800   2.607
 5964SOL    HW218792   2.203   6.935   2.677
 5965SOL     OW18793   2.162   0.425   0.442
 5965SOL    HW118794   2.082   0.375   0.408
 5965SOL    HW218795   2.237   0.361   0.454
 5966SOL     OW18796   2.909   1.136   4.905
 5966SOL    HW118797   3.003   1.169   4.902
 5966SOL    HW218798   2.874   1.128   4.811
 5967SOL     OW18799   3.186   1.729   3.876
 5967SOL    HW118800   3.124   1.693   3.806
 5967SOL    HW218801   3.143   1.806   3.922
 5968SOL     OW18802   5.270   2.723   1.178
 5968SOL    HW118803   5.305   2.640   1.135
 5968SOL    HW218804   5.347   2.780   1.209
 5969SOL     OW18805   4.921   0.920   6.912
 5969SOL    HW118806   4.871   1.004   6.934
 5969SOL    HW218807   4.903   0.894   6.817
 5970SOL     OW18808   0.503   3.332   0.585
 5970SOL    HW118809   0.469   3.364   0.674
 5970SOL    HW218810   0.491   3.404   0.517
 5971SOL     OW18811   0.760   6.745   4.014
 5971SOL    HW118812   0.807   6.832   4.028
 5971SOL    HW218813   0.777   6.685   4.092
 5972SOL     OW18814   4.831   5.040   1.076
 5972SOL    HW118815   4.905   5.061   1.012
 5972SOL    HW218816   4.849   4.952   1.120
 5973SOL     OW18817   2.030   2.471   2.454
 5973SOL    HW118818   2.069   2.465   2.362
 5973SOL    HW218819   1.934   2.496   2.448
 5974SOL     OW18820   5.407   1.829   5.841
 5974SOL    HW118821   5.395   1.811   5.743
 5974SOL    HW218822   5.483   1.893   5.854
 5975SOL     OW18823   4.592   4.871   0.666
 5975SOL    HW118824   4.518   4.900   0.605
 5975SOL    HW218825   4.553   4.832   0.749
 5976SOL     OW18826   2.500   3.600   5.713
 5976SOL    HW118827   2.487   3.507   5.747
 5976SOL    HW218828   2.486   3.665   5.788
 5977SOL     OW18829   6.744   4.394   0.599
 5977SOL    HW118830   6.818   4.455   0.628
 5977SOL    HW218831   6.755   4.371   0.502
 5978SOL     OW18832   3.241   4.806   0.971
 5978SOL    HW118833   3.193   4.727   1.009
 5978SOL    HW218834   3.306   4.775   0.902
 5979SOL     OW18835   5.604   0.558   1.628
 5979SOL    HW118836   5.578   0.640   1.679
 5979SOL    HW218837   5.595   0.478   1.688
 5980SOL     OW18838   3.197   3.010   1.276
 5980SOL    HW118839   3.127   3.082   1.278
 5980SOL    HW218840   3.283   3.046   1.312
 5981SOL     OW18841   2.612   2.354   0.527
 5981SOL    HW118842   2.676   2.420   0.489
 5981SOL    HW218843   2.663   2.286   0.581
 5982SOL     OW18844   5.954   2.635   0.996
 5982SOL    HW118845   5.929   2.656   1.090
 5982SOL    HW218846   6.019   2.559   0.995
 5983SOL     OW18847   6.956   0.501   3.601
 5983SOL    HW118848   6.977   0.532   3.509
 5983SOL    HW218849   6.922   0.578   3.655
 5984SOL     OW18850   6.740   6.598   3.563
 5984SOL    HW118851   6.760   6.695   3.578
 5984SOL    HW218852   6.813   6.542   3.602
 5985SOL     OW18853   5.465   2.830   2.846
 5985SOL    HW118854   5.441   2.852   2.941
 5985SOL    HW218855   5.492   2.914   2.799
 5986SOL     OW18856   4.128   3.525   5.050
 5986SOL    HW118857   4.179   3.556   5.130
 5986SOL    HW218858   4.137   3.593   4.977
 5987SOL     OW18859   0.219   0.182   5.465
 5987SOL    HW118860   0.310   0.187   5.506
 5987SOL    HW218861   0.183   0.275   5.453
 5988SOL     OW18862   1.436   2.364   6.327
 5988SOL    HW118863   1.490   2.389   6.408
 5988SOL    HW218864   1.457   2.270   6.300
 5989SOL     OW18865   0.395   5.841   6.488
 5989SOL    HW118866   0.338   5.784   6.428
 5989SOL    HW218867   0.443   5.782   6.554
 5990SOL     OW18868   3.652   5.013   1.820
 5990SOL    HW118869   3.628   4.934   1.876
 5990SOL    HW218870   3.570   5.066   1.799
 5991SOL     OW18871   5.280   6.935   0.866
 5991SOL    HW118872   5.249   6.844   0.841
 5991SOL    HW218873   5.202   6.993   0.889
 5992SOL     OW18874   3.984   6.650   1.961
 5992SOL    HW118875   3.947   6.596   2.037
 5992SOL    HW218876   4.081   6.627   1.948
 5993SOL     OW18877   6.227   1.721   0.138
 5993SOL    HW118878   6.199   1.798   0.196
 5993SOL    HW218879   6.287   1.755   0.065
 5994SOL     OW18880   0.774   3.561   0.588
 5994SOL    HW118881   0.865   3.601   0.577
 5994SOL    HW218882   0.710   3.631   0.618
 5995SOL     OW18883   4.503   3.835   1.195
 5995SOL    HW118884   4.494   3.747   1.243
 5995SOL    HW218885   4.480   3.910   1.256
 5996SOL     OW18886   3.087   5.249   0.960
 5996SOL    HW118887   2.988   5.255   0.954
 5996SOL    HW218888   3.117   5.162   0.920
 5997SOL     OW18889   0.022   6.919   3.667
 5997SOL    HW118890   0.041   6.855   3.593
 5997SOL    HW218891   6.949   6.942   3.668
 5998SOL     OW18892   6.433   6.669   1.494
 5998SOL    HW118893   6.421   6.619   1.408
 5998SOL    HW218894   6.410   6.610   1.571
 5999SOL     OW18895   5.081   2.901   0.788
 5999SOL    HW118896   5.046   2.995   0.789
 5999SOL    HW218897   5.089   2.867   0.882
 6000SOL     OW18898   6.913   4.050   1.458
 6000SOL    HW118899   6.836   4.071   1.398
 6000SOL    HW218900   6.879   4.028   1.549
 6001SOL     OW18901   6.568   5.358   5.381
 6001SOL    HW118902   6.513   5.436   5.352
 6001SOL    HW218903   6.509   5.285   5.413
 6002SOL     OW18904   6.170   5.701   4.253
 6002SOL    HW118905   6.269   5.689   4.249
 6002SOL    HW218906   6.127   5.615   4.277
 6003SOL     OW18907   0.518   3.054   4.707
 6003SOL    HW118908   0.445   3.097   4.653
 6003SOL    HW218909   0.564   2.984   4.651
 6004SOL     OW18910   5.288   2.810   4.318
 6004SOL    HW118911   5.378   2.802   4.276
 6004SOL    HW218912   5.297   2.847   4.411
 6005SOL     OW18913   3.723   5.151   6.341
 6005SOL    HW118914   3.737   5.138   6.439
 6005SOL    HW218915   3.682   5.240   6.324
 6006SOL     OW18916   3.534   6.141   5.878
 6006SOL    HW118917   3.600   6.111   5.946
 6006SOL    HW218918   3.457   6.185   5.923
 6007SOL     OW18919   2.177   5.601   6.557
 6007SOL    HW118920   2.158   5.505   6.535
 6007SOL    HW218921   2.143   5.621   6.649
 6008SOL     OW18922   3.417   3.970   6.075
 6008SOL    HW118923   3.413   3.870   6.076
 6008SOL    HW218924   3.410   4.003   5.981
 6009SOL     OW18925   3.506   5.031   2.884
 6009SOL    HW118926   3.423   5.080   2.858
 6009SOL    HW218927   3.549   4.993   2.803
 6010SOL     OW18928   0.725   5.524   4.876
 6010SOL    HW118929   0.782   5.595   4.915
 6010SOL    HW218930   0.630   5.536   4.906
 6011SOL     OW18931   5.983   1.780   1.854
 6011SOL    HW118932   6.053   1.785   1.926
 6011SOL    HW218933   5.935   1.693   1.860
 6012SOL     OW18934   6.838   0.195   6.200
 6012SOL    HW118935   6.861   0.175   6.295
 6012SOL    HW218936   6.740   0.183   6.187
 6013SOL     OW18937   6.161   1.623   2.716
 6013SOL    HW118938   6.094   1.697   2.719
 6013SOL    HW218939   6.118   1.538   2.747
 6014SOL     OW18940   3.695   3.134   4.192
 6014SOL    HW118941   3.723   3.211   4.250
 6014SOL    HW218942   3.699   3.160   4.096
 6015SOL     OW18943   5.884   1.421   4.481
 6015SOL    HW118944   5.901   1.333   4.435
 6015SOL    HW218945   5.789   1.424   4.512
 6016SOL     OW18946   5.176   1.142   4.831
 6016SOL    HW118947   5.093   1.096   4.863
 6016SOL    HW218948   5.156   1.196   4.750
 6017SOL     OW18949   6.790   2.127   5.292
 6017SOL    HW118950   6.829   2.108   5.382
 6017SOL    HW218951   6.739   2.047   5.260
 6018SOL     OW18952   3.159   0.895   5.394
 6018SOL    HW118953   3.096   0.943   5.455
 6018SOL    HW218954   3.152   0.932   5.301
 6019SOL     OW18955   6.899   3.466   6.894
 6019SOL    HW118956   6.878   3.542   6.831
 6019SOL    HW218957   6.996   3.444   6.888
 6020SOL     OW18958   0.725   4.804   6.728
 6020SOL    HW118959   0.684   4.800   6.819
 6020SOL    HW218960   0.655   4.824   6.660
 6021SOL     OW18961   4.996   0.335   3.270
 6021SOL    HW118962   5.089   0.364   3.246
 6021SOL    HW218963   4.973   0.251   3.220
 6022SOL     OW18964   5.913   1.510   1.893
 6022SOL    HW118965   5.897   1.489   1.989
 6022SOL    HW218966   5.859   1.448   1.836
 6023SOL     OW18967   4.123   0.648   2.203
 6023SOL    HW118968   4.161   0.600   2.124
 6023SOL    HW218969   4.055   0.715   2.173
 6024SOL     OW18970   0.719   5.667   0.256
 6024SOL    HW118971   0.761   5.688   0.344
 6024SOL    HW218972   0.759   5.724   0.185
 6025SOL     OW18973   2.988   0.913   4.406
 6025SOL    HW118974   3.021   0.911   4.500
 6025SOL    HW218975   2.894   0.878   4.403
 6026SOL     OW18976   6.573   4.263   4.677
 6026SOL    HW118977   6.660   4.222   4.705
 6026SOL    HW218978   6.555   4.242   4.581
 6027SOL     OW18979   5.614   4.066   6.556
 6027SOL    HW118980   5.576   4.159   6.551
 6027SOL    HW218981   5.605   4.032   6.649
 6028SOL     OW18982   5.687   5.017   6.615
 6028SOL    HW118983   5.672   5.035   6.518
 6028SOL    HW218984   5.747   5.088   6.653
 6029SOL     OW18985   2.274   0.726   3.102
 6029SOL    HW118986   2.232   0.658   3.162
 6029SOL    HW218987   2.202   0.777   3.055
 6030SOL     OW18988   5.399   3.597   4.407
 6030SOL    HW118989   5.309   3.594   4.451
 6030SOL    HW218990   5.414   3.512   4.357
 6031SOL     OW18991   0.984   5.944   5.095
 6031SOL    HW118992   1.054   5.982   5.157
 6031SOL    HW218993   1.003   5.973   5.002
 6032SOL     OW18994   3.319   6.170   3.584
 6032SOL    HW118995   3.391   6.122   3.533
 6032SOL    HW218996   3.235   6.116   3.581
 6033SOL     OW18997   1.947   1.860   2.462
 6033SOL    HW118998   2.033   1.851   2.412
 6033SOL    HW218999   1.965   1.887   2.556
 6034SOL     OW19000   0.348   0.750   0.490
 6034SOL    HW119001   0.354   0.831   0.548
 6034SOL    HW219002   0.417   0.755   0.418
 6035SOL     OW19003   1.662   0.527   2.503
 6035SOL    HW119004   1.667   0.563   2.410
 6035SOL    HW219005   1.692   0.597   2.568
 6036SOL     OW19006   6.423   2.276   0.720
 6036SOL    HW119007   6.424   2.340   0.797
 6036SOL    HW219008   6.340   2.290   0.666
 6037SOL     OW19009   5.053   2.401   0.407
 6037SOL    HW119010   4.972   2.449   0.439
 6037SOL    HW219011   5.090   2.447   0.326
 6038SOL     OW19012   0.080   1.821   5.965
 6038SOL    HW119013   0.089   1.779   6.055
 6038SOL    HW219014   0.150   1.784   5.903
 6039SOL     OW19015   3.649   3.657   3.615
 6039SOL    HW119016   3.583   3.708   3.560
 6039SOL    HW219017   3.602   3.584   3.664
 6040SOL     OW19018   0.570   1.962   0.438
 6040SOL    HW119019   0.641   1.911   0.389
 6040SOL    HW219020   0.480   1.933   0.405
 6041SOL     OW19021   2.517   3.346   5.835
 6041SOL    HW119022   2.492   3.288   5.756
 6041SOL    HW219023   2.519   3.290   5.917
 6042SOL     OW19024   3.649   6.171   3.252
 6042SOL    HW119025   3.726   6.199   3.194
 6042SOL    HW219026   3.579   6.242   3.253
 6043SOL     OW19027   2.391   0.281   3.817
 6043SOL    HW119028   2.485   0.292   3.849
 6043SOL    HW219029   2.350   0.201   3.860
 6044SOL     OW19030   0.567   3.022   1.445
 6044SOL    HW119031   0.487   3.023   1.385
 6044SOL    HW219032   0.620   3.106   1.432
 6045SOL     OW19033   5.005   1.887   3.256
 6045SOL    HW119034   4.912   1.866   3.286
 6045SOL    HW219035   5.006   1.976   3.211
 6046SOL     OW19036   3.151   2.948   2.566
 6046SOL    HW119037   3.077   2.913   2.508
 6046SOL    HW219038   3.234   2.959   2.511
 6047SOL     OW19039   5.976   1.515   0.709
 6047SOL    HW119040   6.021   1.465   0.783
 6047SOL    HW219041   5.877   1.499   0.713
 6048SOL     OW19042   6.056   5.801   4.486
 6048SOL    HW119043   6.082   5.779   4.392
 6048SOL    HW219044   6.129   5.855   4.530
 6049SOL     OW19045   4.352   4.860   5.330
 6049SOL    HW119046   4.320   4.884   5.421
 6049SOL    HW219047   4.431   4.918   5.306
 6050SOL     OW19048   3.985   6.513   1.573
 6050SOL    HW119049   4.026   6.561   1.495
 6050SOL    HW219050   4.058   6.474   1.630
 6051SOL     OW19051   1.083   1.206   3.438
 6051SOL    HW119052   1.013   1.274   3.418
 6051SOL    HW219053   1.159   1.215   3.373
 6052SOL     OW19054   5.481   6.594   0.362
 6052SOL    HW119055   5.423   6.657   0.312
 6052SOL    HW219056   5.482   6.505   0.316
 6053SOL     OW19057   4.049   2.589   6.167
 6053SOL    HW119058   4.067   2.641   6.084
 6053SOL    HW219059   4.131   2.540   6.195
 6054SOL     OW19060   3.692   4.247   1.108
 6054SOL    HW119061   3.720   4.299   1.027
 6054SOL    HW219062   3.693   4.150   1.087
 6055SOL     OW19063   3.333   4.642   0.752
 6055SOL    HW119064   3.417   4.667   0.703
 6055SOL    HW219065   3.254   4.653   0.690
 6056SOL     OW19066   5.577   5.431   5.210
 6056SOL    HW119067   5.523   5.357   5.251
 6056SOL    HW219068   5.516   5.497   5.167
 6057SOL     OW19069   4.979   0.554   4.443
 6057SOL    HW119070   5.023   0.641   4.464
 6057SOL    HW219071   4.885   0.569   4.415
 6058SOL     OW19072   5.436   2.187   6.034
 6058SOL    HW119073   5.360   2.126   6.057
 6058SOL    HW219074   5.512   2.134   5.997
 6059SOL     OW19075   4.109   4.058   6.813
 6059SOL    HW119076   4.134   3.977   6.867
 6059SOL    HW219077   4.061   4.030   6.730
 6060SOL     OW19078   2.292   3.116   6.486
 6060SOL    HW119079   2.297   3.089   6.390
 6060SOL    HW219080   2.201   3.098   6.522
 6061SOL     OW19081   3.508   5.095   6.913
 6061SOL    HW119082   3.409   5.082   6.913
 6061SOL    HW219083   3.552   5.021   6.862
 6062SOL     OW19084   1.796   2.330   6.966
 6062SOL    HW119085   1.786   2.231   6.969
 6062SOL    HW219086   1.710   2.373   6.996
 6063SOL     OW19087   4.117   4.609   6.313
 6063SOL    HW119088   4.055   4.652   6.246
 6063SOL    HW219089   4.211   4.614   6.279
 6064SOL     OW19090   6.725   5.691   0.813
 6064SOL    HW119091   6.770   5.710   0.900
 6064SOL    HW219092   6.658   5.763   0.794
 6065SOL     OW19093   0.751   5.994   2.266
 6065SOL    HW119094   0.675   5.964   2.323
 6065SOL    HW219095   0.729   6.082   2.224
 6066SOL     OW19096   5.529   6.380   3.336
 6066SOL    HW119097   5.588   6.454   3.368
 6066SOL    HW219098   5.433   6.409   3.342
 6067SOL     OW19099   5.681   0.588   6.259
 6067SOL    HW119100   5.653   0.585   6.355
 6067SOL    HW219101   5.600   0.596   6.202
 6068SOL     OW19102   4.548   1.844   5.438
 6068SOL    HW119103   4.605   1.775   5.482
 6068SOL    HW219104   4.518   1.811   5.348
 6069SOL     OW19105   0.285   3.767   6.497
 6069SOL    HW119106   0.265   3.675   6.465
 6069SOL    HW219107   0.204   3.808   6.539
 6070SOL     OW19108   2.737   1.549   0.676
 6070SOL    HW119109   2.666   1.619   0.686
 6070SOL    HW219110   2.707   1.481   0.609
 6071SOL     OW19111   6.224   6.923   5.169
 6071SOL    HW119112   6.241   6.853   5.100
 6071SOL    HW219113   6.214   7.012   5.124
 6072SOL     OW19114   0.290   2.705   0.821
 6072SOL    HW119115   0.210   2.695   0.762
 6072SOL    HW219116   0.373   2.695   0.767
 6073SOL     OW19117   4.418   2.608   0.294
 6073SOL    HW119118   4.435   2.705   0.275
 6073SOL    HW219119   4.388   2.598   0.389
 6074SOL     OW19120   0.310   6.257   2.921
 6074SOL    HW119121   0.262   6.201   2.853
 6074SOL    HW219122   0.246   6.324   2.959
 6075SOL     OW19123   4.929   6.928   6.727
 6075SOL    HW119124   4.908   6.956   6.820
 6075SOL    HW219125   4.942   7.009   6.670
 6076SOL     OW19126   1.298   5.062   3.635
 6076SOL    HW119127   1.349   4.988   3.591
 6076SOL    HW219128   1.261   5.123   3.564
 6077SOL     OW19129   5.293   6.602   1.927
 6077SOL    HW119130   5.347   6.519   1.915
 6077SOL    HW219131   5.243   6.598   2.013
 6078SOL     OW19132   4.126   3.425   0.497
 6078SOL    HW119133   4.103   3.353   0.563
 6078SOL    HW219134   4.046   3.445   0.441
 6079SOL     OW19135   3.220   3.818   6.696
 6079SOL    HW119136   3.271   3.892   6.653
 6079SOL    HW219137   3.274   3.734   6.692
 6080SOL     OW19138   0.292   4.174   6.881
 6080SOL    HW119139   0.295   4.209   6.787
 6080SOL    HW219140   0.358   4.223   6.937
 6081SOL     OW19141   1.829   3.284   4.467
 6081SOL    HW119142   1.906   3.334   4.426
 6081SOL    HW219143   1.758   3.270   4.398
 6082SOL     OW19144   4.667   0.942   0.975
 6082SOL    HW119145   4.575   0.942   1.013
 6082SOL    HW219146   4.707   0.850   0.985
 6083SOL     OW19147   4.909   0.122   6.582
 6083SOL    HW119148   4.875   0.116   6.488
 6083SOL    HW219149   4.915   0.218   6.610
 6084SOL     OW19150   0.124   6.473   2.963
 6084SOL    HW119151   0.072   6.444   2.883
 6084SOL    HW219152   0.063   6.517   3.029
 6085SOL     OW19153   0.386   6.017   0.875
 6085SOL    HW119154   0.303   6.046   0.924
 6085SOL    HW219155   0.466   6.053   0.922
 6086SOL     OW19156   3.677   3.617   6.374
 6086SOL    HW119157   3.678   3.585   6.468
 6086SOL    HW219158   3.636   3.709   6.369
 6087SOL     OW19159   5.113   6.727   0.967
 6087SOL    HW119160   5.036   6.701   1.025
 6087SOL    HW219161   5.179   6.780   1.020
 6088SOL     OW19162   5.224   6.708   3.468
 6088SOL    HW119163   5.257   6.636   3.407
 6088SOL    HW219164   5.231   6.677   3.563
 6089SOL     OW19165   6.169   3.706   3.266
 6089SOL    HW119166   6.079   3.748   3.269
 6089SOL    HW219167   6.235   3.771   3.228
 6090SOL     OW19168   4.179   6.549   4.059
 6090SOL    HW119169   4.099   6.521   4.007
 6090SOL    HW219170   4.259   6.552   3.998
 6091SOL     OW19171   2.074   1.160   1.760
 6091SOL    HW119172   1.986   1.112   1.750
 6091SOL    HW219173   2.075   1.240   1.701
 6092SOL     OW19174   4.365   6.192   1.105
 6092SOL    HW119175   4.307   6.265   1.140
 6092SOL    HW219176   4.333   6.164   1.015
 6093SOL     OW19177   2.204   1.832   2.310
 6093SOL    HW119178   2.303   1.841   2.307
 6093SOL    HW219179   2.162   1.908   2.260
 6094SOL     OW19180   0.670   5.935   4.797
 6094SOL    HW119181   0.686   5.836   4.793
 6094SOL    HW219182   0.676   5.965   4.892
 6095SOL     OW19183   4.679   5.703   0.820
 6095SOL    HW119184   4.628   5.747   0.894
 6095SOL    HW219185   4.616   5.674   0.748
 6096SOL     OW19186   5.815   6.318   3.003
 6096SOL    HW119187   5.773   6.384   2.941
 6096SOL    HW219188   5.744   6.268   3.052
 6097SOL     OW19189   2.164   6.156   2.467
 6097SOL    HW119190   2.125   6.130   2.555
 6097SOL    HW219191   2.093   6.153   2.397
 6098SOL     OW19192   6.392   0.843   4.788
 6098SOL    HW119193   6.454   0.766   4.802
 6098SOL    HW219194   6.425   0.899   4.712
 6099SOL     OW19195   4.294   0.299   5.964
 6099SOL    HW119196   4.261   0.391   5.985
 6099SOL    HW219197   4.257   0.269   5.877
 6100SOL     OW19198   0.152   6.153   4.771
 6100SOL    HW119199   0.174   6.066   4.726
 6100SOL    HW219200   0.138   6.224   4.702
 6101SOL     OW19201   6.024   2.703   1.315
 6101SOL    HW119202   6.108   2.653   1.334
 6101SOL    HW219203   5.977   2.723   1.401
 6102SOL     OW19204   4.792   0.033   2.796
 6102SOL    HW119205   4.760   0.014   2.889
 6102SOL    HW219206   4.840   0.121   2.795
 6103SOL     OW19207   0.138   1.831   1.594
 6103SOL    HW119208   0.102   1.741   1.619
 6103SOL    HW219209   0.064   1.897   1.593
 6104SOL     OW19210   6.767   0.945   4.454
 6104SOL    HW119211   6.747   0.950   4.552
 6104SOL    HW219212   6.780   1.038   4.418
 6105SOL     OW19213   2.932   4.622   5.498
 6105SOL    HW119214   2.977   4.667   5.422
 6105SOL    HW219215   2.858   4.563   5.464
 6106SOL     OW19216   6.261   4.978   6.708
 6106SOL    HW119217   6.355   5.004   6.728
 6106SOL    HW219218   6.205   5.060   6.698
 6107SOL     OW19219   5.239   4.683   5.746
 6107SOL    HW119220   5.299   4.763   5.744
 6107SOL    HW219221   5.165   4.696   5.680
 6108SOL     OW19222   2.177   1.138   1.134
 6108SOL    HW119223   2.166   1.070   1.206
 6108SOL    HW219224   2.132   1.107   1.051
 6109SOL     OW19225   6.284   0.094   3.460
 6109SOL    HW119226   6.354   0.096   3.389
 6109SOL    HW219227   6.217   0.166   3.443
 6110SOL     OW19228   1.621   1.739   4.850
 6110SOL    HW119229   1.614   1.821   4.794
 6110SOL    HW219230   1.713   1.734   4.890
 6111SOL     OW19231   1.721   4.207   1.215
 6111SOL    HW119232   1.716   4.111   1.243
 6111SOL    HW219233   1.794   4.218   1.148
 6112SOL     OW19234   4.814   0.332   2.660
 6112SOL    HW119235   4.733   0.311   2.715
 6112SOL    HW219236   4.786   0.367   2.571
 6113SOL     OW19237   2.613   5.647   0.253
 6113SOL    HW119238   2.660   5.611   0.172
 6113SOL    HW219239   2.601   5.746   0.243
 6114SOL     OW19240   4.915   1.469   0.687
 6114SOL    HW119241   4.983   1.542   0.688
 6114SOL    HW219242   4.866   1.467   0.774
 6115SOL     OW19243   1.019   0.419   5.359
 6115SOL    HW119244   0.960   0.349   5.319
 6115SOL    HW219245   1.013   0.503   5.306
 6116SOL     OW19246   4.956   2.118   5.588
 6116SOL    HW119247   4.864   2.151   5.608
 6116SOL    HW219248   4.957   2.018   5.594
 6117SOL     OW19249   1.751   2.032   1.507
 6117SOL    HW119250   1.772   1.952   1.451
 6117SOL    HW219251   1.672   2.080   1.469
 6118SOL     OW19252   6.081   0.248   0.088
 6118SOL    HW119253   6.048   0.341   0.101
 6118SOL    HW219254   6.003   0.185   0.090
 6119SOL     OW19255   6.602   1.820   0.732
 6119SOL    HW119256   6.627   1.724   0.735
 6119SOL    HW219257   6.581   1.852   0.824
 6120SOL     OW19258   2.046   0.921   5.344
 6120SOL    HW119259   2.125   0.965   5.385
 6120SOL    HW219260   2.017   0.972   5.263
 6121SOL     OW19261   0.564   2.889   5.227
 6121SOL    HW119262   0.528   2.857   5.139
 6121SOL    HW219263   0.540   2.985   5.241
 6122SOL     OW19264   5.314   5.676   5.615
 6122SOL    HW119265   5.353   5.678   5.708
 6122SOL    HW219266   5.385   5.649   5.550
 6123SOL     OW19267   5.766   1.765   4.993
 6123SOL    HW119268   5.686   1.824   4.982
 6123SOL    HW219269   5.790   1.724   4.905
 6124SOL     OW19270   2.077   7.020   4.311
 6124SOL    HW119271   1.978   0.001   4.299
 6124SOL    HW219272   2.123   0.041   4.235
 6125SOL     OW19273   1.852   2.144   6.552
 6125SOL    HW119274   1.928   2.134   6.617
 6125SOL    HW219275   1.843   2.240   6.526
 6126SOL     OW19276   6.393   2.700   5.522
 6126SOL    HW119277   6.490   2.683   5.505
 6126SOL    HW219278   6.366   2.784   5.474
 6127SOL     OW19279   3.967   2.050   1.835
 6127SOL    HW119280   3.938   1.954   1.834
 6127SOL    HW219281   4.054   2.059   1.788
 6128SOL     OW19282   5.801   6.086   0.292
 6128SOL    HW119283   5.712   6.067   0.250
 6128SOL    HW219284   5.872   6.086   0.222
 6129SOL     OW19285   1.799   5.438   2.733
 6129SOL    HW119286   1.779   5.480   2.645
 6129SOL    HW219287   1.896   5.412   2.737
 6130SOL     OW19288   5.020   2.437   1.080
 6130SOL    HW119289   5.114   2.460   1.054
 6130SOL    HW219290   4.961   2.516   1.064
 6131SOL     OW19291   6.931   1.786   2.655
 6131SOL    HW119292   6.904   1.740   2.570
 6131SOL    HW219293   0.001   1.815   2.649
 6132SOL     OW19294   3.608   1.272   6.585
 6132SOL    HW119295   3.596   1.174   6.601
 6132SOL    HW219296   3.538   1.323   6.635
 6133SOL     OW19297   1.790   1.702   3.938
 6133SOL    HW119298   1.857   1.764   3.898
 6133SOL    HW219299   1.798   1.703   4.038
 6134SOL     OW19300   5.233   6.981   6.421
 6134SOL    HW119301   5.210   6.898   6.472
 6134SOL    HW219302   5.160   7.002   6.356
 6135SOL     OW19303   6.429   0.109   6.401
 6135SOL    HW119304   6.437   0.153   6.491
 6135SOL    HW219305   6.466   0.016   6.407
 6136SOL     OW19306   1.646   3.026   2.184
 6136SOL    HW119307   1.645   2.943   2.240
 6136SOL    HW219308   1.553   3.050   2.157
 6137SOL     OW19309   6.702   4.245   2.553
 6137SOL    HW119310   6.801   4.240   2.538
 6137SOL    HW219311   6.662   4.156   2.532
 6138SOL     OW19312   3.230   0.109   2.017
 6138SOL    HW119313   3.152   0.172   2.014
 6138SOL    HW219314   3.244   0.078   2.111
 6139SOL     OW19315   2.053   0.507   5.914
 6139SOL    HW119316   2.059   0.421   5.965
 6139SOL    HW219317   1.969   0.554   5.939
 6140SOL     OW19318   1.650   6.790   3.288
 6140SOL    HW119319   1.639   6.883   3.323
 6140SOL    HW219320   1.744   6.777   3.258
 6141SOL     OW19321   0.616   0.249   5.822
 6141SOL    HW119322   0.637   0.341   5.856
 6141SOL    HW219323   0.667   0.181   5.875
 6142SOL     OW19324   0.562   0.032   0.907
 6142SOL    HW119325   0.565   0.094   0.829
 6142SOL    HW219326   0.468   0.001   0.922
 6143SOL     OW19327   6.561   4.093   5.977
 6143SOL    HW119328   6.620   4.094   6.058
 6143SOL    HW219329   6.469   4.123   6.002
 6144SOL     OW19330   3.832   5.022   2.624
 6144SOL    HW119331   3.779   5.022   2.540
 6144SOL    HW219332   3.788   4.962   2.692
 6145SOL     OW19333   5.036   3.037   4.675
 6145SOL    HW119334   5.021   3.054   4.578
 6145SOL    HW219335   5.076   2.946   4.687
 6146SOL     OW19336   5.385   0.281   5.222
 6146SOL    HW119337   5.331   0.200   5.201
 6146SOL    HW219338   5.456   0.293   5.153
 6147SOL     OW19339   1.639   2.196   3.749
 6147SOL    HW119340   1.695   2.274   3.724
 6147SOL    HW219341   1.613   2.203   3.846
 6148SOL     OW19342   3.081   5.976   0.581
 6148SOL    HW119343   3.095   5.877   0.577
 6148SOL    HW219344   3.163   6.023   0.549
 6149SOL     OW19345   2.993   0.021   2.241
 6149SOL    HW119346   3.089   0.040   2.218
 6149SOL    HW219347   2.965   6.959   2.200
 6150SOL     OW19348   6.166   4.172   6.522
 6150SOL    HW119349   6.158   4.138   6.615
 6150SOL    HW219350   6.248   4.134   6.479
 6151SOL     OW19351   4.570   4.410   4.431
 6151SOL    HW119352   4.541   4.469   4.355
 6151SOL    HW219353   4.604   4.324   4.394
 6152SOL     OW19354   0.948   4.599   4.039
 6152SOL    HW119355   1.031   4.641   4.002
 6152SOL    HW219356   0.971   4.547   4.121
 6153SOL     OW19357   5.020   5.136   0.907
 6153SOL    HW119358   4.953   5.177   0.846
 6153SOL    HW219359   5.090   5.204   0.929
 6154SOL     OW19360   6.121   3.282   1.993
 6154SOL    HW119361   6.051   3.340   2.035
 6154SOL    HW219362   6.083   3.191   1.976
 6155SOL     OW19363   2.334   1.054   3.113
 6155SOL    HW119364   2.292   1.067   3.203
 6155SOL    HW219365   2.433   1.047   3.123
 6156SOL     OW19366   4.881   4.984   1.480
 6156SOL    HW119367   4.949   4.928   1.528
 6156SOL    HW219368   4.921   5.017   1.394
 6157SOL     OW19369   1.448   2.019   2.390
 6157SOL    HW119370   1.453   1.951   2.317
 6157SOL    HW219371   1.439   2.110   2.350
 6158SOL     OW19372   2.886   2.835   5.629
 6158SOL    HW119373   2.895   2.810   5.532
 6158SOL    HW219374   2.977   2.854   5.666
 6159SOL     OW19375   5.371   2.931   0.003
 6159SOL    HW119376   5.327   2.907   6.941
 6159SOL    HW219377   5.456   2.980   7.009
 6160SOL     OW19378   0.627   0.190   6.965
 6160SOL    HW119379   0.671   0.151   6.884
 6160SOL    HW219380   0.658   0.284   6.978
 6161SOL     OW19381   4.651   2.534   6.472
 6161SOL    HW119382   4.677   2.625   6.442
 6161SOL    HW219383   4.619   2.537   6.567
 6162SOL     OW19384   6.346   5.615   2.391
 6162SOL    HW119385   6.298   5.564   2.320
 6162SOL    HW219386   6.323   5.578   2.481
 6163SOL     OW19387   5.803   5.991   3.055
 6163SOL    HW119388   5.736   5.984   3.129
 6163SOL    HW219389   5.855   5.906   3.049
 6164SOL     OW19390   3.813   4.133   4.626
 6164SOL    HW119391   3.826   4.185   4.710
 6164SOL    HW219392   3.899   4.129   4.576
 6165SOL     OW19393   3.835   1.988   0.392
 6165SOL    HW119394   3.800   2.020   0.479
 6165SOL    HW219395   3.884   1.902   0.405
 6166SOL     OW19396   0.604   2.175   0.281
 6166SOL    HW119397   0.574   2.152   0.189
 6166SOL    HW219398   0.588   2.097   0.342
 6167SOL     OW19399   1.109   3.728   3.431
 6167SOL    HW119400   1.208   3.730   3.444
 6167SOL    HW219401   1.063   3.753   3.516
 6168SOL     OW19402   0.769   3.422   4.193
 6168SOL    HW119403   0.843   3.472   4.146
 6168SOL    HW219404   0.764   3.453   4.288
 6169SOL     OW19405   2.448   6.961   0.360
 6169SOL    HW119406   2.386   6.887   0.388
 6169SOL    HW219407   2.496   6.996   0.440
 6170SOL     OW19408   3.884   4.261   6.579
 6170SOL    HW119409   3.869   4.231   6.673
 6170SOL    HW219410   3.931   4.349   6.579
 6171SOL     OW19411   2.031   4.650   2.568
 6171SOL    HW119412   1.967   4.648   2.644
 6171SOL    HW219413   2.011   4.728   2.509
 6172SOL     OW19414   1.256   6.269   3.054
 6172SOL    HW119415   1.182   6.336   3.061
 6172SOL    HW219416   1.241   6.195   3.119
 6173SOL     OW19417   1.401   5.164   2.718
 6173SOL    HW119418   1.455   5.247   2.721
 6173SOL    HW219419   1.461   5.084   2.719
 6174SOL     OW19420   5.216   5.340   2.991
 6174SOL    HW119421   5.272   5.379   3.063
 6174SOL    HW219422   5.266   5.265   2.946
 6175SOL     OW19423   4.475   0.631   3.580
 6175SOL    HW119424   4.404   0.665   3.641
 6175SOL    HW219425   4.467   0.531   3.573
 6176SOL     OW19426   6.024   3.409   6.094
 6176SOL    HW119427   6.072   3.366   6.017
 6176SOL    HW219428   6.088   3.465   6.146
 6177SOL     OW19429   5.080   2.230   0.644
 6177SOL    HW119430   5.108   2.318   0.606
 6177SOL    HW219431   5.136   2.209   0.725
 6178SOL     OW19432   5.529   3.675   0.763
 6178SOL    HW119433   5.513   3.576   0.763
 6178SOL    HW219434   5.506   3.713   0.673
 6179SOL     OW19435   0.252   2.633   5.505
 6179SOL    HW119436   0.159   2.596   5.502
 6179SOL    HW219437   0.279   2.647   5.600
 6180SOL     OW19438   4.028   6.878   1.167
 6180SOL    HW119439   3.992   6.786   1.182
 6180SOL    HW219440   3.974   6.944   1.221
 6181SOL     OW19441   5.063   6.475   6.517
 6181SOL    HW119442   4.983   6.416   6.506
 6181SOL    HW219443   5.144   6.417   6.534
 6182SOL     OW19444   4.923   6.151   6.256
 6182SOL    HW119445   4.870   6.080   6.210
 6182SOL    HW219446   5.019   6.142   6.232
 6183SOL     OW19447   2.805   6.899   3.497
 6183SOL    HW119448   2.893   6.851   3.499
 6183SOL    HW219449   2.771   6.902   3.403
 6184SOL     OW19450   0.823   0.528   6.394
 6184SOL    HW119451   0.893   0.456   6.389
 6184SOL    HW219452   0.754   0.503   6.462
 6185SOL     OW19453   0.111   3.353   6.225
 6185SOL    HW119454   0.084   3.262   6.194
 6185SOL    HW219455   0.128   3.412   6.146
 6186SOL     OW19456   5.400   0.487   4.410
 6186SOL    HW119457   5.343   0.566   4.388
 6186SOL    HW219458   5.489   0.518   4.444
 6187SOL     OW19459   4.559   4.585   4.204
 6187SOL    HW119460   4.619   4.579   4.125
 6187SOL    HW219461   4.466   4.609   4.174
 6188SOL     OW19462   2.850   6.573   1.299
 6188SOL    HW119463   2.829   6.515   1.220
 6188SOL    HW219464   2.792   6.547   1.376
 6189SOL     OW19465   5.789   5.093   3.453
 6189SOL    HW119466   5.812   5.180   3.497
 6189SOL    HW219467   5.709   5.053   3.497
 6190SOL     OW19468   5.440   2.764   6.590
 6190SOL    HW119469   5.462   2.675   6.552
 6190SOL    HW219470   5.420   2.828   6.516
 6191SOL     OW19471   5.738   1.970   7.007
 6191SOL    HW119472   5.828   1.934   6.982
 6191SOL    HW219473   5.690   1.903   0.041
 6192SOL     OW19474   2.454   2.969   6.660
 6192SOL    HW119475   2.405   3.020   6.590
 6192SOL    HW219476   2.405   2.976   6.747
 6193SOL     OW19477   5.574   0.255   2.049
 6193SOL    HW119478   5.549   0.161   2.071
 6193SOL    HW219479   5.562   0.313   2.130
 6194SOL     OW19480   2.943   0.477   1.105
 6194SOL    HW119481   2.901   0.532   1.033
 6194SOL    HW219482   2.872   0.446   1.169
 6195SOL     OW19483   3.200   6.844   6.611
 6195SOL    HW119484   3.280   6.808   6.563
 6195SOL    HW219485   3.129   6.867   6.544
 6196SOL     OW19486   0.695   2.124   5.932
 6196SOL    HW119487   0.610   2.094   5.889
 6196SOL    HW219488   0.687   2.118   6.031
 6197SOL     OW19489   2.432   3.657   0.724
 6197SOL    HW119490   2.462   3.728   0.660
 6197SOL    HW219491   2.430   3.569   0.677
 6198SOL     OW19492   3.641   4.936   2.456
 6198SOL    HW119493   3.617   4.966   2.364
 6198SOL    HW219494   3.557   4.928   2.511
 6199SOL     OW19495   1.572   6.729   0.360
 6199SOL    HW119496   1.647   6.793   0.372
 6199SOL    HW219497   1.488   6.780   0.339
 6200SOL     OW19498   3.820   0.961   6.433
 6200SOL    HW119499   3.800   0.965   6.531
 6200SOL    HW219500   3.893   1.027   6.412
 6201SOL     OW19501   2.008   3.979   5.382
 6201SOL    HW119502   1.935   4.039   5.350
 6201SOL    HW219503   2.097   4.017   5.357
 6202SOL     OW19504   2.750   1.953   0.954
 6202SOL    HW119505   2.815   2.020   0.990
 6202SOL    HW219506   2.797   1.866   0.938
 6203SOL     OW19507   5.027   1.040   4.575
 6203SOL    HW119508   5.070   1.126   4.549
 6203SOL    HW219509   4.928   1.046   4.558
 6204SOL     OW19510   2.526   6.045   5.424
 6204SOL    HW119511   2.433   6.083   5.418
 6204SOL    HW219512   2.562   6.030   5.332
 6205SOL     OW19513   5.075   6.056   6.908
 6205SOL    HW119514   5.167   6.084   6.934
 6205SOL    HW219515   5.060   5.960   6.935
 6206SOL     OW19516   6.017   0.162   2.805
 6206SOL    HW119517   6.034   0.152   2.707
 6206SOL    HW219518   6.006   0.259   2.827
 6207SOL     OW19519   1.567   3.898   4.776
 6207SOL    HW119520   1.550   3.857   4.686
 6207SOL    HW219521   1.663   3.925   4.782
 6208SOL     OW19522   5.814   0.021   6.279
 6208SOL    HW119523   5.874   0.096   6.306
 6208SOL    HW219524   5.739   0.057   6.223
 6209SOL     OW19525   4.377   6.725   7.009
 6209SOL    HW119526   4.389   6.632   0.018
 6209SOL    HW219527   4.457   6.780   0.008
 6210SOL     OW19528   5.629   4.313   3.252
 6210SOL    HW119529   5.598   4.367   3.330
 6210SOL    HW219530   5.619   4.216   3.273
 6211SOL     OW19531   2.896   0.074   4.722
 6211SOL    HW119532   2.946   0.126   4.791
 6211SOL    HW219533   2.924   7.002   4.727
 6212SOL     OW19534   6.446   6.318   3.768
 6212SOL    HW119535   6.418   6.222   3.763
 6212SOL    HW219536   6.524   6.327   3.830
 6213SOL     OW19537   6.409   0.796   6.566
 6213SOL    HW119538   6.417   0.733   6.489
 6213SOL    HW219539   6.312   0.819   6.580
 6214SOL     OW19540   6.616   4.822   2.435
 6214SOL    HW119541   6.583   4.876   2.513
 6214SOL    HW219542   6.538   4.801   2.375
 6215SOL     OW19543   2.898   2.896   1.048
 6215SOL    HW119544   2.873   2.805   1.015
 6215SOL    HW219545   2.988   2.921   1.013
 6216SOL     OW19546   5.654   1.751   2.181
 6216SOL    HW119547   5.652   1.743   2.082
 6216SOL    HW219548   5.632   1.662   2.222
 6217SOL     OW19549   4.594   2.058   1.034
 6217SOL    HW119550   4.613   1.998   1.112
 6217SOL    HW219551   4.564   2.002   0.956
 6218SOL     OW19552   2.585   5.029   4.489
 6218SOL    HW119553   2.632   5.056   4.405
 6218SOL    HW219554   2.590   4.930   4.500
 6219SOL     OW19555   0.992   2.377   5.044
 6219SOL    HW119556   1.087   2.397   5.066
 6219SOL    HW219557   0.932   2.434   5.100
 6220SOL     OW19558   2.426   4.801   5.059
 6220SOL    HW119559   2.450   4.704   5.045
 6220SOL    HW219560   2.469   4.833   5.144
 6221SOL     OW19561   4.060   4.915   4.351
 6221SOL    HW119562   3.985   4.904   4.285
 6221SOL    HW219563   4.108   5.000   4.332
 6222SOL     OW19564   6.636   6.962   2.031
 6222SOL    HW119565   6.574   0.016   2.036
 6222SOL    HW219566   6.600   6.894   1.968
 6223SOL     OW19567   5.699   3.001   4.528
 6223SOL    HW119568   5.705   3.062   4.607
 6223SOL    HW219569   5.769   2.930   4.536
 6224SOL     OW19570   2.197   1.536   5.198
 6224SOL    HW119571   2.296   1.545   5.212
 6224SOL    HW219572   2.179   1.509   5.103
 6225SOL     OW19573   3.165   3.303   0.574
 6225SOL    HW119574   3.080   3.259   0.604
 6225SOL    HW219575   3.224   3.235   0.532
 6226SOL     OW19576   5.521   0.549   3.907
 6226SOL    HW119577   5.491   0.614   3.976
 6226SOL    HW219578   5.466   0.466   3.913
 6227SOL     OW19579   3.475   4.443   5.720
 6227SOL    HW119580   3.489   4.387   5.802
 6227SOL    HW219581   3.377   4.449   5.700
 6228SOL     OW19582   0.046   1.506   3.341
 6228SOL    HW119583   6.994   1.440   3.338
 6228SOL    HW219584   0.107   1.490   3.264
 6229SOL     OW19585   2.247   2.404   2.849
 6229SOL    HW119586   2.284   2.483   2.897
 6229SOL    HW219587   2.322   2.346   2.815
 6230SOL     OW19588   2.122   2.064   4.040
 6230SOL    HW119589   2.168   2.024   4.119
 6230SOL    HW219590   2.145   2.161   4.033
 6231SOL     OW19591   0.264   5.057   1.321
 6231SOL    HW119592   0.184   5.066   1.381
 6231SOL    HW219593   0.277   5.143   1.271
 6232SOL     OW19594   0.205   0.595   0.322
 6232SOL    HW119595   0.144   0.521   0.349
 6232SOL    HW219596   0.218   0.658   0.399
 6233SOL     OW19597   4.957   2.023   6.353
 6233SOL    HW119598   4.931   2.004   6.448
 6233SOL    HW219599   5.045   2.070   6.352
 6234SOL     OW19600   1.555   1.930   4.700
 6234SOL    HW119601   1.585   2.022   4.725
 6234SOL    HW219602   1.466   1.934   4.655
 6235SOL     OW19603   1.710   0.263   2.574
 6235SOL    HW119604   1.729   0.203   2.496
 6235SOL    HW219605   1.665   0.347   2.542
 6236SOL     OW19606   7.016   4.649   0.981
 6236SOL    HW119607   6.946   4.636   1.052
 6236SOL    HW219608   0.073   4.689   1.021
 6237SOL     OW19609   4.369   6.465   0.959
 6237SOL    HW119610   4.344   6.502   1.049
 6237SOL    HW219611   4.467   6.446   0.957
 6238SOL     OW19612   4.732   5.459   1.801
 6238SOL    HW119613   4.689   5.434   1.715
 6238SOL    HW219614   4.813   5.514   1.784
 6239SOL     OW19615   2.466   6.790   2.609
 6239SOL    HW119616   2.379   6.774   2.654
 6239SOL    HW219617   2.469   6.740   2.523
 6240SOL     OW19618   1.728   3.053   0.654
 6240SOL    HW119619   1.646   3.109   0.639
 6240SOL    HW219620   1.713   2.961   0.619
 6241SOL     OW19621   2.736   0.231   1.697
 6241SOL    HW119622   2.792   0.313   1.684
 6241SOL    HW219623   2.792   0.150   1.684
 6242SOL     OW19624   5.133   1.947   3.497
 6242SOL    HW119625   5.086   1.912   3.416
 6242SOL    HW219626   5.215   1.998   3.469
 6243SOL     OW19627   5.535   6.401   4.218
 6243SOL    HW119628   5.497   6.318   4.259
 6243SOL    HW219629   5.622   6.379   4.173
 6244SOL     OW19630   2.711   1.967   2.390
 6244SOL    HW119631   2.767   1.938   2.313
 6244SOL    HW219632   2.692   1.888   2.448
 6245SOL     OW19633   2.823   4.631   1.416
 6245SOL    HW119634   2.823   4.652   1.514
 6245SOL    HW219635   2.903   4.575   1.394
 6246SOL     OW19636   2.929   2.076   5.687
 6246SOL    HW119637   2.885   2.036   5.606
 6246SOL    HW219638   2.901   2.172   5.696
 6247SOL     OW19639   0.630   6.792   3.537
 6247SOL    HW119640   0.557   6.858   3.552
 6247SOL    HW219641   0.678   6.775   3.623
 6248SOL     OW19642   0.726   4.661   1.453
 6248SOL    HW119643   0.681   4.630   1.369
 6248SOL    HW219644   0.754   4.581   1.507
 6249SOL     OW19645   6.875   3.928   0.337
 6249SOL    HW119646   6.784   3.893   0.314
 6249SOL    HW219647   6.873   3.967   0.429
 6250SOL     OW19648   6.094   6.657   6.723
 6250SOL    HW119649   6.030   6.641   6.798
 6250SOL    HW219650   6.166   6.720   6.753
 6251SOL     OW19651   4.149   1.298   0.929
 6251SOL    HW119652   4.121   1.223   0.989
 6251SOL    HW219653   4.203   1.364   0.981
 6252SOL     OW19654   3.298   5.635   4.965
 6252SOL    HW119655   3.279   5.538   4.949
 6252SOL    HW219656   3.219   5.690   4.938
 6253SOL     OW19657   2.495   4.171   1.812
 6253SOL    HW119658   2.453   4.178   1.902
 6253SOL    HW219659   2.499   4.261   1.769
 6254SOL     OW19660   5.819   0.193   0.220
 6254SOL    HW119661   5.870   0.250   0.283
 6254SOL    HW219662   5.740   0.243   0.186
 6255SOL     OW19663   0.589   1.290   2.520
 6255SOL    HW119664   0.565   1.193   2.528
 6255SOL    HW219665   0.576   1.319   2.425
 6256SOL     OW19666   4.052   4.865   2.566
 6256SOL    HW119667   3.996   4.942   2.596
 6256SOL    HW219668   4.015   4.827   2.481
 6257SOL     OW19669   5.413   2.700   0.271
 6257SOL    HW119670   5.397   2.772   0.339
 6257SOL    HW219671   5.499   2.717   0.223
 6258SOL     OW19672   4.252   2.016   2.337
 6258SOL    HW119673   4.268   2.110   2.308
 6258SOL    HW219674   4.332   1.982   2.386
 6259SOL     OW19675   3.181   2.219   1.817
 6259SOL    HW119676   3.142   2.134   1.854
 6259SOL    HW219677   3.108   2.284   1.800
 6260SOL     OW19678   3.470   4.099   0.068
 6260SOL    HW119679   3.466   4.125   0.164
 6260SOL    HW219680   3.488   4.001   0.061
 6261SOL     OW19681   4.253   1.233   0.266
 6261SOL    HW119682   4.162   1.274   0.259
 6261SOL    HW219683   4.295   1.260   0.353
 6262SOL     OW19684   1.363   4.627   6.688
 6262SOL    HW119685   1.374   4.652   6.592
 6262SOL    HW219686   1.281   4.671   6.725
 6263SOL     OW19687   6.978   6.943   0.639
 6263SOL    HW119688   7.015   6.958   0.547
 6263SOL    HW219689   0.025   6.905   0.698
 6264SOL     OW19690   2.550   1.730   0.745
 6264SOL    HW119691   2.549   1.796   0.820
 6264SOL    HW219692   2.460   1.688   0.737
 6265SOL     OW19693   4.173   3.853   1.407
 6265SOL    HW119694   4.198   3.857   1.311
 6265SOL    HW219695   4.255   3.864   1.463
 6266SOL     OW19696   3.509   0.698   2.949
 6266SOL    HW119697   3.414   0.705   2.979
 6266SOL    HW219698   3.530   0.602   2.929
 6267SOL     OW19699   3.292   0.316   6.979
 6267SOL    HW119700   3.273   0.303   6.882
 6267SOL    HW219701   3.206   0.318   0.005
 6268SOL     OW19702   3.140   4.839   2.610
 6268SOL    HW119703   3.084   4.771   2.657
 6268SOL    HW219704   3.081   4.907   2.566
 6269SOL     OW19705   5.691   6.019   1.588
 6269SOL    HW119706   5.626   5.951   1.556
 6269SOL    HW219707   5.784   5.993   1.560
 6270SOL     OW19708   1.425   0.686   4.583
 6270SOL    HW119709   1.460   0.596   4.609
 6270SOL    HW219710   1.453   0.753   4.651
 6271SOL     OW19711   0.079   1.444   0.121
 6271SOL    HW119712   0.035   1.370   0.070
 6271SOL    HW219713   0.176   1.448   0.098
 6272SOL     OW19714   2.298   2.452   3.779
 6272SOL    HW119715   2.356   2.529   3.751
 6272SOL    HW219716   2.239   2.424   3.703
 6273SOL     OW19717   2.319   1.058   1.447
 6273SOL    HW119718   2.350   1.149   1.421
 6273SOL    HW219719   2.359   0.990   1.386
 6274SOL     OW19720   3.696   5.987   6.411
 6274SOL    HW119721   3.729   5.951   6.324
 6274SOL    HW219722   3.760   5.964   6.484
 6275SOL     OW19723   1.861   0.075   4.568
 6275SOL    HW119724   1.762   0.075   4.549
 6275SOL    HW219725   1.900   0.163   4.543
 6276SOL     OW19726   1.507   5.608   3.755
 6276SOL    HW119727   1.602   5.631   3.737
 6276SOL    HW219728   1.493   5.510   3.742
 6277SOL     OW19729   5.317   2.735   2.503
 6277SOL    HW119730   5.235   2.751   2.557
 6277SOL    HW219731   5.339   2.818   2.451
 6278SOL     OW19732   4.968   0.319   3.995
 6278SOL    HW119733   5.032   0.289   4.065
 6278SOL    HW219734   5.019   0.339   3.911
 6279SOL     OW19735   4.025   1.617   1.040
 6279SOL    HW119736   3.956   1.550   1.015
 6279SOL    HW219737   4.114   1.590   1.002
 6280SOL     OW19738   0.161   4.598   5.647
 6280SOL    HW119739   0.062   4.615   5.640
 6280SOL    HW219740   0.193   4.554   5.564
 6281SOL     OW19741   2.290   0.511   5.559
 6281SOL    HW119742   2.366   0.454   5.589
 6281SOL    HW219743   2.255   0.476   5.472
 6282SOL     OW19744   2.144   6.926   4.569
 6282SOL    HW119745   2.104   6.960   4.484
 6282SOL    HW219746   2.197   6.999   4.612
 6283SOL     OW19747   0.126   2.538   5.193
 6283SOL    HW119748   0.094   2.557   5.101
 6283SOL    HW219749   0.092   2.609   5.255
 6284SOL     OW19750   1.257   5.068   5.421
 6284SOL    HW119751   1.320   5.084   5.497
 6284SOL    HW219752   1.294   4.997   5.362
 6285SOL     OW19753   1.309   3.020   3.187
 6285SOL    HW119754   1.323   3.037   3.089
 6285SOL    HW219755   1.223   3.063   3.216
 6286SOL     OW19756   5.580   1.370   3.425
 6286SOL    HW119757   5.610   1.456   3.384
 6286SOL    HW219758   5.532   1.315   3.356
 6287SOL     OW19759   5.009   4.077   1.781
 6287SOL    HW119760   5.005   3.988   1.736
 6287SOL    HW219761   4.916   4.110   1.798
 6288SOL     OW19762   5.171   3.811   0.386
 6288SOL    HW119763   5.104   3.852   0.447
 6288SOL    HW219764   5.160   3.849   0.294
 6289SOL     OW19765   1.531   1.708   3.776
 6289SOL    HW119766   1.595   1.650   3.825
 6289SOL    HW219767   1.581   1.775   3.721
 6290SOL     OW19768   4.833   4.107   3.649
 6290SOL    HW119769   4.918   4.155   3.668
 6290SOL    HW219770   4.774   4.165   3.593
 6291SOL     OW19771   3.741   4.052   3.296
 6291SOL    HW119772   3.802   3.996   3.240
 6291SOL    HW219773   3.782   4.067   3.385
 6292SOL     OW19774   1.161   1.960   2.284
 6292SOL    HW119775   1.166   1.924   2.377
 6292SOL    HW219776   1.134   2.056   2.287
 6293SOL     OW19777   4.996   0.087   0.296
 6293SOL    HW119778   4.949   0.011   0.340
 6293SOL    HW219779   4.930   0.159   0.274
 6294SOL     OW19780   3.922   5.106   2.989
 6294SOL    HW119781   3.908   5.013   3.025
 6294SOL    HW219782   3.979   5.101   2.907
 6295SOL     OW19783   5.625   5.882   6.123
 6295SOL    HW119784   5.622   5.982   6.123
 6295SOL    HW219785   5.717   5.852   6.097
 6296SOL     OW19786   6.411   0.839   2.985
 6296SOL    HW119787   6.350   0.789   2.924
 6296SOL    HW219788   6.501   0.796   2.985
 6297SOL     OW19789   5.487   6.313   5.888
 6297SOL    HW119790   5.578   6.328   5.851
 6297SOL    HW219791   5.460   6.390   5.945
 6298SOL     OW19792   0.493   3.146   5.222
 6298SOL    HW119793   0.542   3.162   5.136
 6298SOL    HW219794   0.415   3.208   5.228
 6299SOL     OW19795   6.650   2.935   6.462
 6299SOL    HW119796   6.571   2.996   6.456
 6299SOL    HW219797   6.619   2.843   6.487
 6300SOL     OW19798   4.641   0.920   4.068
 6300SOL    HW119799   4.673   0.974   4.146
 6300SOL    HW219800   4.544   0.898   4.079
 6301SOL     OW19801   3.406   0.029   1.172
 6301SOL    HW119802   3.377   6.997   1.250
 6301SOL    HW219803   3.371   7.012   1.088
 6302SOL     OW19804   2.078   0.918   3.370
 6302SOL    HW119805   2.126   0.834   3.343
 6302SOL    HW219806   2.030   0.902   3.456
 6303SOL     OW19807   1.664   6.256   5.002
 6303SOL    HW119808   1.641   6.230   5.096
 6303SOL    HW219809   1.587   6.234   4.942
 6304SOL     OW19810   2.636   1.473   6.988
 6304SOL    HW119811   2.666   1.533   0.037
 6304SOL    HW219812   2.613   1.527   6.907
 6305SOL     OW19813   6.482   6.930   1.433
 6305SOL    HW119814   6.564   6.921   1.377
 6305SOL    HW219815   6.452   6.840   1.463
 6306SOL     OW19816   6.840   3.076   3.794
 6306SOL    HW119817   6.852   3.055   3.891
 6306SOL    HW219818   6.886   3.007   3.739
 6307SOL     OW19819   1.854   5.077   6.882
 6307SOL    HW119820   1.773   5.019   6.871
 6307SOL    HW219821   1.937   5.023   6.866
 6308SOL     OW19822   2.830   1.858   5.265
 6308SOL    HW119823   2.918   1.903   5.256
 6308SOL    HW219824   2.772   1.881   5.186
 6309SOL     OW19825   5.245   2.242   4.143
 6309SOL    HW119826   5.150   2.259   4.117
 6309SOL    HW219827   5.283   2.170   4.086
 6310SOL     OW19828   1.101   4.976   4.606
 6310SOL    HW119829   1.171   4.976   4.677
 6310SOL    HW219830   1.018   5.020   4.640
 6311SOL     OW19831   6.055   0.073   4.668
 6311SOL    HW119832   5.998   7.016   4.653
 6311SOL    HW219833   6.070   0.119   4.580
 6312SOL     OW19834   4.587   5.186   5.998
 6312SOL    HW119835   4.593   5.090   5.972
 6312SOL    HW219836   4.679   5.225   6.003
 6313SOL     OW19837   2.181   6.042   3.294
 6313SOL    HW119838   2.188   6.096   3.378
 6313SOL    HW219839   2.254   5.974   3.292
 6314SOL     OW19840   2.875   6.049   2.846
 6314SOL    HW119841   2.814   6.056   2.767
 6314SOL    HW219842   2.965   6.018   2.816
 6315SOL     OW19843   3.185   3.922   0.494
 6315SOL    HW119844   3.119   3.995   0.477
 6315SOL    HW219845   3.167   3.845   0.433
 6316SOL     OW19846   4.731   2.657   5.747
 6316SOL    HW119847   4.657   2.662   5.680
 6316SOL    HW219848   4.802   2.723   5.723
 6317SOL     OW19849   5.248   6.943   3.734
 6317SOL    HW119850   5.335   6.896   3.716
 6317SOL    HW219851   5.249   6.981   3.826
 6318SOL     OW19852   2.238   2.258   5.133
 6318SOL    HW119853   2.162   2.323   5.134
 6318SOL    HW219854   2.298   2.275   5.212
 6319SOL     OW19855   0.924   1.859   3.297
 6319SOL    HW119856   0.868   1.938   3.320
 6319SOL    HW219857   1.012   1.890   3.261
 6320SOL     OW19858   5.732   3.671   2.952
 6320SOL    HW119859   5.693   3.680   2.860
 6320SOL    HW219860   5.704   3.584   2.992
 6321SOL     OW19861   2.443   5.092   0.934
 6321SOL    HW119862   2.365   5.050   0.888
 6321SOL    HW219863   2.503   5.021   0.971
 6322SOL     OW19864   1.366   1.119   6.734
 6322SOL    HW119865   1.456   1.161   6.721
 6322SOL    HW219866   1.333   1.139   6.826
 6323SOL     OW19867   3.793   2.637   0.751
 6323SOL    HW119868   3.824   2.606   0.661
 6323SOL    HW219869   3.836   2.724   0.773
 6324SOL     OW19870   4.307   1.294   5.795
 6324SOL    HW119871   4.399   1.269   5.764
 6324SOL    HW219872   4.313   1.345   5.880
 6325SOL     OW19873   0.641   2.652   2.245
 6325SOL    HW119874   0.733   2.643   2.284
 6325SOL    HW219875   0.600   2.738   2.275
 6326SOL     OW19876   5.215   5.685   1.550
 6326SOL    HW119877   5.166   5.771   1.537
 6326SOL    HW219878   5.313   5.702   1.553
 6327SOL     OW19879   5.879   5.665   5.525
 6327SOL    HW119880   5.818   5.744   5.515
 6327SOL    HW219881   5.842   5.588   5.474
 6328SOL     OW19882   2.605   4.157   6.486
 6328SOL    HW119883   2.630   4.254   6.491
 6328SOL    HW219884   2.654   4.106   6.556
 6329SOL     OW19885   1.363   1.280   3.319
 6329SOL    HW119886   1.377   1.301   3.222
 6329SOL    HW219887   1.384   1.360   3.374
 6330SOL     OW19888   4.054   1.026   0.749
 6330SOL    HW119889   3.958   1.006   0.729
 6330SOL    HW219890   4.065   1.124   0.767
 6331SOL     OW19891   6.310   2.070   1.446
 6331SOL    HW119892   6.365   2.010   1.387
 6331SOL    HW219893   6.230   2.103   1.396
 6332SOL     OW19894   6.038   5.560   1.172
 6332SOL    HW119895   6.085   5.614   1.102
 6332SOL    HW219896   6.094   5.481   1.196
 6333SOL     OW19897   3.244   4.871   3.295
 6333SOL    HW119898   3.314   4.874   3.222
 6333SOL    HW219899   3.159   4.834   3.257
 6334SOL     OW19900   2.177   0.709   2.311
 6334SOL    HW119901   2.214   0.689   2.401
 6334SOL    HW219902   2.078   0.719   2.316
 6335SOL     OW19903   6.546   1.036   6.551
 6335SOL    HW119904   6.546   1.083   6.640
 6335SOL    HW219905   6.494   0.951   6.558
 6336SOL     OW19906   0.111   2.388   4.405
 6336SOL    HW119907   0.130   2.474   4.356
 6336SOL    HW219908   0.193   2.358   4.453
 6337SOL     OW19909   5.703   4.334   5.768
 6337SOL    HW119910   5.769   4.315   5.841
 6337SOL    HW219911   5.741   4.304   5.681
 6338SOL     OW19912   3.771   1.436   2.744
 6338SOL    HW119913   3.861   1.406   2.776
 6338SOL    HW219914   3.756   1.531   2.772
 6339SOL     OW19915   0.660   1.939   3.921
 6339SOL    HW119916   0.743   1.984   3.887
 6339SOL    HW219917   0.585   2.005   3.924
 6340SOL     OW19918   2.689   5.620   3.630
 6340SOL    HW119919   2.649   5.699   3.676
 6340SOL    HW219920   2.641   5.603   3.544
 6341SOL     OW19921   0.034   4.344   3.560
 6341SOL    HW119922   0.134   4.339   3.558
 6341SOL    HW219923   0.000   4.377   3.471
 6342SOL     OW19924   1.191   2.138   1.343
 6342SOL    HW119925   1.168   2.211   1.407
 6342SOL    HW219926   1.249   2.175   1.270
 6343SOL     OW19927   3.710   1.509   6.684
 6343SOL    HW119928   3.801   1.545   6.663
 6343SOL    HW219929   3.683   1.444   6.613
 6344SOL     OW19930   0.499   3.943   4.887
 6344SOL    HW119931   0.533   3.953   4.980
 6344SOL    HW219932   0.550   3.871   4.840
 6345SOL     OW19933   3.628   1.379   2.255
 6345SOL    HW119934   3.676   1.374   2.342
 6345SOL    HW219935   3.553   1.445   2.262
 6346SOL     OW19936   0.790   3.958   3.520
 6346SOL    HW119937   0.712   3.916   3.567
 6346SOL    HW219938   0.776   3.952   3.421
 6347SOL     OW19939   3.305   6.885   0.966
 6347SOL    HW119940   3.244   6.834   1.026
 6347SOL    HW219941   3.257   6.909   0.882
 6348SOL     OW19942   0.548   2.828   3.969
 6348SOL    HW119943   0.508   2.907   4.017
 6348SOL    HW219944   0.575   2.759   4.036
 6349SOL     OW19945   2.863   1.361   1.067
 6349SOL    HW119946   2.924   1.292   1.106
 6349SOL    HW219947   2.887   1.376   0.971
 6350SOL     OW19948   1.604   5.681   2.299
 6350SOL    HW119949   1.632   5.673   2.204
 6350SOL    HW219950   1.506   5.662   2.307
 6351SOL     OW19951   0.095   1.131   2.344
 6351SOL    HW119952   0.151   1.211   2.370
 6351SOL    HW219953   0.026   1.159   2.278
 6352SOL     OW19954   1.005   5.475   2.251
 6352SOL    HW119955   1.018   5.570   2.278
 6352SOL    HW219956   1.034   5.415   2.325
 6353SOL     OW19957   0.650   0.056   0.435
 6353SOL    HW119958   0.737   0.008   0.438
 6353SOL    HW219959   0.583   0.001   0.384
 6354SOL     OW19960   0.965   0.066   2.640
 6354SOL    HW119961   0.946   0.084   2.737
 6354SOL    HW219962   1.057   0.097   2.618
 6355SOL     OW19963   1.436   2.815   2.923
 6355SOL    HW119964   1.532   2.796   2.905
 6355SOL    HW219965   1.415   2.796   3.018
 6356SOL     OW19966   3.461   4.529   1.096
 6356SOL    HW119967   3.547   4.525   1.147
 6356SOL    HW219968   3.409   4.444   1.110
 6357SOL     OW19969   4.000   2.086   0.084
 6357SOL    HW119970   4.004   2.183   0.062
 6357SOL    HW219971   3.924   2.044   0.036
 6358SOL     OW19972   6.956   2.226   3.623
 6358SOL    HW119973   6.904   2.300   3.580
 6358SOL    HW219974   6.990   2.164   3.553
 6359SOL     OW19975   0.296   0.824   6.220
 6359SOL    HW119976   0.230   0.885   6.263
 6359SOL    HW219977   0.249   0.745   6.181
 6360SOL     OW19978   2.915   5.117   4.034
 6360SOL    HW119979   2.921   5.018   4.038
 6360SOL    HW219980   2.820   5.144   4.021
 6361SOL     OW19981   4.454   5.894   5.901
 6361SOL    HW119982   4.472   5.800   5.932
 6361SOL    HW219983   4.525   5.922   5.837
 6362SOL     OW19984   6.093   5.206   6.699
 6362SOL    HW119985   6.031   5.217   6.776
 6362SOL    HW219986   6.049   5.150   6.628
 6363SOL     OW19987   1.734   5.932   4.128
 6363SOL    HW119988   1.826   5.928   4.089
 6363SOL    HW219989   1.697   5.839   4.136
 6364SOL     OW19990   2.379   2.599   5.987
 6364SOL    HW119991   2.380   2.699   5.980
 6364SOL    HW219992   2.344   2.572   6.077
 6365SOL     OW19993   5.083   6.871   3.224
 6365SOL    HW119994   5.132   6.868   3.311
 6365SOL    HW219995   5.092   6.783   3.177
 6366SOL     OW19996   0.750   5.557   5.260
 6366SOL    HW119997   0.744   5.627   5.331
 6366SOL    HW219998   0.779   5.470   5.301
 6367SOL     OW19999   5.244   6.836   4.282
 6367SOL    HW120000   5.290   6.924   4.268
 6367SOL    HW220001   5.145   6.851   4.287
 6368SOL     OW20002   3.433   6.591   4.366
 6368SOL    HW120003   3.517   6.616   4.319
 6368SOL    HW220004   3.363   6.660   4.348
 6369SOL     OW20005   2.510   4.733   4.071
 6369SOL    HW120006   2.603   4.741   4.108
 6369SOL    HW220007   2.468   4.824   4.068
 6370SOL     OW20008   5.702   2.092   0.913
 6370SOL    HW120009   5.669   2.117   0.822
 6370SOL    HW220010   5.634   2.121   0.981
 6371SOL     OW20011   4.737   2.823   2.379
 6371SOL    HW120012   4.718   2.763   2.301
 6371SOL    HW220013   4.836   2.830   2.391
 6372SOL     OW20014   3.817   6.202   2.237
 6372SOL    HW120015   3.801   6.276   2.303
 6372SOL    HW220016   3.827   6.115   2.286
 6373SOL     OW20017   4.188   4.039   6.023
 6373SOL    HW120018   4.143   4.128   6.012
 6373SOL    HW220019   4.288   4.052   6.024
 6374SOL     OW20020   2.997   3.178   2.891
 6374SOL    HW120021   2.948   3.235   2.957
 6374SOL    HW220022   3.009   3.086   2.928
 6375SOL     OW20023   1.405   6.437   2.859
 6375SOL    HW120024   1.406   6.535   2.880
 6375SOL    HW220025   1.409   6.385   2.944
 6376SOL     OW20026   6.547   2.214   4.598
 6376SOL    HW120027   6.638   2.176   4.615
 6376SOL    HW220028   6.556   2.305   4.557
 6377SOL     OW20029   0.685   1.350   4.401
 6377SOL    HW120030   0.770   1.330   4.353
 6377SOL    HW220031   0.679   1.293   4.483
 6378SOL     OW20032   5.107   4.050   4.112
 6378SOL    HW120033   5.019   4.021   4.149
 6378SOL    HW220034   5.134   3.988   4.038
 6379SOL     OW20035   2.176   4.366   3.788
 6379SOL    HW120036   2.120   4.351   3.870
 6379SOL    HW220037   2.257   4.307   3.793
 6380SOL     OW20038   0.818   0.748   6.539
 6380SOL    HW120039   0.874   0.752   6.622
 6380SOL    HW220040   0.833   0.661   6.493
 6381SOL     OW20041   3.125   3.844   3.071
 6381SOL    HW120042   3.110   3.933   3.029
 6381SOL    HW220043   3.191   3.852   3.145
 6382SOL     OW20044   1.125   3.515   6.073
 6382SOL    HW120045   1.192   3.465   6.018
 6382SOL    HW220046   1.042   3.460   6.082
 6383SOL     OW20047   2.506   2.073   4.057
 6383SOL    HW120048   2.500   2.144   3.987
 6383SOL    HW220049   2.593   2.081   4.105
 6384SOL     OW20050   6.926   4.795   2.447
 6384SOL    HW120051   6.942   4.701   2.419
 6384SOL    HW220052   6.828   4.814   2.447
 6385SOL     OW20053   0.683   5.226   4.566
 6385SOL    HW120054   0.695   5.189   4.474
 6385SOL    HW220055   0.772   5.231   4.612
 6386SOL     OW20056   2.833   5.273   0.910
 6386SOL    HW120057   2.808   5.304   0.818
 6386SOL    HW220058   2.840   5.173   0.910
 6387SOL     OW20059   6.577   0.748   5.120
 6387SOL    HW120060   6.578   0.710   5.027
 6387SOL    HW220061   6.514   0.826   5.123
 6388SOL     OW20062   3.169   4.861   2.030
 6388SOL    HW120063   3.184   4.838   2.127
 6388SOL    HW220064   3.071   4.865   2.012
 6389SOL     OW20065   1.384   5.809   2.970
 6389SOL    HW120066   1.471   5.768   2.997
 6389SOL    HW220067   1.394   5.908   2.962
 6390SOL     OW20068   0.945   2.561   3.985
 6390SOL    HW120069   0.939   2.661   3.978
 6390SOL    HW220070   0.871   2.527   4.043
 6391SOL     OW20071   2.307   1.957   0.406
 6391SOL    HW120072   2.317   1.861   0.379
 6391SOL    HW220073   2.378   1.980   0.473
 6392SOL     OW20074   1.467   6.251   3.533
 6392SOL    HW120075   1.436   6.326   3.475
 6392SOL    HW220076   1.411   6.247   3.615
 6393SOL     OW20077   6.201   6.279   0.407
 6393SOL    HW120078   6.198   6.374   0.437
 6393SOL    HW220079   6.175   6.219   0.483
 6394SOL     OW20080   2.175   4.700   0.485
 6394SOL    HW120081   2.085   4.703   0.528
 6394SOL    HW220082   2.202   4.605   0.472
 6395SOL     OW20083   6.228   1.362   0.801
 6395SOL    HW120084   6.233   1.284   0.737
 6395SOL    HW220085   6.262   1.444   0.756
 6396SOL     OW20086   5.020   4.028   5.684
 6396SOL    HW120087   5.101   4.085   5.702
 6396SOL    HW220088   5.045   3.931   5.696
 6397SOL     OW20089   0.044   1.396   0.505
 6397SOL    HW120090   0.123   1.351   0.462
 6397SOL    HW220091   7.022   1.452   0.438
 6398SOL     OW20092   3.327   1.528   1.536
 6398SOL    HW120093   3.397   1.597   1.551
 6398SOL    HW220094   3.370   1.439   1.522
 6399SOL     OW20095   1.757   5.545   6.817
 6399SOL    HW120096   1.742   5.469   6.881
 6399SOL    HW220097   1.829   5.605   6.854
 6400SOL     OW20098   2.760   5.858   3.435
 6400SOL    HW120099   2.684   5.795   3.422
 6400SOL    HW220100   2.726   5.952   3.436
 6401SOL     OW20101   0.219   4.778   3.526
 6401SOL    HW120102   0.218   4.727   3.612
 6401SOL    HW220103   0.312   4.808   3.506
 6402SOL     OW20104   2.607   1.039   3.219
 6402SOL    HW120105   2.586   1.135   3.199
 6402SOL    HW220106   2.705   1.024   3.203
 6403SOL     OW20107   1.103   4.957   6.456
 6403SOL    HW120108   1.022   4.994   6.502
 6403SOL    HW220109   1.079   4.930   6.363
 6404SOL     OW20110   4.922   1.261   3.208
 6404SOL    HW120111   4.914   1.166   3.238
 6404SOL    HW220112   4.831   1.300   3.197
 6405SOL     OW20113   2.595   1.490   2.286
 6405SOL    HW120114   2.595   1.547   2.205
 6405SOL    HW220115   2.661   1.525   2.352
 6406SOL     OW20116   2.390   1.214   4.230
 6406SOL    HW120117   2.386   1.182   4.325
 6406SOL    HW220118   2.340   1.151   4.171
 6407SOL     OW20119   3.555   5.549   5.735
 6407SOL    HW120120   3.572   5.572   5.831
 6407SOL    HW220121   3.482   5.481   5.729
 6408SOL     OW20122   5.313   1.721   6.522
 6408SOL    HW120123   5.308   1.696   6.425
 6408SOL    HW220124   5.220   1.736   6.556
 6409SOL     OW20125   0.198   3.823   2.639
 6409SOL    HW120126   0.147   3.771   2.708
 6409SOL    HW220127   0.264   3.762   2.595
 6410SOL     OW20128   1.883   1.562   0.712
 6410SOL    HW120129   1.840   1.627   0.775
 6410SOL    HW220130   1.968   1.601   0.677
 6411SOL     OW20131   0.833   1.349   3.675
 6411SOL    HW120132   0.839   1.365   3.576
 6411SOL    HW220133   0.918   1.308   3.707
 6412SOL     OW20134   0.339   2.717   5.786
 6412SOL    HW120135   0.420   2.745   5.839
 6412SOL    HW220136   0.273   2.791   5.785
 6413SOL     OW20137   6.688   4.521   1.017
 6413SOL    HW120138   6.608   4.553   1.068
 6413SOL    HW220139   6.700   4.577   0.935
 6414SOL     OW20140   6.363   6.766   2.297
 6414SOL    HW120141   6.374   6.741   2.393
 6414SOL    HW220142   6.269   6.751   2.269
 6415SOL     OW20143   1.840   1.529   1.392
 6415SOL    HW120144   1.742   1.541   1.375
 6415SOL    HW220145   1.886   1.505   1.306
 6416SOL     OW20146   1.511   0.621   6.550
 6416SOL    HW120147   1.474   0.682   6.481
 6416SOL    HW220148   1.441   0.600   6.618
 6417SOL     OW20149   0.806   0.032   3.334
 6417SOL    HW120150   0.768   0.098   3.399
 6417SOL    HW220151   0.733   6.997   3.300
 6418SOL     OW20152   0.056   6.162   1.987
 6418SOL    HW120153   0.060   6.163   1.887
 6418SOL    HW220154   0.138   6.117   2.023
 6419SOL     OW20155   3.774   4.933   1.466
 6419SOL    HW120156   3.849   4.931   1.532
 6419SOL    HW220157   3.715   5.012   1.484
 6420SOL     OW20158   2.264   4.157   6.125
 6420SOL    HW120159   2.273   4.242   6.073
 6420SOL    HW220160   2.345   4.100   6.111
 6421SOL     OW20161   5.629   1.037   1.372
 6421SOL    HW120162   5.673   1.127   1.382
 6421SOL    HW220163   5.537   1.049   1.334
 6422SOL     OW20164   6.782   1.603   3.420
 6422SOL    HW120165   6.865   1.550   3.440
 6422SOL    HW220166   6.728   1.554   3.352
 6423SOL     OW20167   5.218   3.588   0.833
 6423SOL    HW120168   5.231   3.686   0.819
 6423SOL    HW220169   5.244   3.564   0.927
 6424SOL     OW20170   0.040   3.634   5.753
 6424SOL    HW120171   6.985   3.688   5.781
 6424SOL    HW220172   0.078   3.587   5.833
 6425SOL     OW20173   0.961   4.322   2.404
 6425SOL    HW120174   1.022   4.288   2.332
 6425SOL    HW220175   0.896   4.387   2.364
 6426SOL     OW20176   1.008   2.140   3.346
 6426SOL    HW120177   1.067   2.216   3.321
 6426SOL    HW220178   0.938   2.171   3.411
 6427SOL     OW20179   1.457   3.578   5.665
 6427SOL    HW120180   1.464   3.619   5.574
 6427SOL    HW220181   1.533   3.515   5.678
 6428SOL     OW20182   6.831   3.578   1.848
 6428SOL    HW120183   6.745   3.579   1.798
 6428SOL    HW220184   6.837   3.495   1.902
 6429SOL     OW20185   1.346   6.965   4.365
 6429SOL    HW120186   1.285   6.932   4.293
 6429SOL    HW220187   1.305   6.946   4.455
 6430SOL     OW20188   5.871   1.831   1.063
 6430SOL    HW120189   5.810   1.752   1.055
 6430SOL    HW220190   5.821   1.914   1.038
 6431SOL     OW20191   5.689   6.484   2.829
 6431SOL    HW120192   5.760   6.483   2.759
 6431SOL    HW220193   5.629   6.405   2.816
 6432SOL     OW20194   4.849   3.264   0.749
 6432SOL    HW120195   4.832   3.351   0.795
 6432SOL    HW220196   4.813   3.269   0.656
 6433SOL     OW20197   2.774   4.370   1.179
 6433SOL    HW120198   2.784   4.359   1.278
 6433SOL    HW220199   2.862   4.359   1.135
 6434SOL     OW20200   1.285   3.674   0.948
 6434SOL    HW120201   1.333   3.759   0.929
 6434SOL    HW220202   1.323   3.632   1.030
 6435SOL     OW20203   4.403   4.612   6.505
 6435SOL    HW120204   4.469   4.561   6.561
 6435SOL    HW220205   4.379   4.557   6.425
 6436SOL     OW20206   1.488   2.948   3.386
 6436SOL    HW120207   1.427   2.976   3.311
 6436SOL    HW220208   1.573   3.001   3.381
 6437SOL     OW20209   1.594   6.857   6.683
 6437SOL    HW120210   1.504   6.829   6.649
 6437SOL    HW220211   1.630   6.787   6.744
 6438SOL     OW20212   1.173   3.984   4.013
 6438SOL    HW120213   1.196   4.080   3.993
 6438SOL    HW220214   1.176   3.970   4.112
 6439SOL     OW20215   1.368   0.003   1.202
 6439SOL    HW120216   1.452   0.013   1.149
 6439SOL    HW220217   1.329   6.937   1.187
 6440SOL     OW20218   1.413   1.366   2.950
 6440SOL    HW120219   1.479   1.441   2.960
 6440SOL    HW220220   1.389   1.357   2.853
 6441SOL     OW20221   2.029   1.089   3.730
 6441SOL    HW120222   2.003   0.993   3.717
 6441SOL    HW220223   2.055   1.103   3.826
 6442SOL     OW20224   2.233   2.297   4.408
 6442SOL    HW120225   2.238   2.239   4.489
 6442SOL    HW220226   2.326   2.313   4.373
 6443SOL     OW20227   2.878   2.391   0.183
 6443SOL    HW120228   2.793   2.352   0.149
 6443SOL    HW220229   2.920   2.447   0.111
 6444SOL     OW20230   0.696   1.179   3.297
 6444SOL    HW120231   0.651   1.148   3.213
 6444SOL    HW220232   0.630   1.179   3.372
 6445SOL     OW20233   4.038   2.935   5.330
 6445SOL    HW120234   4.075   3.027   5.328
 6445SOL    HW220235   3.938   2.939   5.324
 6446SOL     OW20236   6.365   1.438   0.039
 6446SOL    HW120237   6.461   1.414   0.033
 6446SOL    HW220238   6.349   1.525   7.017
 6447SOL     OW20239   1.626   0.202   2.057
 6447SOL    HW120240   1.624   0.163   1.965
 6447SOL    HW220241   1.533   0.214   2.090
 6448SOL     OW20242   5.927   2.447   3.419
 6448SOL    HW120243   5.926   2.544   3.393
 6448SOL    HW220244   5.938   2.391   3.337
 6449SOL     OW20245   3.184   3.227   1.013
 6449SOL    HW120246   3.272   3.233   1.061
 6449SOL    HW220247   3.116   3.281   1.062
 6450SOL     OW20248   5.574   3.821   1.400
 6450SOL    HW120249   5.486   3.792   1.436
 6450SOL    HW220250   5.628   3.740   1.374
 6451SOL     OW20251   2.722   5.680   5.366
 6451SOL    HW120252   2.766   5.760   5.408
 6451SOL    HW220253   2.739   5.599   5.423
 6452SOL     OW20254   3.626   6.664   4.225
 6452SOL    HW120255   3.648   6.747   4.173
 6452SOL    HW220256   3.689   6.591   4.199
 6453SOL     OW20257   1.604   6.319   6.582
 6453SOL    HW120258   1.689   6.295   6.630
 6453SOL    HW220259   1.625   6.346   6.488
 6454SOL     OW20260   3.382   1.663   4.713
 6454SOL    HW120261   3.334   1.737   4.759
 6454SOL    HW220262   3.316   1.603   4.668
 6455SOL     OW20263   6.442   2.636   5.180
 6455SOL    HW120264   6.467   2.715   5.235
 6455SOL    HW220265   6.463   2.552   5.231
 6456SOL     OW20266   0.744   0.374   2.988
 6456SOL    HW120267   0.656   0.349   3.030
 6456SOL    HW220268   0.816   0.369   3.056
 6457SOL     OW20269   6.438   2.166   1.126
 6457SOL    HW120270   6.498   2.240   1.157
 6457SOL    HW220271   6.471   2.079   1.160
 6458SOL     OW20272   1.323   5.634   3.322
 6458SOL    HW120273   1.246   5.694   3.304
 6458SOL    HW220274   1.407   5.688   3.327
 6459SOL     OW20275   5.798   4.353   6.903
 6459SOL    HW120276   5.855   4.289   6.852
 6459SOL    HW220277   5.850   4.436   6.921
 6460SOL     OW20278   3.572   4.913   6.306
 6460SOL    HW120279   3.591   4.863   6.221
 6460SOL    HW220280   3.644   4.980   6.322
 6461SOL     OW20281   3.584   5.210   5.474
 6461SOL    HW120282   3.579   5.121   5.520
 6461SOL    HW220283   3.677   5.246   5.481
 6462SOL     OW20284   2.155   3.514   5.295
 6462SOL    HW120285   2.117   3.598   5.256
 6462SOL    HW220286   2.187   3.532   5.388
 6463SOL     OW20287   2.174   4.351   6.315
 6463SOL    HW120288   2.084   4.323   6.350
 6463SOL    HW220289   2.222   4.271   6.279
 6464SOL     OW20290   0.100   5.283   3.030
 6464SOL    HW120291   0.172   5.215   3.042
 6464SOL    HW220292   0.129   5.350   2.961
 6465SOL     OW20293   6.309   1.878   3.622
 6465SOL    HW120294   6.234   1.942   3.609
 6465SOL    HW220295   6.396   1.927   3.624
 6466SOL     OW20296   0.646   2.384   5.260
 6466SOL    HW120297   0.684   2.369   5.352
 6466SOL    HW220298   0.619   2.297   5.220
 6467SOL     OW20299   2.762   1.150   6.647
 6467SOL    HW120300   2.706   1.178   6.569
 6467SOL    HW220301   2.811   1.066   6.623
 6468SOL     OW20302   4.828   6.168   1.156
 6468SOL    HW120303   4.918   6.138   1.188
 6468SOL    HW220304   4.790   6.235   1.220
 6469SOL     OW20305   6.730   0.763   5.651
 6469SOL    HW120306   6.760   0.670   5.671
 6469SOL    HW220307   6.754   0.823   5.728
 6470SOL     OW20308   6.034   0.047   5.889
 6470SOL    HW120309   6.106   0.056   5.821
 6470SOL    HW220310   6.029   6.976   5.919
 6471SOL     OW20311   6.647   4.862   6.630
 6471SOL    HW120312   6.670   4.932   6.562
 6471SOL    HW220313   6.595   4.789   6.586
 6472SOL     OW20314   1.033   6.618   2.249
 6472SOL    HW120315   1.109   6.659   2.299
 6472SOL    HW220316   1.042   6.518   2.251
 6473SOL     OW20317   2.201   1.387   6.234
 6473SOL    HW120318   2.161   1.296   6.217
 6473SOL    HW220319   2.143   1.457   6.192
 6474SOL     OW20320   1.249   3.410   5.700
 6474SOL    HW120321   1.325   3.470   5.676
 6474SOL    HW220322   1.253   3.389   5.798
 6475SOL     OW20323   4.457   5.936   4.011
 6475SOL    HW120324   4.476   5.998   4.087
 6475SOL    HW220325   4.431   5.846   4.047
 6476SOL     OW20326   4.847   4.660   2.565
 6476SOL    HW120327   4.894   4.641   2.479
 6476SOL    HW220328   4.749   4.667   2.549
 6477SOL     OW20329   6.522   5.620   0.433
 6477SOL    HW120330   6.541   5.718   0.426
 6477SOL    HW220331   6.577   5.571   0.366
 6478SOL     OW20332   4.901   6.651   1.821
 6478SOL    HW120333   4.920   6.573   1.882
 6478SOL    HW220334   4.855   6.723   1.873
 6479SOL     OW20335   4.130   5.164   2.074
 6479SOL    HW120336   4.045   5.201   2.038
 6479SOL    HW220337   4.150   5.206   2.163
 6480SOL     OW20338   3.076   2.599   6.984
 6480SOL    HW120339   2.986   2.566   6.958
 6480SOL    HW220340   3.074   2.699   6.990
 6481SOL     OW20341   3.937   1.119   1.774
 6481SOL    HW120342   3.927   1.081   1.681
 6481SOL    HW220343   4.002   1.195   1.772
 6482SOL     OW20344   0.182   0.467   6.689
 6482SOL    HW120345   0.214   0.397   6.753
 6482SOL    HW220346   0.260   0.504   6.639
 6483SOL     OW20347   1.333   6.955   2.548
 6483SOL    HW120348   1.312   0.001   2.615
 6483SOL    HW220349   1.397   6.889   2.588
 6484SOL     OW20350   4.558   0.692   3.111
 6484SOL    HW120351   4.511   0.741   3.184
 6484SOL    HW220352   4.657   0.698   3.124
 6485SOL     OW20353   1.729   2.322   3.408
 6485SOL    HW120354   1.761   2.416   3.419
 6485SOL    HW220355   1.640   2.322   3.363
 6486SOL     OW20356   1.496   3.983   3.853
 6486SOL    HW120357   1.438   4.039   3.792
 6486SOL    HW220358   1.490   3.887   3.825
 6487SOL     OW20359   6.053   6.495   4.347
 6487SOL    HW120360   6.153   6.494   4.346
 6487SOL    HW220361   6.019   6.556   4.275
 6488SOL     OW20362   2.939   4.948   5.964
 6488SOL    HW120363   2.928   4.849   5.977
 6488SOL    HW220364   2.850   4.988   5.943
 6489SOL     OW20365   1.618   1.724   5.431
 6489SOL    HW120366   1.542   1.660   5.438
 6489SOL    HW220367   1.656   1.740   5.522
 6490SOL     OW20368   3.560   1.746   0.449
 6490SOL    HW120369   3.548   1.807   0.527
 6490SOL    HW220370   3.633   1.680   0.470
 6491SOL     OW20371   4.407   1.703   6.015
 6491SOL    HW120372   4.435   1.697   5.919
 6491SOL    HW220373   4.351   1.784   6.028
 6492SOL     OW20374   6.379   6.510   0.026
 6492SOL    HW120375   6.460   6.535   0.078
 6492SOL    HW220376   6.307   6.577   0.043
 6493SOL     OW20377   1.559   6.717   6.190
 6493SOL    HW120378   1.512   6.685   6.108
 6493SOL    HW220379   1.518   6.804   6.219
 6494SOL     OW20380   0.713   0.436   3.491
 6494SOL    HW120381   0.777   0.381   3.437
 6494SOL    HW220382   0.761   0.512   3.533
 6495SOL     OW20383   5.554   5.047   3.109
 6495SOL    HW120384   5.517   4.977   3.048
 6495SOL    HW220385   5.573   5.131   3.057
 6496SOL     OW20386   1.163   6.811   2.388
 6496SOL    HW120387   1.073   6.854   2.372
 6496SOL    HW220388   1.206   6.853   2.467
 6497SOL     OW20389   1.672   4.073   0.409
 6497SOL    HW120390   1.611   4.137   0.362
 6497SOL    HW220391   1.712   4.011   0.342
 6498SOL     OW20392   2.283   4.160   3.956
 6498SOL    HW120393   2.243   4.071   3.936
 6498SOL    HW220394   2.214   4.221   3.994
 6499SOL     OW20395   5.521   1.321   3.690
 6499SOL    HW120396   5.568   1.347   3.606
 6499SOL    HW220397   5.447   1.386   3.708
 6500SOL     OW20398   4.831   4.785   3.348
 6500SOL    HW120399   4.834   4.753   3.253
 6500SOL    HW220400   4.924   4.803   3.379
 6501SOL     OW20401   6.308   3.954   1.287
 6501SOL    HW120402   6.214   3.986   1.299
 6501SOL    HW220403   6.361   3.975   1.370
 6502SOL     OW20404   0.852   4.861   2.991
 6502SOL    HW120405   0.754   4.849   3.007
 6502SOL    HW220406   0.869   4.954   2.956
 6503SOL     OW20407   4.869   6.953   4.830
 6503SOL    HW120408   4.909   6.862   4.835
 6503SOL    HW220409   4.834   6.979   4.920
 6504SOL     OW20410   3.615   0.808   0.706
 6504SOL    HW120411   3.628   0.736   0.638
 6504SOL    HW220412   3.527   0.852   0.691
 6505SOL     OW20413   5.901   5.100   1.143
 6505SOL    HW120414   5.894   5.197   1.121
 6505SOL    HW220415   5.904   5.046   1.059
 6506SOL     OW20416   1.779   2.885   1.229
 6506SOL    HW120417   1.695   2.889   1.174
 6506SOL    HW220418   1.760   2.919   1.321
 6507SOL     OW20419   2.425   6.796   1.210
 6507SOL    HW120420   2.341   6.829   1.165
 6507SOL    HW220421   2.406   6.780   1.307
 6508SOL     OW20422   2.317   2.165   3.390
 6508SOL    HW120423   2.309   2.089   3.325
 6508SOL    HW220424   2.387   2.144   3.458
 6509SOL     OW20425   0.962   2.973   4.798
 6509SOL    HW120426   1.028   3.048   4.804
 6509SOL    HW220427   1.010   2.887   4.783
 6510SOL     OW20428   6.171   4.711   6.628
 6510SOL    HW120429   6.118   4.720   6.543
 6510SOL    HW220430   6.222   4.796   6.644
 6511SOL     OW20431   6.470   6.639   6.217
 6511SOL    HW120432   6.509   6.560   6.265
 6511SOL    HW220433   6.544   6.699   6.187
 6512SOL     OW20434   5.450   6.857   3.450
 6512SOL    HW120435   5.419   6.929   3.389
 6512SOL    HW220436   5.377   6.790   3.463
 6513SOL     OW20437   3.851   6.739   3.070
 6513SOL    HW120438   3.951   6.744   3.071
 6513SOL    HW220439   3.816   6.781   2.986
 6514SOL     OW20440   4.183   0.377   4.056
 6514SOL    HW120441   4.212   0.472   4.067
 6514SOL    HW220442   4.085   0.375   4.037
 6515SOL     OW20443   0.532   6.567   4.843
 6515SOL    HW120444   0.622   6.611   4.834
 6515SOL    HW220445   0.533   6.505   4.920
 6516SOL     OW20446   0.791   1.797   5.176
 6516SOL    HW120447   0.849   1.864   5.223
 6516SOL    HW220448   0.697   1.828   5.176
 6517SOL     OW20449   0.837   1.320   0.431
 6517SOL    HW120450   0.878   1.345   0.519
 6517SOL    HW220451   0.821   1.222   0.428
 6518SOL     OW20452   6.721   6.478   1.008
 6518SOL    HW120453   6.728   6.578   1.006
 6518SOL    HW220454   6.756   6.440   0.923
 6519SOL     OW20455   1.927   2.111   4.360
 6519SOL    HW120456   1.872   2.092   4.441
 6519SOL    HW220457   1.901   2.200   4.323
 6520SOL     OW20458   6.076   5.859   1.556
 6520SOL    HW120459   6.101   5.832   1.463
 6520SOL    HW220460   6.099   5.956   1.570
 6521SOL     OW20461   0.034   1.978   5.103
 6521SOL    HW120462   0.058   2.075   5.108
 6521SOL    HW220463   6.965   1.969   5.067
 6522SOL     OW20464   2.347   5.343   6.728
 6522SOL    HW120465   2.397   5.258   6.708
 6522SOL    HW220466   2.276   5.357   6.660
 6523SOL     OW20467   1.767   1.383   5.959
 6523SOL    HW120468   1.780   1.481   5.945
 6523SOL    HW220469   1.674   1.358   5.936
 6524SOL     OW20470   4.084   3.479   3.422
 6524SOL    HW120471   4.103   3.384   3.396
 6524SOL    HW220472   4.030   3.480   3.506
 6525SOL     OW20473   0.395   3.209   3.044
 6525SOL    HW120474   0.457   3.185   2.969
 6525SOL    HW220475   0.448   3.223   3.127
 6526SOL     OW20476   1.527   5.882   5.320
 6526SOL    HW120477   1.486   5.868   5.229
 6526SOL    HW220478   1.473   5.832   5.388
 6527SOL     OW20479   1.216   6.689   4.910
 6527SOL    HW120480   1.310   6.718   4.925
 6527SOL    HW220481   1.174   6.662   4.997
 6528SOL     OW20482   0.174   1.754   4.490
 6528SOL    HW120483   0.110   1.782   4.562
 6528SOL    HW220484   0.168   1.655   4.477
 6529SOL     OW20485   6.602   1.278   1.714
 6529SOL    HW120486   6.551   1.356   1.750
 6529SOL    HW220487   6.636   1.222   1.791
 6530SOL     OW20488   6.929   1.833   0.474
 6530SOL    HW120489   6.944   1.913   0.416
 6530SOL    HW220490   6.913   1.752   0.416
 6531SOL     OW20491   5.647   3.292   3.979
 6531SOL    HW120492   5.613   3.258   3.891
 6531SOL    HW220493   5.625   3.389   3.988
 6532SOL     OW20494   6.577   1.384   6.078
 6532SOL    HW120495   6.566   1.293   6.118
 6532SOL    HW220496   6.645   1.380   6.004
 6533SOL     OW20497   4.987   0.205   1.274
 6533SOL    HW120498   5.068   0.225   1.220
 6533SOL    HW220499   4.933   0.134   1.228
 6534SOL     OW20500   2.423   4.274   0.942
 6534SOL    HW120501   2.418   4.269   1.042
 6534SOL    HW220502   2.510   4.316   0.916
 6535SOL     OW20503   0.262   3.844   5.543
 6535SOL    HW120504   0.314   3.930   5.544
 6535SOL    HW220505   0.188   3.851   5.475
 6536SOL     OW20506   5.967   1.852   6.940
 6536SOL    HW120507   5.957   1.803   0.002
 6536SOL    HW220508   6.056   1.896   6.936
 6537SOL     OW20509   0.814   6.664   0.263
 6537SOL    HW120510   0.721   6.665   0.299
 6537SOL    HW220511   0.872   6.609   0.324
 6538SOL     OW20512   3.075   3.763   0.095
 6538SOL    HW120513   3.159   3.814   0.078
 6538SOL    HW220514   3.076   3.724   0.187
 6539SOL     OW20515   2.478   1.795   6.960
 6539SOL    HW120516   2.513   1.738   6.886
 6539SOL    HW220517   2.443   1.881   6.922
 6540SOL     OW20518   2.853   1.488   4.483
 6540SOL    HW120519   2.765   1.448   4.508
 6540SOL    HW220520   2.926   1.422   4.498
 6541SOL     OW20521   2.666   2.518   5.962
 6541SOL    HW120522   2.659   2.421   5.984
 6541SOL    HW220523   2.579   2.563   5.979
 6542SOL     OW20524   6.341   4.313   3.879
 6542SOL    HW120525   6.328   4.222   3.840
 6542SOL    HW220526   6.252   4.356   3.893
 6543SOL     OW20527   6.449   6.086   6.821
 6543SOL    HW120528   6.428   6.101   6.725
 6543SOL    HW220529   6.383   6.023   6.861
 6544SOL     OW20530   6.404   6.462   4.058
 6544SOL    HW120531   6.492   6.496   4.091
 6544SOL    HW220532   6.354   6.537   4.016
 6545SOL     OW20533   5.108   1.764   5.339
 6545SOL    HW120534   5.052   1.685   5.313
 6545SOL    HW220535   5.056   1.825   5.398
 6546SOL     OW20536   3.101   4.619   6.219
 6546SOL    HW120537   3.071   4.705   6.261
 6546SOL    HW220538   3.025   4.578   6.170
 6547SOL     OW20539   5.085   2.375   6.569
 6547SOL    HW120540   5.179   2.387   6.599
 6547SOL    HW220541   5.073   2.284   6.529
 6548SOL     OW20542   6.885   4.341   6.020
 6548SOL    HW120543   6.952   4.269   6.000
 6548SOL    HW220544   6.832   4.315   6.101
 6549SOL     OW20545   3.258   2.447   0.774
 6549SOL    HW120546   3.348   2.477   0.805
 6549SOL    HW220547   3.254   2.347   0.777
 6550SOL     OW20548   0.224   5.551   3.680
 6550SOL    HW120549   0.157   5.524   3.749
 6550SOL    HW220550   0.183   5.617   3.617
 6551SOL     OW20551   1.725   4.644   1.784
 6551SOL    HW120552   1.662   4.656   1.861
 6551SOL    HW220553   1.764   4.552   1.787
 6552SOL     OW20554   2.748   4.620   5.735
 6552SOL    HW120555   2.670   4.681   5.730
 6552SOL    HW220556   2.809   4.637   5.656
 6553SOL     OW20557   0.898   3.193   2.716
 6553SOL    HW120558   0.944   3.114   2.676
 6553SOL    HW220559   0.840   3.163   2.792
 6554SOL     OW20560   6.438   2.369   5.246
 6554SOL    HW120561   6.476   2.361   5.154
 6554SOL    HW220562   6.489   2.310   5.309
 6555SOL     OW20563   1.233   1.526   1.831
 6555SOL    HW120564   1.271   1.554   1.743
 6555SOL    HW220565   1.141   1.563   1.842
 6556SOL     OW20566   3.308   5.832   4.223
 6556SOL    HW120567   3.335   5.926   4.244
 6556SOL    HW220568   3.389   5.780   4.197
 6557SOL     OW20569   6.175   5.286   0.863
 6557SOL    HW120570   6.186   5.238   0.950
 6557SOL    HW220571   6.212   5.231   0.789
 6558SOL     OW20572   6.265   5.923   6.919
 6558SOL    HW120573   6.201   5.999   6.924
 6558SOL    HW220574   6.247   5.860   6.995
 6559SOL     OW20575   4.071   4.180   1.236
 6559SOL    HW120576   4.158   4.229   1.231
 6559SOL    HW220577   4.062   4.118   1.158
 6560SOL     OW20578   3.826   2.255   0.297
 6560SOL    HW120579   3.848   2.158   0.308
 6560SOL    HW220580   3.735   2.264   0.257
 6561SOL     OW20581   4.086   3.289   2.964
 6561SOL    HW120582   4.045   3.239   3.041
 6561SOL    HW220583   4.131   3.372   2.999
 6562SOL     OW20584   6.339   4.636   5.940
 6562SOL    HW120585   6.249   4.651   5.899
 6562SOL    HW220586   6.403   4.706   5.907
 6563SOL     OW20587   0.978   5.651   1.811
 6563SOL    HW120588   1.030   5.615   1.889
 6563SOL    HW220589   0.880   5.643   1.829
 6564SOL     OW20590   1.462   4.460   1.994
 6564SOL    HW120591   1.367   4.480   1.970
 6564SOL    HW220592   1.474   4.362   2.006
 6565SOL     OW20593   6.719   2.832   5.115
 6565SOL    HW120594   6.713   2.908   5.180
 6565SOL    HW220595   6.649   2.842   5.045
 6566SOL     OW20596   3.182   6.540   0.893
 6566SOL    HW120597   3.208   6.525   0.798
 6566SOL    HW220598   3.208   6.460   0.947
 6567SOL     OW20599   4.880   2.652   0.986
 6567SOL    HW120600   4.927   2.739   1.003
 6567SOL    HW220601   4.786   2.671   0.957
 6568SOL     OW20602   4.535   4.133   1.605
 6568SOL    HW120603   4.483   4.162   1.685
 6568SOL    HW220604   4.629   4.167   1.612
 6569SOL     OW20605   1.544   4.425   7.012
 6569SOL    HW120606   1.509   4.485   0.059
 6569SOL    HW220607   1.552   4.476   6.926
 6570SOL     OW20608   5.599   2.067   1.614
 6570SOL    HW120609   5.670   2.002   1.638
 6570SOL    HW220610   5.633   2.161   1.628
 6571SOL     OW20611   2.505   6.396   3.269
 6571SOL    HW120612   2.444   6.453   3.213
 6571SOL    HW220613   2.473   6.395   3.364
 6572SOL     OW20614   0.212   4.374   5.824
 6572SOL    HW120615   0.296   4.326   5.797
 6572SOL    HW220616   0.184   4.435   5.750
 6573SOL     OW20617   2.563   1.261   2.451
 6573SOL    HW120618   2.564   1.175   2.400
 6573SOL    HW220619   2.584   1.337   2.389
 6574SOL     OW20620   2.690   5.001   2.804
 6574SOL    HW120621   2.777   5.050   2.797
 6574SOL    HW220622   2.694   4.918   2.748
 6575SOL     OW20623   1.357   1.580   2.513
 6575SOL    HW120624   1.357   1.677   2.539
 6575SOL    HW220625   1.285   1.532   2.564
 6576SOL     OW20626   1.622   5.801   6.223
 6576SOL    HW120627   1.697   5.752   6.178
 6576SOL    HW220628   1.590   5.749   6.302
 6577SOL     OW20629   6.856   2.021   3.776
 6577SOL    HW120630   6.858   1.943   3.714
 6577SOL    HW220631   6.872   2.105   3.724
 6578SOL     OW20632   6.390   5.584   3.875
 6578SOL    HW120633   6.321   5.628   3.931
 6578SOL    HW220634   6.424   5.649   3.807
 6579SOL     OW20635   6.809   4.088   3.061
 6579SOL    HW120636   6.753   4.059   2.983
 6579SOL    HW220637   6.788   4.183   3.084
 6580SOL     OW20638   5.911   1.645   2.388
 6580SOL    HW120639   5.827   1.692   2.414
 6580SOL    HW220640   5.923   1.564   2.446
 6581SOL     OW20641   3.175   2.109   6.667
 6581SOL    HW120642   3.099   2.045   6.681
 6581SOL    HW220643   3.195   2.157   6.753
 6582SOL     OW20644   6.682   0.032   2.834
 6582SOL    HW120645   6.711   0.124   2.862
 6582SOL    HW220646   6.585   0.035   2.807
 6583SOL     OW20647   5.375   1.774   5.579
 6583SOL    HW120648   5.455   1.715   5.565
 6583SOL    HW220649   5.304   1.749   5.513
 6584SOL     OW20650   6.150   1.802   6.683
 6584SOL    HW120651   6.086   1.868   6.644
 6584SOL    HW220652   6.099   1.732   6.733
 6585SOL     OW20653   1.079   1.864   6.690
 6585SOL    HW120654   1.088   1.788   6.626
 6585SOL    HW220655   0.987   1.903   6.683
 6586SOL     OW20656   6.269   1.791   6.168
 6586SOL    HW120657   6.341   1.728   6.138
 6586SOL    HW220658   6.189   1.782   6.109
 6587SOL     OW20659   2.336   6.548   3.126
 6587SOL    HW120660   2.424   6.568   3.083
 6587SOL    HW220661   2.265   6.544   3.056
 6588SOL     OW20662   1.689   3.044   6.784
 6588SOL    HW120663   1.643   2.957   6.767
 6588SOL    HW220664   1.652   3.113   6.722
 6589SOL     OW20665   4.591   1.572   5.330
 6589SOL    HW120666   4.501   1.605   5.357
 6589SOL    HW220667   4.601   1.579   5.231
 6590SOL     OW20668   0.245   1.393   5.560
 6590SOL    HW120669   0.229   1.458   5.485
 6590SOL    HW220670   0.343   1.380   5.572
 6591SOL     OW20671   5.971   0.874   2.934
 6591SOL    HW120672   5.878   0.844   2.913
 6591SOL    HW220673   5.976   0.900   3.030
 6592SOL     OW20674   4.585   5.667   4.385
 6592SOL    HW120675   4.684   5.683   4.377
 6592SOL    HW220676   4.558   5.681   4.480
 6593SOL     OW20677   3.342   1.706   3.064
 6593SOL    HW120678   3.294   1.618   3.066
 6593SOL    HW220679   3.403   1.709   2.985
 6594SOL     OW20680   5.182   0.685   6.743
 6594SOL    HW120681   5.204   0.620   6.816
 6594SOL    HW220682   5.175   0.636   6.656
 6595SOL     OW20683   1.738   3.737   1.112
 6595SOL    HW120684   1.701   3.686   1.034
 6595SOL    HW220685   1.830   3.770   1.089
 6596SOL     OW20686   4.463   7.017   4.824
 6596SOL    HW120687   4.493   6.987   4.915
 6596SOL    HW220688   4.530   6.988   4.756
 6597SOL     OW20689   0.368   5.791   4.798
 6597SOL    HW120690   0.304   5.817   4.726
 6597SOL    HW220691   0.413   5.873   4.834
 6598SOL     OW20692   2.011   5.794   5.073
 6598SOL    HW120693   1.955   5.820   5.152
 6598SOL    HW220694   2.108   5.801   5.097
 6599SOL     OW20695   4.560   4.810   6.258
 6599SOL    HW120696   4.477   4.754   6.260
 6599SOL    HW220697   4.588   4.830   6.352
 6600SOL     OW20698   4.761   5.643   3.919
 6600SOL    HW120699   4.669   5.666   3.949
 6600SOL    HW220700   4.828   5.686   3.980
 6601SOL     OW20701   0.591   0.414   0.186
 6601SOL    HW120702   0.517   0.360   0.228
 6601SOL    HW220703   0.674   0.403   0.241
 6602SOL     OW20704   6.722   1.409   1.492
 6602SOL    HW120705   6.738   1.500   1.529
 6602SOL    HW220706   6.654   1.362   1.547
 6603SOL     OW20707   2.082   3.628   3.184
 6603SOL    HW120708   2.115   3.630   3.279
 6603SOL    HW220709   2.052   3.720   3.157
 6604SOL     OW20710   2.917   5.441   2.636
 6604SOL    HW120711   3.003   5.450   2.686
 6604SOL    HW220712   2.934   5.441   2.538
 6605SOL     OW20713   5.908   5.826   6.953
 6605SOL    HW120714   5.943   5.819   0.022
 6605SOL    HW220715   5.985   5.817   6.889
 6606SOL     OW20716   5.223   1.458   2.652
 6606SOL    HW120717   5.300   1.426   2.595
 6606SOL    HW220718   5.144   1.399   2.636
 6607SOL     OW20719   2.002   1.515   2.136
 6607SOL    HW120720   1.994   1.440   2.070
 6607SOL    HW220721   2.096   1.521   2.169
 6608SOL     OW20722   5.788   3.951   3.577
 6608SOL    HW120723   5.719   3.923   3.645
 6608SOL    HW220724   5.837   4.030   3.611
 6609SOL     OW20725   5.118   1.130   6.100
 6609SOL    HW120726   5.178   1.053   6.078
 6609SOL    HW220727   5.175   1.211   6.119
 6610SOL     OW20728   2.716   0.401   0.430
 6610SOL    HW120729   2.688   0.365   0.519
 6610SOL    HW220730   2.694   0.335   0.359
 6611SOL     OW20731   5.948   2.430   2.665
 6611SOL    HW120732   6.014   2.400   2.734
 6611SOL    HW220733   5.990   2.499   2.607
 6612SOL     OW20734   1.360   6.451   0.084
 6612SOL    HW120735   1.394   6.533   0.038
 6612SOL    HW220736   1.327   6.474   0.175
 6613SOL     OW20737   4.754   4.864   1.813
 6613SOL    HW120738   4.667   4.835   1.854
 6613SOL    HW220739   4.741   4.953   1.769
 6614SOL     OW20740   5.013   5.938   5.993
 6614SOL    HW120741   4.920   5.944   6.028
 6614SOL    HW220742   5.075   5.988   6.054
 6615SOL     OW20743   0.874   3.862   5.203
 6615SOL    HW120744   0.828   3.774   5.216
 6615SOL    HW220745   0.960   3.848   5.155
 6616SOL     OW20746   5.423   0.983   4.820
 6616SOL    HW120747   5.386   1.074   4.802
 6616SOL    HW220748   5.369   0.914   4.771
 6617SOL     OW20749   4.072   6.878   5.010
 6617SOL    HW120750   4.109   6.826   5.087
 6617SOL    HW220751   4.135   6.872   4.933
 6618SOL     OW20752   1.193   4.497   1.957
 6618SOL    HW120753   1.120   4.479   2.023
 6618SOL    HW220754   1.154   4.538   1.874
 6619SOL     OW20755   4.724   5.474   2.367
 6619SOL    HW120756   4.648   5.533   2.338
 6619SOL    HW220757   4.733   5.480   2.467
 6620SOL     OW20758   1.241   2.853   5.724
 6620SOL    HW120759   1.214   2.776   5.783
 6620SOL    HW220760   1.333   2.884   5.750
 6621SOL     OW20761   2.847   4.283   0.261
 6621SOL    HW120762   2.753   4.251   0.272
 6621SOL    HW220763   2.899   4.214   0.210
 6622SOL     OW20764   6.601   6.273   0.623
 6622SOL    HW120765   6.601   6.358   0.571
 6622SOL    HW220766   6.652   6.203   0.573
 6623SOL     OW20767   3.463   3.293   2.274
 6623SOL    HW120768   3.383   3.318   2.329
 6623SOL    HW220769   3.433   3.256   2.186
 6624SOL     OW20770   4.226   5.249   4.312
 6624SOL    HW120771   4.287   5.228   4.388
 6624SOL    HW220772   4.152   5.309   4.344
 6625SOL     OW20773   6.556   0.778   6.778
 6625SOL    HW120774   6.518   0.795   6.687
 6625SOL    HW220775   6.481   0.773   6.844
 6626SOL     OW20776   3.668   5.155   3.335
 6626SOL    HW120777   3.656   5.060   3.308
 6626SOL    HW220778   3.583   5.205   3.321
 6627SOL     OW20779   2.147   0.504   0.712
 6627SOL    HW120780   2.149   0.459   0.622
 6627SOL    HW220781   2.223   0.568   0.719
 6628SOL     OW20782   4.072   5.766   3.079
 6628SOL    HW120783   4.094   5.768   2.981
 6628SOL    HW220784   4.046   5.858   3.109
 6629SOL     OW20785   3.689   5.488   0.879
 6629SOL    HW120786   3.779   5.505   0.840
 6629SOL    HW220787   3.630   5.444   0.811
 6630SOL     OW20788   3.018   1.952   0.421
 6630SOL    HW120789   3.091   1.894   0.458
 6630SOL    HW220790   3.059   2.035   0.382
 6631SOL     OW20791   5.236   0.759   2.486
 6631SOL    HW120792   5.213   0.667   2.517
 6631SOL    HW220793   5.288   0.807   2.557
 6632SOL     OW20794   6.975   0.609   1.112
 6632SOL    HW120795   6.898   0.559   1.071
 6632SOL    HW220796   0.016   0.634   1.041
 6633SOL     OW20797   1.708   6.614   1.231
 6633SOL    HW120798   1.754   6.614   1.142
 6633SOL    HW220799   1.609   6.618   1.217
 6634SOL     OW20800   6.816   2.837   6.226
 6634SOL    HW120801   6.820   2.738   6.234
 6634SOL    HW220802   6.767   2.875   6.305
 6635SOL     OW20803   4.537   4.616   3.568
 6635SOL    HW120804   4.489   4.596   3.483
 6635SOL    HW220805   4.633   4.638   3.548
 6636SOL     OW20806   2.177   2.341   4.025
 6636SOL    HW120807   2.221   2.377   4.107
 6636SOL    HW220808   2.230   2.365   3.944
 6637SOL     OW20809   0.313   6.991   0.966
 6637SOL    HW120810   0.340   6.990   1.062
 6637SOL    HW220811   0.233   0.026   0.955
 6638SOL     OW20812   2.566   5.941   5.926
 6638SOL    HW120813   2.571   5.842   5.941
 6638SOL    HW220814   2.621   5.966   5.847
 6639SOL     OW20815   5.813   5.226   6.733
 6639SOL    HW120816   5.868   5.239   6.816
 6639SOL    HW220817   5.796   5.315   6.691
 6640SOL     OW20818   6.752   2.361   3.517
 6640SOL    HW120819   6.712   2.422   3.585
 6640SOL    HW220820   6.686   2.343   3.444
 6641SOL     OW20821   1.827   4.171   6.106
 6641SOL    HW120822   1.763   4.095   6.115
 6641SOL    HW220823   1.903   4.143   6.047
 6642SOL     OW20824   0.618   5.739   6.616
 6642SOL    HW120825   0.619   5.718   6.713
 6642SOL    HW220826   0.712   5.742   6.581
 6643SOL     OW20827   5.158   4.780   6.686
 6643SOL    HW120828   5.218   4.715   6.639
 6643SOL    HW220829   5.079   4.801   6.627
 6644SOL     OW20830   2.885   4.856   2.090
 6644SOL    HW120831   2.862   4.765   2.056
 6644SOL    HW220832   2.811   4.920   2.066
 6645SOL     OW20833   0.200   5.027   5.812
 6645SOL    HW120834   0.274   4.966   5.836
 6645SOL    HW220835   0.117   5.002   5.863
 6646SOL     OW20836   2.553   5.849   3.698
 6646SOL    HW120837   2.453   5.852   3.686
 6646SOL    HW220838   2.579   5.914   3.769
 6647SOL     OW20839   3.041   1.386   1.929
 6647SOL    HW120840   3.059   1.393   1.831
 6647SOL    HW220841   3.119   1.423   1.980
 6648SOL     OW20842   4.976   5.595   2.350
 6648SOL    HW120843   4.889   5.547   2.363
 6648SOL    HW220844   4.960   5.679   2.298
 6649SOL     OW20845   4.526   2.242   6.330
 6649SOL    HW120846   4.597   2.186   6.287
 6649SOL    HW220847   4.567   2.327   6.364
 6650SOL     OW20848   3.960   1.867   3.633
 6650SOL    HW120849   4.056   1.865   3.605
 6650SOL    HW220850   3.902   1.877   3.552
 6651SOL     OW20851   0.765   2.625   6.951
 6651SOL    HW120852   0.846   2.682   6.955
 6651SOL    HW220853   0.684   2.682   6.936
 6652SOL     OW20854   6.863   5.712   2.079
 6652SOL    HW120855   6.821   5.799   2.055
 6652SOL    HW220856   6.950   5.728   2.126
 6653SOL     OW20857   3.789   3.930   4.062
 6653SOL    HW120858   3.802   4.017   4.109
 6653SOL    HW220859   3.691   3.910   4.054
 6654SOL     OW20860   2.292   3.324   1.629
 6654SOL    HW120861   2.208   3.358   1.586
 6654SOL    HW220862   2.305   3.370   1.717
 6655SOL     OW20863   2.807   6.626   2.005
 6655SOL    HW120864   2.740   6.593   1.938
 6655SOL    HW220865   2.780   6.598   2.096
 6656SOL     OW20866   6.060   2.071   1.331
 6656SOL    HW120867   6.078   2.073   1.233
 6656SOL    HW220868   6.023   1.981   1.356
 6657SOL     OW20869   2.960   6.447   6.747
 6657SOL    HW120870   3.002   6.443   6.656
 6657SOL    HW220871   2.956   6.542   6.778
 6658SOL     OW20872   6.006   1.096   4.910
 6658SOL    HW120873   6.082   1.156   4.935
 6658SOL    HW220874   6.038   1.024   4.849
 6659SOL     OW20875   2.137   3.200   0.322
 6659SOL    HW120876   2.068   3.141   0.363
 6659SOL    HW220877   2.139   3.186   0.223
 6660SOL     OW20878   6.796   6.815   2.809
 6660SOL    HW120879   6.892   6.832   2.828
 6660SOL    HW220880   6.744   6.900   2.823
 6661SOL     OW20881   0.167   5.689   3.948
 6661SOL    HW120882   0.236   5.649   4.008
 6661SOL    HW220883   0.201   5.776   3.912
 6662SOL     OW20884   1.315   1.560   0.129
 6662SOL    HW120885   1.340   1.637   0.187
 6662SOL    HW220886   1.224   1.576   0.090
 6663SOL     OW20887   0.335   5.820   2.303
 6663SOL    HW120888   0.392   5.855   2.378
 6663SOL    HW220889   0.378   5.739   2.263
 6664SOL     OW20890   1.514   0.646   2.009
 6664SOL    HW120891   1.474   0.584   1.942
 6664SOL    HW220892   1.445   0.672   2.076
 6665SOL     OW20893   2.101   6.693   2.938
 6665SOL    HW120894   2.136   6.743   2.859
 6665SOL    HW220895   2.087   6.597   2.914
 6666SOL     OW20896   6.224   0.657   5.851
 6666SOL    HW120897   6.224   0.593   5.928
 6666SOL    HW220898   6.307   0.712   5.853
 6667SOL     OW20899   6.946   5.066   5.166
 6667SOL    HW120900   6.865   5.122   5.180
 6667SOL    HW220901   6.920   4.969   5.164
 6668SOL     OW20902   1.056   4.343   1.638
 6668SOL    HW120903   1.100   4.337   1.548
 6668SOL    HW220904   1.067   4.436   1.673
 6669SOL     OW20905   2.353   5.938   3.037
 6669SOL    HW120906   2.420   5.870   3.006
 6669SOL    HW220907   2.337   5.927   3.135
 6670SOL     OW20908   3.382   5.023   0.332
 6670SOL    HW120909   3.293   5.018   0.378
 6670SOL    HW220910   3.374   4.987   0.239
 6671SOL     OW20911   6.610   3.159   5.560
 6671SOL    HW120912   6.696   3.124   5.598
 6671SOL    HW220913   6.539   3.158   5.631
 6672SOL     OW20914   1.075   0.802   5.835
 6672SOL    HW120915   1.057   0.799   5.933
 6672SOL    HW220916   1.019   0.874   5.793
 6673SOL     OW20917   4.576   4.872   1.586
 6673SOL    HW120918   4.610   4.846   1.676
 6673SOL    HW220919   4.628   4.825   1.516
 6674SOL     OW20920   0.899   6.091   4.678
 6674SOL    HW120921   0.848   6.021   4.727
 6674SOL    HW220922   0.931   6.054   4.591
 6675SOL     OW20923   6.080   5.336   0.174
 6675SOL    HW120924   6.146   5.261   0.181
 6675SOL    HW220925   6.112   5.414   0.227
 6676SOL     OW20926   0.672   2.385   6.034
 6676SOL    HW120927   0.686   2.318   5.962
 6676SOL    HW220928   0.575   2.388   6.058
 6677SOL     OW20929   0.968   3.045   0.412
 6677SOL    HW120930   0.967   3.029   0.511
 6677SOL    HW220931   1.042   3.110   0.391
 6678SOL     OW20932   0.910   2.871   6.005
 6678SOL    HW120933   0.834   2.833   6.056
 6678SOL    HW220934   0.993   2.818   6.023
 6679SOL     OW20935   1.604   2.608   4.910
 6679SOL    HW120936   1.572   2.519   4.941
 6679SOL    HW220937   1.548   2.680   4.952
 6680SOL     OW20938   3.426   6.675   6.461
 6680SOL    HW120939   3.460   6.675   6.367
 6680SOL    HW220940   3.501   6.650   6.523
 6681SOL     OW20941   4.935   5.714   0.921
 6681SOL    HW120942   5.014   5.703   0.860
 6681SOL    HW220943   4.851   5.707   0.867
 6682SOL     OW20944   0.392   5.318   2.240
 6682SOL    HW120945   0.327   5.311   2.315
 6682SOL    HW220946   0.358   5.266   2.161
 6683SOL     OW20947   5.181   1.939   4.784
 6683SOL    HW120948   5.107   1.990   4.828
 6683SOL    HW220949   5.179   1.958   4.685
 6684SOL     OW20950   1.427   0.047   2.331
 6684SOL    HW120951   1.468   0.000   2.253
 6684SOL    HW220952   1.398   7.004   2.399
 6685SOL     OW20953   5.074   3.340   6.416
 6685SOL    HW120954   4.986   3.386   6.428
 6685SOL    HW220955   5.130   3.353   6.498
 6686SOL     OW20956   6.343   3.878   3.083
 6686SOL    HW120957   6.330   3.826   2.999
 6686SOL    HW220958   6.333   3.976   3.064
 6687SOL     OW20959   1.177   1.625   1.049
 6687SOL    HW120960   1.081   1.630   1.079
 6687SOL    HW220961   1.186   1.670   0.960
 6688SOL     OW20962   0.809   4.330   2.661
 6688SOL    HW120963   0.840   4.341   2.566
 6688SOL    HW220964   0.800   4.233   2.682
 6689SOL     OW20965   4.909   4.671   6.949
 6689SOL    HW120966   4.886   4.655   0.020
 6689SOL    HW220967   4.999   4.714   6.943
 6690SOL     OW20968   2.285   2.883   0.527
 6690SOL    HW120969   2.324   2.880   0.619
 6690SOL    HW220970   2.186   2.869   0.531
 6691SOL     OW20971   2.509   4.753   1.522
 6691SOL    HW120972   2.465   4.820   1.462
 6691SOL    HW220973   2.531   4.796   1.610
 6692SOL     OW20974   3.534   4.211   5.097
 6692SOL    HW120975   3.612   4.252   5.144
 6692SOL    HW220976   3.564   4.176   5.008
 6693SOL     OW20977   4.310   3.623   5.238
 6693SOL    HW120978   4.305   3.719   5.209
 6693SOL    HW220979   4.398   3.585   5.210
 6694SOL     OW20980   4.086   6.085   0.991
 6694SOL    HW120981   4.073   6.145   1.070
 6694SOL    HW220982   4.064   6.135   0.907
 6695SOL     OW20983   1.254   1.373   6.674
 6695SOL    HW120984   1.315   1.298   6.697
 6695SOL    HW220985   1.287   1.418   6.590
 6696SOL     OW20986   2.178   3.163   1.954
 6696SOL    HW120987   2.099   3.132   1.900
 6696SOL    HW220988   2.196   3.259   1.934
 6697SOL     OW20989   4.711   1.449   3.314
 6697SOL    HW120990   4.748   1.386   3.382
 6697SOL    HW220991   4.626   1.489   3.348
 6698SOL     OW20992   3.865   3.503   0.399
 6698SOL    HW120993   3.822   3.571   0.458
 6698SOL    HW220994   3.815   3.496   0.313
 6699SOL     OW20995   1.848   4.574   0.362
 6699SOL    HW120996   1.799   4.622   0.289
 6699SOL    HW220997   1.910   4.507   0.322
 6700SOL     OW20998   0.063   5.666   0.869
 6700SOL    HW120999   0.106   5.736   0.812
 6700SOL    HW221000   7.001   5.701   0.906
 6701SOL     OW21001   0.369   1.752   0.787
 6701SOL    HW121002   0.444   1.705   0.741
 6701SOL    HW221003   0.297   1.772   0.721
 6702SOL     OW21004   2.444   1.515   1.649
 6702SOL    HW121005   2.477   1.576   1.577
 6702SOL    HW221006   2.520   1.462   1.686
 6703SOL     OW21007   6.901   1.335   6.711
 6703SOL    HW121008   6.941   1.251   6.747
 6703SOL    HW221009   6.920   1.411   6.774
 6704SOL     OW21010   4.773   2.062   2.351
 6704SOL    HW121011   4.772   2.152   2.394
 6704SOL    HW221012   4.719   2.065   2.266
 6705SOL     OW21013   5.599   2.038   0.351
 6705SOL    HW121014   5.594   1.952   0.401
 6705SOL    HW221015   5.597   2.020   0.253
 6706SOL     OW21016   0.808   4.248   6.400
 6706SOL    HW121017   0.839   4.154   6.392
 6706SOL    HW221018   0.883   4.310   6.377
 6707SOL     OW21019   1.054   5.523   2.912
 6707SOL    HW121020   1.051   5.619   2.938
 6707SOL    HW221021   1.127   5.477   2.963
 6708SOL     OW21022   2.157   5.961   2.123
 6708SOL    HW121023   2.207   5.955   2.210
 6708SOL    HW221024   2.130   6.055   2.107
 6709SOL     OW21025   4.459   1.205   2.397
 6709SOL    HW121026   4.514   1.265   2.456
 6709SOL    HW221027   4.372   1.249   2.377
 6710SOL     OW21028   3.268   2.436   0.090
 6710SOL    HW121029   3.224   2.516   0.047
 6710SOL    HW221030   3.297   2.460   0.182
 6711SOL     OW21031   3.889   4.234   0.159
 6711SOL    HW121032   3.980   4.259   0.192
 6711SOL    HW221033   3.871   4.138   0.180
 6712SOL     OW21034   3.982   6.194   6.780
 6712SOL    HW121035   3.970   6.262   6.853
 6712SOL    HW221036   3.908   6.203   6.714
 6713SOL     OW21037   2.138   2.431   1.428
 6713SOL    HW121038   2.221   2.393   1.469
 6713SOL    HW221039   2.074   2.357   1.410
 6714SOL     OW21040   5.818   0.527   4.527
 6714SOL    HW121041   5.844   0.497   4.618
 6714SOL    HW221042   5.750   0.600   4.534
 6715SOL     OW21043   0.397   1.118   0.627
 6715SOL    HW121044   0.351   1.031   0.645
 6715SOL    HW221045   0.495   1.107   0.641
 6716SOL     OW21046   1.983   5.329   1.309
 6716SOL    HW121047   1.911   5.367   1.250
 6716SOL    HW221048   1.943   5.264   1.373
 6717SOL     OW21049   4.189   2.119   6.928
 6717SOL    HW121050   4.176   2.211   6.889
 6717SOL    HW221051   4.123   2.105   7.002
 6718SOL     OW21052   3.126   0.407   0.928
 6718SOL    HW121053   3.054   0.444   0.987
 6718SOL    HW221054   3.204   0.470   0.926
 6719SOL     OW21055   6.487   6.513   5.283
 6719SOL    HW121056   6.478   6.532   5.381
 6719SOL    HW221057   6.397   6.517   5.240
 6720SOL     OW21058   1.676   5.202   1.078
 6720SOL    HW121059   1.621   5.177   1.158
 6720SOL    HW221060   1.621   5.195   0.995
 6721SOL     OW21061   5.390   6.487   4.027
 6721SOL    HW121062   5.447   6.459   4.104
 6721SOL    HW221063   5.343   6.408   3.989
 6722SOL     OW21064   4.305   2.882   6.532
 6722SOL    HW121065   4.373   2.887   6.604
 6722SOL    HW221066   4.265   2.973   6.518
 6723SOL     OW21067   4.012   6.471   3.181
 6723SOL    HW121068   4.085   6.478   3.114
 6723SOL    HW221069   3.948   6.548   3.171
 6724SOL     OW21070   3.457   4.926   5.092
 6724SOL    HW121071   3.430   5.018   5.122
 6724SOL    HW221072   3.415   4.857   5.151
 6725SOL     OW21073   0.304   4.910   2.690
 6725SOL    HW121074   0.204   4.903   2.686
 6725SOL    HW221075   0.332   4.999   2.653
 6726SOL     OW21076   2.524   2.128   3.579
 6726SOL    HW121077   2.556   2.220   3.603
 6726SOL    HW221078   2.592   2.083   3.522
 6727SOL     OW21079   3.825   3.283   6.515
 6727SOL    HW121080   3.736   3.289   6.470
 6727SOL    HW221081   3.844   3.188   6.538
 6728SOL     OW21082   4.060   1.713   3.872
 6728SOL    HW121083   4.002   1.638   3.904
 6728SOL    HW221084   4.006   1.797   3.865
 6729SOL     OW21085   5.891   0.827   2.591
 6729SOL    HW121086   5.827   0.844   2.665
 6729SOL    HW221087   5.883   0.899   2.522
 6730SOL     OW21088   2.552   0.884   0.056
 6730SOL    HW121089   2.620   0.820   0.094
 6730SOL    HW221090   2.580   0.978   0.076
 6731SOL     OW21091   2.592   4.786   1.902
 6731SOL    HW121092   2.660   4.717   1.930
 6731SOL    HW221093   2.604   4.868   1.957
 6732SOL     OW21094   2.706   5.791   0.956
 6732SOL    HW121095   2.692   5.821   1.050
 6732SOL    HW221096   2.689   5.692   0.950
 6733SOL     OW21097   5.147   6.001   5.238
 6733SOL    HW121098   5.243   6.001   5.267
 6733SOL    HW221099   5.131   5.923   5.177
 6734SOL     OW21100   2.485   3.640   5.355
 6734SOL    HW121101   2.432   3.568   5.311
 6734SOL    HW221102   2.498   3.617   5.451
 6735SOL     OW21103   6.984   5.282   6.023
 6735SOL    HW121104   6.923   5.282   6.102
 6735SOL    HW221105   6.988   5.190   5.984
 6736SOL     OW21106   2.068   3.417   2.257
 6736SOL    HW121107   2.098   3.326   2.228
 6736SOL    HW221108   2.111   3.486   2.199
 6737SOL     OW21109   2.377   0.780   1.522
 6737SOL    HW121110   2.437   0.720   1.574
 6737SOL    HW221111   2.354   0.860   1.577
 6738SOL     OW21112   3.310   1.014   2.771
 6738SOL    HW121113   3.215   0.990   2.750
 6738SOL    HW221114   3.333   0.980   2.862
 6739SOL     OW21115   3.890   6.634   4.774
 6739SOL    HW121116   3.899   6.733   4.774
 6739SOL    HW221117   3.844   6.605   4.689
 6740SOL     OW21118   0.440   1.815   4.545
 6740SOL    HW121119   0.468   1.857   4.458
 6740SOL    HW221120   0.346   1.783   4.537
 6741SOL     OW21121   6.160   0.033   6.343
 6741SOL    HW121122   6.083   0.096   6.331
 6741SOL    HW221123   6.243   0.085   6.360
 6742SOL     OW21124   6.208   5.413   6.138
 6742SOL    HW121125   6.108   5.407   6.134
 6742SOL    HW221126   6.246   5.387   6.049
 6743SOL     OW21127   4.598   2.945   1.141
 6743SOL    HW121128   4.585   3.031   1.090
 6743SOL    HW221129   4.515   2.924   1.193
 6744SOL     OW21130   4.657   4.758   5.425
 6744SOL    HW121131   4.611   4.699   5.491
 6744SOL    HW221132   4.732   4.708   5.382
 6745SOL     OW21133   0.640   4.295   3.746
 6745SOL    HW121134   0.547   4.285   3.782
 6745SOL    HW221135   0.701   4.327   3.819
 6746SOL     OW21136   0.214   1.511   0.731
 6746SOL    HW121137   0.164   1.470   0.654
 6746SOL    HW221138   0.224   1.609   0.716
 6747SOL     OW21139   5.432   6.087   5.580
 6747SOL    HW121140   5.495   6.161   5.559
 6747SOL    HW221141   5.439   6.064   5.677
 6748SOL     OW21142   0.424   0.119   1.829
 6748SOL    HW121143   0.506   0.136   1.774
 6748SOL    HW221144   0.440   0.041   1.889
 6749SOL     OW21145   4.057   6.245   0.778
 6749SOL    HW121146   4.129   6.279   0.718
 6749SOL    HW221147   3.977   6.304   0.771
 6750SOL     OW21148   2.653   3.214   5.347
 6750SOL    HW121149   2.682   3.155   5.422
 6750SOL    HW221150   2.621   3.158   5.270
 6751SOL     OW21151   3.082   1.912   5.101
 6751SOL    HW121152   3.083   1.980   5.175
 6751SOL    HW221153   3.015   1.940   5.032
 6752SOL     OW21154   5.933   1.778   0.343
 6752SOL    HW121155   5.971   1.695   0.383
 6752SOL    HW221156   6.003   1.849   0.340
 6753SOL     OW21157   4.909   1.956   6.602
 6753SOL    HW121158   4.827   1.993   6.646
 6753SOL    HW221159   4.896   1.858   6.587
 6754SOL     OW21160   5.909   1.131   0.072
 6754SOL    HW121161   5.891   1.062   0.002
 6754SOL    HW221162   5.973   1.093   0.140
 6755SOL     OW21163   4.766   2.038   3.525
 6755SOL    HW121164   4.724   2.128   3.528
 6755SOL    HW221165   4.864   2.046   3.542
 6756SOL     OW21166   5.323   4.573   4.542
 6756SOL    HW121167   5.297   4.567   4.446
 6756SOL    HW221168   5.411   4.527   4.556
 6757SOL     OW21169   5.932   5.549   2.117
 6757SOL    HW121170   5.834   5.572   2.119
 6757SOL    HW221171   5.967   5.549   2.211
 6758SOL     OW21172   4.928   2.401   1.913
 6758SOL    HW121173   4.987   2.480   1.929
 6758SOL    HW221174   4.984   2.320   1.899
 6759SOL     OW21175   6.966   4.502   3.354
 6759SOL    HW121176   6.973   4.569   3.428
 6759SOL    HW221177   6.887   4.525   3.297
 6760SOL     OW21178   6.484   3.935   4.671
 6760SOL    HW121179   6.432   3.849   4.674
 6760SOL    HW221180   6.421   4.012   4.665
 6761SOL     OW21181   4.958   3.246   6.097
 6761SOL    HW121182   4.941   3.333   6.144
 6761SOL    HW221183   4.953   3.171   6.162
 6762SOL     OW21184   5.806   4.793   4.363
 6762SOL    HW121185   5.879   4.846   4.319
 6762SOL    HW221186   5.735   4.771   4.295
 6763SOL     OW21187   5.722   6.617   5.833
 6763SOL    HW121188   5.626   6.640   5.843
 6763SOL    HW221189   5.770   6.692   5.787
 6764SOL     OW21190   2.083   4.086   6.637
 6764SOL    HW121191   2.107   4.014   6.701
 6764SOL    HW221192   2.164   4.142   6.618
 6765SOL     OW21193   5.836   5.016   3.205
 6765SOL    HW121194   5.815   5.055   3.294
 6765SOL    HW221195   5.750   4.991   3.159
 6766SOL     OW21196   1.351   0.743   5.660
 6766SOL    HW121197   1.423   0.710   5.600
 6766SOL    HW221198   1.264   0.700   5.635
 6767SOL     OW21199   0.517   2.714   6.917
 6767SOL    HW121200   0.430   2.753   6.887
 6767SOL    HW221201   0.538   2.633   6.862
 6768SOL     OW21202   0.176   0.422   5.088
 6768SOL    HW121203   0.156   0.419   5.185
 6768SOL    HW221204   0.158   0.332   5.047
 6769SOL     OW21205   1.975   3.373   6.024
 6769SOL    HW121206   2.043   3.361   6.096
 6769SOL    HW221207   1.976   3.294   5.963
 6770SOL     OW21208   0.664   1.866   3.620
 6770SOL    HW121209   0.597   1.801   3.587
 6770SOL    HW221210   0.659   1.873   3.720
 6771SOL     OW21211   4.252   1.737   2.999
 6771SOL    HW121212   4.346   1.718   2.973
 6771SOL    HW221213   4.210   1.800   2.932
 6772SOL     OW21214   0.072   0.537   1.766
 6772SOL    HW121215   0.057   0.561   1.862
 6772SOL    HW221216   0.065   0.438   1.755
 6773SOL     OW21217   1.314   6.740   1.137
 6773SOL    HW121218   1.222   6.747   1.100
 6773SOL    HW221219   1.365   6.669   1.089
 6774SOL     OW21220   2.694   2.617   5.675
 6774SOL    HW121221   2.747   2.701   5.679
 6774SOL    HW221222   2.675   2.585   5.768
 6775SOL     OW21223   0.713   2.618   4.639
 6775SOL    HW121224   0.761   2.642   4.724
 6775SOL    HW221225   0.775   2.570   4.578
 6776SOL     OW21226   4.107   3.549   3.132
 6776SOL    HW121227   4.115   3.636   3.083
 6776SOL    HW221228   4.145   3.559   3.224
 6777SOL     OW21229   6.551   6.216   6.579
 6777SOL    HW121230   6.479   6.186   6.517
 6777SOL    HW221231   6.620   6.144   6.587
 6778SOL     OW21232   5.769   5.829   2.100
 6778SOL    HW121233   5.822   5.830   2.014
 6778SOL    HW221234   5.825   5.867   2.173
 6779SOL     OW21235   4.991   3.779   6.395
 6779SOL    HW121236   4.937   3.859   6.422
 6779SOL    HW221237   5.083   3.807   6.371
 6780SOL     OW21238   3.681   2.078   2.721
 6780SOL    HW121239   3.738   2.161   2.722
 6780SOL    HW221240   3.734   2.002   2.683
 6781SOL     OW21241   6.599   1.913   3.208
 6781SOL    HW121242   6.643   1.931   3.120
 6781SOL    HW221243   6.661   1.861   3.267
 6782SOL     OW21244   6.865   1.819   3.072
 6782SOL    HW121245   6.846   1.739   3.014
 6782SOL    HW221246   6.926   1.791   3.147
 6783SOL     OW21247   0.330   5.493   5.938
 6783SOL    HW121248   0.273   5.427   5.890
 6783SOL    HW221249   0.426   5.465   5.932
 6784SOL     OW21250   2.536   3.901   1.680
 6784SOL    HW121251   2.487   3.977   1.723
 6784SOL    HW221252   2.541   3.916   1.581
 6785SOL     OW21253   5.772   5.077   4.272
 6785SOL    HW121254   5.785   5.176   4.278
 6785SOL    HW221255   5.775   5.049   4.176
 6786SOL     OW21256   5.638   1.992   5.910
 6786SOL    HW121257   5.706   1.954   5.846
 6786SOL    HW221258   5.642   1.942   5.996
 6787SOL     OW21259   2.978   1.880   0.161
 6787SOL    HW121260   2.912   1.809   0.135
 6787SOL    HW221261   2.959   1.910   0.254
 6788SOL     OW21262   0.193   4.265   2.392
 6788SOL    HW121263   0.228   4.303   2.477
 6788SOL    HW221264   0.234   4.175   2.376
 6789SOL     OW21265   5.197   4.615   3.158
 6789SOL    HW121266   5.168   4.522   3.178
 6789SOL    HW221267   5.120   4.668   3.124
 6790SOL     OW21268   0.838   4.995   6.521
 6790SOL    HW121269   0.752   4.952   6.551
 6790SOL    HW221270   0.817   5.074   6.464
 6791SOL     OW21271   2.405   0.279   3.093
 6791SOL    HW121272   2.463   0.204   3.126
 6791SOL    HW221273   2.460   0.362   3.082
 6792SOL     OW21274   3.916   0.320   5.772
 6792SOL    HW121275   3.927   0.357   5.865
 6792SOL    HW221276   4.005   0.291   5.737
 6793SOL     OW21277   2.038   3.634   5.933
 6793SOL    HW121278   1.998   3.543   5.924
 6793SOL    HW221279   1.994   3.682   6.009
 6794SOL     OW21280   5.963   2.455   5.314
 6794SOL    HW121281   6.061   2.469   5.320
 6794SOL    HW221282   5.928   2.425   5.403
 6795SOL     OW21283   1.182   0.702   1.506
 6795SOL    HW121284   1.156   0.683   1.601
 6795SOL    HW221285   1.282   0.697   1.498
 6796SOL     OW21286   6.254   2.026   2.657
 6796SOL    HW121287   6.291   1.970   2.731
 6796SOL    HW221288   6.157   2.007   2.646
 6797SOL     OW21289   0.591   3.273   1.648
 6797SOL    HW121290   0.492   3.260   1.636
 6797SOL    HW221291   0.630   3.304   1.561
 6798SOL     OW21292   5.430   0.629   2.131
 6798SOL    HW121293   5.338   0.653   2.161
 6798SOL    HW221294   5.430   0.609   2.033
 6799SOL     OW21295   6.386   0.444   3.985
 6799SOL    HW121296   6.345   0.439   3.894
 6799SOL    HW221297   6.389   0.353   4.025
 6800SOL     OW21298   6.285   3.145   1.279
 6800SOL    HW121299   6.290   3.215   1.350
 6800SOL    HW221300   6.325   3.060   1.313
 6801SOL     OW21301   0.885   6.716   6.815
 6801SOL    HW121302   0.983   6.710   6.829
 6801SOL    HW221303   0.861   6.673   6.728
 6802SOL     OW21304   3.166   5.129   1.752
 6802SOL    HW121305   3.104   5.057   1.722
 6802SOL    HW221306   3.130   5.171   1.835
 6803SOL     OW21307   5.240   5.205   6.164
 6803SOL    HW121308   5.190   5.119   6.174
 6803SOL    HW221309   5.183   5.281   6.196
 6804SOL     OW21310   3.522   5.331   2.751
 6804SOL    HW121311   3.618   5.302   2.751
 6804SOL    HW221312   3.504   5.386   2.833
 6805SOL     OW21313   0.200   3.999   4.369
 6805SOL    HW121314   0.290   4.038   4.385
 6805SOL    HW221315   0.149   4.057   4.306
 6806SOL     OW21316   6.189   2.849   1.707
 6806SOL    HW121317   6.175   2.751   1.694
 6806SOL    HW221318   6.237   2.865   1.793
 6807SOL     OW21319   3.093   3.898   2.034
 6807SOL    HW121320   3.099   3.978   1.975
 6807SOL    HW221321   3.018   3.839   2.003
 6808SOL     OW21322   3.330   0.794   4.127
 6808SOL    HW121323   3.370   0.792   4.035
 6808SOL    HW221324   3.251   0.854   4.127
 6809SOL     OW21325   6.247   3.236   6.304
 6809SOL    HW121326   6.254   3.336   6.297
 6809SOL    HW221327   6.159   3.213   6.345
 6810SOL     OW21328   2.836   1.051   4.672
 6810SOL    HW121329   2.879   0.961   4.663
 6810SOL    HW221330   2.870   1.112   4.601
 6811SOL     OW21331   6.162   1.414   0.224
 6811SOL    HW121332   6.233   1.455   0.168
 6811SOL    HW221333   6.084   1.390   0.166
 6812SOL     OW21334   3.600   4.158   5.395
 6812SOL    HW121335   3.554   4.224   5.455
 6812SOL    HW221336   3.692   4.192   5.373
 6813SOL     OW21337   6.917   3.410   2.234
 6813SOL    HW121338   7.010   3.439   2.212
 6813SOL    HW221339   6.882   3.353   2.160
 6814SOL     OW21340   5.454   0.938   6.973
 6814SOL    HW121341   5.471   0.850   7.018
 6814SOL    HW221342   5.364   0.936   6.929
 6815SOL     OW21343   0.941   5.184   6.088
 6815SOL    HW121344   0.947   5.172   5.988
 6815SOL    HW221345   0.986   5.269   6.114
 6816SOL     OW21346   0.001   0.259   3.259
 6816SOL    HW121347   0.036   0.202   3.334
 6816SOL    HW221348   7.022   0.354   3.290
 6817SOL     OW21349   4.127   2.370   1.192
 6817SOL    HW121350   4.131   2.349   1.095
 6817SOL    HW221351   4.038   2.343   1.229
 6818SOL     OW21352   1.236   6.472   5.489
 6818SOL    HW121353   1.233   6.572   5.487
 6818SOL    HW221354   1.182   6.438   5.566
 6819SOL     OW21355   4.527   4.548   2.013
 6819SOL    HW121356   4.466   4.572   2.088
 6819SOL    HW221357   4.537   4.449   2.009
 6820SOL     OW21358   2.892   5.343   1.552
 6820SOL    HW121359   2.792   5.344   1.542
 6820SOL    HW221360   2.918   5.378   1.642
 6821SOL     OW21361   3.831   2.544   5.549
 6821SOL    HW121362   3.837   2.504   5.640
 6821SOL    HW221363   3.918   2.531   5.501
 6822SOL     OW21364   6.052   3.344   5.772
 6822SOL    HW121365   6.041   3.443   5.768
 6822SOL    HW221366   5.982   3.304   5.831
 6823SOL     OW21367   6.925   2.782   5.402
 6823SOL    HW121368   6.978   2.791   5.486
 6823SOL    HW221369   6.867   2.700   5.408
 6824SOL     OW21370   0.795   6.715   5.437
 6824SOL    HW121371   0.737   6.711   5.355
 6824SOL    HW221372   0.872   6.776   5.420
 6825SOL     OW21373   4.456   4.595   0.582
 6825SOL    HW121374   4.401   4.569   0.661
 6825SOL    HW221375   4.552   4.574   0.599
 6826SOL     OW21376   6.469   6.547   3.581
 6826SOL    HW121377   6.566   6.564   3.565
 6826SOL    HW221378   6.457   6.457   3.623
 6827SOL     OW21379   5.111   5.810   4.884
 6827SOL    HW121380   5.076   5.739   4.946
 6827SOL    HW221381   5.047   5.823   4.809
 6828SOL     OW21382   3.255   2.044   2.323
 6828SOL    HW121383   3.209   2.120   2.277
 6828SOL    HW221384   3.300   1.987   2.254
 6829SOL     OW21385   4.090   0.195   3.095
 6829SOL    HW121386   4.023   0.138   3.144
 6829SOL    HW221387   4.077   0.184   2.997
 6830SOL     OW21388   4.806   4.958   2.870
 6830SOL    HW121389   4.752   4.875   2.885
 6830SOL    HW221390   4.840   4.959   2.776
 6831SOL     OW21391   1.669   2.218   6.090
 6831SOL    HW121392   1.595   2.165   6.132
 6831SOL    HW221393   1.638   2.254   6.002
 6832SOL     OW21394   2.512   2.124   6.237
 6832SOL    HW121395   2.499   2.216   6.274
 6832SOL    HW221396   2.567   2.130   6.153
 6833SOL     OW21397   3.918   5.514   6.083
 6833SOL    HW121398   3.943   5.470   6.169
 6833SOL    HW221399   3.936   5.450   6.008
 6834SOL     OW21400   6.669   6.626   6.951
 6834SOL    HW121401   6.635   6.561   6.883
 6834SOL    HW221402   6.600   6.640   7.022
 6835SOL     OW21403   2.566   1.112   4.698
 6835SOL    HW121404   2.550   1.124   4.796
 6835SOL    HW221405   2.661   1.087   4.683
 6836SOL     OW21406   1.763   4.768   6.458
 6836SOL    HW121407   1.746   4.825   6.539
 6836SOL    HW221408   1.847   4.715   6.473
 6837SOL     OW21409   6.523   0.706   2.227
 6837SOL    HW121410   6.426   0.725   2.210
 6837SOL    HW221411   6.578   0.786   2.203
 6838SOL     OW21412   3.283   4.168   5.181
 6838SOL    HW121413   3.252   4.102   5.114
 6838SOL    HW221414   3.377   4.196   5.160
 6839SOL     OW21415   6.269   3.432   4.785
 6839SOL    HW121416   6.197   3.425   4.854
 6839SOL    HW221417   6.348   3.379   4.815
 6840SOL     OW21418   2.733   6.424   4.899
 6840SOL    HW121419   2.725   6.340   4.953
 6840SOL    HW221420   2.819   6.422   4.848
 6841SOL     OW21421   5.075   6.159   1.332
 6841SOL    HW121422   5.093   6.207   1.418
 6841SOL    HW221423   5.085   6.223   1.256
 6842SOL     OW21424   0.450   3.598   4.368
 6842SOL    HW121425   0.497   3.583   4.281
 6842SOL    HW221426   0.473   3.524   4.432
 6843SOL     OW21427   3.851   2.262   1.705
 6843SOL    HW121428   3.907   2.189   1.744
 6843SOL    HW221429   3.775   2.282   1.768
 6844SOL     OW21430   3.941   5.269   4.189
 6844SOL    HW121431   3.858   5.305   4.146
 6844SOL    HW221432   3.946   5.299   4.284
 6845SOL     OW21433   4.332   4.493   0.818
 6845SOL    HW121434   4.333   4.567   0.885
 6845SOL    HW221435   4.255   4.432   0.837
 6846SOL     OW21436   3.298   3.001   2.799
 6846SOL    HW121437   3.305   3.101   2.797
 6846SOL    HW221438   3.231   2.971   2.731
 6847SOL     OW21439   5.977   3.478   2.144
 6847SOL    HW121440   5.933   3.558   2.106
 6847SOL    HW221441   6.012   3.499   2.236
 6848SOL     OW21442   6.711   6.578   3.279
 6848SOL    HW121443   6.674   6.486   3.269
 6848SOL    HW221444   6.722   6.600   3.376
 6849SOL     OW21445   3.520   6.752   3.934
 6849SOL    HW121446   3.476   6.835   3.903
 6849SOL    HW221447   3.486   6.727   4.025
 6850SOL     OW21448   5.507   3.291   1.428
 6850SOL    HW121449   5.449   3.212   1.447
 6850SOL    HW221450   5.461   3.374   1.458
 6851SOL     OW21451   2.162   5.770   5.642
 6851SOL    HW121452   2.165   5.806   5.549
 6851SOL    HW221453   2.091   5.700   5.648
 6852SOL     OW21454   0.305   4.488   2.254
 6852SOL    HW121455   0.244   4.421   2.297
 6852SOL    HW221456   0.251   4.565   2.219
 6853SOL     OW21457   6.714   3.711   5.787
 6853SOL    HW121458   6.634   3.766   5.762
 6853SOL    HW221459   6.711   3.624   5.736
 6854SOL     OW21460   0.175   1.883   6.288
 6854SOL    HW121461   0.123   1.967   6.272
 6854SOL    HW221462   0.132   1.807   6.240
 6855SOL     OW21463   3.609   5.962   1.427
 6855SOL    HW121464   3.541   5.895   1.397
 6855SOL    HW221465   3.593   6.049   1.379
 6856SOL     OW21466   6.882   3.923   5.614
 6856SOL    HW121467   6.869   3.950   5.710
 6856SOL    HW221468   6.819   3.849   5.592
 6857SOL     OW21469   4.522   1.781   5.775
 6857SOL    HW121470   4.583   1.707   5.745
 6857SOL    HW221471   4.556   1.868   5.741
 6858SOL     OW21472   3.843   3.121   5.113
 6858SOL    HW121473   3.823   3.121   5.211
 6858SOL    HW221474   3.922   3.180   5.096
 6859SOL     OW21475   3.731   0.199   0.875
 6859SOL    HW121476   3.699   0.194   0.969
 6859SOL    HW221477   3.732   0.107   0.834
 6860SOL     OW21478   4.895   4.627   0.217
 6860SOL    HW121479   4.909   4.618   0.316
 6860SOL    HW221480   4.940   4.551   0.170
 6861SOL     OW21481   6.106   4.923   0.339
 6861SOL    HW121482   6.178   4.899   0.404
 6861SOL    HW221483   6.095   4.849   0.273
 6862SOL     OW21484   3.751   5.677   4.128
 6862SOL    HW121485   3.652   5.684   4.112
 6862SOL    HW221486   3.800   5.717   4.051
 6863SOL     OW21487   0.047   3.208   4.003
 6863SOL    HW121488   6.990   3.266   4.006
 6863SOL    HW221489   0.121   3.252   4.054
 6864SOL     OW21490   4.484   5.955   5.220
 6864SOL    HW121491   4.492   5.942   5.121
 6864SOL    HW221492   4.480   5.865   5.265
 6865SOL     OW21493   6.744   3.947   4.081
 6865SOL    HW121494   6.777   3.959   3.988
 6865SOL    HW221495   6.807   3.889   4.132
 6866SOL     OW21496   0.312   3.696   2.335
 6866SOL    HW121497   0.378   3.697   2.409
 6866SOL    HW221498   0.280   3.603   2.319
 6867SOL     OW21499   2.222   4.261   2.569
 6867SOL    HW121500   2.165   4.191   2.612
 6867SOL    HW221501   2.172   4.303   2.493
 6868SOL     OW21502   2.366   5.457   5.146
 6868SOL    HW121503   2.322   5.546   5.153
 6868SOL    HW221504   2.302   5.392   5.105
 6869SOL     OW21505   5.897   3.793   5.541
 6869SOL    HW121506   5.975   3.856   5.543
 6869SOL    HW221507   5.812   3.845   5.552
 6870SOL     OW21508   5.034   4.246   2.642
 6870SOL    HW121509   4.935   4.258   2.627
 6870SOL    HW221510   5.055   4.149   2.655
 6871SOL     OW21511   5.070   6.901   2.217
 6871SOL    HW121512   5.162   6.864   2.230
 6871SOL    HW221513   5.009   6.861   2.285
 6872SOL     OW21514   2.720   3.233   6.401
 6872SOL    HW121515   2.677   3.318   6.370
 6872SOL    HW221516   2.746   3.241   6.497
 6873SOL     OW21517   4.905   4.769   5.722
 6873SOL    HW121518   4.829   4.707   5.743
 6873SOL    HW221519   4.953   4.736   5.640
 6874SOL     OW21520   0.985   2.471   5.765
 6874SOL    HW121521   1.059   2.518   5.812
 6874SOL    HW221522   0.949   2.530   5.692
 6875SOL     OW21523   3.085   2.151   3.858
 6875SOL    HW121524   2.996   2.193   3.845
 6875SOL    HW221525   3.077   2.075   3.923
 6876SOL     OW21526   3.464   5.841   6.329
 6876SOL    HW121527   3.382   5.897   6.339
 6876SOL    HW221528   3.544   5.895   6.354
 6877SOL     OW21529   2.333   4.172   6.522
 6877SOL    HW121530   2.298   4.255   6.478
 6877SOL    HW221531   2.431   4.163   6.504
 6878SOL     OW21532   1.242   1.620   5.175
 6878SOL    HW121533   1.287   1.633   5.086
 6878SOL    HW221534   1.204   1.528   5.181
 6879SOL     OW21535   0.858   1.794   6.011
 6879SOL    HW121536   0.925   1.721   6.000
 6879SOL    HW221537   0.831   1.829   5.922
 6880SOL     OW21538   1.735   4.470   4.805
 6880SOL    HW121539   1.760   4.542   4.741
 6880SOL    HW221540   1.799   4.471   4.882
 6881SOL     OW21541   6.494   4.303   1.432
 6881SOL    HW121542   6.452   4.221   1.393
 6881SOL    HW221543   6.490   4.299   1.531
 6882SOL     OW21544   2.053   6.956   5.412
 6882SOL    HW121545   2.054   0.014   5.469
 6882SOL    HW221546   2.118   6.889   5.448
 6883SOL     OW21547   3.534   5.847   1.664
 6883SOL    HW121548   3.579   5.880   1.581
 6883SOL    HW221549   3.499   5.925   1.715
 6884SOL     OW21550   2.841   4.836   2.974
 6884SOL    HW121551   2.783   4.910   2.941
 6884SOL    HW221552   2.829   4.755   2.915
 6885SOL     OW21553   3.010   5.350   4.302
 6885SOL    HW121554   3.034   5.366   4.206
 6885SOL    HW221555   3.003   5.252   4.319
 6886SOL     OW21556   5.684   2.265   3.013
 6886SOL    HW121557   5.680   2.346   2.955
 6886SOL    HW221558   5.769   2.265   3.065
 6887SOL     OW21559   6.266   0.497   4.886
 6887SOL    HW121560   6.346   0.449   4.850
 6887SOL    HW221561   6.183   0.457   4.847
 6888SOL     OW21562   5.734   6.179   4.445
 6888SOL    HW121563   5.812   6.167   4.506
 6888SOL    HW221564   5.758   6.149   4.353
 6889SOL     OW21565   1.320   4.424   5.595
 6889SOL    HW121566   1.391   4.456   5.532
 6889SOL    HW221567   1.362   4.394   5.680
 6890SOL     OW21568   2.388   0.665   0.665
 6890SOL    HW121569   2.440   0.659   0.580
 6890SOL    HW221570   2.448   0.643   0.742
 6891SOL     OW21571   3.309   4.905   3.916
 6891SOL    HW121572   3.399   4.873   3.886
 6891SOL    HW221573   3.282   4.983   3.859
 6892SOL     OW21574   4.092   0.632   3.962
 6892SOL    HW121575   4.079   0.539   3.928
 6892SOL    HW221576   4.041   0.696   3.905
 6893SOL     OW21577   5.150   6.533   2.233
 6893SOL    HW121578   5.188   6.625   2.243
 6893SOL    HW221579   5.134   6.493   2.323
 6894SOL     OW21580   6.303   4.711   6.230
 6894SOL    HW121581   6.326   4.662   6.146
 6894SOL    HW221582   6.207   4.737   6.229
 6895SOL     OW21583   4.075   5.813   6.409
 6895SOL    HW121584   3.990   5.823   6.461
 6895SOL    HW221585   4.065   5.861   6.321
 6896SOL     OW21586   4.653   0.244   3.014
 6896SOL    HW121587   4.626   0.278   2.924
 6896SOL    HW221588   4.578   0.260   3.079
 6897SOL     OW21589   3.304   2.158   0.441
 6897SOL    HW121590   3.246   2.218   0.387
 6897SOL    HW221591   3.383   2.209   0.476
 6898SOL     OW21592   3.977   2.043   2.427
 6898SOL    HW121593   4.076   2.038   2.416
 6898SOL    HW221594   3.934   2.064   2.339
 6899SOL     OW21595   5.243   6.437   0.105
 6899SOL    HW121596   5.148   6.459   0.127
 6899SOL    HW221597   5.248   6.401   0.012
 6900SOL     OW21598   4.141   1.198   5.449
 6900SOL    HW121599   4.120   1.191   5.547
 6900SOL    HW221600   4.139   1.107   5.408
 6901SOL     OW21601   1.336   0.638   0.005
 6901SOL    HW121602   1.388   0.558   7.000
 6901SOL    HW221603   1.376   0.675   0.089
 6902SOL     OW21604   6.553   5.513   0.690
 6902SOL    HW121605   6.606   5.582   0.739
 6902SOL    HW221606   6.509   5.556   0.610
 6903SOL     OW21607   4.752   3.466   1.163
 6903SOL    HW121608   4.786   3.560   1.161
 6903SOL    HW221609   4.826   3.404   1.186
 6904SOL     OW21610   0.437   1.625   3.015
 6904SOL    HW121611   0.404   1.647   2.923
 6904SOL    HW221612   0.521   1.572   3.008
 6905SOL     OW21613   5.079   5.850   0.474
 6905SOL    HW121614   5.025   5.924   0.434
 6905SOL    HW221615   5.174   5.880   0.484
 6906SOL     OW21616   4.468   6.892   3.729
 6906SOL    HW121617   4.505   6.943   3.807
 6906SOL    HW221618   4.368   6.900   3.728
 6907SOL     OW21619   3.637   1.899   1.493
 6907SOL    HW121620   3.567   1.911   1.563
 6907SOL    HW221621   3.651   1.802   1.477
 6908SOL     OW21622   0.892   6.845   6.444
 6908SOL    HW121623   0.964   6.799   6.391
 6908SOL    HW221624   0.836   6.775   6.490
 6909SOL     OW21625   4.442   3.590   6.936
 6909SOL    HW121626   4.428   3.641   7.021
 6909SOL    HW221627   4.449   3.654   6.860
 6910SOL     OW21628   6.890   1.335   2.345
 6910SOL    HW121629   6.839   1.292   2.420
 6910SOL    HW221630   6.971   1.381   2.381
 6911SOL     OW21631   4.051   1.014   4.860
 6911SOL    HW121632   4.060   0.979   4.767
 6911SOL    HW221633   3.955   1.015   4.887
 6912SOL     OW21634   4.946   5.478   1.076
 6912SOL    HW121635   4.850   5.452   1.065
 6912SOL    HW221636   4.962   5.566   1.032
 6913SOL     OW21637   5.590   5.193   5.406
 6913SOL    HW121638   5.507   5.219   5.456
 6913SOL    HW221639   5.636   5.118   5.454
 6914SOL     OW21640   5.807   5.067   0.650
 6914SOL    HW121641   5.754   5.152   0.659
 6914SOL    HW221642   5.861   5.069   0.566
 6915SOL     OW21643   0.811   5.477   0.918
 6915SOL    HW121644   0.889   5.473   0.980
 6915SOL    HW221645   0.792   5.572   0.893
 6916SOL     OW21646   6.600   1.382   6.946
 6916SOL    HW121647   6.609   1.284   6.928
 6916SOL    HW221648   6.581   1.430   6.860
 6917SOL     OW21649   4.534   6.457   6.166
 6917SOL    HW121650   4.442   6.466   6.126
 6917SOL    HW221651   4.555   6.539   6.219
 6918SOL     OW21652   1.945   2.840   3.491
 6918SOL    HW121653   1.869   2.898   3.520
 6918SOL    HW221654   2.031   2.892   3.496
 6919SOL     OW21655   1.919   6.425   3.362
 6919SOL    HW121656   2.012   6.395   3.341
 6919SOL    HW221657   1.900   6.510   3.312
 6920SOL     OW21658   5.302   5.860   5.042
 6920SOL    HW121659   5.223   5.834   4.987
 6920SOL    HW221660   5.340   5.778   5.085
 6921SOL     OW21661   0.678   0.039   2.938
 6921SOL    HW121662   0.643   0.073   3.025
 6921SOL    HW221663   0.775   0.061   2.930
 6922SOL     OW21664   2.111   6.035   0.598
 6922SOL    HW121665   2.153   5.994   0.517
 6922SOL    HW221666   2.121   5.973   0.676
 6923SOL     OW21667   4.758   6.874   4.198
 6923SOL    HW121668   4.706   6.897   4.115
 6923SOL    HW221669   4.697   6.834   4.266
 6924SOL     OW21670   0.239   5.502   1.020
 6924SOL    HW121671   0.311   5.520   0.953
 6924SOL    HW221672   0.158   5.556   0.996
 6925SOL     OW21673   5.361   6.363   2.239
 6925SOL    HW121674   5.275   6.414   2.229
 6925SOL    HW221675   5.411   6.366   2.153
 6926SOL     OW21676   2.930   3.512   5.050
 6926SOL    HW121677   2.946   3.450   4.974
 6926SOL    HW221678   2.875   3.466   5.119
 6927SOL     OW21679   4.315   3.845   5.876
 6927SOL    HW121680   4.277   3.835   5.784
 6927SOL    HW221681   4.246   3.886   5.936
 6928SOL     OW21682   5.565   0.533   6.534
 6928SOL    HW121683   5.615   0.449   6.556
 6928SOL    HW221684   5.469   0.511   6.516
 6929SOL     OW21685   3.442   4.985   0.707
 6929SOL    HW121686   3.356   5.021   0.671
 6929SOL    HW221687   3.459   4.895   0.669
 6930SOL     OW21688   0.843   6.319   3.278
 6930SOL    HW121689   0.767   6.253   3.285
 6930SOL    HW221690   0.839   6.383   3.354
 6931SOL     OW21691   1.610   1.244   1.411
 6931SOL    HW121692   1.670   1.280   1.340
 6931SOL    HW221693   1.663   1.192   1.477
 6932SOL     OW21694   2.746   2.798   0.676
 6932SOL    HW121695   2.661   2.768   0.718
 6932SOL    HW221696   2.804   2.719   0.657
 6933SOL     OW21697   3.651   6.864   6.815
 6933SOL    HW121698   3.611   6.913   6.737
 6933SOL    HW221699   3.750   6.875   6.814
 6934SOL     OW21700   5.448   3.680   6.654
 6934SOL    HW121701   5.453   3.694   6.753
 6934SOL    HW221702   5.481   3.588   6.632
 6935SOL     OW21703   4.454   5.340   3.179
 6935SOL    HW121704   4.538   5.371   3.225
 6935SOL    HW221705   4.473   5.253   3.132
 6936SOL     OW21706   1.119   4.474   0.858
 6936SOL    HW121707   1.104   4.396   0.919
 6936SOL    HW221708   1.209   4.467   0.816
 6937SOL     OW21709   4.624   0.082   5.482
 6937SOL    HW121710   4.591   0.176   5.492
 6937SOL    HW221711   4.723   0.082   5.470
 6938SOL     OW21712   4.617   2.386   5.186
 6938SOL    HW121713   4.602   2.341   5.274
 6938SOL    HW221714   4.631   2.484   5.201
 6939SOL     OW21715   1.297   4.178   2.796
 6939SOL    HW121716   1.281   4.088   2.837
 6939SOL    HW221717   1.219   4.203   2.739
 6940SOL     OW21718   4.517   0.689   4.915
 6940SOL    HW121719   4.547   0.784   4.916
 6940SOL    HW221720   4.484   0.665   4.823
 6941SOL     OW21721   3.961   3.038   3.113
 6941SOL    HW121722   3.974   3.020   3.015
 6941SOL    HW221723   3.864   3.060   3.129
 6942SOL     OW21724   6.795   2.025   0.065
 6942SOL    HW121725   6.812   2.123   0.062
 6942SOL    HW221726   6.749   1.997   7.005
 6943SOL     OW21727   4.822   6.396   6.239
 6943SOL    HW121728   4.853   6.305   6.265
 6943SOL    HW221729   4.729   6.391   6.201
 6944SOL     OW21730   1.853   6.180   6.046
 6944SOL    HW121731   1.811   6.233   5.972
 6944SOL    HW221732   1.912   6.240   6.100
 6945SOL     OW21733   5.473   3.133   5.831
 6945SOL    HW121734   5.438   3.127   5.924
 6945SOL    HW221735   5.418   3.198   5.778
 6946SOL     OW21736   5.908   4.392   3.208
 6946SOL    HW121737   5.808   4.385   3.218
 6946SOL    HW221738   5.933   4.486   3.188
 6947SOL     OW21739   3.803   6.548   2.758
 6947SOL    HW121740   3.882   6.572   2.702
 6947SOL    HW221741   3.763   6.631   2.797
 6948SOL     OW21742   4.110   1.765   5.439
 6948SOL    HW121743   4.164   1.754   5.355
 6948SOL    HW221744   4.058   1.851   5.435
 6949SOL     OW21745   5.122   0.523   2.521
 6949SOL    HW121746   5.076   0.533   2.609
 6949SOL    HW221747   5.113   0.429   2.488
 6950SOL     OW21748   1.925   0.594   3.147
 6950SOL    HW121749   1.830   0.575   3.174
 6950SOL    HW221750   1.927   0.672   3.085
 6951SOL     OW21751   6.078   5.210   5.914
 6951SOL    HW121752   6.162   5.264   5.903
 6951SOL    HW221753   6.090   5.145   5.989
 6952SOL     OW21754   0.172   4.681   4.551
 6952SOL    HW121755   0.104   4.750   4.529
 6952SOL    HW221756   0.174   4.611   4.480
 6953SOL     OW21757   5.202   1.435   5.155
 6953SOL    HW121758   5.261   1.498   5.206
 6953SOL    HW221759   5.256   1.357   5.123
 6954SOL     OW21760   0.979   4.350   3.133
 6954SOL    HW121761   0.944   4.370   3.224
 6954SOL    HW221762   1.036   4.268   3.136
 6955SOL     OW21763   6.955   5.634   1.834
 6955SOL    HW121764   6.960   5.620   1.933
 6955SOL    HW221765   6.931   5.728   1.815
 6956SOL     OW21766   3.290   4.798   1.768
 6956SOL    HW121767   3.365   4.737   1.793
 6956SOL    HW221768   3.243   4.829   1.850
 6957SOL     OW21769   0.354   4.459   0.673
 6957SOL    HW121770   0.446   4.458   0.713
 6957SOL    HW221771   0.304   4.539   0.705
 6958SOL     OW21772   2.472   3.845   6.363
 6958SOL    HW121773   2.497   3.870   6.457
 6958SOL    HW221774   2.390   3.787   6.366
 6959SOL     OW21775   2.685   1.026   4.201
 6959SOL    HW121776   2.677   1.108   4.258
 6959SOL    HW221777   2.714   0.949   4.258
 6960SOL     OW21778   0.326   5.146   6.773
 6960SOL    HW121779   0.254   5.162   6.705
 6960SOL    HW221780   0.286   5.107   6.856
 6961SOL     OW21781   0.247   1.069   2.715
 6961SOL    HW121782   0.287   1.160   2.730
 6961SOL    HW221783   0.240   1.052   2.617
 6962SOL     OW21784   4.281   4.039   0.804
 6962SOL    HW121785   4.231   4.102   0.865
 6962SOL    HW221786   4.278   3.947   0.843
 6963SOL     OW21787   6.882   5.392   1.477
 6963SOL    HW121788   6.925   5.403   1.388
 6963SOL    HW221789   6.940   5.432   1.548
 6964SOL     OW21790   3.927   5.971   5.107
 6964SOL    HW121791   3.860   6.019   5.050
 6964SOL    HW221792   3.973   6.036   5.168
 6965SOL     OW21793   6.879   2.594   5.770
 6965SOL    HW121794   6.923   2.587   5.859
 6965SOL    HW221795   6.799   2.534   5.767
 6966SOL     OW21796   4.539   2.578   3.963
 6966SOL    HW121797   4.621   2.595   4.018
 6966SOL    HW221798   4.486   2.504   4.004
 6967SOL     OW21799   2.387   0.741   6.120
 6967SOL    HW121800   2.476   0.779   6.096
 6967SOL    HW221801   2.315   0.802   6.088
 6968SOL     OW21802   4.942   6.775   2.407
 6968SOL    HW121803   4.884   6.830   2.466
 6968SOL    HW221804   5.014   6.733   2.461
 6969SOL     OW21805   3.183   1.960   1.046
 6969SOL    HW121806   3.176   1.948   0.947
 6969SOL    HW221807   3.194   2.058   1.067
 6970SOL     OW21808   5.228   4.694   0.452
 6970SOL    HW121809   5.218   4.788   0.482
 6970SOL    HW221810   5.141   4.662   0.413
 6971SOL     OW21811   5.062   0.765   1.928
 6971SOL    HW121812   4.999   0.804   1.861
 6971SOL    HW221813   5.012   0.743   2.012
 6972SOL     OW21814   5.943   5.064   4.502
 6972SOL    HW121815   5.893   5.054   4.417
 6972SOL    HW221816   5.882   5.046   4.580
 6973SOL     OW21817   2.026   5.056   3.153
 6973SOL    HW121818   2.082   5.040   3.235
 6973SOL    HW221819   2.035   4.978   3.091
 6974SOL     OW21820   3.255   4.109   4.409
 6974SOL    HW121821   3.185   4.044   4.437
 6974SOL    HW221822   3.323   4.119   4.482
 6975SOL     OW21823   3.728   1.048   5.632
 6975SOL    HW121824   3.766   1.123   5.577
 6975SOL    HW221825   3.777   1.044   5.719
 6976SOL     OW21826   2.310   4.967   6.404
 6976SOL    HW121827   2.408   4.948   6.401
 6976SOL    HW221828   2.295   5.065   6.391
 6977SOL     OW21829   3.969   2.169   2.783
 6977SOL    HW121830   3.998   2.248   2.730
 6977SOL    HW221831   4.040   2.147   2.850
 6978SOL     OW21832   6.440   0.323   2.821
 6978SOL    HW121833   6.410   0.314   2.916
 6978SOL    HW221834   6.415   0.241   2.770
 6979SOL     OW21835   0.396   4.635   2.823
 6979SOL    HW121836   0.495   4.619   2.818
 6979SOL    HW221837   0.377   4.731   2.801
 6980SOL     OW21838   3.328   1.060   4.451
 6980SOL    HW121839   3.313   0.965   4.426
 6980SOL    HW221840   3.297   1.119   4.376
 6981SOL     OW21841   2.541   5.327   7.016
 6981SOL    HW121842   2.551   5.247   0.052
 6981SOL    HW221843   2.491   5.399   0.040
 6982SOL     OW21844   0.481   0.051   4.875
 6982SOL    HW121845   0.458   6.988   4.832
 6982SOL    HW221846   0.425   0.124   4.834
 6983SOL     OW21847   6.758   0.661   4.299
 6983SOL    HW121848   6.781   0.718   4.219
 6983SOL    HW221849   6.717   0.718   4.369
 6984SOL     OW21850   1.744   0.901   6.305
 6984SOL    HW121851   1.728   0.904   6.206
 6984SOL    HW221852   1.780   0.989   6.336
 6985SOL     OW21853   5.381   5.720   2.022
 6985SOL    HW121854   5.305   5.662   1.994
 6985SOL    HW221855   5.440   5.738   1.943
 6986SOL     OW21856   2.347   6.751   5.007
 6986SOL    HW121857   2.352   6.849   5.026
 6986SOL    HW221858   2.284   6.735   4.931
 6987SOL     OW21859   0.297   3.654   6.126
 6987SOL    HW121860   0.376   3.707   6.094
 6987SOL    HW221861   0.305   3.637   6.224
 6988SOL     OW21862   5.502   0.741   4.101
 6988SOL    HW121863   5.495   0.831   4.059
 6988SOL    HW221864   5.598   0.712   4.103
 6989SOL     OW21865   1.553   2.278   4.054
 6989SOL    HW121866   1.460   2.256   4.024
 6989SOL    HW221867   1.596   2.196   4.092
 6990SOL     OW21868   3.679   3.279   0.491
 6990SOL    HW121869   3.689   3.310   0.586
 6990SOL    HW221870   3.702   3.354   0.429
 6991SOL     OW21871   3.890   4.602   5.293
 6991SOL    HW121872   3.910   4.508   5.320
 6991SOL    HW221873   3.802   4.630   5.331
 6992SOL     OW21874   5.360   6.383   4.690
 6992SOL    HW121875   5.324   6.342   4.774
 6992SOL    HW221876   5.418   6.461   4.713
 6993SOL     OW21877   0.525   0.256   3.073
 6993SOL    HW121878   0.478   0.194   3.137
 6993SOL    HW221879   0.460   0.286   3.003
 6994SOL     OW21880   1.458   2.821   6.188
 6994SOL    HW121881   1.393   2.837   6.262
 6994SOL    HW221882   1.481   2.724   6.184
 6995SOL     OW21883   6.950   5.689   3.090
 6995SOL    HW121884   0.021   5.695   3.121
 6995SOL    HW221885   6.890   5.679   3.169
 6996SOL     OW21886   2.783   6.897   5.635
 6996SOL    HW121887   2.760   6.964   5.707
 6996SOL    HW221888   2.819   6.946   5.555
 6997SOL     OW21889   5.028   0.371   4.928
 6997SOL    HW121890   5.033   0.452   4.987
 6997SOL    HW221891   5.119   0.335   4.912
 6998SOL     OW21892   0.794   2.573   3.293
 6998SOL    HW121893   0.716   2.629   3.322
 6998SOL    HW221894   0.808   2.584   3.195
 6999SOL     OW21895   3.282   1.656   5.891
 6999SOL    HW121896   3.235   1.631   5.976
 6999SOL    HW221897   3.256   1.749   5.865
 7000SOL     OW21898   0.548   6.474   2.570
 7000SOL    HW121899   0.578   6.537   2.498
 7000SOL    HW221900   0.450   6.456   2.560
 7001SOL     OW21901   2.685   2.872   5.814
 7001SOL    HW121902   2.691   2.888   5.912
 7001SOL    HW221903   2.776   2.882   5.773
 7002SOL     OW21904   1.338   5.008   3.127
 7002SOL    HW121905   1.402   5.002   3.203
 7002SOL    HW221906   1.322   4.917   3.089
 7003SOL     OW21907   2.140   5.813   0.771
 7003SOL    HW121908   2.214   5.825   0.837
 7003SOL    HW221909   2.127   5.716   0.753
 7004SOL     OW21910   1.350   4.327   0.834
 7004SOL    HW121911   1.378   4.311   0.739
 7004SOL    HW221912   1.326   4.240   0.877
 7005SOL     OW21913   5.158   6.163   5.574
 7005SOL    HW121914   5.175   6.230   5.645
 7005SOL    HW221915   5.243   6.117   5.549
 7006SOL     OW21916   4.284   4.768   4.736
 7006SOL    HW121917   4.293   4.733   4.830
 7006SOL    HW221918   4.348   4.721   4.676
 7007SOL     OW21919   4.915   4.922   2.630
 7007SOL    HW121920   4.895   4.825   2.616
 7007SOL    HW221921   4.993   4.948   2.574
 7008SOL     OW21922   0.934   5.214   3.849
 7008SOL    HW121923   0.915   5.126   3.891
 7008SOL    HW221924   0.957   5.201   3.752
 7009SOL     OW21925   0.820   4.576   2.365
 7009SOL    HW121926   0.878   4.637   2.310
 7009SOL    HW221927   0.724   4.593   2.342
 7010SOL     OW21928   3.984   5.170   6.192
 7010SOL    HW121929   3.896   5.122   6.198
 7010SOL    HW221930   3.978   5.256   6.243
 7011SOL     OW21931   2.813   0.915   5.036
 7011SOL    HW121932   2.740   0.932   5.102
 7011SOL    HW221933   2.845   1.001   4.998
 7012SOL     OW21934   0.974   0.795   2.383
 7012SOL    HW121935   0.949   0.760   2.292
 7012SOL    HW221936   1.004   0.890   2.375
 7013SOL     OW21937   0.601   0.667   2.211
 7013SOL    HW121938   0.698   0.691   2.205
 7013SOL    HW221939   0.546   0.739   2.168
 7014SOL     OW21940   2.184   4.493   1.797
 7014SOL    HW121941   2.231   4.422   1.744
 7014SOL    HW221942   2.244   4.572   1.807
 7015SOL     OW21943   5.302   2.963   2.377
 7015SOL    HW121944   5.323   3.054   2.412
 7015SOL    HW221945   5.243   2.971   2.297
 7016SOL     OW21946   3.773   5.277   1.293
 7016SOL    HW121947   3.716   5.290   1.374
 7016SOL    HW221948   3.849   5.216   1.316
 7017SOL     OW21949   3.273   1.060   3.941
 7017SOL    HW121950   3.362   1.052   3.896
 7017SOL    HW221951   3.219   0.978   3.924
 7018SOL     OW21952   0.547   4.916   4.336
 7018SOL    HW121953   0.505   4.859   4.407
 7018SOL    HW221954   0.476   4.950   4.275
 7019SOL     OW21955   2.255   5.783   0.155
 7019SOL    HW121956   2.347   5.820   0.141
 7019SOL    HW221957   2.191   5.828   0.092
 7020SOL     OW21958   6.303   6.472   6.453
 7020SOL    HW121959   6.388   6.431   6.419
 7020SOL    HW221960   6.226   6.413   6.429
 7021SOL     OW21961   2.585   1.259   5.999
 7021SOL    HW121962   2.610   1.355   5.986
 7021SOL    HW221963   2.515   1.252   6.069
 7022SOL     OW21964   5.366   4.793   0.198
 7022SOL    HW121965   5.373   4.892   0.195
 7022SOL    HW221966   5.348   4.764   0.292
 7023SOL     OW21967   6.430   3.766   2.505
 7023SOL    HW121968   6.469   3.718   2.583
 7023SOL    HW221969   6.403   3.700   2.435
 7024SOL     OW21970   0.506   6.034   0.624
 7024SOL    HW121971   0.473   6.019   0.718
 7024SOL    HW221972   0.428   6.056   0.565
 7025SOL     OW21973   2.464   1.338   6.241
 7025SOL    HW121974   2.510   1.413   6.288
 7025SOL    HW221975   2.365   1.348   6.252
 7026SOL     OW21976   4.479   1.935   0.833
 7026SOL    HW121977   4.524   1.901   0.751
 7026SOL    HW221978   4.392   1.979   0.807
 7027SOL     OW21979   4.573   6.751   4.360
 7027SOL    HW121980   4.554   6.655   4.337
 7027SOL    HW221981   4.492   6.791   4.402
 7028SOL     OW21982   3.716   0.557   4.422
 7028SOL    HW121983   3.784   0.563   4.494
 7028SOL    HW221984   3.674   0.647   4.407
 7029SOL     OW21985   3.758   0.496   6.031
 7029SOL    HW121986   3.827   0.462   6.094
 7029SOL    HW221987   3.675   0.442   6.040
 7030SOL     OW21988   1.489   3.361   4.528
 7030SOL    HW121989   1.535   3.450   4.537
 7030SOL    HW221990   1.508   3.323   4.437
 7031SOL     OW21991   2.409   6.009   4.221
 7031SOL    HW121992   2.394   6.045   4.313
 7031SOL    HW221993   2.454   6.078   4.164
 7032SOL     OW21994   6.110   1.879   2.373
 7032SOL    HW121995   6.201   1.859   2.408
 7032SOL    HW221996   6.048   1.803   2.394
 7033SOL     OW21997   6.639   0.643   3.891
 7033SOL    HW121998   6.600   0.554   3.867
 7033SOL    HW221999   6.568   0.713   3.886
 7034SOL     OW22000   6.069   6.283   2.905
 7034SOL    HW122001   5.973   6.289   2.934
 7034SOL    HW222002   6.077   6.313   2.810
 7035SOL     OW22003   6.398   5.487   1.603
 7035SOL    HW122004   6.369   5.501   1.698
 7035SOL    HW222005   6.474   5.549   1.582
 7036SOL     OW22006   6.723   4.788   1.719
 7036SOL    HW122007   6.699   4.692   1.702
 7036SOL    HW222008   6.716   4.839   1.633
 7037SOL     OW22009   1.437   6.521   6.581
 7037SOL    HW122010   1.350   6.491   6.542
 7037SOL    HW222011   1.489   6.441   6.611
 7038SOL     OW22012   0.663   4.200   4.474
 7038SOL    HW122013   0.613   4.203   4.561
 7038SOL    HW222014   0.756   4.233   4.487
 7039SOL     OW22015   3.994   1.359   0.181
 7039SOL    HW122016   3.922   1.291   0.184
 7039SOL    HW222017   3.957   1.448   0.207
 7040SOL     OW22018   4.646   2.649   6.188
 7040SOL    HW122019   4.601   2.563   6.211
 7040SOL    HW222020   4.705   2.677   6.264
 7041SOL     OW22021   2.099   2.368   2.196
 7041SOL    HW122022   2.156   2.297   2.155
 7041SOL    HW222023   2.086   2.442   2.130
 7042SOL     OW22024   2.550   0.038   6.807
 7042SOL    HW122025   2.579   7.019   6.722
 7042SOL    HW222026   2.471   7.014   6.844
 7043SOL     OW22027   1.674   1.791   2.771
 7043SOL    HW122028   1.651   1.883   2.738
 7043SOL    HW222029   1.712   1.737   2.696
 7044SOL     OW22030   4.792   5.335   2.616
 7044SOL    HW122031   4.731   5.262   2.586
 7044SOL    HW222032   4.858   5.300   2.682
 7045SOL     OW22033   5.507   5.724   1.268
 7045SOL    HW122034   5.544   5.635   1.243
 7045SOL    HW222035   5.408   5.725   1.250
 7046SOL     OW22036   3.512   0.669   4.947
 7046SOL    HW122037   3.490   0.762   4.977
 7046SOL    HW222038   3.453   0.604   4.994
 7047SOL     OW22039   1.619   0.877   4.479
 7047SOL    HW122040   1.597   0.780   4.478
 7047SOL    HW222041   1.535   0.931   4.487
 7048SOL     OW22042   6.707   6.203   0.185
 7048SOL    HW122043   6.616   6.238   0.208
 7048SOL    HW222044   6.698   6.116   0.137
 7049SOL     OW22045   2.323   1.254   0.659
 7049SOL    HW122046   2.280   1.264   0.748
 7049SOL    HW222047   2.263   1.202   0.598
 7050SOL     OW22048   3.838   3.548   4.650
 7050SOL    HW122049   3.930   3.510   4.642
 7050SOL    HW222050   3.832   3.633   4.599
 7051SOL     OW22051   6.632   6.299   1.893
 7051SOL    HW122052   6.699   6.361   1.935
 7051SOL    HW222053   6.540   6.331   1.914
 7052SOL     OW22054   6.982   2.080   3.151
 7052SOL    HW122055   6.933   2.166   3.163
 7052SOL    HW222056   6.936   2.025   3.082
 7053SOL     OW22057   0.541   4.924   6.553
 7053SOL    HW122058   0.459   4.867   6.566
 7053SOL    HW222059   0.532   5.008   6.606
 7054SOL     OW22060   0.091   6.664   1.901
 7054SOL    HW122061   0.102   6.619   1.813
 7054SOL    HW222062   0.090   6.763   1.889
 7055SOL     OW22063   3.834   6.996   4.989
 7055SOL    HW122064   3.853   0.041   5.058
 7055SOL    HW222065   3.916   6.940   4.975
 7056SOL     OW22066   5.352   5.105   3.921
 7056SOL    HW122067   5.272   5.154   3.887
 7056SOL    HW222068   5.336   5.076   4.015
 7057SOL     OW22069   0.451   5.732   3.181
 7057SOL    HW122070   0.507   5.650   3.192
 7057SOL    HW222071   0.488   5.805   3.239
 7058SOL     OW22072   0.806   5.728   5.451
 7058SOL    HW122073   0.880   5.737   5.518
 7058SOL    HW222074   0.795   5.815   5.402
 7059SOL     OW22075   1.371   0.443   2.179
 7059SOL    HW122076   1.282   0.488   2.176
 7059SOL    HW222077   1.379   0.387   2.261
 7060SOL     OW22078   3.086   6.373   1.182
 7060SOL    HW122079   3.073   6.388   1.280
 7060SOL    HW222080   3.167   6.317   1.167
 7061SOL     OW22081   0.571   0.987   2.509
 7061SOL    HW122082   0.643   0.920   2.495
 7061SOL    HW222083   0.485   0.952   2.473
 7062SOL     OW22084   5.546   2.368   4.800
 7062SOL    HW122085   5.625   2.374   4.739
 7062SOL    HW222086   5.478   2.307   4.761
 7063SOL     OW22087   3.815   6.379   0.952
 7063SOL    HW122088   3.799   6.370   0.854
 7063SOL    HW222089   3.793   6.473   0.980
 7064SOL     OW22090   3.879   2.600   0.501
 7064SOL    HW122091   3.946   2.663   0.461
 7064SOL    HW222092   3.788   2.622   0.466
 7065SOL     OW22093   4.519   3.569   1.260
 7065SOL    HW122094   4.617   3.547   1.261
 7065SOL    HW222095   4.471   3.509   1.324
 7066SOL     OW22096   3.460   6.538   0.926
 7066SOL    HW122097   3.377   6.561   0.876
 7066SOL    HW222098   3.484   6.442   0.910
 7067SOL     OW22099   0.186   4.178   5.444
 7067SOL    HW122100   0.216   4.138   5.531
 7067SOL    HW222101   0.086   4.175   5.439
 7068SOL     OW22102   1.658   1.068   3.608
 7068SOL    HW122103   1.710   0.984   3.598
 7068SOL    HW222104   1.650   1.113   3.518
 7069SOL     OW22105   1.273   4.719   4.641
 7069SOL    HW122106   1.290   4.678   4.552
 7069SOL    HW222107   1.181   4.759   4.642
 7070SOL     OW22108   5.905   5.462   4.541
 7070SOL    HW122109   5.904   5.393   4.615
 7070SOL    HW222110   5.880   5.551   4.579
 7071SOL     OW22111   1.534   6.295   5.657
 7071SOL    HW122112   1.560   6.307   5.561
 7071SOL    HW222113   1.492   6.204   5.669
 7072SOL     OW22114   0.530   6.553   6.569
 7072SOL    HW122115   0.491   6.463   6.549
 7072SOL    HW222116   0.504   6.579   6.662
 7073SOL     OW22117   1.112   0.588   5.642
 7073SOL    HW122118   1.097   0.655   5.715
 7073SOL    HW222119   1.030   0.532   5.631
 7074SOL     OW22120   3.562   1.858   1.187
 7074SOL    HW122121   3.469   1.850   1.224
 7074SOL    HW222122   3.600   1.947   1.211
 7075SOL     OW22123   1.912   6.245   2.919
 7075SOL    HW122124   1.857   6.301   2.981
 7075SOL    HW222125   1.932   6.157   2.962
 7076SOL     OW22126   2.747   2.512   6.603
 7076SOL    HW122127   2.821   2.450   6.579
 7076SOL    HW222128   2.691   2.530   6.522
 7077SOL     OW22129   2.684   5.731   5.709
 7077SOL    HW122130   2.668   5.633   5.697
 7077SOL    HW222131   2.755   5.745   5.778
 7078SOL     OW22132   5.946   1.069   3.499
 7078SOL    HW122133   5.963   0.970   3.502
 7078SOL    HW222134   5.927   1.102   3.591
 7079SOL     OW22135   5.870   5.996   5.961
 7079SOL    HW122136   5.918   6.079   5.933
 7079SOL    HW222137   5.781   6.021   6.000
 7080SOL     OW22138   4.407   1.252   3.901
 7080SOL    HW122139   4.477   1.234   3.970
 7080SOL    HW222140   4.410   1.348   3.875
 7081SOL     OW22141   3.616   1.109   4.736
 7081SOL    HW122142   3.569   1.041   4.680
 7081SOL    HW222143   3.682   1.065   4.795
 7082SOL     OW22144   5.097   0.875   5.945
 7082SOL    HW122145   5.057   0.962   5.916
 7082SOL    HW222146   5.120   0.880   6.042
 7083SOL     OW22147   3.196   7.024   6.837
 7083SOL    HW122148   3.282   0.016   6.885
 7083SOL    HW222149   3.207   6.949   6.772
 7084SOL     OW22150   6.682   6.589   5.785
 7084SOL    HW122151   6.656   6.604   5.690
 7084SOL    HW222152   6.749   6.515   5.789
 7085SOL     OW22153   2.643   2.337   1.613
 7085SOL    HW122154   2.701   2.286   1.550
 7085SOL    HW222155   2.679   2.328   1.706
 7086SOL     OW22156   5.964   0.231   6.372
 7086SOL    HW122157   5.974   0.253   6.469
 7086SOL    HW222158   5.918   0.306   6.325
 7087SOL     OW22159   1.312   3.440   3.725
 7087SOL    HW122160   1.231   3.392   3.759
 7087SOL    HW222161   1.327   3.416   3.629
 7088SOL     OW22162   5.980   2.992   5.235
 7088SOL    HW122163   6.014   3.042   5.315
 7088SOL    HW222164   6.047   2.923   5.209
 7089SOL     OW22165   2.685   1.347   0.437
 7089SOL    HW122166   2.703   1.272   0.373
 7089SOL    HW222167   2.645   1.424   0.387
 7090SOL     OW22168   2.610   2.498   5.061
 7090SOL    HW122169   2.541   2.566   5.038
 7090SOL    HW222170   2.701   2.535   5.042
 7091SOL     OW22171   0.156   6.362   6.804
 7091SOL    HW122172   0.178   6.416   6.723
 7091SOL    HW222173   0.096   6.415   6.864
 7092SOL     OW22174   3.430   3.724   1.054
 7092SOL    HW122175   3.334   3.706   1.035
 7092SOL    HW222176   3.466   3.652   1.114
 7093SOL     OW22177   3.363   3.855   4.602
 7093SOL    HW122178   3.385   3.860   4.504
 7093SOL    HW222179   3.352   3.948   4.638
 7094SOL     OW22180   0.880   0.454   5.618
 7094SOL    HW122181   0.853   0.358   5.620
 7094SOL    HW222182   0.866   0.490   5.525
 7095SOL     OW22183   0.505   3.436   6.701
 7095SOL    HW122184   0.411   3.406   6.685
 7095SOL    HW222185   0.562   3.407   6.624
 7096SOL     OW22186   4.557   2.344   3.354
 7096SOL    HW122187   4.572   2.439   3.326
 7096SOL    HW222188   4.566   2.285   3.274
 7097SOL     OW22189   0.456   0.699   1.514
 7097SOL    HW122190   0.518   0.728   1.587
 7097SOL    HW222191   0.393   0.630   1.549
 7098SOL     OW22192   1.828   6.599   5.882
 7098SOL    HW122193   1.833   6.676   5.819
 7098SOL    HW222194   1.873   6.623   5.968
 7099SOL     OW22195   0.475   1.159   6.291
 7099SOL    HW122196   0.428   1.206   6.366
 7099SOL    HW222197   0.475   1.061   6.308
 7100SOL     OW22198   5.842   3.272   1.015
 7100SOL    HW122199   5.891   3.229   1.091
 7100SOL    HW222200   5.895   3.261   0.931
 7101SOL     OW22201   2.874   0.535   5.282
 7101SOL    HW122202   2.898   0.574   5.371
 7101SOL    HW222203   2.937   0.568   5.213
 7102SOL     OW22204   4.294   1.543   0.969
 7102SOL    HW122205   4.319   1.553   0.872
 7102SOL    HW222206   4.366   1.581   1.026
 7103SOL     OW22207   3.617   6.656   6.991
 7103SOL    HW122208   3.612   6.732   6.927
 7103SOL    HW222209   3.569   6.577   6.952
 7104SOL     OW22210   0.859   2.127   2.870
 7104SOL    HW122211   0.925   2.112   2.944
 7104SOL    HW222212   0.871   2.220   2.834
 7105SOL     OW22213   3.454   3.463   4.998
 7105SOL    HW122214   3.363   3.501   4.979
 7105SOL    HW222215   3.466   3.378   4.946
 7106SOL     OW22216   3.184   2.780   5.250
 7106SOL    HW122217   3.251   2.850   5.223
 7106SOL    HW222218   3.226   2.690   5.246
 7107SOL     OW22219   2.654   2.010   0.248
 7107SOL    HW122220   2.579   2.074   0.264
 7107SOL    HW222221   2.672   1.958   0.332
 7108SOL     OW22222   5.178   0.111   1.717
 7108SOL    HW122223   5.216   0.194   1.678
 7108SOL    HW222224   5.235   0.081   1.795
 7109SOL     OW22225   3.547   6.997   6.600
 7109SOL    HW122226   3.624   0.021   6.558
 7109SOL    HW222227   3.467   7.002   6.539
 7110SOL     OW22228   4.885   5.180   3.317
 7110SOL    HW122229   4.831   5.165   3.234
 7110SOL    HW222230   4.864   5.271   3.354
 7111SOL     OW22231   2.249   3.051   4.237
 7111SOL    HW122232   2.208   3.103   4.312
 7111SOL    HW222233   2.227   3.095   4.150
 7112SOL     OW22234   0.818   6.539   3.430
 7112SOL    HW122235   0.779   6.625   3.395
 7112SOL    HW222236   0.906   6.558   3.474
 7113SOL     OW22237   4.025   3.191   4.129
 7113SOL    HW122238   4.041   3.215   4.225
 7113SOL    HW222239   4.049   3.268   4.071
 7114SOL     OW22240   4.083   1.037   1.481
 7114SOL    HW122241   4.054   1.003   1.391
 7114SOL    HW222242   4.095   1.136   1.477
 7115SOL     OW22243   4.685   1.410   1.227
 7115SOL    HW122244   4.745   1.427   1.149
 7115SOL    HW222245   4.683   1.313   1.248
 7116SOL     OW22246   5.464   4.092   2.952
 7116SOL    HW122247   5.516   4.177   2.945
 7116SOL    HW222248   5.503   4.035   3.024
 7117SOL     OW22249   6.275   6.756   1.941
 7117SOL    HW122250   6.279   6.759   2.041
 7117SOL    HW222251   6.245   6.665   1.912
 7118SOL     OW22252   5.970   2.744   0.752
 7118SOL    HW122253   5.965   2.843   0.769
 7118SOL    HW222254   5.965   2.696   0.840
 7119SOL     OW22255   6.993   1.763   3.309
 7119SOL    HW122256   6.918   1.775   3.373
 7119SOL    HW222257   0.008   1.672   3.320
 7120SOL     OW22258   5.079   1.197   3.472
 7120SOL    HW122259   5.117   1.105   3.483
 7120SOL    HW222260   5.006   1.194   3.404
 7121SOL     OW22261   3.217   6.877   3.373
 7121SOL    HW122262   3.311   6.889   3.406
 7121SOL    HW222263   3.194   6.953   3.312
 7122SOL     OW22264   6.193   0.928   6.917
 7122SOL    HW122265   6.198   0.977   7.004
 7122SOL    HW222266   6.119   0.967   6.861
 7123SOL     OW22267   2.819   5.081   1.388
 7123SOL    HW122268   2.853   5.152   1.450
 7123SOL    HW222269   2.723   5.098   1.367
 7124SOL     OW22270   0.374   4.805   0.547
 7124SOL    HW122271   0.284   4.794   0.506
 7124SOL    HW222272   0.367   4.799   0.646
 7125SOL     OW22273   6.081   6.436   2.393
 7125SOL    HW122274   6.015   6.436   2.317
 7125SOL    HW222275   6.173   6.447   2.357
 7126SOL     OW22276   1.234   4.700   0.384
 7126SOL    HW122277   1.247   4.660   0.294
 7126SOL    HW222278   1.300   4.661   0.448
 7127SOL     OW22279   3.902   6.396   4.495
 7127SOL    HW122280   3.928   6.341   4.575
 7127SOL    HW222281   3.820   6.448   4.516
 7128SOL     OW22282   3.366   3.855   1.329
 7128SOL    HW122283   3.310   3.790   1.381
 7128SOL    HW222284   3.374   3.823   1.235
 7129SOL     OW22285   2.437   0.025   1.832
 7129SOL    HW122286   2.500   6.999   1.891
 7129SOL    HW222287   2.479   0.039   1.742
 7130SOL     OW22288   2.101   4.387   3.398
 7130SOL    HW122289   2.082   4.485   3.387
 7130SOL    HW222290   2.023   4.343   3.443
 7131SOL     OW22291   2.540   0.731   3.080
 7131SOL    HW122292   2.590   0.752   3.164
 7131SOL    HW222293   2.443   0.747   3.094
 7132SOL     OW22294   3.477   4.150   3.313
 7132SOL    HW122295   3.576   4.138   3.309
 7132SOL    HW222296   3.455   4.223   3.378
 7133SOL     OW22297   5.293   5.128   2.838
 7133SOL    HW122298   5.389   5.104   2.821
 7133SOL    HW222299   5.247   5.050   2.881
 7134SOL     OW22300   5.818   4.596   4.561
 7134SOL    HW122301   5.910   4.557   4.562
 7134SOL    HW222302   5.813   4.668   4.492
 7135SOL     OW22303   1.069   1.977   4.755
 7135SOL    HW122304   0.971   1.957   4.763
 7135SOL    HW222305   1.090   2.062   4.803
 7136SOL     OW22306   2.096   1.092   0.286
 7136SOL    HW122307   2.025   1.021   0.284
 7136SOL    HW222308   2.164   1.072   0.215
 7137SOL     OW22309   4.438   0.681   4.670
 7137SOL    HW122310   4.346   0.720   4.682
 7137SOL    HW222311   4.496   0.746   4.621
 7138SOL     OW22312   2.221   4.047   0.966
 7138SOL    HW122313   2.287   4.121   0.979
 7138SOL    HW222314   2.266   3.967   0.927
 7139SOL     OW22315   3.642   2.857   1.406
 7139SOL    HW122316   3.696   2.840   1.323
 7139SOL    HW222317   3.672   2.943   1.448
 7140SOL     OW22318   5.899   3.874   5.205
 7140SOL    HW122319   5.865   3.964   5.179
 7140SOL    HW222320   5.944   3.880   5.294
 7141SOL     OW22321   2.838   6.910   0.717
 7141SOL    HW122322   2.845   6.861   0.630
 7141SOL    HW222323   2.804   7.003   0.700
 7142SOL     OW22324   4.000   6.147   4.165
 7142SOL    HW122325   3.975   6.051   4.175
 7142SOL    HW222326   4.100   6.156   4.167
 7143SOL     OW22327   1.698   4.144   5.756
 7143SOL    HW122328   1.658   4.062   5.715
 7143SOL    HW222329   1.691   4.220   5.692
 7144SOL     OW22330   0.732   2.335   3.646
 7144SOL    HW122331   0.776   2.424   3.636
 7144SOL    HW222332   0.645   2.346   3.694
 7145SOL     OW22333   4.630   6.846   6.792
 7145SOL    HW122334   4.706   6.904   6.767
 7145SOL    HW222335   4.557   6.854   6.724
 7146SOL     OW22336   3.347   5.304   0.201
 7146SOL    HW122337   3.390   5.219   0.228
 7146SOL    HW222338   3.301   5.292   0.113
 7147SOL     OW22339   0.382   0.551   3.205
 7147SOL    HW122340   0.311   0.496   3.161
 7147SOL    HW222341   0.382   0.533   3.304
 7148SOL     OW22342   0.948   0.948   1.709
 7148SOL    HW122343   0.987   1.002   1.783
 7148SOL    HW222344   0.971   0.851   1.723
 7149SOL     OW22345   6.296   1.630   3.484
 7149SOL    HW122346   6.351   1.710   3.507
 7149SOL    HW222347   6.339   1.548   3.522
 7150SOL     OW22348   6.279   2.856   0.054
 7150SOL    HW122349   6.314   2.821   0.141
 7150SOL    HW222350   6.305   2.952   0.044
 7151SOL     OW22351   2.881   6.021   1.776
 7151SOL    HW122352   2.889   5.966   1.692
 7151SOL    HW222353   2.792   6.005   1.818
 7152SOL     OW22354   1.307   2.737   3.852
 7152SOL    HW122355   1.381   2.726   3.919
 7152SOL    HW222356   1.346   2.751   3.761
 7153SOL     OW22357   3.902   1.507   3.967
 7153SOL    HW122358   3.980   1.444   3.965
 7153SOL    HW222359   3.836   1.476   4.035
 7154SOL     OW22360   4.633   5.263   3.674
 7154SOL    HW122361   4.647   5.167   3.649
 7154SOL    HW222362   4.576   5.268   3.756
 7155SOL     OW22363   2.448   0.194   1.053
 7155SOL    HW122364   2.378   0.197   0.982
 7155SOL    HW222365   2.530   0.243   1.022
 7156SOL     OW22366   6.927   5.792   4.782
 7156SOL    HW122367   6.882   5.739   4.711
 7156SOL    HW222368   6.866   5.866   4.812
 7157SOL     OW22369   4.754   4.655   0.944
 7157SOL    HW122370   4.775   4.655   0.847
 7157SOL    HW222371   4.713   4.567   0.970
 7158SOL     OW22372   6.485   6.753   3.304
 7158SOL    HW122373   6.418   6.692   3.348
 7158SOL    HW222374   6.565   6.701   3.277
 7159SOL     OW22375   1.003   5.525   0.325
 7159SOL    HW122376   0.959   5.495   0.241
 7159SOL    HW222377   1.039   5.617   0.313
 7160SOL     OW22378   5.829   0.095   2.124
 7160SOL    HW122379   5.796   0.075   2.032
 7160SOL    HW222380   5.859   0.190   2.128
 7161SOL     OW22381   3.460   3.311   4.024
 7161SOL    HW122382   3.550   3.273   4.001
 7161SOL    HW222383   3.390   3.242   4.008
 7162SOL     OW22384   3.423   5.024   3.471
 7162SOL    HW122385   3.375   5.112   3.471
 7162SOL    HW222386   3.372   4.958   3.417
 7163SOL     OW22387   2.544   0.394   3.348
 7163SOL    HW122388   2.528   0.413   3.444
 7163SOL    HW222389   2.605   0.464   3.310
 7164SOL     OW22390   2.178   1.013   2.909
 7164SOL    HW122391   2.239   1.032   2.986
 7164SOL    HW222392   2.170   1.095   2.853
 7165SOL     OW22393   5.097   1.066   1.089
 7165SOL    HW122394   5.124   1.138   1.024
 7165SOL    HW222395   5.173   1.048   1.151
 7166SOL     OW22396   5.234   4.854   1.124
 7166SOL    HW122397   5.231   4.778   1.189
 7166SOL    HW222398   5.278   4.933   1.167
 7167SOL     OW22399   4.887   3.117   4.894
 7167SOL    HW122400   4.932   3.082   4.812
 7167SOL    HW222401   4.824   3.049   4.930
 7168SOL     OW22402   1.050   0.481   3.784
 7168SOL    HW122403   1.087   0.549   3.721
 7168SOL    HW222404   0.950   0.482   3.778
 7169SOL     OW22405   1.248   2.424   5.119
 7169SOL    HW122406   1.290   2.481   5.190
 7169SOL    HW222407   1.310   2.348   5.098
 7170SOL     OW22408   6.588   4.848   4.385
 7170SOL    HW122409   6.525   4.834   4.461
 7170SOL    HW222410   6.584   4.769   4.323
 7171SOL     OW22411   4.445   3.322   5.423
 7171SOL    HW122412   4.511   3.373   5.368
 7171SOL    HW222413   4.465   3.335   5.520
 7172SOL     OW22414   1.140   0.046   0.398
 7172SOL    HW122415   1.132   6.971   0.391
 7172SOL    HW222416   1.098   0.077   0.483
 7173SOL     OW22417   6.836   6.377   5.818
 7173SOL    HW122418   6.820   6.347   5.912
 7173SOL    HW222419   6.876   6.302   5.765
 7174SOL     OW22420   1.593   5.261   0.340
 7174SOL    HW122421   1.619   5.341   0.288
 7174SOL    HW222422   1.652   5.184   0.316
 7175SOL     OW22423   6.457   3.635   6.154
 7175SOL    HW122424   6.384   3.699   6.131
 7175SOL    HW222425   6.546   3.677   6.135
 7176SOL     OW22426   5.938   4.074   1.264
 7176SOL    HW122427   5.928   4.002   1.332
 7176SOL    HW222428   5.912   4.162   1.304
 7177SOL     OW22429   0.693   5.614   2.082
 7177SOL    HW122430   0.717   5.538   2.142
 7177SOL    HW222431   0.768   5.681   2.083
 7178SOL     OW22432   0.799   2.372   5.518
 7178SOL    HW122433   0.890   2.333   5.507
 7178SOL    HW222434   0.807   2.469   5.544
 7179SOL     OW22435   2.784   3.738   5.927
 7179SOL    HW122436   2.813   3.753   6.022
 7179SOL    HW222437   2.859   3.762   5.865
 7180SOL     OW22438   0.288   5.932   1.937
 7180SOL    HW122439   0.300   5.926   1.838
 7180SOL    HW222440   0.293   5.841   1.977
 7181SOL     OW22441   5.256   0.512   1.445
 7181SOL    HW122442   5.306   0.566   1.378
 7181SOL    HW222443   5.210   0.572   1.510
 7182SOL     OW22444   2.653   4.220   5.574
 7182SOL    HW122445   2.615   4.134   5.608
 7182SOL    HW222446   2.745   4.233   5.610
 7183SOL     OW22447   1.282   5.473   2.641
 7183SOL    HW122448   1.367   5.434   2.678
 7183SOL    HW222449   1.276   5.569   2.666
 7184SOL     OW22450   2.392   6.370   4.227
 7184SOL    HW122451   2.294   6.351   4.223
 7184SOL    HW222452   2.409   6.445   4.290
 7185SOL     OW22453   4.701   2.617   6.925
 7185SOL    HW122454   4.752   2.703   6.922
 7185SOL    HW222455   4.748   2.551   6.983
 7186SOL     OW22456   0.333   6.231   5.207
 7186SOL    HW122457   0.311   6.325   5.235
 7186SOL    HW222458   0.418   6.231   5.156
 7187SOL     OW22459   2.106   4.122   1.910
 7187SOL    HW122460   2.164   4.187   1.960
 7187SOL    HW222461   2.163   4.050   1.871
 7188SOL     OW22462   5.014   1.910   1.989
 7188SOL    HW122463   4.983   1.815   2.001
 7188SOL    HW222464   5.047   1.945   2.077
 7189SOL     OW22465   6.785   1.219   5.235
 7189SOL    HW122466   6.866   1.223   5.176
 7189SOL    HW222467   6.703   1.211   5.178
 7190SOL     OW22468   5.168   4.395   3.512
 7190SOL    HW122469   5.217   4.478   3.539
 7190SOL    HW222470   5.159   4.335   3.590
 7191SOL     OW22471   1.864   3.535   2.074
 7191SOL    HW122472   1.914   3.488   2.001
 7191SOL    HW222473   1.926   3.599   2.120
 7192SOL     OW22474   2.897   4.343   6.141
 7192SOL    HW122475   2.965   4.324   6.071
 7192SOL    HW222476   2.806   4.341   6.101
 7193SOL     OW22477   4.145   2.215   3.670
 7193SOL    HW122478   4.067   2.219   3.732
 7193SOL    HW222479   4.140   2.131   3.615
 7194SOL     OW22480   2.556   1.680   2.075
 7194SOL    HW122481   2.512   1.730   2.000
 7194SOL    HW222482   2.648   1.652   2.047
 7195SOL     OW22483   1.122   5.577   1.069
 7195SOL    HW122484   1.097   5.579   0.972
 7195SOL    HW222485   1.062   5.512   1.117
 7196SOL     OW22486   3.220   3.391   2.404
 7196SOL    HW122487   3.136   3.442   2.385
 7196SOL    HW222488   3.200   3.315   2.467
 7197SOL     OW22489   6.567   1.896   5.969
 7197SOL    HW122490   6.621   1.976   5.993
 7197SOL    HW222491   6.558   1.890   5.870
 7198SOL     OW22492   1.154   6.604   6.662
 7198SOL    HW122493   1.142   6.510   6.695
 7198SOL    HW222494   1.117   6.611   6.569
 7199SOL     OW22495   5.899   6.455   2.673
 7199SOL    HW122496   5.991   6.495   2.669
 7199SOL    HW222497   5.886   6.397   2.592
 7200SOL     OW22498   1.830   1.280   1.241
 7200SOL    HW122499   1.920   1.303   1.279
 7200SOL    HW222500   1.838   1.264   1.143
 7201SOL     OW22501   2.015   4.339   4.055
 7201SOL    HW122502   1.973   4.249   4.070
 7201SOL    HW222503   2.033   4.383   4.143
 7202SOL     OW22504   3.742   0.888   6.835
 7202SOL    HW122505   3.836   0.922   6.842
 7202SOL    HW222506   3.741   0.802   6.785
 7203SOL     OW22507   5.308   1.294   0.123
 7203SOL    HW122508   5.219   1.301   0.078
 7203SOL    HW222509   5.303   1.334   0.214
 7204SOL     OW22510   6.029   1.689   3.525
 7204SOL    HW122511   6.127   1.670   3.518
 7204SOL    HW222512   6.013   1.753   3.601
 7205SOL     OW22513   2.305   4.851   2.459
 7205SOL    HW122514   2.340   4.910   2.531
 7205SOL    HW222515   2.303   4.756   2.491
 7206SOL     OW22516   6.235   0.956   1.736
 7206SOL    HW122517   6.272   1.025   1.674
 7206SOL    HW222518   6.172   0.897   1.686
 7207SOL     OW22519   3.773   6.666   1.767
 7207SOL    HW122520   3.858   6.629   1.804
 7207SOL    HW222521   3.788   6.759   1.735
 7208SOL     OW22522   3.209   0.306   5.705
 7208SOL    HW122523   3.176   0.291   5.612
 7208SOL    HW222524   3.309   0.294   5.707
 7209SOL     OW22525   3.772   3.337   4.346
 7209SOL    HW122526   3.859   3.296   4.375
 7209SOL    HW222527   3.733   3.388   4.422
 7210SOL     OW22528   4.651   1.526   4.187
 7210SOL    HW122529   4.740   1.507   4.146
 7210SOL    HW222530   4.649   1.621   4.219
 7211SOL     OW22531   1.538   5.446   3.445
 7211SOL    HW122532   1.446   5.472   3.414
 7211SOL    HW222533   1.572   5.370   3.390
 7212SOL     OW22534   5.953   6.291   4.167
 7212SOL    HW122535   5.939   6.356   4.092
 7212SOL    HW222536   5.993   6.339   4.245
 7213SOL     OW22537   5.913   1.021   5.431
 7213SOL    HW122538   5.920   1.021   5.331
 7213SOL    HW222539   5.877   0.933   5.461
 7214SOL     OW22540   1.928   5.123   4.842
 7214SOL    HW122541   1.877   5.171   4.771
 7214SOL    HW222542   2.026   5.131   4.824
 7215SOL     OW22543   1.221   3.759   3.861
 7215SOL    HW122544   1.145   3.762   3.797
 7215SOL    HW222545   1.210   3.831   3.930
 7216SOL     OW22546   2.680   0.302   0.924
 7216SOL    HW122547   2.751   0.262   0.866
 7216SOL    HW222548   2.718   0.319   1.015
 7217SOL     OW22549   1.045   2.960   2.212
 7217SOL    HW122550   1.120   2.989   2.272
 7217SOL    HW222551   0.970   2.924   2.268
 7218SOL     OW22552   4.936   2.809   5.489
 7218SOL    HW122553   5.035   2.814   5.479
 7218SOL    HW222554   4.909   2.849   5.576
 7219SOL     OW22555   3.655   0.998   2.744
 7219SOL    HW122556   3.602   1.039   2.669
 7219SOL    HW222557   3.751   1.024   2.735
 7220SOL     OW22558   6.589   1.029   2.776
 7220SOL    HW122559   6.649   0.956   2.742
 7220SOL    HW222560   6.518   0.989   2.833
 7221SOL     OW22561   5.432   5.148   6.374
 7221SOL    HW122562   5.363   5.154   6.302
 7221SOL    HW222563   5.395   5.096   6.451
 7222SOL     OW22564   0.382   5.856   1.175
 7222SOL    HW122565   0.290   5.884   1.204
 7222SOL    HW222566   0.382   5.759   1.154
 7223SOL     OW22567   3.842   0.860   5.471
 7223SOL    HW122568   3.752   0.836   5.433
 7223SOL    HW222569   3.830   0.926   5.546
 7224SOL     OW22570   5.271   0.008   4.571
 7224SOL    HW122571   5.178   0.033   4.598
 7224SOL    HW222572   5.277   6.933   4.560
 7225SOL     OW22573   2.230   6.365   6.694
 7225SOL    HW122574   2.147   6.323   6.732
 7225SOL    HW222575   2.282   6.296   6.644
 7226SOL     OW22576   6.991   6.536   0.732
 7226SOL    HW122577   6.942   6.596   0.795
 7226SOL    HW222578   6.963   6.555   0.638
 7227SOL     OW22579   0.100   2.577   6.952
 7227SOL    HW122580   0.195   2.555   6.931
 7227SOL    HW222581   0.088   2.586   0.026
 7228SOL     OW22582   1.033   0.735   2.638
 7228SOL    HW122583   0.985   0.754   2.553
 7228SOL    HW222584   1.128   0.763   2.630
 7229SOL     OW22585   0.376   0.441   3.777
 7229SOL    HW122586   0.304   0.374   3.758
 7229SOL    HW222587   0.442   0.401   3.842
 7230SOL     OW22588   5.000   4.051   3.255
 7230SOL    HW122589   5.019   3.988   3.180
 7230SOL    HW222590   5.080   4.055   3.316
 7231SOL     OW22591   5.852   1.091   6.376
 7231SOL    HW122592   5.896   1.152   6.442
 7231SOL    HW222593   5.757   1.120   6.364
 7232SOL     OW22594   4.014   4.743   1.428
 7232SOL    HW122595   4.047   4.802   1.501
 7232SOL    HW222596   4.069   4.759   1.345
 7233SOL     OW22597   6.832   2.181   6.502
 7233SOL    HW122598   6.857   2.206   6.595
 7233SOL    HW222599   6.746   2.227   6.476
 7234SOL     OW22600   6.157   1.853   2.077
 7234SOL    HW122601   6.205   1.765   2.075
 7234SOL    HW222602   6.109   1.864   2.164
 7235SOL     OW22603   5.700   3.984   5.533
 7235SOL    HW122604   5.691   4.079   5.561
 7235SOL    HW222605   5.666   3.973   5.440
 7236SOL     OW22606   3.194   0.300   2.907
 7236SOL    HW122607   3.131   0.371   2.873
 7236SOL    HW222608   3.228   0.247   2.830
 7237SOL     OW22609   5.986   5.818   5.734
 7237SOL    HW122610   5.914   5.875   5.774
 7237SOL    HW222611   5.945   5.750   5.674
 7238SOL     OW22612   1.718   1.618   1.061
 7238SOL    HW122613   1.661   1.643   1.139
 7238SOL    HW222614   1.796   1.681   1.056
 7239SOL     OW22615   4.013   1.595   1.774
 7239SOL    HW122616   4.078   1.644   1.716
 7239SOL    HW222617   3.973   1.658   1.841
 7240SOL     OW22618   2.627   4.669   0.370
 7240SOL    HW122619   2.649   4.600   0.440
 7240SOL    HW222620   2.707   4.726   0.353
 7241SOL     OW22621   3.886   0.130   5.205
 7241SOL    HW122622   3.916   0.044   5.248
 7241SOL    HW222623   3.853   0.192   5.276
 7242SOL     OW22624   5.152   4.829   6.978
 7242SOL    HW122625   5.215   4.791   0.021
 7242SOL    HW222626   5.190   4.816   6.886
 7243SOL     OW22627   0.421   5.654   0.121
 7243SOL    HW122628   0.458   5.602   0.198
 7243SOL    HW222629   0.479   5.733   0.102
 7244SOL     OW22630   6.072   1.156   1.472
 7244SOL    HW122631   6.074   1.152   1.372
 7244SOL    HW222632   6.160   1.192   1.505
 7245SOL     OW22633   0.013   2.053   3.428
 7245SOL    HW122634   7.016   2.042   3.331
 7245SOL    HW222635   0.110   2.032   3.444
 7246SOL     OW22636   0.078   6.378   5.988
 7246SOL    HW122637   0.065   6.387   5.890
 7246SOL    HW222638   0.114   6.287   6.009
 7247SOL     OW22639   3.153   5.499   2.739
 7247SOL    HW122640   3.210   5.448   2.674
 7247SOL    HW222641   3.205   5.577   2.773
 7248SOL     OW22642   3.404   0.382   4.607
 7248SOL    HW122643   3.452   0.373   4.520
 7248SOL    HW222644   3.399   0.479   4.632
 7249SOL     OW22645   6.106   5.735   6.779
 7249SOL    HW122646   6.119   5.647   6.732
 7249SOL    HW222647   6.191   5.788   6.775
 7250SOL     OW22648   3.006   4.220   6.690
 7250SOL    HW122649   3.031   4.198   6.596
 7250SOL    HW222650   3.033   4.145   6.751
 7251SOL     OW22651   5.947   0.209   5.112
 7251SOL    HW122652   5.910   0.249   5.028
 7251SOL    HW222653   6.041   0.179   5.096
 7252SOL     OW22654   3.717   3.677   4.890
 7252SOL    HW122655   3.765   3.622   4.821
 7252SOL    HW222656   3.636   3.719   4.849
 7253SOL     OW22657   5.149   6.284   1.580
 7253SOL    HW122658   5.246   6.276   1.557
 7253SOL    HW222659   5.138   6.289   1.679
 7254SOL     OW22660   4.991   5.695   5.132
 7254SOL    HW122661   4.945   5.609   5.111
 7254SOL    HW222662   4.959   5.729   5.221
 7255SOL     OW22663   3.642   3.838   2.327
 7255SOL    HW122664   3.569   3.900   2.299
 7255SOL    HW222665   3.704   3.821   2.250
 7256SOL     OW22666   4.494   4.988   4.317
 7256SOL    HW122667   4.584   4.945   4.309
 7256SOL    HW222668   4.425   4.917   4.333
 7257SOL     OW22669   5.942   3.995   2.790
 7257SOL    HW122670   5.960   3.922   2.856
 7257SOL    HW222671   5.848   4.027   2.801
 7258SOL     OW22672   3.910   6.919   4.669
 7258SOL    HW122673   3.867   6.923   4.579
 7258SOL    HW222674   4.001   6.960   4.664
 7259SOL     OW22675   2.694   5.322   5.891
 7259SOL    HW122676   2.774   5.365   5.932
 7259SOL    HW222677   2.660   5.380   5.817
 7260SOL     OW22678   3.681   1.993   1.843
 7260SOL    HW122679   3.729   2.041   1.770
 7260SOL    HW222680   3.640   2.059   1.905
 7261SOL     OW22681   1.380   3.921   2.153
 7261SOL    HW122682   1.303   3.858   2.144
 7261SOL    HW222683   1.348   4.007   2.194
 7262SOL     OW22684   6.315   1.982   5.308
 7262SOL    HW122685   6.276   2.074   5.310
 7262SOL    HW222686   6.243   1.915   5.328
 7263SOL     OW22687   3.769   6.187   1.735
 7263SOL    HW122688   3.677   6.224   1.721
 7263SOL    HW222689   3.762   6.102   1.788
 7264SOL     OW22690   1.001   7.004   5.722
 7264SOL    HW122691   1.043   0.040   5.790
 7264SOL    HW222692   1.071   6.942   5.686
 7265SOL     OW22693   4.298   4.899   6.084
 7265SOL    HW122694   4.217   4.889   6.025
 7265SOL    HW222695   4.284   4.977   6.146
 7266SOL     OW22696   5.912   1.439   2.173
 7266SOL    HW122697   5.915   1.526   2.222
 7266SOL    HW222698   5.822   1.398   2.184
 7267SOL     OW22699   0.166   3.832   4.150
 7267SOL    HW122700   0.083   3.782   4.126
 7267SOL    HW222701   0.164   3.856   4.247
 7268SOL     OW22702   2.978   6.803   1.423
 7268SOL    HW122703   2.951   6.726   1.366
 7268SOL    HW222704   3.042   6.771   1.494
 7269SOL     OW22705   1.270   6.767   1.486
 7269SOL    HW122706   1.292   6.752   1.389
 7269SOL    HW222707   1.181   6.726   1.506
 7270SOL     OW22708   3.340   1.488   2.666
 7270SOL    HW122709   3.261   1.431   2.687
 7270SOL    HW222710   3.333   1.574   2.717
 7271SOL     OW22711   6.346   3.641   3.472
 7271SOL    HW122712   6.407   3.719   3.461
 7271SOL    HW222713   6.271   3.648   3.406
 7272SOL     OW22714   5.480   2.169   1.099
 7272SOL    HW122715   5.431   2.185   1.184
 7272SOL    HW222716   5.457   2.079   1.063
 7273SOL     OW22717   5.545   5.027   6.952
 7273SOL    HW122718   5.484   4.948   6.947
 7273SOL    HW222719   5.595   5.036   6.866
 7274SOL     OW22720   6.845   4.773   5.256
 7274SOL    HW122721   6.835   4.804   5.350
 7274SOL    HW222722   6.941   4.778   5.228
 7275SOL     OW22723   5.958   0.154   0.825
 7275SOL    HW122724   5.894   0.142   0.750
 7275SOL    HW222725   6.052   0.149   0.791
 7276SOL     OW22726   2.975   1.673   3.675
 7276SOL    HW122727   2.905   1.738   3.705
 7276SOL    HW222728   2.935   1.582   3.667
 7277SOL     OW22729   5.577   1.478   4.578
 7277SOL    HW122730   5.591   1.507   4.673
 7277SOL    HW222731   5.604   1.552   4.516
 7278SOL     OW22732   2.361   1.345   3.061
 7278SOL    HW122733   2.359   1.279   2.986
 7278SOL    HW222734   2.267   1.373   3.084
 7279SOL     OW22735   4.503   4.118   0.978
 7279SOL    HW122736   4.419   4.069   0.955
 7279SOL    HW222737   4.579   4.081   0.924
 7280SOL     OW22738   6.095   2.356   5.592
 7280SOL    HW122739   6.140   2.403   5.516
 7280SOL    HW222740   6.162   2.301   5.641
 7281SOL     OW22741   4.398   4.988   2.080
 7281SOL    HW122742   4.306   5.006   2.116
 7281SOL    HW222743   4.424   5.061   2.017
 7282SOL     OW22744   6.298   3.962   2.634
 7282SOL    HW122745   6.373   3.906   2.598
 7282SOL    HW222746   6.216   3.906   2.643
 7283SOL     OW22747   4.304   4.803   2.928
 7283SOL    HW122748   4.381   4.797   2.864
 7283SOL    HW222749   4.338   4.803   3.022
 7284SOL     OW22750   0.158   1.902   2.629
 7284SOL    HW122751   0.199   1.976   2.683
 7284SOL    HW222752   0.200   1.900   2.539
 7285SOL     OW22753   4.776   3.197   1.726
 7285SOL    HW122754   4.706   3.190   1.655
 7285SOL    HW222755   4.740   3.160   1.812
 7286SOL     OW22756   0.339   1.252   3.093
 7286SOL    HW122757   0.431   1.268   3.057
 7286SOL    HW222758   0.334   1.160   3.132
 7287SOL     OW22759   1.922   2.209   3.160
 7287SOL    HW122760   1.889   2.297   3.124
 7287SOL    HW222761   1.992   2.172   3.099
 7288SOL     OW22762   2.482   1.827   2.677
 7288SOL    HW122763   2.539   1.862   2.751
 7288SOL    HW222764   2.405   1.889   2.661
 7289SOL     OW22765   6.523   1.652   1.311
 7289SOL    HW122766   6.547   1.604   1.227
 7289SOL    HW222767   6.481   1.587   1.375
 7290SOL     OW22768   3.630   1.059   5.176
 7290SOL    HW122769   3.718   1.101   5.196
 7290SOL    HW222770   3.560   1.099   5.236
 7291SOL     OW22771   3.339   1.362   0.481
 7291SOL    HW122772   3.358   1.368   0.579
 7291SOL    HW222773   3.409   1.306   0.437
 7292SOL     OW22774   2.644   0.647   2.391
 7292SOL    HW122775   2.712   0.649   2.318
 7292SOL    HW222776   2.566   0.591   2.363
 7293SOL     OW22777   0.017   1.832   3.971
 7293SOL    HW122778   0.019   1.816   3.872
 7293SOL    HW222779   0.029   1.930   3.988
 7294SOL     OW22780   3.741   6.384   2.459
 7294SOL    HW122781   3.800   6.462   2.478
 7294SOL    HW222782   3.650   6.416   2.432
 7295SOL     OW22783   6.030   5.031   1.835
 7295SOL    HW122784   6.050   5.019   1.932
 7295SOL    HW222785   6.047   4.945   1.786
 7296SOL     OW22786   4.895   4.751   2.085
 7296SOL    HW122787   4.865   4.830   2.138
 7296SOL    HW222788   4.864   4.760   1.990
 7297SOL     OW22789   4.283   6.726   1.558
 7297SOL    HW122790   4.338   6.643   1.560
 7297SOL    HW222791   4.286   6.766   1.467
 7298SOL     OW22792   3.963   4.949   6.878
 7298SOL    HW122793   3.935   5.042   6.902
 7298SOL    HW222794   4.007   4.906   6.957
 7299SOL     OW22795   1.179   2.512   6.288
 7299SOL    HW122796   1.095   2.461   6.273
 7299SOL    HW222797   1.257   2.449   6.290
 7300SOL     OW22798   0.399   4.890   2.423
 7300SOL    HW122799   0.436   4.797   2.413
 7300SOL    HW222800   0.377   4.907   2.519
 7301SOL     OW22801   4.515   2.032   5.640
 7301SOL    HW122802   4.420   2.039   5.672
 7301SOL    HW222803   4.519   1.970   5.562
 7302SOL     OW22804   5.590   1.923   6.168
 7302SOL    HW122805   5.512   1.868   6.197
 7302SOL    HW222806   5.581   2.016   6.205
 7303SOL     OW22807   2.881   1.715   1.722
 7303SOL    HW122808   2.854   1.812   1.721
 7303SOL    HW222809   2.879   1.681   1.816
 7304SOL     OW22810   2.707   5.681   1.369
 7304SOL    HW122811   2.714   5.697   1.271
 7304SOL    HW222812   2.611   5.662   1.393
 7305SOL     OW22813   6.296   1.246   0.403
 7305SOL    HW122814   6.233   1.246   0.481
 7305SOL    HW222815   6.272   1.321   0.341
 7306SOL     OW22816   0.468   2.705   1.251
 7306SOL    HW122817   0.516   2.738   1.332
 7306SOL    HW222818   0.397   2.639   1.279
 7307SOL     OW22819   2.124   0.455   0.971
 7307SOL    HW122820   2.047   0.392   0.980
 7307SOL    HW222821   2.143   0.472   0.874
 7308SOL     OW22822   4.744   1.258   2.914
 7308SOL    HW122823   4.791   1.175   2.943
 7308SOL    HW222824   4.647   1.251   2.936
 7309SOL     OW22825   2.577   5.189   3.445
 7309SOL    HW122826   2.538   5.103   3.479
 7309SOL    HW222827   2.675   5.179   3.432
 7310SOL     OW22828   2.220   3.065   5.865
 7310SOL    HW122829   2.283   3.023   5.930
 7310SOL    HW222830   2.131   3.081   5.909
 7311SOL     OW22831   0.038   6.201   6.508
 7311SOL    HW122832   6.995   6.145   6.462
 7311SOL    HW222833   0.128   6.156   6.505
 7312SOL     OW22834   6.618   2.193   3.806
 7312SOL    HW122835   6.549   2.166   3.874
 7312SOL    HW222836   6.707   2.201   3.851
 7313SOL     OW22837   2.517   0.704   2.642
 7313SOL    HW122838   2.573   0.695   2.560
 7313SOL    HW222839   2.447   0.774   2.627
 7314SOL     OW22840   0.265   4.137   6.156
 7314SOL    HW122841   0.236   4.051   6.198
 7314SOL    HW222842   0.352   4.123   6.109
 7315SOL     OW22843   2.061   4.901   2.349
 7315SOL    HW122844   2.154   4.918   2.381
 7315SOL    HW222845   2.063   4.830   2.278
 7316SOL     OW22846   3.114   2.303   1.147
 7316SOL    HW122847   3.125   2.403   1.151
 7316SOL    HW222848   3.198   2.260   1.179
 7317SOL     OW22849   3.536   1.968   0.628
 7317SOL    HW122850   3.609   2.023   0.588
 7317SOL    HW222851   3.468   2.028   0.671
 7318SOL     OW22852   4.986   5.892   1.134
 7318SOL    HW122853   4.969   5.820   1.066
 7318SOL    HW222854   4.943   5.867   1.221
 7319SOL     OW22855   5.782   5.485   6.622
 7319SOL    HW122856   5.779   5.545   6.702
 7319SOL    HW222857   5.689   5.464   6.592
 7320SOL     OW22858   0.358   2.248   1.246
 7320SOL    HW122859   0.453   2.230   1.271
 7320SOL    HW222860   0.299   2.178   1.287
 7321SOL     OW22861   1.529   0.959   0.169
 7321SOL    HW122862   1.577   0.999   0.247
 7321SOL    HW222863   1.596   0.935   0.098
 7322SOL     OW22864   1.163   2.838   2.768
 7322SOL    HW122865   1.242   2.894   2.795
 7322SOL    HW222866   1.157   2.758   2.828
 7323SOL     OW22867   0.645   2.876   0.955
 7323SOL    HW122868   0.548   2.875   0.977
 7323SOL    HW222869   0.678   2.970   0.948
 7324SOL     OW22870   5.821   4.593   3.575
 7324SOL    HW122871   5.723   4.575   3.581
 7324SOL    HW222872   5.838   4.663   3.506
 7325SOL     OW22873   4.449   0.864   6.093
 7325SOL    HW122874   4.472   0.805   6.016
 7325SOL    HW222875   4.351   0.860   6.111
 7326SOL     OW22876   3.865   0.645   0.569
 7326SOL    HW122877   3.873   0.588   0.651
 7326SOL    HW222878   3.781   0.623   0.520
 7327SOL     OW22879   1.244   4.330   3.436
 7327SOL    HW122880   1.168   4.311   3.498
 7327SOL    HW222881   1.326   4.282   3.468
 7328SOL     OW22882   4.414   5.174   4.533
 7328SOL    HW122883   4.477   5.242   4.571
 7328SOL    HW222884   4.464   5.115   4.469
 7329SOL     OW22885   3.513   3.507   1.193
 7329SOL    HW122886   3.417   3.500   1.220
 7329SOL    HW222887   3.535   3.432   1.130
 7330SOL     OW22888   2.606   3.326   1.763
 7330SOL    HW122889   2.637   3.384   1.687
 7330SOL    HW222890   2.523   3.364   1.803
 7331SOL     OW22891   5.530   2.596   2.596
 7331SOL    HW122892   5.450   2.643   2.557
 7331SOL    HW222893   5.608   2.659   2.598
 7332SOL     OW22894   3.662   5.868   6.085
 7332SOL    HW122895   3.697   5.952   6.044
 7332SOL    HW222896   3.589   5.890   6.149
 7333SOL     OW22897   0.938   1.088   0.636
 7333SOL    HW122898   1.026   1.094   0.588
 7333SOL    HW222899   0.918   1.176   0.679
 7334SOL     OW22900   2.974   6.658   4.382
 7334SOL    HW122901   3.050   6.721   4.368
 7334SOL    HW222902   2.973   6.627   4.477
 7335SOL     OW22903   6.446   3.424   1.777
 7335SOL    HW122904   6.452   3.521   1.752
 7335SOL    HW222905   6.369   3.411   1.839
 7336SOL     OW22906   2.246   6.639   1.811
 7336SOL    HW122907   2.275   6.543   1.807
 7336SOL    HW222908   2.289   6.683   1.889
 7337SOL     OW22909   2.361   1.675   3.401
 7337SOL    HW122910   2.388   1.586   3.364
 7337SOL    HW222911   2.422   1.700   3.476
 7338SOL     OW22912   5.090   3.508   1.654
 7338SOL    HW122913   5.074   3.425   1.707
 7338SOL    HW222914   5.082   3.588   1.714
 7339SOL     OW22915   6.889   5.956   4.493
 7339SOL    HW122916   6.907   6.001   4.581
 7339SOL    HW222917   6.973   5.914   4.460
 7340SOL     OW22918   2.512   6.918   0.816
 7340SOL    HW122919   2.422   6.950   0.844
 7340SOL    HW222920   2.575   6.922   0.894
 7341SOL     OW22921   6.430   5.407   4.396
 7341SOL    HW122922   6.471   5.362   4.317
 7341SOL    HW222923   6.337   5.437   4.372
 7342SOL     OW22924   1.123   5.199   1.434
 7342SOL    HW122925   1.175   5.206   1.349
 7342SOL    HW222926   1.061   5.120   1.428
 7343SOL     OW22927   5.245   3.174   2.698
 7343SOL    HW122928   5.242   3.086   2.745
 7343SOL    HW222929   5.327   3.224   2.727
 7344SOL     OW22930   2.269   1.026   0.068
 7344SOL    HW122931   2.324   0.943   0.069
 7344SOL    HW222932   2.270   1.064   7.000
 7345SOL     OW22933   3.590   5.457   0.125
 7345SOL    HW122934   3.600   5.538   0.183
 7345SOL    HW222935   3.505   5.410   0.147
 7346SOL     OW22936   3.916   4.758   1.716
 7346SOL    HW122937   3.955   4.682   1.769
 7346SOL    HW222938   3.989   4.807   1.669
 7347SOL     OW22939   5.995   2.790   2.849
 7347SOL    HW122940   6.050   2.732   2.909
 7347SOL    HW222941   6.050   2.870   2.822
 7348SOL     OW22942   0.533   2.311   4.711
 7348SOL    HW122943   0.551   2.213   4.714
 7348SOL    HW222944   0.619   2.361   4.723
 7349SOL     OW22945   3.789   1.540   0.483
 7349SOL    HW122946   3.803   1.567   0.388
 7349SOL    HW222947   3.877   1.537   0.530
 7350SOL     OW22948   2.444   1.018   2.770
 7350SOL    HW122949   2.359   1.038   2.820
 7350SOL    HW222950   2.422   1.002   2.674
 7351SOL     OW22951   4.025   4.567   6.978
 7351SOL    HW122952   4.010   4.484   6.923
 7351SOL    HW222953   4.092   4.548   0.025
 7352SOL     OW22954   6.651   1.270   3.095
 7352SOL    HW122955   6.740   1.234   3.066
 7352SOL    HW222956   6.579   1.234   3.036
 7353SOL     OW22957   4.880   2.588   4.796
 7353SOL    HW122958   4.975   2.616   4.788
 7353SOL    HW222959   4.875   2.488   4.803
 7354SOL     OW22960   6.089   3.994   5.418
 7354SOL    HW122961   6.135   4.041   5.493
 7354SOL    HW222962   6.155   3.939   5.367
 7355SOL     OW22963   1.560   4.754   2.014
 7355SOL    HW122964   1.497   4.808   1.959
 7355SOL    HW222965   1.538   4.657   2.004
 7356SOL     OW22966   5.998   1.966   5.534
 7356SOL    HW122967   5.965   1.921   5.617
 7356SOL    HW222968   5.930   2.032   5.502
 7357SOL     OW22969   6.679   1.599   0.310
 7357SOL    HW122970   6.585   1.627   0.332
 7357SOL    HW222971   6.713   1.540   0.383
 7358SOL     OW22972   2.943   0.631   4.166
 7358SOL    HW122973   2.964   0.728   4.152
 7358SOL    HW222974   2.910   0.591   4.081
 7359SOL     OW22975   3.696   3.130   3.149
 7359SOL    HW122976   3.680   3.211   3.205
 7359SOL    HW222977   3.700   3.049   3.207
 7360SOL     OW22978   0.327   2.641   6.491
 7360SOL    HW122979   0.352   2.714   6.428
 7360SOL    HW222980   0.252   2.587   6.452
 7361SOL     OW22981   5.344   6.879   2.638
 7361SOL    HW122982   5.440   6.853   2.629
 7361SOL    HW222983   5.292   6.802   2.675
 7362SOL     OW22984   1.698   6.368   5.881
 7362SOL    HW122985   1.650   6.362   5.794
 7362SOL    HW222986   1.735   6.460   5.893
 7363SOL     OW22987   4.980   2.602   6.341
 7363SOL    HW122988   4.945   2.538   6.409
 7363SOL    HW222989   4.986   2.694   6.382
 7364SOL     OW22990   5.417   0.624   1.862
 7364SOL    HW122991   5.402   0.721   1.845
 7364SOL    HW222992   5.328   0.577   1.865
 7365SOL     OW22993   3.367   0.603   2.387
 7365SOL    HW122994   3.405   0.547   2.314
 7365SOL    HW222995   3.327   0.687   2.348
 7366SOL     OW22996   0.800   5.618   0.543
 7366SOL    HW122997   0.818   5.520   0.553
 7366SOL    HW222998   0.869   5.670   0.594
 7367SOL     OW22999   4.872   3.730   7.021
 7367SOL    HW123000   4.963   3.756   6.989
 7367SOL    HW223001   4.823   3.684   6.947
 7368SOL     OW23002   3.533   3.865   3.469
 7368SOL    HW123003   3.513   3.946   3.525
 7368SOL    HW223004   3.561   3.895   3.377
 7369SOL     OW23005   4.352   2.461   6.979
 7369SOL    HW123006   4.270   2.448   6.922
 7369SOL    HW223007   4.324   2.482   0.048
 7370SOL     OW23008   1.972   6.100   1.441
 7370SOL    HW123009   2.025   6.035   1.495
 7370SOL    HW223010   1.902   6.142   1.499
 7371SOL     OW23011   2.729   5.276   4.632
 7371SOL    HW123012   2.642   5.276   4.681
 7371SOL    HW223013   2.711   5.272   4.533
 7372SOL     OW23014   3.203   6.763   6.193
 7372SOL    HW123015   3.155   6.770   6.280
 7372SOL    HW223016   3.298   6.738   6.208
 7373SOL     OW23017   3.691   0.611   1.412
 7373SOL    HW123018   3.654   0.676   1.346
 7373SOL    HW223019   3.699   0.654   1.502
 7374SOL     OW23020   1.693   3.164   5.951
 7374SOL    HW123021   1.648   3.179   5.863
 7374SOL    HW223022   1.632   3.190   6.026
 7375SOL     OW23023   0.883   0.320   3.269
 7375SOL    HW123024   0.817   0.245   3.267
 7375SOL    HW223025   0.976   0.283   3.273
 7376SOL     OW23026   3.045   3.973   6.002
 7376SOL    HW123027   3.081   3.950   5.912
 7376SOL    HW223028   3.010   3.890   6.046
 7377SOL     OW23029   4.576   4.550   1.238
 7377SOL    HW123030   4.619   4.622   1.293
 7377SOL    HW223031   4.541   4.479   1.298
 7378SOL     OW23032   6.538   1.554   5.339
 7378SOL    HW123033   6.601   1.522   5.269
 7378SOL    HW223034   6.447   1.516   5.322
 7379SOL     OW23035   3.209   1.744   1.868
 7379SOL    HW123036   3.180   1.800   1.790
 7379SOL    HW223037   3.306   1.724   1.861
 7380SOL     OW23038   6.919   3.241   5.400
 7380SOL    HW123039   7.010   3.200   5.409
 7380SOL    HW223040   6.849   3.169   5.410
 7381SOL     OW23041   5.541   2.324   0.348
 7381SOL    HW123042   5.603   2.385   0.299
 7381SOL    HW223043   5.547   2.232   0.309
 7382SOL     OW23044   0.537   6.174   3.542
 7382SOL    HW123045   0.545   6.163   3.443
 7382SOL    HW223046   0.510   6.087   3.583
 7383SOL     OW23047   6.916   6.248   3.405
 7383SOL    HW123048   6.980   6.303   3.351
 7383SOL    HW223049   6.952   6.155   3.416
 7384SOL     OW23050   6.105   1.069   2.535
 7384SOL    HW123051   6.064   1.104   2.619
 7384SOL    HW223052   6.033   1.044   2.471
 7385SOL     OW23053   5.147   6.935   1.515
 7385SOL    HW123054   5.116   6.872   1.586
 7385SOL    HW223055   5.142   0.005   1.550
 7386SOL     OW23056   0.351   2.451   5.796
 7386SOL    HW123057   0.418   2.408   5.736
 7386SOL    HW223058   0.365   2.550   5.798
 7387SOL     OW23059   4.109   5.518   3.532
 7387SOL    HW123060   4.133   5.568   3.615
 7387SOL    HW223061   4.165   5.552   3.456
 7388SOL     OW23062   6.785   5.007   4.039
 7388SOL    HW123063   6.705   4.952   4.016
 7388SOL    HW223064   6.819   4.980   4.129
 7389SOL     OW23065   1.323   4.142   6.008
 7389SOL    HW123066   1.370   4.146   6.096
 7389SOL    HW223067   1.280   4.052   5.998
 7390SOL     OW23068   2.345   6.658   5.447
 7390SOL    HW123069   2.298   6.644   5.534
 7390SOL    HW223070   2.416   6.728   5.458
 7391SOL     OW23071   6.691   3.183   0.158
 7391SOL    HW123072   6.718   3.250   0.090
 7391SOL    HW223073   6.699   3.222   0.250
 7392SOL     OW23074   2.487   4.456   3.388
 7392SOL    HW123075   2.440   4.383   3.438
 7392SOL    HW223076   2.560   4.493   3.445
 7393SOL     OW23077   0.396   3.699   1.611
 7393SOL    HW123078   0.337   3.779   1.626
 7393SOL    HW223079   0.446   3.710   1.525
 7394SOL     OW23080   2.980   3.472   6.116
 7394SOL    HW123081   2.910   3.472   6.044
 7394SOL    HW223082   2.936   3.462   6.205
 7395SOL     OW23083   1.559   6.215   0.359
 7395SOL    HW123084   1.619   6.237   0.282
 7395SOL    HW223085   1.501   6.137   0.335
 7396SOL     OW23086   0.866   0.092   0.009
 7396SOL    HW123087   0.871   0.021   0.079
 7396SOL    HW223088   0.772   0.126   0.003
 7397SOL     OW23089   6.153   5.408   4.866
 7397SOL    HW123090   6.064   5.375   4.834
 7397SOL    HW223091   6.226   5.369   4.809
 7398SOL     OW23092   3.991   5.260   3.257
 7398SOL    HW123093   3.916   5.199   3.234
 7398SOL    HW223094   3.955   5.346   3.294
 7399SOL     OW23095   4.841   4.008   5.104
 7399SOL    HW123096   4.850   4.079   5.034
 7399SOL    HW223097   4.898   3.930   5.079
 7400SOL     OW23098   1.878   5.132   6.554
 7400SOL    HW123099   1.851   5.226   6.574
 7400SOL    HW223100   1.946   5.102   6.621
 7401SOL     OW23101   6.353   1.960   4.459
 7401SOL    HW123102   6.385   1.918   4.374
 7401SOL    HW223103   6.430   1.970   4.522
 7402SOL     OW23104   2.313   0.083   3.638
 7402SOL    HW123105   2.346   0.024   3.712
 7402SOL    HW223106   2.325   0.179   3.665
 7403SOL     OW23107   1.971   3.101   1.803
 7403SOL    HW123108   2.028   3.047   1.742
 7403SOL    HW223109   1.875   3.074   1.793
 7404SOL     OW23110   1.067   1.050   2.362
 7404SOL    HW123111   1.079   1.100   2.448
 7404SOL    HW223112   1.155   1.011   2.334
 7405SOL     OW23113   2.575   4.856   6.263
 7405SOL    HW123114   2.623   4.941   6.287
 7405SOL    HW223115   2.642   4.782   6.252
 7406SOL     OW23116   0.199   5.193   1.624
 7406SOL    HW123117   0.126   5.149   1.572
 7406SOL    HW223118   0.203   5.153   1.716
 7407SOL     OW23119   2.119   6.982   6.212
 7407SOL    HW123120   2.164   7.017   6.294
 7407SOL    HW223121   2.024   6.959   6.234
 7408SOL     OW23122   0.863   3.966   5.650
 7408SOL    HW123123   0.875   3.992   5.554
 7408SOL    HW223124   0.951   3.938   5.688
 7409SOL     OW23125   3.130   5.086   5.850
 7409SOL    HW123126   3.062   5.035   5.903
 7409SOL    HW223127   3.088   5.120   5.766
 7410SOL     OW23128   5.983   4.990   0.912
 7410SOL    HW123129   6.066   4.951   0.873
 7410SOL    HW223130   5.912   4.996   0.842
 7411SOL     OW23131   4.758   5.706   5.426
 7411SOL    HW123132   4.836   5.646   5.412
 7411SOL    HW223133   4.680   5.673   5.374
 7412SOL     OW23134   1.007   1.941   0.103
 7412SOL    HW123135   1.020   1.876   0.178
 7412SOL    HW223136   1.003   2.034   0.140
 7413SOL     OW23137   6.506   3.331   4.878
 7413SOL    HW123138   6.557   3.253   4.915
 7413SOL    HW223139   6.568   3.407   4.862
 7414SOL     OW23140   6.411   5.483   2.843
 7414SOL    HW123141   6.502   5.510   2.813
 7414SOL    HW223142   6.387   5.531   2.927
 7415SOL     OW23143   2.006   2.469   2.791
 7415SOL    HW123144   2.102   2.457   2.816
 7415SOL    HW223145   2.000   2.530   2.712
 7416SOL     OW23146   4.982   6.393   4.188
 7416SOL    HW123147   4.984   6.334   4.107
 7416SOL    HW223148   5.046   6.469   4.176
 7417SOL     OW23149   0.703   6.193   0.772
 7417SOL    HW123150   0.628   6.146   0.725
 7417SOL    HW223151   0.776   6.213   0.708
 7418SOL     OW23152   1.764   3.429   0.766
 7418SOL    HW123153   1.726   3.355   0.821
 7418SOL    HW223154   1.756   3.407   0.669
 7419SOL     OW23155   6.581   1.184   5.062
 7419SOL    HW123156   6.551   1.238   4.984
 7419SOL    HW223157   6.525   1.101   5.070
 7420SOL     OW23158   0.213   5.367   1.857
 7420SOL    HW123159   0.205   5.333   1.763
 7420SOL    HW223160   0.125   5.360   1.903
 7421SOL     OW23161   4.106   3.161   1.005
 7421SOL    HW123162   4.132   3.091   1.072
 7421SOL    HW223163   4.007   3.161   0.992
 7422SOL     OW23164   0.770   3.136   0.985
 7422SOL    HW123165   0.760   3.211   0.920
 7422SOL    HW223166   0.830   3.165   1.060
 7423SOL     OW23167   2.052   5.937   0.017
 7423SOL    HW123168   2.030   5.928   6.945
 7423SOL    HW223169   2.066   6.034   0.040
 7424SOL     OW23170   6.031   1.550   4.078
 7424SOL    HW123171   6.065   1.521   3.988
 7424SOL    HW223172   6.033   1.472   4.140
 7425SOL     OW23173   4.064   5.913   5.934
 7425SOL    HW123174   3.979   5.894   5.885
 7425SOL    HW223175   4.128   5.961   5.874
 7426SOL     OW23176   0.929   1.183   6.874
 7426SOL    HW123177   0.978   1.269   6.859
 7426SOL    HW223178   0.986   1.107   6.842
 7427SOL     OW23179   4.409   5.108   4.075
 7427SOL    HW123180   4.430   5.076   4.168
 7427SOL    HW223181   4.318   5.150   4.074
 7428SOL     OW23182   3.124   1.924   5.971
 7428SOL    HW123183   3.162   1.936   5.879
 7428SOL    HW223184   3.198   1.930   6.038
 7429SOL     OW23185   6.272   0.024   3.776
 7429SOL    HW123186   6.321   0.072   3.849
 7429SOL    HW223187   6.257   0.086   3.699
 7430SOL     OW23188   6.801   4.003   5.011
 7430SOL    HW123189   6.796   4.100   4.986
 7430SOL    HW223190   6.896   3.981   5.035
 7431SOL     OW23191   1.046   4.237   2.120
 7431SOL    HW123192   0.946   4.245   2.122
 7431SOL    HW223193   1.075   4.208   2.029
 7432SOL     OW23194   0.747   6.162   5.027
 7432SOL    HW123195   0.821   6.200   4.971
 7432SOL    HW223196   0.743   6.211   5.114
 7433SOL     OW23197   6.106   5.918   0.965
 7433SOL    HW123198   6.160   5.842   0.999
 7433SOL    HW223199   6.070   5.970   1.043
 7434SOL     OW23200   4.424   0.862   6.437
 7434SOL    HW123201   4.331   0.841   6.407
 7434SOL    HW223202   4.442   0.960   6.426
 7435SOL     OW23203   2.299   6.241   0.432
 7435SOL    HW123204   2.299   6.197   0.522
 7435SOL    HW223205   2.324   6.173   0.362
 7436SOL     OW23206   5.147   2.771   0.418
 7436SOL    HW123207   5.156   2.862   0.377
 7436SOL    HW223208   5.165   2.701   0.348
 7437SOL     OW23209   0.290   6.032   5.787
 7437SOL    HW123210   0.256   6.054   5.879
 7437SOL    HW223211   0.218   6.048   5.720
 7438SOL     OW23212   6.352   4.503   1.995
 7438SOL    HW123213   6.445   4.529   2.020
 7438SOL    HW223214   6.297   4.490   2.078
 7439SOL     OW23215   1.326   6.450   3.382
 7439SOL    HW123216   1.274   6.488   3.306
 7439SOL    HW223217   1.263   6.417   3.452
 7440SOL     OW23218   1.360   2.181   3.680
 7440SOL    HW123219   1.339   2.278   3.668
 7440SOL    HW223220   1.458   2.166   3.667
 7441SOL     OW23221   5.110   0.100   4.241
 7441SOL    HW123222   5.129   0.156   4.322
 7441SOL    HW223223   5.011   0.095   4.227
 7442SOL     OW23224   1.616   1.266   6.752
 7442SOL    HW123225   1.634   1.264   6.850
 7442SOL    HW223226   1.702   1.276   6.703
 7443SOL     OW23227   0.133   0.618   0.638
 7443SOL    HW123228   0.054   0.646   0.584
 7443SOL    HW223229   0.215   0.662   0.603
 7444SOL     OW23230   0.376   2.827   6.663
 7444SOL    HW123231   0.475   2.816   6.674
 7444SOL    HW223232   0.339   2.747   6.616
 7445SOL     OW23233   5.400   2.529   1.795
 7445SOL    HW123234   5.336   2.606   1.799
 7445SOL    HW223235   5.376   2.463   1.866
 7446SOL     OW23236   6.645   2.780   1.346
 7446SOL    HW123237   6.700   2.853   1.305
 7446SOL    HW223238   6.551   2.812   1.359
 7447SOL     OW23239   0.907   4.500   5.734
 7447SOL    HW123240   0.844   4.540   5.801
 7447SOL    HW223241   0.924   4.404   5.758
 7448SOL     OW23242   6.800   6.754   5.988
 7448SOL    HW123243   6.873   6.720   6.048
 7448SOL    HW223244   6.774   6.683   5.923
 7449SOL     OW23245   5.107   2.169   2.447
 7449SOL    HW123246   5.185   2.143   2.503
 7449SOL    HW223247   5.023   2.155   2.499
 7450SOL     OW23248   3.329   1.189   3.028
 7450SOL    HW123249   3.401   1.125   3.003
 7450SOL    HW223250   3.240   1.143   3.023
 7451SOL     OW23251   1.816   0.758   3.881
 7451SOL    HW123252   1.819   0.857   3.894
 7451SOL    HW223253   1.728   0.722   3.911
 7452SOL     OW23254   1.827   6.755   5.105
 7452SOL    HW123255   1.832   6.672   5.049
 7452SOL    HW223256   1.919   6.778   5.137
 7453SOL     OW23257   6.269   5.964   4.966
 7453SOL    HW123258   6.343   5.960   5.033
 7453SOL    HW223259   6.238   5.872   4.944
 7454SOL     OW23260   0.601   3.641   0.956
 7454SOL    HW123261   0.569   3.566   1.014
 7454SOL    HW223262   0.599   3.612   0.860
 7455SOL     OW23263   4.794   2.398   0.068
 7455SOL    HW123264   4.872   2.345   0.102
 7455SOL    HW223265   4.725   2.404   0.140
 7456SOL     OW23266   2.107   3.614   4.841
 7456SOL    HW123267   2.071   3.697   4.883
 7456SOL    HW223268   2.081   3.534   4.896
 7457SOL     OW23269   5.750   0.991   5.839
 7457SOL    HW123270   5.817   0.930   5.882
 7457SOL    HW223271   5.795   1.048   5.770
 7458SOL     OW23272   2.660   1.139   0.249
 7458SOL    HW123273   2.568   1.148   0.288
 7458SOL    HW223274   2.658   1.166   0.153
 7459SOL     OW23275   4.561   0.906   4.549
 7459SOL    HW123276   4.621   0.974   4.592
 7459SOL    HW223277   4.492   0.953   4.495
 7460SOL     OW23278   0.588   4.726   6.962
 7460SOL    HW123279   0.640   4.640   6.958
 7460SOL    HW223280   0.503   4.711   7.013
 7461SOL     OW23281   4.816   1.107   4.182
 7461SOL    HW123282   4.854   1.016   4.202
 7461SOL    HW223283   4.864   1.147   4.104
 7462SOL     OW23284   2.465   1.857   2.254
 7462SOL    HW123285   2.494   1.792   2.184
 7462SOL    HW223286   2.490   1.950   2.226
 7463SOL     OW23287   3.591   3.666   2.870
 7463SOL    HW123288   3.572   3.699   2.962
 7463SOL    HW223289   3.658   3.592   2.874
 7464SOL     OW23290   5.594   6.261   0.808
 7464SOL    HW123291   5.577   6.166   0.786
 7464SOL    HW223292   5.576   6.277   0.905
 7465SOL     OW23293   2.849   0.775   1.855
 7465SOL    HW123294   2.827   0.766   1.758
 7465SOL    HW223295   2.818   0.693   1.904
 7466SOL     OW23296   0.824   0.463   6.813
 7466SOL    HW123297   0.755   0.437   6.746
 7466SOL    HW223298   0.903   0.401   6.806
 7467SOL     OW23299   6.798   1.356   1.221
 7467SOL    HW123300   6.771   1.361   1.317
 7467SOL    HW223301   6.853   1.273   1.207
 7468SOL     OW23302   6.608   3.338   3.076
 7468SOL    HW123303   6.606   3.242   3.104
 7468SOL    HW223304   6.634   3.395   3.154
 7469SOL     OW23305   0.339   1.632   2.126
 7469SOL    HW123306   0.436   1.611   2.112
 7469SOL    HW223307   0.322   1.646   2.223
 7470SOL     OW23308   6.687   2.734   2.252
 7470SOL    HW123309   6.722   2.720   2.345
 7470SOL    HW223310   6.737   2.675   2.188
 7471SOL     OW23311   5.999   6.236   5.927
 7471SOL    HW123312   6.037   6.318   5.971
 7471SOL    HW223313   6.056   6.211   5.848
 7472SOL     OW23314   3.310   6.974   2.933
 7472SOL    HW123315   3.314   0.024   2.867
 7472SOL    HW223316   3.402   6.957   2.969
 7473SOL     OW23317   6.673   3.585   4.803
 7473SOL    HW123318   6.619   3.668   4.818
 7473SOL    HW223319   6.749   3.583   4.867
 7474SOL     OW23320   3.757   1.287   3.396
 7474SOL    HW123321   3.852   1.286   3.363
 7474SOL    HW223322   3.725   1.381   3.402
 7475SOL     OW23323   4.047   1.519   0.586
 7475SOL    HW123324   4.068   1.526   0.683
 7475SOL    HW223325   4.113   1.458   0.541
 7476SOL     OW23326   4.188   6.578   4.712
 7476SOL    HW123327   4.098   6.601   4.750
 7476SOL    HW223328   4.197   6.478   4.706
 7477SOL     OW23329   4.568   2.143   4.170
 7477SOL    HW123330   4.553   2.136   4.269
 7477SOL    HW223331   4.602   2.056   4.135
 7478SOL     OW23332   1.398   5.045   0.981
 7478SOL    HW123333   1.325   4.997   0.932
 7478SOL    HW223334   1.469   5.072   0.916
 7479SOL     OW23335   4.842   0.548   6.469
 7479SOL    HW123336   4.771   0.615   6.448
 7479SOL    HW223337   4.802   0.468   6.514
 7480SOL     OW23338   6.870   5.209   0.959
 7480SOL    HW123339   6.891   5.121   1.002
 7480SOL    HW223340   6.953   5.246   0.917
 7481SOL     OW23341   5.897   5.328   0.780
 7481SOL    HW123342   5.994   5.333   0.802
 7481SOL    HW223343   5.884   5.269   0.701
 7482SOL     OW23344   5.307   0.736   4.321
 7482SOL    HW123345   5.255   0.820   4.306
 7482SOL    HW223346   5.370   0.722   4.245
 7483SOL     OW23347   3.539   0.701   6.176
 7483SOL    HW123348   3.525   0.764   6.252
 7483SOL    HW223349   3.637   0.691   6.158
 7484SOL     OW23350   1.756   6.875   2.442
 7484SOL    HW123351   1.784   6.960   2.398
 7484SOL    HW223352   1.712   6.895   2.529
 7485SOL     OW23353   1.975   6.503   6.559
 7485SOL    HW123354   1.879   6.532   6.557
 7485SOL    HW223355   1.990   6.443   6.637
 7486SOL     OW23356   2.516   6.858   5.507
 7486SOL    HW123357   2.530   6.885   5.412
 7486SOL    HW223358   2.604   6.844   5.551
 7487SOL     OW23359   3.843   5.821   3.900
 7487SOL    HW123360   3.794   5.812   3.813
 7487SOL    HW223361   3.888   5.910   3.903
 7488SOL     OW23362   3.770   0.854   5.915
 7488SOL    HW123363   3.744   0.788   5.844
 7488SOL    HW223364   3.697   0.859   5.984
 7489SOL     OW23365   5.693   3.536   3.339
 7489SOL    HW123366   5.712   3.487   3.253
 7489SOL    HW223367   5.777   3.541   3.393
 7490SOL     OW23368   5.778   1.364   1.704
 7490SOL    HW123369   5.694   1.323   1.668
 7490SOL    HW223370   5.844   1.292   1.725
 7491SOL     OW23371   6.568   5.738   6.565
 7491SOL    HW123372   6.572   5.775   6.658
 7491SOL    HW223373   6.656   5.697   6.541
 7492SOL     OW23374   1.621   2.928   4.334
 7492SOL    HW123375   1.613   2.891   4.426
 7492SOL    HW223376   1.601   2.857   4.267
 7493SOL     OW23377   5.088   3.808   6.887
 7493SOL    HW123378   5.149   3.887   6.877
 7493SOL    HW223379   5.142   3.725   6.900
 7494SOL     OW23380   5.501   1.271   1.730
 7494SOL    HW123381   5.488   1.367   1.703
 7494SOL    HW223382   5.421   1.218   1.705
 7495SOL     OW23383   0.967   1.771   1.704
 7495SOL    HW123384   0.983   1.716   1.623
 7495SOL    HW223385   0.903   1.845   1.682
 7496SOL     OW23386   0.840   4.847   5.884
 7496SOL    HW123387   0.763   4.910   5.897
 7496SOL    HW223388   0.812   4.755   5.912
 7497SOL     OW23389   1.911   4.412   1.818
 7497SOL    HW123390   2.002   4.445   1.791
 7497SOL    HW223391   1.904   4.315   1.800
 7498SOL     OW23392   3.645   1.856   4.203
 7498SOL    HW123393   3.590   1.773   4.189
 7498SOL    HW223394   3.717   1.836   4.270
 7499SOL     OW23395   5.075   5.921   4.226
 7499SOL    HW123396   5.039   5.895   4.136
 7499SOL    HW223397   5.115   5.841   4.270
 7500SOL     OW23398   5.203   4.627   1.284
 7500SOL    HW123399   5.246   4.657   1.369
 7500SOL    HW223400   5.209   4.528   1.276
 7501SOL     OW23401   0.312   4.272   4.298
 7501SOL    HW123402   0.372   4.192   4.295
 7501SOL    HW223403   0.234   4.258   4.236
 7502SOL     OW23404   1.889   1.852   4.865
 7502SOL    HW123405   1.894   1.909   4.947
 7502SOL    HW223406   1.981   1.825   4.837
 7503SOL     OW23407   2.541   1.973   6.583
 7503SOL    HW123408   2.523   1.964   6.681
 7503SOL    HW223409   2.596   2.055   6.567
 7504SOL     OW23410   4.034   6.074   3.412
 7504SOL    HW123411   4.022   6.055   3.314
 7504SOL    HW223412   4.112   6.022   3.446
 7505SOL     OW23413   1.582   2.368   5.092
 7505SOL    HW123414   1.554   2.298   5.027
 7505SOL    HW223415   1.611   2.326   5.177
 7506SOL     OW23416   3.429   1.580   3.299
 7506SOL    HW123417   3.404   1.640   3.223
 7506SOL    HW223418   3.365   1.504   3.304
 7507SOL     OW23419   1.234   6.024   5.881
 7507SOL    HW123420   1.263   5.948   5.940
 7507SOL    HW223421   1.134   6.031   5.882
 7508SOL     OW23422   5.333   0.204   3.499
 7508SOL    HW123423   5.351   0.262   3.579
 7508SOL    HW223424   5.386   0.238   3.421
 7509SOL     OW23425   4.694   4.191   5.914
 7509SOL    HW123426   4.731   4.232   5.998
 7509SOL    HW223427   4.753   4.214   5.837
 7510SOL     OW23428   3.577   4.085   4.553
 7510SOL    HW123429   3.670   4.104   4.586
 7510SOL    HW223430   3.514   4.083   4.631
 7511SOL     OW23431   1.106   0.510   2.172
 7511SOL    HW123432   1.049   0.485   2.251
 7511SOL    HW223433   1.100   0.439   2.103
 7512SOL     OW23434   1.842   2.821   1.720
 7512SOL    HW123435   1.851   2.816   1.819
 7512SOL    HW223436   1.771   2.758   1.689
 7513SOL     OW23437   1.255   2.302   6.933
 7513SOL    HW123438   1.165   2.308   6.976
 7513SOL    HW223439   1.246   2.309   6.834
 7514SOL     OW23440   2.561   5.763   2.941
 7514SOL    HW123441   2.599   5.674   2.963
 7514SOL    HW223442   2.616   5.835   2.985
 7515SOL     OW23443   6.261   5.852   2.256
 7515SOL    HW123444   6.314   5.808   2.182
 7515SOL    HW223445   6.290   5.814   2.344
 7516SOL     OW23446   0.366   0.992   3.211
 7516SOL    HW123447   0.392   0.914   3.155
 7516SOL    HW223448   0.392   0.975   3.306
 7517SOL     OW23449   0.491   4.104   1.664
 7517SOL    HW123450   0.422   4.128   1.596
 7517SOL    HW223451   0.467   4.017   1.708
 7518SOL     OW23452   5.051   5.573   3.722
 7518SOL    HW123453   4.975   5.509   3.709
 7518SOL    HW223454   5.123   5.530   3.776
 7519SOL     OW23455   2.437   6.348   3.578
 7519SOL    HW123456   2.398   6.439   3.563
 7519SOL    HW223457   2.525   6.357   3.626
 7520SOL     OW23458   1.646   6.485   4.136
 7520SOL    HW123459   1.561   6.498   4.085
 7520SOL    HW223460   1.661   6.387   4.150
 7521SOL     OW23461   4.658   4.407   5.682
 7521SOL    HW123462   4.754   4.383   5.695
 7521SOL    HW223463   4.622   4.363   5.600
 7522SOL     OW23464   1.914   0.709   1.401
 7522SOL    HW123465   1.964   0.677   1.320
 7522SOL    HW223466   1.922   0.808   1.408
 7523SOL     OW23467   5.666   0.300   6.599
 7523SOL    HW123468   5.655   0.204   6.571
 7523SOL    HW223469   5.728   0.305   6.677
 7524SOL     OW23470   0.319   1.495   4.698
 7524SOL    HW123471   0.362   1.568   4.645
 7524SOL    HW223472   0.270   1.534   4.776
 7525SOL     OW23473   1.381   0.470   0.624
 7525SOL    HW123474   1.384   0.530   0.544
 7525SOL    HW223475   1.361   0.524   0.705
 7526SOL     OW23476   3.823   2.911   4.932
 7526SOL    HW123477   3.874   2.838   4.977
 7526SOL    HW223478   3.819   2.990   4.993
 7527SOL     OW23479   5.485   5.095   3.385
 7527SOL    HW123480   5.474   5.001   3.416
 7527SOL    HW223481   5.515   5.096   3.290
 7528SOL     OW23482   6.570   3.431   6.808
 7528SOL    HW123483   6.636   3.381   6.752
 7528SOL    HW223484   6.502   3.366   6.843
 7529SOL     OW23485   2.803   1.179   6.186
 7529SOL    HW123486   2.823   1.094   6.136
 7529SOL    HW223487   2.736   1.232   6.134
 7530SOL     OW23488   0.628   3.798   2.655
 7530SOL    HW123489   0.632   3.856   2.736
 7530SOL    HW223490   0.678   3.842   2.580
 7531SOL     OW23491   3.771   2.153   3.531
 7531SOL    HW123492   3.685   2.108   3.511
 7531SOL    HW223493   3.836   2.136   3.457
 7532SOL     OW23494   5.316   5.314   2.641
 7532SOL    HW123495   5.238   5.291   2.583
 7532SOL    HW223496   5.308   5.265   2.728
 7533SOL     OW23497   3.812   0.924   4.024
 7533SOL    HW123498   3.721   0.913   4.065
 7533SOL    HW223499   3.828   1.020   4.004
 7534SOL     OW23500   5.258   6.305   4.935
 7534SOL    HW123501   5.313   6.372   4.985
 7534SOL    HW223502   5.169   6.296   4.978
 7535SOL     OW23503   3.149   3.115   6.161
 7535SOL    HW123504   3.204   3.198   6.173
 7535SOL    HW223505   3.183   3.064   6.082
 7536SOL     OW23506   4.247   6.107   3.829
 7536SOL    HW123507   4.279   6.201   3.836
 7536SOL    HW223508   4.293   6.050   3.898
 7537SOL     OW23509   1.695   4.979   5.777
 7537SOL    HW123510   1.658   4.887   5.773
 7537SOL    HW223511   1.760   4.986   5.853
 7538SOL     OW23512   2.992   3.515   2.622
 7538SOL    HW123513   2.965   3.536   2.716
 7538SOL    HW223514   2.994   3.416   2.609
 7539SOL     OW23515   2.072   2.632   4.353
 7539SOL    HW123516   2.063   2.540   4.392
 7539SOL    HW223517   1.981   2.670   4.335
 7540SOL     OW23518   2.021   1.081   6.768
 7540SOL    HW123519   1.970   1.092   6.854
 7540SOL    HW223520   2.118   1.091   6.786
 7541SOL     OW23521   6.681   2.413   5.764
 7541SOL    HW123522   6.584   2.420   5.739
 7541SOL    HW223523   6.712   2.319   5.749
 7542SOL     OW23524   1.280   6.307   6.213
 7542SOL    HW123525   1.361   6.323   6.158
 7542SOL    HW223526   1.284   6.216   6.253
 7543SOL     OW23527   3.759   2.895   0.208
 7543SOL    HW123528   3.846   2.933   0.177
 7543SOL    HW223529   3.712   2.851   0.131
 7544SOL     OW23530   1.807   2.186   2.595
 7544SOL    HW123531   1.837   2.153   2.505
 7544SOL    HW223532   1.833   2.282   2.605
 7545SOL     OW23533   5.427   6.225   4.468
 7545SOL    HW123534   5.525   6.221   4.489
 7545SOL    HW223535   5.377   6.260   4.548
 7546SOL     OW23536   4.969   1.254   6.878
 7546SOL    HW123537   4.899   1.299   6.822
 7546SOL    HW223538   4.977   1.302   6.965
 7547SOL     OW23539   3.485   0.496   0.297
 7547SOL    HW123540   3.401   0.474   0.345
 7547SOL    HW223541   3.473   0.481   0.199
 7548SOL     OW23542   1.581   2.238   1.496
 7548SOL    HW123543   1.570   2.314   1.560
 7548SOL    HW223544   1.556   2.267   1.404
 7549SOL     OW23545   5.421   2.375   2.435
 7549SOL    HW123546   5.455   2.455   2.484
 7549SOL    HW223547   5.418   2.395   2.337
 7550SOL     OW23548   1.645   5.572   1.998
 7550SOL    HW123549   1.608   5.597   1.909
 7550SOL    HW223550   1.577   5.519   2.049
 7551SOL     OW23551   4.967   3.445   6.698
 7551SOL    HW123552   4.878   3.467   6.658
 7551SOL    HW223553   5.029   3.523   6.684
 7552SOL     OW23554   3.426   5.154   3.724
 7552SOL    HW123555   3.431   5.091   3.646
 7552SOL    HW223556   3.336   5.197   3.726
 7553SOL     OW23557   4.388   5.334   6.127
 7553SOL    HW123558   4.462   5.293   6.073
 7553SOL    HW223559   4.334   5.394   6.069
 7554SOL     OW23560   6.598   0.918   1.087
 7554SOL    HW123561   6.667   0.884   1.151
 7554SOL    HW223562   6.571   1.010   1.114
 7555SOL     OW23563   1.151   5.897   5.512
 7555SOL    HW123564   1.136   5.935   5.421
 7555SOL    HW223565   1.249   5.898   5.534
 7556SOL     OW23566   0.837   2.913   5.302
 7556SOL    HW123567   0.743   2.882   5.288
 7556SOL    HW223568   0.873   2.949   5.216
 7557SOL     OW23569   4.643   3.845   0.146
 7557SOL    HW123570   4.696   3.883   0.223
 7557SOL    HW223571   4.706   3.802   0.081
 7558SOL     OW23572   1.333   3.377   3.188
 7558SOL    HW123573   1.256   3.365   3.125
 7558SOL    HW223574   1.416   3.339   3.147
 7559SOL     OW23575   0.452   3.904   1.069
 7559SOL    HW123576   0.466   3.959   0.986
 7559SOL    HW223577   0.484   3.811   1.054
 7560SOL     OW23578   4.891   6.795   0.178
 7560SOL    HW123579   4.974   6.744   0.202
 7560SOL    HW223580   4.836   6.741   0.114
 7561SOL     OW23581   0.094   3.383   0.676
 7561SOL    HW123582   0.120   3.289   0.655
 7561SOL    HW223583   7.018   3.391   0.672
 7562SOL     OW23584   5.822   5.784   5.051
 7562SOL    HW123585   5.825   5.870   5.001
 7562SOL    HW223586   5.788   5.712   4.991
 7563SOL     OW23587   2.426   0.502   2.340
 7563SOL    HW123588   2.381   0.482   2.428
 7563SOL    HW223589   2.376   0.457   2.266
 7564SOL     OW23590   5.236   5.968   3.899
 7564SOL    HW123591   5.137   5.960   3.895
 7564SOL    HW223592   5.262   6.039   3.964
 7565SOL     OW23593   4.911   4.565   0.737
 7565SOL    HW123594   4.899   4.465   0.741
 7565SOL    HW223595   5.008   4.587   0.742
 7566SOL     OW23596   1.409   5.719   3.972
 7566SOL    HW123597   1.433   5.664   3.891
 7566SOL    HW223598   1.455   5.807   3.967
 7567SOL     OW23599   2.779   4.464   0.476
 7567SOL    HW123600   2.867   4.430   0.444
 7567SOL    HW223601   2.793   4.527   0.553
 7568SOL     OW23602   5.108   4.825   3.361
 7568SOL    HW123603   5.147   4.741   3.323
 7568SOL    HW223604   5.144   4.904   3.313
 7569SOL     OW23605   4.480   0.061   1.046
 7569SOL    HW123606   4.523   0.058   0.956
 7569SOL    HW223607   4.494   0.152   1.086
 7570SOL     OW23608   6.176   5.294   4.097
 7570SOL    HW123609   6.102   5.355   4.125
 7570SOL    HW223610   6.154   5.252   4.009
 7571SOL     OW23611   5.389   4.684   2.239
 7571SOL    HW123612   5.451   4.608   2.220
 7571SOL    HW223613   5.442   4.768   2.252
 7572SOL     OW23614   2.612   1.525   4.799
 7572SOL    HW123615   2.692   1.582   4.814
 7572SOL    HW223616   2.592   1.472   4.881
 7573SOL     OW23617   2.386   5.654   4.099
 7573SOL    HW123618   2.380   5.605   4.186
 7573SOL    HW223619   2.471   5.706   4.096
 7574SOL     OW23620   4.914   6.303   3.064
 7574SOL    HW123621   4.968   6.334   3.142
 7574SOL    HW223622   4.975   6.277   2.989
 7575SOL     OW23623   3.526   2.110   4.913
 7575SOL    HW123624   3.609   2.167   4.912
 7575SOL    HW223625   3.538   2.034   4.850
 7576SOL     OW23626   6.466   2.676   0.485
 7576SOL    HW123627   6.548   2.638   0.443
 7576SOL    HW223628   6.467   2.659   0.584
 7577SOL     OW23629   5.920   0.499   4.784
 7577SOL    HW123630   5.920   0.409   4.826
 7577SOL    HW223631   5.878   0.565   4.846
 7578SOL     OW23632   2.166   4.990   4.496
 7578SOL    HW123633   2.225   5.041   4.558
 7578SOL    HW223634   2.182   4.892   4.506
 7579SOL     OW23635   3.847   1.687   2.847
 7579SOL    HW123636   3.815   1.715   2.937
 7579SOL    HW223637   3.860   1.768   2.790
 7580SOL     OW23638   1.797   3.807   2.512
 7580SOL    HW123639   1.793   3.788   2.414
 7580SOL    HW223640   1.705   3.809   2.550
 7581SOL     OW23641   6.182   0.770   1.234
 7581SOL    HW123642   6.093   0.808   1.261
 7581SOL    HW223643   6.255   0.825   1.275
 7582SOL     OW23644   3.186   1.224   0.926
 7582SOL    HW123645   3.250   1.148   0.913
 7582SOL    HW223646   3.142   1.215   1.015
 7583SOL     OW23647   6.156   3.359   2.615
 7583SOL    HW123648   6.255   3.347   2.624
 7583SOL    HW223649   6.120   3.405   2.697
 7584SOL     OW23650   2.461   0.210   1.358
 7584SOL    HW123651   2.439   0.184   1.264
 7584SOL    HW223652   2.496   0.304   1.359
 7585SOL     OW23653   1.825   4.805   6.145
 7585SOL    HW123654   1.787   4.819   6.236
 7585SOL    HW223655   1.924   4.818   6.148
 7586SOL     OW23656   2.660   1.031   2.312
 7586SOL    HW123657   2.591   0.965   2.283
 7586SOL    HW223658   2.731   0.985   2.365
 7587SOL     OW23659   1.174   1.223   5.800
 7587SOL    HW123660   1.232   1.301   5.823
 7587SOL    HW223661   1.090   1.227   5.856
 7588SOL     OW23662   0.249   4.203   2.098
 7588SOL    HW123663   0.262   4.256   2.183
 7588SOL    HW223664   0.267   4.262   2.020
 7589SOL     OW23665   5.770   5.830   1.062
 7589SOL    HW123666   5.817   5.829   0.973
 7589SOL    HW223667   5.780   5.920   1.104
 7590SOL     OW23668   2.103   0.791   6.176
 7590SOL    HW123669   2.075   0.696   6.188
 7590SOL    HW223670   2.164   0.817   6.251
 7591SOL     OW23671   6.537   4.609   0.428
 7591SOL    HW123672   6.632   4.630   0.448
 7591SOL    HW223673   6.525   4.598   0.329
 7592SOL     OW23674   5.312   5.995   0.453
 7592SOL    HW123675   5.260   6.041   0.382
 7592SOL    HW223676   5.406   6.031   0.454
 7593SOL     OW23677   6.208   2.191   6.416
 7593SOL    HW123678   6.209   2.144   6.327
 7593SOL    HW223679   6.274   2.148   6.477
 7594SOL     OW23680   1.271   6.199   3.704
 7594SOL    HW123681   1.242   6.110   3.670
 7594SOL    HW223682   1.272   6.197   3.804
 7595SOL     OW23683   6.273   2.603   6.926
 7595SOL    HW123684   6.281   2.693   6.969
 7595SOL    HW223685   6.195   2.554   6.967
 7596SOL     OW23686   5.589   4.055   1.886
 7596SOL    HW123687   5.592   4.147   1.926
 7596SOL    HW223688   5.497   4.018   1.894
 7597SOL     OW23689   3.667   5.258   1.552
 7597SOL    HW123690   3.609   5.205   1.614
 7597SOL    HW223691   3.686   5.348   1.592
 7598SOL     OW23692   6.914   1.063   3.694
 7598SOL    HW123693   6.997   1.008   3.702
 7598SOL    HW223694   6.937   1.160   3.704
 7599SOL     OW23695   6.408   2.118   2.439
 7599SOL    HW123696   6.358   2.089   2.521
 7599SOL    HW223697   6.409   2.043   2.373
 7600SOL     OW23698   2.098   1.798   1.357
 7600SOL    HW123699   2.067   1.893   1.344
 7600SOL    HW223700   2.124   1.784   1.452
 7601SOL     OW23701   1.977   6.503   4.753
 7601SOL    HW123702   1.947   6.586   4.706
 7601SOL    HW223703   2.076   6.508   4.768
 7602SOL     OW23704   0.784   3.745   4.527
 7602SOL    HW123705   0.812   3.654   4.496
 7602SOL    HW223706   0.865   3.802   4.542
 7603SOL     OW23707   0.850   6.500   1.330
 7603SOL    HW123708   0.929   6.439   1.321
 7603SOL    HW223709   0.872   6.588   1.288
 7604SOL     OW23710   5.013   5.964   5.471
 7604SOL    HW123711   5.076   6.010   5.534
 7604SOL    HW223712   5.038   5.986   5.377
 7605SOL     OW23713   6.393   4.406   6.868
 7605SOL    HW123714   6.428   4.385   6.959
 7605SOL    HW223715   6.308   4.458   6.875
 7606SOL     OW23716   5.774   2.281   2.447
 7606SOL    HW123717   5.675   2.296   2.449
 7606SOL    HW223718   5.815   2.321   2.529
 7607SOL     OW23719   4.611   0.100   6.716
 7607SOL    HW123720   4.528   0.137   6.758
 7607SOL    HW223721   4.587   0.029   6.650
 7608SOL     OW23722   3.476   3.310   3.575
 7608SOL    HW123723   3.481   3.382   3.644
 7608SOL    HW223724   3.556   3.316   3.515
 7609SOL     OW23725   1.506   3.254   4.050
 7609SOL    HW123726   1.518   3.214   4.140
 7609SOL    HW223727   1.580   3.224   3.990
 7610SOL     OW23728   5.854   0.255   1.054
 7610SOL    HW123729   5.864   0.221   0.961
 7610SOL    HW223730   5.777   0.210   1.099
 7611SOL     OW23731   1.467   2.432   0.261
 7611SOL    HW123732   1.542   2.368   0.244
 7611SOL    HW223733   1.441   2.476   0.175
 7612SOL     OW23734   3.480   2.156   3.055
 7612SOL    HW123735   3.440   2.151   3.146
 7612SOL    HW223736   3.580   2.156   3.062
 7613SOL     OW23737   4.921   1.076   2.201
 7613SOL    HW123738   5.010   1.055   2.162
 7613SOL    HW223739   4.857   1.099   2.128
 7614SOL     OW23740   4.225   1.947   0.583
 7614SOL    HW123741   4.154   1.902   0.529
 7614SOL    HW223742   4.192   2.036   0.614
 7615SOL     OW23743   3.424   5.032   5.888
 7615SOL    HW123744   3.449   5.107   5.950
 7615SOL    HW223745   3.330   5.044   5.857
 7616SOL     OW23746   6.424   3.381   3.521
 7616SOL    HW123747   6.508   3.386   3.576
 7616SOL    HW223748   6.390   3.474   3.504
 7617SOL     OW23749   2.999   5.155   3.028
 7617SOL    HW123750   2.926   5.108   3.078
 7617SOL    HW223751   3.001   5.252   3.055
 7618SOL     OW23752   1.968   2.724   6.825
 7618SOL    HW123753   2.046   2.755   6.770
 7618SOL    HW223754   1.968   2.624   6.830
 7619SOL     OW23755   5.204   3.680   5.691
 7619SOL    HW123756   5.241   3.639   5.774
 7619SOL    HW223757   5.104   3.678   5.694
 7620SOL     OW23758   3.478   6.649   1.754
 7620SOL    HW123759   3.438   6.741   1.751
 7620SOL    HW223760   3.575   6.656   1.779
 7621SOL     OW23761   2.212   0.580   1.413
 7621SOL    HW123762   2.276   0.647   1.450
 7621SOL    HW223763   2.230   0.564   1.316
 7622SOL     OW23764   4.047   2.822   0.371
 7622SOL    HW123765   4.041   2.865   0.281
 7622SOL    HW223766   4.104   2.877   0.431
 7623SOL     OW23767   4.720   0.584   5.703
 7623SOL    HW123768   4.813   0.567   5.735
 7623SOL    HW223769   4.722   0.623   5.611
 7624SOL     OW23770   0.577   1.308   3.756
 7624SOL    HW123771   0.671   1.303   3.721
 7624SOL    HW223772   0.579   1.309   3.856
 7625SOL     OW23773   4.967   0.488   1.408
 7625SOL    HW123774   4.971   0.390   1.391
 7625SOL    HW223775   5.054   0.519   1.446
 7626SOL     OW23776   1.785   5.862   4.934
 7626SOL    HW123777   1.875   5.832   4.967
 7626SOL    HW223778   1.780   5.962   4.939
 7627SOL     OW23779   6.842   2.422   1.088
 7627SOL    HW123780   6.800   2.480   1.019
 7627SOL    HW223781   6.860   2.331   1.049
 7628SOL     OW23782   2.887   1.735   0.842
 7628SOL    HW123783   2.835   1.664   0.794
 7628SOL    HW223784   2.953   1.691   0.904
 7629SOL     OW23785   0.181   5.753   3.221
 7629SOL    HW123786   0.167   5.851   3.205
 7629SOL    HW223787   0.277   5.730   3.207
 7630SOL     OW23788   6.207   0.702   2.846
 7630SOL    HW123789   6.142   0.767   2.885
 7630SOL    HW223790   6.244   0.740   2.761
 7631SOL     OW23791   0.477   2.480   3.354
 7631SOL    HW123792   0.511   2.568   3.319
 7631SOL    HW223793   0.490   2.478   3.454
 7632SOL     OW23794   4.666   1.690   0.290
 7632SOL    HW123795   4.694   1.785   0.278
 7632SOL    HW223796   4.719   1.649   0.364
 7633SOL     OW23797   5.262   4.075   6.834
 7633SOL    HW123798   5.202   4.145   6.871
 7633SOL    HW223799   5.290   4.100   6.741
 7634SOL     OW23800   1.566   1.269   2.073
 7634SOL    HW123801   1.572   1.325   2.156
 7634SOL    HW223802   1.654   1.272   2.026
 7635SOL     OW23803   2.906   4.203   5.637
 7635SOL    HW123804   2.893   4.111   5.673
 7635SOL    HW223805   2.997   4.211   5.598
 7636SOL     OW23806   0.884   6.966   4.034
 7636SOL    HW123807   0.920   7.000   4.121
 7636SOL    HW223808   0.878   0.017   3.969
 7637SOL     OW23809   2.035   6.106   4.368
 7637SOL    HW123810   1.938   6.093   4.391
 7637SOL    HW223811   2.066   6.029   4.311
 7638SOL     OW23812   5.178   5.132   2.092
 7638SOL    HW123813   5.213   5.080   2.170
 7638SOL    HW223814   5.149   5.068   2.021
 7639SOL     OW23815   0.959   1.927   5.315
 7639SOL    HW123816   1.022   2.004   5.305
 7639SOL    HW223817   1.012   1.844   5.333
 7640SOL     OW23818   2.346   1.679   0.128
 7640SOL    HW123819   2.386   1.698   0.038
 7640SOL    HW223820   2.409   1.621   0.180
 7641SOL     OW23821   5.440   3.697   1.993
 7641SOL    HW123822   5.449   3.759   1.915
 7641SOL    HW223823   5.354   3.714   2.041
 7642SOL     OW23824   2.514   2.161   2.332
 7642SOL    HW123825   2.566   2.089   2.377
 7642SOL    HW223826   2.574   2.239   2.314
 7643SOL     OW23827   4.841   3.001   3.635
 7643SOL    HW123828   4.909   3.073   3.620
 7643SOL    HW223829   4.820   2.994   3.732
 7644SOL     OW23830   6.952   2.992   2.607
 7644SOL    HW123831   6.876   2.931   2.588
 7644SOL    HW223832   6.934   3.043   2.691
 7645SOL     OW23833   4.281   4.274   6.932
 7645SOL    HW123834   4.318   4.283   0.000
 7645SOL    HW223835   4.229   4.189   6.925
 7646SOL     OW23836   2.353   2.002   1.671
 7646SOL    HW123837   2.391   2.080   1.722
 7646SOL    HW223838   2.356   2.023   1.573
 7647SOL     OW23839   2.707   4.148   1.673
 7647SOL    HW123840   2.622   4.149   1.726
 7647SOL    HW223841   2.756   4.063   1.692
 7648SOL     OW23842   4.008   0.902   3.747
 7648SOL    HW123843   3.939   0.844   3.789
 7648SOL    HW223844   3.972   0.995   3.736
 7649SOL     OW23845   3.121   0.687   1.793
 7649SOL    HW123846   3.032   0.732   1.786
 7649SOL    HW223847   3.187   0.736   1.736
 7650SOL     OW23848   6.224   4.514   2.218
 7650SOL    HW123849   6.277   4.568   2.283
 7650SOL    HW223850   6.134   4.492   2.257
 7651SOL     OW23851   3.722   1.320   6.304
 7651SOL    HW123852   3.679   1.280   6.385
 7651SOL    HW223853   3.689   1.414   6.294
 7652SOL     OW23854   0.659   3.617   2.224
 7652SOL    HW123855   0.621   3.550   2.287
 7652SOL    HW223856   0.597   3.696   2.219
 7653SOL     OW23857   2.794   2.078   1.473
 7653SOL    HW123858   2.794   2.037   1.564
 7653SOL    HW223859   2.888   2.101   1.448
 7654SOL     OW23860   4.904   3.839   3.560
 7654SOL    HW123861   4.958   3.777   3.618
 7654SOL    HW223862   4.886   3.924   3.610
 7655SOL     OW23863   4.187   6.396   5.289
 7655SOL    HW123864   4.254   6.363   5.223
 7655SOL    HW223865   4.234   6.435   5.368
 7656SOL     OW23866   0.585   6.314   5.548
 7656SOL    HW123867   0.584   6.214   5.552
 7656SOL    HW223868   0.677   6.348   5.566
 7657SOL     OW23869   3.566   1.373   3.662
 7657SOL    HW123870   3.549   1.360   3.760
 7657SOL    HW223871   3.491   1.332   3.610
 7658SOL     OW23872   4.133   0.733   5.652
 7658SOL    HW123873   4.100   0.705   5.742
 7658SOL    HW223874   4.074   0.694   5.581
 7659SOL     OW23875   5.783   6.897   0.836
 7659SOL    HW123876   5.696   6.874   0.881
 7659SOL    HW223877   5.767   6.908   0.738
 7660SOL     OW23878   5.776   5.001   4.013
 7660SOL    HW123879   5.721   4.918   4.020
 7660SOL    HW223880   5.722   5.072   3.968
 7661SOL     OW23881   6.538   2.854   3.764
 7661SOL    HW123882   6.540   2.953   3.749
 7661SOL    HW223883   6.535   2.807   3.676
 7662SOL     OW23884   0.196   5.040   1.836
 7662SOL    HW123885   0.256   4.974   1.792
 7662SOL    HW223886   0.101   5.012   1.825
 7663SOL     OW23887   0.165   5.243   6.553
 7663SOL    HW123888   0.069   5.232   6.580
 7663SOL    HW223889   0.178   5.204   6.462
 7664SOL     OW23890   2.456   5.375   3.581
 7664SOL    HW123891   2.514   5.296   3.563
 7664SOL    HW223892   2.440   5.382   3.680
 7665SOL     OW23893   3.401   6.767   4.960
 7665SOL    HW123894   3.474   6.778   5.028
 7665SOL    HW223895   3.396   6.849   4.903
 7666SOL     OW23896   1.103   0.921   1.313
 7666SOL    HW123897   1.147   0.952   1.229
 7666SOL    HW223898   1.138   0.831   1.339
 7667SOL     OW23899   4.342   6.494   6.702
 7667SOL    HW123900   4.364   6.426   6.772
 7667SOL    HW223901   4.243   6.494   6.686
 7668SOL     OW23902   3.530   3.922   1.593
 7668SOL    HW123903   3.619   3.915   1.637
 7668SOL    HW223904   3.540   3.908   1.494
 7669SOL     OW23905   4.966   6.817   4.369
 7669SOL    HW123906   4.912   6.852   4.292
 7669SOL    HW223907   4.972   6.887   4.440
 7670SOL     OW23908   1.507   5.500   0.803
 7670SOL    HW123909   1.450   5.426   0.840
 7670SOL    HW223910   1.511   5.575   0.869
 7671SOL     OW23911   6.124   2.773   4.370
 7671SOL    HW123912   6.091   2.853   4.419
 7671SOL    HW223913   6.147   2.701   4.435
 7672SOL     OW23914   5.592   0.617   2.947
 7672SOL    HW123915   5.535   0.596   3.026
 7672SOL    HW223916   5.549   0.584   2.864
 7673SOL     OW23917   0.889   4.535   1.162
 7673SOL    HW123918   0.927   4.577   1.079
 7673SOL    HW223919   0.802   4.579   1.184
 7674SOL     OW23920   5.843   1.643   4.712
 7674SOL    HW123921   5.916   1.692   4.664
 7674SOL    HW223922   5.870   1.548   4.725
 7675SOL     OW23923   4.533   6.704   2.929
 7675SOL    HW123924   4.485   6.699   3.017
 7675SOL    HW223925   4.618   6.651   2.935
 7676SOL     OW23926   1.631   0.591   0.842
 7676SOL    HW123927   1.716   0.545   0.815
 7676SOL    HW223928   1.624   0.679   0.794
 7677SOL     OW23929   1.599   2.947   2.448
 7677SOL    HW123930   1.673   2.936   2.515
 7677SOL    HW223931   1.577   3.044   2.438
 7678SOL     OW23932   6.202   6.529   0.485
 7678SOL    HW123933   6.260   6.603   0.522
 7678SOL    HW223934   6.106   6.557   0.491
 7679SOL     OW23935   0.880   5.337   5.365
 7679SOL    HW123936   0.907   5.312   5.272
 7679SOL    HW223937   0.938   5.288   5.431
 7680SOL     OW23938   3.638   2.704   0.371
 7680SOL    HW123939   3.617   2.734   0.464
 7680SOL    HW223940   3.694   2.774   0.325
 7681SOL     OW23941   2.787   1.573   0.180
 7681SOL    HW123942   2.824   1.593   0.271
 7681SOL    HW223943   2.739   1.654   0.146
 7682SOL     OW23944   2.826   6.898   1.824
 7682SOL    HW123945   2.779   6.836   1.761
 7682SOL    HW223946   2.878   6.965   1.772
 7683SOL     OW23947   4.850   2.098   3.039
 7683SOL    HW123948   4.799   2.024   2.995
 7683SOL    HW223949   4.893   2.155   2.969
 7684SOL     OW23950   4.267   2.094   5.896
 7684SOL    HW123951   4.267   2.166   5.828
 7684SOL    HW223952   4.200   2.024   5.872
 7685SOL     OW23953   3.147   2.929   0.608
 7685SOL    HW123954   3.182   2.837   0.624
 7685SOL    HW223955   3.080   2.927   0.535
 7686SOL     OW23956   4.126   6.431   3.764
 7686SOL    HW123957   4.115   6.401   3.669
 7686SOL    HW223958   4.223   6.447   3.783
 7687SOL     OW23959   5.700   5.012   5.596
 7687SOL    HW123960   5.731   4.917   5.588
 7687SOL    HW223961   5.725   5.047   5.686
 7688SOL     OW23962   0.425   6.158   4.312
 7688SOL    HW123963   0.405   6.254   4.334
 7688SOL    HW223964   0.392   6.100   4.386
 7689SOL     OW23965   4.468   6.179   4.930
 7689SOL    HW123966   4.549   6.213   4.883
 7689SOL    HW223967   4.476   6.080   4.943
 7690SOL     OW23968   6.731   4.971   3.624
 7690SOL    HW123969   6.800   4.972   3.697
 7690SOL    HW223970   6.773   5.003   3.539
 7691SOL     OW23971   5.354   3.214   4.639
 7691SOL    HW123972   5.353   3.118   4.614
 7691SOL    HW223973   5.302   3.267   4.572
 7692SOL     OW23974   1.736   6.752   2.013
 7692SOL    HW123975   1.798   6.827   1.990
 7692SOL    HW223976   1.748   6.728   2.110
 7693SOL     OW23977   4.511   1.303   6.225
 7693SOL    HW123978   4.559   1.217   6.207
 7693SOL    HW223979   4.578   1.376   6.238
 7694SOL     OW23980   0.139   5.388   4.715
 7694SOL    HW123981   0.124   5.316   4.647
 7694SOL    HW223982   0.062   5.393   4.777
 7695SOL     OW23983   4.219   6.978   0.982
 7695SOL    HW123984   4.162   6.965   1.064
 7695SOL    HW223985   4.302   0.003   1.007
 7696SOL     OW23986   0.191   2.940   5.782
 7696SOL    HW123987   0.159   3.014   5.841
 7696SOL    HW223988   0.284   2.959   5.752
 7697SOL     OW23989   3.084   1.790   2.550
 7697SOL    HW123990   3.150   1.731   2.504
 7697SOL    HW223991   3.126   1.879   2.568
 7698SOL     OW23992   0.071   2.771   6.025
 7698SOL    HW123993   0.088   2.804   6.118
 7698SOL    HW223994   0.150   2.719   5.993
 7699SOL     OW23995   2.281   5.116   6.898
 7699SOL    HW123996   2.310   5.055   6.972
 7699SOL    HW223997   2.226   5.190   6.936
 7700SOL     OW23998   4.986   6.655   4.852
 7700SOL    HW123999   4.926   6.595   4.905
 7700SOL    HW224000   5.041   6.600   4.789
 7701SOL     OW24001   6.793   2.022   4.043
 7701SOL    HW124002   6.812   2.053   3.949
 7701SOL    HW224003   6.747   1.934   4.040
 7702SOL     OW24004   3.327   6.365   5.750
 7702SOL    HW124005   3.255   6.428   5.778
 7702SOL    HW224006   3.292   6.272   5.749
 7703SOL     OW24007   0.922   1.011   5.721
 7703SOL    HW124008   0.852   1.067   5.765
 7703SOL    HW224009   0.948   1.051   5.633
 7704SOL     OW24010   4.388   4.545   6.849
 7704SOL    HW124011   4.385   4.446   6.838
 7704SOL    HW224012   4.483   4.577   6.848
 7705SOL     OW24013   3.490   5.188   5.232
 7705SOL    HW124014   3.555   5.235   5.172
 7705SOL    HW224015   3.525   5.188   5.325
 7706SOL     OW24016   7.024   0.959   5.261
 7706SOL    HW124017   0.027   1.054   5.274
 7706SOL    HW224018   6.932   0.956   5.223
 7707SOL     OW24019   6.960   4.973   6.221
 7707SOL    HW124020   0.009   5.022   6.267
 7707SOL    HW224021   6.872   5.009   6.252
 7708SOL     OW24022   4.683   6.640   4.623
 7708SOL    HW124023   4.649   6.656   4.530
 7708SOL    HW224024   4.782   6.625   4.620
 7709SOL     OW24025   4.272   2.277   2.308
 7709SOL    HW124026   4.177   2.308   2.304
 7709SOL    HW224027   4.309   2.297   2.399
 7710SOL     OW24028   2.203   0.782   0.449
 7710SOL    HW124029   2.227   0.695   0.407
 7710SOL    HW224030   2.281   0.844   0.444
 7711SOL     OW24031   5.593   6.827   5.212
 7711SOL    HW124032   5.644   6.744   5.234
 7711SOL    HW224033   5.501   6.821   5.251
 7712SOL     OW24034   5.636   5.309   1.052
 7712SOL    HW124035   5.730   5.331   1.079
 7712SOL    HW224036   5.637   5.238   0.982
 7713SOL     OW24037   1.495   4.182   6.413
 7713SOL    HW124038   1.446   4.116   6.470
 7713SOL    HW224039   1.430   4.244   6.371
 7714SOL     OW24040   5.934   4.084   3.987
 7714SOL    HW124041   5.861   4.111   4.050
 7714SOL    HW224042   6.022   4.100   4.031
 7715SOL     OW24043   5.119   0.733   1.520
 7715SOL    HW124044   5.087   0.764   1.430
 7715SOL    HW224045   5.044   0.737   1.586
 7716SOL     OW24046   4.515   1.997   3.673
 7716SOL    HW124047   4.474   2.078   3.715
 7716SOL    HW224048   4.611   2.016   3.651
 7717SOL     OW24049   2.778   1.233   5.751
 7717SOL    HW124050   2.717   1.242   5.830
 7717SOL    HW224051   2.725   1.244   5.666
 7718SOL     OW24052   2.866   6.733   3.757
 7718SOL    HW124053   2.942   6.698   3.702
 7718SOL    HW224054   2.832   6.818   3.716
 7719SOL     OW24055   6.970   2.134   4.410
 7719SOL    HW124056   7.003   2.228   4.413
 7719SOL    HW224057   6.904   2.125   4.335
 7720SOL     OW24058   5.658   6.085   1.866
 7720SOL    HW124059   5.732   6.079   1.933
 7720SOL    HW224060   5.692   6.055   1.777
 7721SOL     OW24061   2.077   4.426   2.408
 7721SOL    HW124062   2.059   4.508   2.461
 7721SOL    HW224063   1.995   4.369   2.406
 7722SOL     OW24064   6.624   5.426   3.903
 7722SOL    HW124065   6.548   5.492   3.910
 7722SOL    HW224066   6.597   5.351   3.842
 7723SOL     OW24067   6.333   3.054   0.510
 7723SOL    HW124068   6.396   2.977   0.513
 7723SOL    HW224069   6.384   3.140   0.515
 7724SOL     OW24070   1.284   4.321   1.459
 7724SOL    HW124071   1.270   4.370   1.373
 7724SOL    HW224072   1.328   4.381   1.526
 7725SOL     OW24073   5.750   3.108   4.286
 7725SOL    HW124074   5.759   3.203   4.313
 7725SOL    HW224075   5.700   3.058   4.356
 7726SOL     OW24076   0.209   4.485   2.946
 7726SOL    HW124077   0.260   4.550   2.890
 7726SOL    HW224078   0.233   4.496   3.042
 7727SOL     OW24079   6.356   2.566   2.294
 7727SOL    HW124080   6.268   2.519   2.290
 7727SOL    HW224081   6.414   2.535   2.219
 7728SOL     OW24082   1.918   2.731   3.199
 7728SOL    HW124083   1.912   2.731   3.299
 7728SOL    HW224084   2.004   2.773   3.171
 7729SOL     OW24085   4.660   2.434   0.304
 7729SOL    HW124086   4.711   2.466   0.384
 7729SOL    HW224087   4.578   2.490   0.292
 7730SOL     OW24088   5.315   0.877   2.797
 7730SOL    HW124089   5.232   0.911   2.841
 7730SOL    HW224090   5.320   0.778   2.810
 7731SOL     OW24091   5.984   1.356   6.931
 7731SOL    HW124092   5.998   1.264   6.966
 7731SOL    HW224093   5.934   1.352   6.844
 7732SOL     OW24094   4.195   5.774   0.686
 7732SOL    HW124095   4.258   5.744   0.615
 7732SOL    HW224096   4.238   5.844   0.742
 7733SOL     OW24097   3.551   0.192   2.202
 7733SOL    HW124098   3.576   0.125   2.132
 7733SOL    HW224099   3.581   0.283   2.174
 7734SOL     OW24100   1.852   2.484   3.027
 7734SOL    HW124101   1.906   2.464   2.945
 7734SOL    HW224102   1.894   2.560   3.077
 7735SOL     OW24103   4.615   4.398   0.124
 7735SOL    HW124104   4.561   4.478   0.095
 7735SOL    HW224105   4.672   4.423   0.202
 7736SOL     OW24106   6.549   4.861   6.902
 7736SOL    HW124107   6.595   4.787   6.952
 7736SOL    HW224108   6.589   4.870   6.811
 7737SOL     OW24109   4.514   1.532   0.608
 7737SOL    HW124110   4.560   1.619   0.625
 7737SOL    HW224111   4.572   1.457   0.640
 7738SOL     OW24112   3.232   5.281   6.988
 7738SOL    HW124113   3.219   5.211   6.919
 7738SOL    HW224114   3.208   5.371   6.950
 7739SOL     OW24115   5.939   2.286   0.652
 7739SOL    HW124116   5.913   2.223   0.578
 7739SOL    HW224117   5.949   2.378   0.615
 7740SOL     OW24118   0.405   0.021   3.206
 7740SOL    HW124119   0.326   0.018   3.267
 7740SOL    HW224120   0.473   6.979   3.237
 7741SOL     OW24121   2.417   5.677   4.419
 7741SOL    HW124122   2.433   5.585   4.385
 7741SOL    HW224123   2.365   5.673   4.505
 7742SOL     OW24124   6.587   1.689   3.592
 7742SOL    HW124125   6.643   1.667   3.512
 7742SOL    HW224126   6.556   1.604   3.634
 7743SOL     OW24127   4.163   2.275   4.217
 7743SOL    HW124128   4.112   2.202   4.173
 7743SOL    HW224129   4.244   2.297   4.162
 7744SOL     OW24130   6.574   0.464   4.365
 7744SOL    HW124131   6.648   0.524   4.335
 7744SOL    HW224132   6.493   0.519   4.385
 7745SOL     OW24133   4.321   3.324   6.240
 7745SOL    HW124134   4.261   3.256   6.197
 7745SOL    HW224135   4.267   3.403   6.268
 7746SOL     OW24136   1.296   1.014   0.803
 7746SOL    HW124137   1.262   1.107   0.789
 7746SOL    HW224138   1.391   1.008   0.774
 7747SOL     OW24139   4.923   6.425   0.900
 7747SOL    HW124140   5.021   6.412   0.885
 7747SOL    HW224141   4.908   6.464   0.991
 7748SOL     OW24142   2.771   4.340   6.795
 7748SOL    HW124143   2.846   4.281   6.766
 7748SOL    HW224144   2.721   4.298   6.871
 7749SOL     OW24145   5.209   2.850   5.498
 7749SOL    HW124146   5.262   2.922   5.454
 7749SOL    HW224147   5.206   2.867   5.597
 7750SOL     OW24148   6.757   5.496   2.204
 7750SOL    HW124149   6.693   5.550   2.257
 7750SOL    HW224150   6.788   5.549   2.125
 7751SOL     OW24151   0.869   2.919   2.416
 7751SOL    HW124152   0.892   2.956   2.506
 7751SOL    HW224153   0.771   2.898   2.413
 7752SOL     OW24154   4.491   1.755   3.783
 7752SOL    HW124155   4.528   1.842   3.750
 7752SOL    HW224156   4.461   1.700   3.705
 7753SOL     OW24157   3.137   1.495   4.696
 7753SOL    HW124158   3.067   1.566   4.704
 7753SOL    HW224159   3.131   1.433   4.774
 7754SOL     OW24160   4.638   6.185   1.696
 7754SOL    HW124161   4.604   6.164   1.787
 7754SOL    HW224162   4.638   6.103   1.640
 7755SOL     OW24163   0.249   4.561   6.016
 7755SOL    HW124164   0.216   4.524   6.103
 7755SOL    HW224165   0.228   4.496   5.942
 7756SOL     OW24166   2.531   5.409   1.782
 7756SOL    HW124167   2.604   5.416   1.714
 7756SOL    HW224168   2.462   5.479   1.765
 7757SOL     OW24169   6.946   4.267   2.424
 7757SOL    HW124170   6.917   4.268   2.328
 7757SOL    HW224171   0.021   4.271   2.429
 7758SOL     OW24172   1.367   1.663   4.933
 7758SOL    HW124173   1.461   1.694   4.914
 7758SOL    HW224174   1.349   1.578   4.884
 7759SOL     OW24175   2.541   2.489   6.963
 7759SOL    HW124176   2.581   2.568   6.916
 7759SOL    HW224177   2.614   2.439   7.010
 7760SOL     OW24178   3.834   2.676   6.963
 7760SOL    HW124179   3.929   2.659   6.990
 7760SOL    HW224180   3.831   2.700   6.866
 7761SOL     OW24181   4.738   5.389   4.024
 7761SOL    HW124182   4.789   5.405   4.109
 7761SOL    HW224183   4.723   5.475   3.977
 7762SOL     OW24184   5.971   1.905   2.715
 7762SOL    HW124185   5.911   1.906   2.794
 7762SOL    HW224186   5.918   1.924   2.632
 7763SOL     OW24187   2.431   0.149   4.348
 7763SOL    HW124188   2.494   0.074   4.367
 7763SOL    HW224189   2.471   0.235   4.379
 7764SOL     OW24190   2.550   3.959   5.636
 7764SOL    HW124191   2.503   3.921   5.556
 7764SOL    HW224192   2.485   3.973   5.710
 7765SOL     OW24193   6.285   3.188   5.720
 7765SOL    HW124194   6.367   3.211   5.773
 7765SOL    HW224195   6.213   3.255   5.739
 7766SOL     OW24196   5.642   4.191   6.072
 7766SOL    HW124197   5.595   4.123   6.129
 7766SOL    HW224198   5.685   4.144   5.995
 7767SOL     OW24199   3.542   0.095   4.093
 7767SOL    HW124200   3.462   0.156   4.097
 7767SOL    HW224201   3.615   0.133   4.149
 7768SOL     OW24202   4.597   4.965   3.310
 7768SOL    HW124203   4.682   4.922   3.340
 7768SOL    HW224204   4.611   5.007   3.220
 7769SOL     OW24205   3.743   3.055   5.388
 7769SOL    HW124206   3.648   3.084   5.397
 7769SOL    HW224207   3.758   2.973   5.443
 7770SOL     OW24208   2.117   3.234   4.391
 7770SOL    HW124209   2.158   3.325   4.401
 7770SOL    HW224210   2.121   3.186   4.479
 7771SOL     OW24211   2.432   2.872   5.949
 7771SOL    HW124212   2.489   2.854   5.869
 7771SOL    HW224213   2.489   2.897   6.027
 7772SOL     OW24214   5.135   6.659   1.695
 7772SOL    HW124215   5.196   6.610   1.758
 7772SOL    HW224216   5.043   6.664   1.736
 7773SOL     OW24217   3.065   6.148   6.790
 7773SOL    HW124218   2.997   6.170   6.861
 7773SOL    HW224219   3.053   6.210   6.713
 7774SOL     OW24220   4.698   1.626   2.186
 7774SOL    HW124221   4.725   1.531   2.199
 7774SOL    HW224222   4.667   1.639   2.092
 7775SOL     OW24223   2.380   1.205   0.254
 7775SOL    HW124224   2.289   1.210   0.294
 7775SOL    HW224225   2.378   1.146   0.173
 7776SOL     OW24226   1.614   1.486   4.721
 7776SOL    HW124227   1.674   1.429   4.777
 7776SOL    HW224228   1.625   1.582   4.747
 7777SOL     OW24229   6.469   5.299   4.154
 7777SOL    HW124230   6.514   5.321   4.068
 7777SOL    HW224231   6.370   5.302   4.141
 7778SOL     OW24232   0.031   4.860   2.666
 7778SOL    HW124233   0.017   4.796   2.742
 7778SOL    HW224234   6.996   4.835   2.590
 7779SOL     OW24235   4.363   6.039   2.534
 7779SOL    HW124236   4.450   5.992   2.522
 7779SOL    HW224237   4.333   6.030   2.629
 7780SOL     OW24238   6.219   6.463   4.973
 7780SOL    HW124239   6.213   6.489   5.069
 7780SOL    HW224240   6.270   6.533   4.922
 7781SOL     OW24241   1.265   2.765   1.022
 7781SOL    HW124242   1.247   2.786   0.926
 7781SOL    HW224243   1.201   2.817   1.080
 7782SOL     OW24244   5.998   2.777   4.119
 7782SOL    HW124245   6.052   2.820   4.046
 7782SOL    HW224246   6.024   2.816   4.207
 7783SOL     OW24247   1.414   6.781   5.156
 7783SOL    HW124248   1.376   6.765   5.248
 7783SOL    HW224249   1.491   6.720   5.141
 7784SOL     OW24250   2.002   2.002   1.691
 7784SOL    HW124251   1.925   1.981   1.631
 7784SOL    HW224252   2.061   1.922   1.699
 7785SOL     OW24253   0.370   6.920   2.931
 7785SOL    HW124254   0.387   6.920   3.030
 7785SOL    HW224255   0.375   6.826   2.896
 7786SOL     OW24256   3.851   1.264   5.527
 7786SOL    HW124257   3.839   1.332   5.600
 7786SOL    HW224258   3.947   1.263   5.498
 7787SOL     OW24259   2.552   2.572   1.774
 7787SOL    HW124260   2.467   2.554   1.724
 7787SOL    HW224261   2.566   2.500   1.842
 7788SOL     OW24262   6.728   4.596   1.406
 7788SOL    HW124263   6.643   4.569   1.361
 7788SOL    HW224264   6.721   4.690   1.438
 7789SOL     OW24265   2.958   1.618   5.832
 7789SOL    HW124266   3.003   1.631   5.743
 7789SOL    HW224267   2.910   1.702   5.857
 7790SOL     OW24268   4.399   4.467   1.755
 7790SOL    HW124269   4.473   4.510   1.807
 7790SOL    HW224270   4.391   4.371   1.782
 7791SOL     OW24271   2.485   4.956   2.266
 7791SOL    HW124272   2.411   4.903   2.306
 7791SOL    HW224273   2.545   4.991   2.338
 7792SOL     OW24274   0.444   1.720   2.525
 7792SOL    HW124275   0.542   1.706   2.533
 7792SOL    HW224276   0.426   1.806   2.477
 7793SOL     OW24277   4.892   0.715   6.726
 7793SOL    HW124278   4.882   0.696   6.629
 7793SOL    HW224279   4.987   0.703   6.753
 7794SOL     OW24280   0.610   6.863   3.284
 7794SOL    HW124281   0.655   6.788   3.235
 7794SOL    HW224282   0.600   6.838   3.380
 7795SOL     OW24283   2.857   5.460   0.335
 7795SOL    HW124284   2.821   5.413   0.255
 7795SOL    HW224285   2.957   5.451   0.337
 7796SOL     OW24286   3.446   3.614   6.974
 7796SOL    HW124287   3.520   3.550   6.957
 7796SOL    HW224288   3.363   3.564   7.000
 7797SOL     OW24289   0.544   6.100   3.006
 7797SOL    HW124290   0.525   6.013   2.962
 7797SOL    HW224291   0.467   6.162   2.991
 7798SOL     OW24292   1.399   3.409   0.724
 7798SOL    HW124293   1.431   3.408   0.819
 7798SOL    HW224294   1.345   3.492   0.708
 7799SOL     OW24295   2.544   6.160   3.131
 7799SOL    HW124296   2.533   6.239   3.191
 7799SOL    HW224297   2.453   6.124   3.105
 7800SOL     OW24298   0.205   6.212   2.321
 7800SOL    HW124299   0.206   6.309   2.297
 7800SOL    HW224300   0.275   6.164   2.269
 7801SOL     OW24301   1.583   1.986   1.707
 7801SOL    HW124302   1.647   2.001   1.631
 7801SOL    HW224303   1.491   2.008   1.677
 7802SOL     OW24304   6.739   4.032   4.665
 7802SOL    HW124305   6.641   4.014   4.657
 7802SOL    HW224306   6.791   3.960   4.619
 7803SOL     OW24307   3.557   2.550   5.741
 7803SOL    HW124308   3.549   2.510   5.650
 7803SOL    HW224309   3.580   2.647   5.733
 7804SOL     OW24310   3.333   1.768   5.111
 7804SOL    HW124311   3.249   1.821   5.099
 7804SOL    HW224312   3.337   1.696   5.042
 7805SOL     OW24313   4.767   3.219   0.483
 7805SOL    HW124314   4.702   3.267   0.424
 7805SOL    HW224315   4.729   3.131   0.509
 7806SOL     OW24316   6.453   1.529   5.743
 7806SOL    HW124317   6.462   1.434   5.715
 7806SOL    HW224318   6.544   1.569   5.755
 7807SOL     OW24319   1.607   4.684   5.766
 7807SOL    HW124320   1.567   4.706   5.855
 7807SOL    HW224321   1.536   4.683   5.697
 7808SOL     OW24322   6.165   3.746   2.848
 7808SOL    HW124323   6.086   3.771   2.905
 7808SOL    HW224324   6.143   3.761   2.752
 7809SOL     OW24325   4.879   5.237   2.330
 7809SOL    HW124326   4.802   5.297   2.353
 7809SOL    HW224327   4.874   5.211   2.234
 7810SOL     OW24328   3.711   6.424   5.919
 7810SOL    HW124329   3.768   6.374   5.855
 7810SOL    HW224330   3.740   6.404   6.013
 7811SOL     OW24331   1.802   6.633   2.828
 7811SOL    HW124332   1.809   6.575   2.910
 7811SOL    HW224333   1.890   6.677   2.811
 7812SOL     OW24334   3.149   1.573   6.112
 7812SOL    HW124335   3.144   1.522   6.197
 7812SOL    HW224336   3.067   1.629   6.102
 7813SOL     OW24337   5.578   0.300   0.420
 7813SOL    HW124338   5.484   0.268   0.413
 7813SOL    HW224339   5.581   0.380   0.480
 7814SOL     OW24340   6.497   2.600   1.749
 7814SOL    HW124341   6.538   2.566   1.665
 7814SOL    HW224342   6.439   2.529   1.789
 7815SOL     OW24343   5.397   4.157   5.406
 7815SOL    HW124344   5.379   4.075   5.461
 7815SOL    HW224345   5.384   4.238   5.462
 7816SOL     OW24346   0.741   0.695   5.601
 7816SOL    HW124347   0.773   0.611   5.646
 7816SOL    HW224348   0.719   0.763   5.671
 7817SOL     OW24349   3.374   2.984   6.836
 7817SOL    HW124350   3.378   3.024   6.928
 7817SOL    HW224351   3.358   2.886   6.843
 7818SOL     OW24352   5.540   0.228   4.439
 7818SOL    HW124353   5.470   0.297   4.422
 7818SOL    HW224354   5.631   0.269   4.426
 7819SOL     OW24355   1.201   3.505   4.251
 7819SOL    HW124356   1.120   3.527   4.196
 7819SOL    HW224357   1.281   3.499   4.191
 7820SOL     OW24358   1.588   6.906   5.740
 7820SOL    HW124359   1.545   6.819   5.721
 7820SOL    HW224360   1.688   6.897   5.731
 7821SOL     OW24361   4.774   6.605   0.004
 7821SOL    HW124362   4.747   6.522   0.053
 7821SOL    HW224363   4.700   6.634   6.968
 7822SOL     OW24364   0.481   1.345   5.149
 7822SOL    HW124365   0.536   1.265   5.176
 7822SOL    HW224366   0.483   1.355   5.050
 7823SOL     OW24367   2.414   3.369   5.327
 7823SOL    HW124368   2.348   3.349   5.399
 7823SOL    HW224369   2.502   3.326   5.349
 7824SOL     OW24370   5.467   3.112   3.098
 7824SOL    HW124371   5.406   3.170   3.151
 7824SOL    HW224372   5.555   3.105   3.145
 7825SOL     OW24373   3.846   3.498   2.326
 7825SOL    HW124374   3.781   3.531   2.258
 7825SOL    HW224375   3.938   3.529   2.303
 7826SOL     OW24376   6.307   6.760   1.137
 7826SOL    HW124377   6.287   6.846   1.091
 7826SOL    HW224378   6.282   6.684   1.078
 7827SOL     OW24379   4.927   3.732   0.578
 7827SOL    HW124380   4.962   3.639   0.590
 7827SOL    HW224381   4.945   3.786   0.660
 7828SOL     OW24382   0.552   5.724   0.587
 7828SOL    HW124383   0.639   5.682   0.558
 7828SOL    HW224384   0.521   5.788   0.517
 7829SOL     OW24385   4.063   3.408   2.523
 7829SOL    HW124386   4.113   3.414   2.437
 7829SOL    HW224387   4.075   3.317   2.562
 7830SOL     OW24388   5.865   3.009   6.723
 7830SOL    HW124389   5.924   2.935   6.692
 7830SOL    HW224390   5.907   3.055   6.801
 7831SOL     OW24391   1.725   2.756   6.688
 7831SOL    HW124392   1.758   2.760   6.593
 7831SOL    HW224393   1.802   2.736   6.749
 7832SOL     OW24394   2.672   2.591   5.397
 7832SOL    HW124395   2.683   2.582   5.496
 7832SOL    HW224396   2.608   2.664   5.377
 7833SOL     OW24397   1.476   6.790   0.753
 7833SOL    HW124398   1.400   6.855   0.757
 7833SOL    HW224399   1.548   6.827   0.695
 7834SOL     OW24400   0.247   0.247   1.172
 7834SOL    HW124401   0.205   0.199   1.094
 7834SOL    HW224402   0.179   0.259   1.244
 7835SOL     OW24403   2.121   2.714   4.992
 7835SOL    HW124404   2.028   2.679   4.993
 7835SOL    HW224405   2.178   2.659   5.054
 7836SOL     OW24406   2.402   0.290   0.009
 7836SOL    HW124407   2.397   0.195   0.040
 7836SOL    HW224408   2.310   0.330   0.005
 7837SOL     OW24409   6.026   0.590   3.773
 7837SOL    HW124410   5.959   0.522   3.803
 7837SOL    HW224411   5.985   0.681   3.774
 7838SOL     OW24412   3.727   6.776   3.474
 7838SOL    HW124413   3.665   6.752   3.548
 7838SOL    HW224414   3.719   6.708   3.401
 7839SOL     OW24415   6.620   5.199   4.593
 7839SOL    HW124416   6.529   5.237   4.612
 7839SOL    HW224417   6.658   5.241   4.511
 7840SOL     OW24418   5.139   3.243   5.865
 7840SOL    HW124419   5.090   3.291   5.793
 7840SOL    HW224420   5.076   3.222   5.940
 7841SOL     OW24421   1.104   1.619   6.570
 7841SOL    HW124422   1.196   1.581   6.561
 7841SOL    HW224423   1.052   1.602   6.487
 7842SOL     OW24424   3.119   1.265   2.719
 7842SOL    HW124425   3.080   1.299   2.634
 7842SOL    HW224426   3.082   1.173   2.739
 7843SOL     OW24427   5.958   3.734   1.190
 7843SOL    HW124428   6.055   3.713   1.198
 7843SOL    HW224429   5.928   3.787   1.270
 7844SOL     OW24430   4.456   1.513   4.424
 7844SOL    HW124431   4.359   1.497   4.408
 7844SOL    HW224432   4.500   1.543   4.339
 7845SOL     OW24433   0.816   1.049   4.200
 7845SOL    HW124434   0.874   0.992   4.142
 7845SOL    HW224435   0.850   1.143   4.201
 7846SOL     OW24436   3.924   0.337   1.945
 7846SOL    HW124437   3.911   0.360   2.042
 7846SOL    HW224438   4.012   0.290   1.934
 7847SOL     OW24439   6.830   0.560   0.003
 7847SOL    HW124440   6.917   0.594   0.037
 7847SOL    HW224441   6.762   0.563   0.077
 7848SOL     OW24442   4.910   4.363   0.392
 7848SOL    HW124443   4.929   4.326   0.483
 7848SOL    HW224444   4.987   4.343   0.331
 7849SOL     OW24445   5.460   4.324   5.202
 7849SOL    HW124446   5.449   4.250   5.268
 7849SOL    HW224447   5.371   4.367   5.186
 7850SOL     OW24448   0.960   0.828   4.402
 7850SOL    HW124449   1.029   0.897   4.379
 7850SOL    HW224450   0.881   0.872   4.443
 7851SOL     OW24451   5.263   6.683   0.228
 7851SOL    HW124452   5.192   6.675   0.297
 7851SOL    HW224453   5.254   6.609   0.162
 7852SOL     OW24454   2.622   6.187   6.276
 7852SOL    HW124455   2.610   6.090   6.255
 7852SOL    HW224456   2.538   6.222   6.318
 7853SOL     OW24457   2.384   2.853   0.800
 7853SOL    HW124458   2.448   2.895   0.864
 7853SOL    HW224459   2.427   2.775   0.755
 7854SOL     OW24460   3.730   4.089   2.520
 7854SOL    HW124461   3.789   4.011   2.503
 7854SOL    HW224462   3.780   4.174   2.504
 7855SOL     OW24463   3.545   6.799   5.712
 7855SOL    HW124464   3.462   6.847   5.742
 7855SOL    HW224465   3.541   6.704   5.743
 7856SOL     OW24466   4.923   3.078   6.319
 7856SOL    HW124467   4.826   3.075   6.342
 7856SOL    HW224468   4.973   3.129   6.389
 7857SOL     OW24469   0.728   1.468   4.778
 7857SOL    HW124470   0.684   1.545   4.732
 7857SOL    HW224471   0.776   1.500   4.859
 7858SOL     OW24472   6.484   4.117   3.588
 7858SOL    HW124473   6.398   4.104   3.638
 7858SOL    HW224474   6.490   4.048   3.516
 7859SOL     OW24475   0.859   5.788   6.543
 7859SOL    HW124476   0.925   5.735   6.490
 7859SOL    HW224477   0.901   5.874   6.573
 7860SOL     OW24478   3.291   0.031   2.252
 7860SOL    HW124479   3.358   0.104   2.239
 7860SOL    HW224480   3.336   6.976   2.294
 7861SOL     OW24481   5.628   3.923   0.378
 7861SOL    HW124482   5.641   3.920   0.278
 7861SOL    HW224483   5.714   3.900   0.423
 7862SOL     OW24484   3.124   4.558   1.681
 7862SOL    HW124485   3.093   4.551   1.587
 7862SOL    HW224486   3.049   4.537   1.743
 7863SOL     OW24487   6.858   5.996   2.023
 7863SOL    HW124488   6.875   6.023   2.118
 7863SOL    HW224489   6.934   6.026   1.966
 7864SOL     OW24490   0.753   5.096   4.367
 7864SOL    HW124491   0.822   5.058   4.306
 7864SOL    HW224492   0.675   5.033   4.373
 7865SOL     OW24493   2.845   0.472   2.495
 7865SOL    HW124494   2.897   0.553   2.522
 7865SOL    HW224495   2.753   0.500   2.467
 7866SOL     OW24496   2.534   2.548   4.116
 7866SOL    HW124497   2.539   2.573   4.213
 7866SOL    HW224498   2.624   2.523   4.082
 7867SOL     OW24499   5.724   5.082   2.494
 7867SOL    HW124500   5.638   5.132   2.478
 7867SOL    HW224501   5.707   5.006   2.558
 7868SOL     OW24502   5.649   0.313   0.835
 7868SOL    HW124503   5.561   0.349   0.803
 7868SOL    HW224504   5.634   0.236   0.897
 7869SOL     OW24505   0.484   2.987   1.891
 7869SOL    HW124506   0.481   3.084   1.912
 7869SOL    HW224507   0.412   2.939   1.943
 7870SOL     OW24508   0.122   6.287   3.757
 7870SOL    HW124509   0.028   6.255   3.745
 7870SOL    HW224510   0.130   6.337   3.843
 7871SOL     OW24511   5.338   3.438   3.605
 7871SOL    HW124512   5.433   3.464   3.589
 7871SOL    HW224513   5.333   3.374   3.681
 7872SOL     OW24514   6.556   3.110   3.685
 7872SOL    HW124515   6.652   3.109   3.713
 7872SOL    HW224516   6.549   3.145   3.592
 7873SOL     OW24517   0.172   5.075   5.031
 7873SOL    HW124518   0.086   5.109   5.068
 7873SOL    HW224519   0.235   5.151   5.015
 7874SOL     OW24520   5.938   0.478   0.257
 7874SOL    HW124521   5.843   0.463   0.284
 7874SOL    HW224522   5.983   0.534   0.327
 7875SOL     OW24523   4.204   3.156   6.464
 7875SOL    HW124524   4.232   3.210   6.544
 7875SOL    HW224525   4.223   3.207   6.381
 7876SOL     OW24526   6.926   0.210   3.888
 7876SOL    HW124527   6.949   0.150   3.964
 7876SOL    HW224528   6.848   0.268   3.914
 7877SOL     OW24529   6.933   2.310   2.122
 7877SOL    HW124530   6.894   2.221   2.145
 7877SOL    HW224531   7.012   2.297   2.063
 7878SOL     OW24532   4.718   3.956   1.760
 7878SOL    HW124533   4.644   4.024   1.755
 7878SOL    HW224534   4.741   3.938   1.855
 7879SOL     OW24535   5.811   0.640   4.982
 7879SOL    HW124536   5.735   0.705   4.972
 7879SOL    HW224537   5.859   0.658   5.067
 7880SOL     OW24538   0.861   0.078   6.307
 7880SOL    HW124539   0.764   0.099   6.289
 7880SOL    HW224540   0.868   7.011   6.345
 7881SOL     OW24541   0.221   5.001   4.242
 7881SOL    HW124542   0.311   5.032   4.209
 7881SOL    HW224543   0.153   5.072   4.225
 7882SOL     OW24544   0.570   4.088   2.463
 7882SOL    HW124545   0.484   4.071   2.414
 7882SOL    HW224546   0.647   4.073   2.401
 7883SOL     OW24547   3.500   1.176   4.206
 7883SOL    HW124548   3.537   1.228   4.283
 7883SOL    HW224549   3.406   1.205   4.187
 7884SOL     OW24550   0.934   3.516   4.471
 7884SOL    HW124551   1.023   3.542   4.433
 7884SOL    HW224552   0.947   3.480   4.563
 7885SOL     OW24553   6.335   5.356   3.735
 7885SOL    HW124554   6.305   5.370   3.640
 7885SOL    HW224555   6.337   5.443   3.783
 7886SOL     OW24556   5.030   3.405   3.754
 7886SOL    HW124557   4.978   3.436   3.674
 7886SOL    HW224558   5.096   3.335   3.725
 7887SOL     OW24559   2.439   3.219   0.782
 7887SOL    HW124560   2.397   3.199   0.694
 7887SOL    HW224561   2.502   3.296   0.771
 7888SOL     OW24562   6.418   2.233   4.332
 7888SOL    HW124563   6.406   2.158   4.398
 7888SOL    HW224564   6.477   2.303   4.372
 7889SOL     OW24565   5.783   5.440   0.169
 7889SOL    HW124566   5.869   5.388   0.174
 7889SOL    HW224567   5.711   5.382   0.133
 7890SOL     OW24568   1.774   3.651   3.975
 7890SOL    HW124569   1.727   3.586   3.914
 7890SOL    HW224570   1.716   3.731   3.989
 7891SOL     OW24571   6.623   1.867   3.844
 7891SOL    HW124572   6.669   1.954   3.826
 7891SOL    HW224573   6.566   1.843   3.765
 7892SOL     OW24574   0.204   1.687   5.710
 7892SOL    HW124575   0.301   1.663   5.701
 7892SOL    HW224576   0.186   1.772   5.660
 7893SOL     OW24577   6.099   0.077   0.497
 7893SOL    HW124578   6.001   0.097   0.503
 7893SOL    HW224579   6.133   0.103   0.406
 7894SOL     OW24580   3.150   1.725   6.499
 7894SOL    HW124581   3.079   1.657   6.483
 7894SOL    HW224582   3.110   1.817   6.492
 7895SOL     OW24583   4.817   6.436   3.497
 7895SOL    HW124584   4.822   6.439   3.597
 7895SOL    HW224585   4.759   6.511   3.465
 7896SOL     OW24586   2.867   2.628   0.989
 7896SOL    HW124587   2.906   2.606   0.900
 7896SOL    HW224588   2.768   2.609   0.988
 7897SOL     OW24589   3.207   3.484   0.340
 7897SOL    HW124590   3.304   3.465   0.361
 7897SOL    HW224591   3.150   3.417   0.388
 7898SOL     OW24592   5.745   6.938   3.561
 7898SOL    HW124593   5.740   6.844   3.594
 7898SOL    HW224594   5.828   6.982   3.596
 7899SOL     OW24595   6.120   5.034   3.480
 7899SOL    HW124596   6.102   5.132   3.470
 7899SOL    HW224597   6.045   4.992   3.531
 7900SOL     OW24598   0.767   4.430   1.645
 7900SOL    HW124599   0.732   4.487   1.719
 7900SOL    HW224600   0.862   4.404   1.665
 7901SOL     OW24601   6.632   1.483   6.322
 7901SOL    HW124602   6.618   1.429   6.239
 7901SOL    HW224603   6.611   1.579   6.305
 7902SOL     OW24604   1.094   6.334   2.517
 7902SOL    HW124605   1.178   6.368   2.560
 7902SOL    HW224606   1.024   6.404   2.521
 7903SOL     OW24607   2.955   2.162   4.832
 7903SOL    HW124608   3.039   2.198   4.872
 7903SOL    HW224609   2.910   2.233   4.778
 7904SOL     OW24610   5.011   1.262   1.987
 7904SOL    HW124611   4.917   1.239   2.011
 7904SOL    HW224612   5.072   1.240   2.063
 7905SOL     OW24613   5.872   0.880   1.379
 7905SOL    HW124614   5.796   0.941   1.402
 7905SOL    HW224615   5.868   0.858   1.281
 7906SOL     OW24616   1.884   5.537   0.476
 7906SOL    HW124617   1.823   5.498   0.545
 7906SOL    HW224618   1.976   5.498   0.487
 7907SOL     OW24619   6.269   0.277   3.105
 7907SOL    HW124620   6.223   0.315   3.186
 7907SOL    HW224621   6.259   0.178   3.104
 7908SOL     OW24622   1.033   0.290   6.786
 7908SOL    HW124623   1.128   0.291   6.818
 7908SOL    HW224624   1.030   0.258   6.691
 7909SOL     OW24625   6.169   4.705   1.893
 7909SOL    HW124626   6.231   4.643   1.941
 7909SOL    HW224627   6.080   4.705   1.939
 7910SOL     OW24628   1.061   3.702   0.239
 7910SOL    HW124629   1.035   3.799   0.230
 7910SOL    HW224630   1.005   3.659   0.309
 7911SOL     OW24631   0.751   4.235   0.061
 7911SOL    HW124632   0.802   4.317   0.087
 7911SOL    HW224633   0.792   4.194   7.004
 7912SOL     OW24634   5.878   5.592   0.633
 7912SOL    HW124635   5.906   5.512   0.687
 7912SOL    HW224636   5.778   5.593   0.626
 7913SOL     OW24637   0.936   4.324   1.278
 7913SOL    HW124638   0.863   4.281   1.332
 7913SOL    HW224639   0.905   4.412   1.244
 7914SOL     OW24640   6.503   5.977   4.792
 7914SOL    HW124641   6.547   5.903   4.842
 7914SOL    HW224642   6.423   6.009   4.842
 7915SOL     OW24643   3.834   6.148   2.627
 7915SOL    HW124644   3.828   6.071   2.563
 7915SOL    HW224645   3.823   6.233   2.577
 7916SOL     OW24646   1.606   0.307   4.406
 7916SOL    HW124647   1.546   0.304   4.326
 7916SOL    HW224648   1.551   0.302   4.490
 7917SOL     OW24649   4.490   3.531   0.980
 7917SOL    HW124650   4.413   3.470   0.997
 7917SOL    HW224651   4.509   3.585   1.063
 7918SOL     OW24652   1.878   2.029   4.644
 7918SOL    HW124653   1.857   2.079   4.728
 7918SOL    HW224654   1.811   1.956   4.631
 7919SOL     OW24655   2.102   6.339   3.930
 7919SOL    HW124656   2.102   6.333   4.030
 7919SOL    HW224657   2.122   6.433   3.903
 7920SOL     OW24658   5.296   0.481   1.081
 7920SOL    HW124659   5.255   0.569   1.060
 7920SOL    HW224660   5.361   0.491   1.156
 7921SOL     OW24661   5.420   2.134   1.381
 7921SOL    HW124662   5.358   2.180   1.445
 7921SOL    HW224663   5.464   2.057   1.427
 7922SOL     OW24664   1.377   5.631   1.087
 7922SOL    HW124665   1.413   5.569   1.157
 7922SOL    HW224666   1.278   5.619   1.079
 7923SOL     OW24667   4.912   1.144   0.204
 7923SOL    HW124668   4.955   1.112   0.289
 7923SOL    HW224669   4.816   1.116   0.203
 7924SOL     OW24670   6.019   6.329   1.023
 7924SOL    HW124671   5.990   6.247   0.974
 7924SOL    HW224672   5.943   6.395   1.027
 7925SOL     OW24673   1.658   6.306   0.090
 7925SOL    HW124674   1.568   6.349   0.076
 7925SOL    HW224675   1.669   6.230   0.026
 7926SOL     OW24676   4.515   5.304   0.076
 7926SOL    HW124677   4.590   5.238   0.064
 7926SOL    HW224678   4.554   5.394   0.096
 7927SOL     OW24679   4.507   0.373   3.204
 7927SOL    HW124680   4.514   0.472   3.188
 7927SOL    HW224681   4.515   0.355   3.302
 7928SOL     OW24682   6.761   2.004   3.461
 7928SOL    HW124683   6.709   2.059   3.395
 7928SOL    HW224684   6.857   2.033   3.460
 7929SOL     OW24685   3.970   4.392   6.283
 7929SOL    HW124686   4.027   4.472   6.300
 7929SOL    HW224687   3.946   4.349   6.370
 7930SOL     OW24688   4.637   6.018   5.730
 7930SOL    HW124689   4.734   6.013   5.756
 7930SOL    HW224690   4.629   6.015   5.631
 7931SOL     OW24691   3.452   2.148   0.923
 7931SOL    HW124692   3.526   2.172   0.861
 7931SOL    HW224693   3.372   2.119   0.869
 7932SOL     OW24694   1.610   5.009   2.687
 7932SOL    HW124695   1.605   5.025   2.589
 7932SOL    HW224696   1.704   4.983   2.711
 7933SOL     OW24697   0.726   1.161   6.675
 7933SOL    HW124698   0.821   1.152   6.646
 7933SOL    HW224699   0.720   1.153   6.774
 7934SOL     OW24700   0.903   4.777   1.638
 7934SOL    HW124701   0.817   4.749   1.596
 7934SOL    HW224702   0.890   4.864   1.686
 7935SOL     OW24703   5.130   3.093   3.933
 7935SOL    HW124704   5.128   3.061   4.028
 7935SOL    HW224705   5.220   3.076   3.893
 7936SOL     OW24706   3.762   6.219   3.859
 7936SOL    HW124707   3.696   6.241   3.787
 7936SOL    HW224708   3.784   6.301   3.910
 7937SOL     OW24709   3.626   0.716   0.012
 7937SOL    HW124710   3.532   0.714   7.004
 7937SOL    HW224711   3.680   0.779   6.980
 7938SOL     OW24712   3.809   6.868   4.376
 7938SOL    HW124713   3.766   6.860   4.286
 7938SOL    HW224714   3.896   6.818   4.376
 7939SOL     OW24715   0.723   1.760   4.131
 7939SOL    HW124716   0.711   1.855   4.101
 7939SOL    HW224717   0.766   1.707   4.058
 7940SOL     OW24718   5.176   1.289   3.117
 7940SOL    HW124719   5.082   1.303   3.149
 7940SOL    HW224720   5.240   1.318   3.189
 7941SOL     OW24721   3.240   6.927   1.344
 7941SOL    HW124722   3.297   6.850   1.372
 7941SOL    HW224723   3.144   6.899   1.344
 7942SOL     OW24724   0.993   4.761   1.343
 7942SOL    HW124725   1.042   4.720   1.420
 7942SOL    HW224726   0.895   4.759   1.360
 7943SOL     OW24727   1.281   5.623   6.273
 7943SOL    HW124728   1.337   5.541   6.263
 7943SOL    HW224729   1.191   5.598   6.310
 7944SOL     OW24730   1.532   2.388   0.919
 7944SOL    HW124731   1.459   2.452   0.945
 7944SOL    HW224732   1.491   2.300   0.896
 7945SOL     OW24733   6.066   4.173   2.962
 7945SOL    HW124734   6.020   4.156   3.050
 7945SOL    HW224735   6.021   4.120   2.890
 7946SOL     OW24736   3.439   1.432   6.180
 7946SOL    HW124737   3.389   1.436   6.094
 7946SOL    HW224738   3.524   1.484   6.173
 7947SOL     OW24739   0.753   3.759   6.096
 7947SOL    HW124740   0.657   3.786   6.100
 7947SOL    HW224741   0.785   3.764   6.001
 7948SOL     OW24742   1.436   4.529   2.440
 7948SOL    HW124743   1.337   4.514   2.436
 7948SOL    HW224744   1.464   4.543   2.534
 7949SOL     OW24745   3.950   6.409   6.278
 7949SOL    HW124746   3.992   6.340   6.219
 7949SOL    HW224747   3.996   6.409   6.366
 7950SOL     OW24748   5.520   4.652   5.534
 7950SOL    HW124749   5.460   4.733   5.531
 7950SOL    HW224750   5.611   4.680   5.564
 7951SOL     OW24751   3.323   6.433   2.576
 7951SOL    HW124752   3.253   6.363   2.595
 7951SOL    HW224753   3.283   6.504   2.519
 7952SOL     OW24754   5.944   3.768   6.675
 7952SOL    HW124755   5.926   3.677   6.637
 7952SOL    HW224756   5.966   3.831   6.601
 7953SOL     OW24757   2.986   0.943   1.112
 7953SOL    HW124758   2.903   0.998   1.118
 7953SOL    HW224759   2.995   0.905   1.020
 7954SOL     OW24760   4.012   3.492   6.507
 7954SOL    HW124761   3.972   3.579   6.479
 7954SOL    HW224762   3.942   3.421   6.508
 7955SOL     OW24763   1.583   1.231   7.023
 7955SOL    HW124764   1.637   1.150   0.019
 7955SOL    HW224765   1.506   1.237   0.062
 7956SOL     OW24766   6.069   6.138   0.224
 7956SOL    HW124767   6.106   6.046   0.239
 7956SOL    HW224768   6.120   6.203   0.280
 7957SOL     OW24769   4.365   0.877   5.699
 7957SOL    HW124770   4.278   0.827   5.691
 7957SOL    HW224771   4.418   0.838   5.775
 7958SOL     OW24772   5.927   2.695   6.916
 7958SOL    HW124773   5.978   2.736   6.840
 7958SOL    HW224774   5.911   2.598   6.896
 7959SOL     OW24775   5.574   1.437   6.121
 7959SOL    HW124776   5.641   1.506   6.147
 7959SOL    HW224777   5.486   1.457   6.165
 7960SOL     OW24778   0.464   0.754   5.817
 7960SOL    HW124779   0.408   0.794   5.744
 7960SOL    HW224780   0.450   0.806   5.902
 7961SOL     OW24781   6.884   6.555   0.474
 7961SOL    HW124782   6.787   6.530   0.472
 7961SOL    HW224783   6.935   6.493   0.415
 7962SOL     OW24784   5.471   6.995   5.879
 7962SOL    HW124785   5.439   6.958   5.967
 7962SOL    HW224786   5.570   7.002   5.880
 7963SOL     OW24787   0.257   5.907   4.233
 7963SOL    HW124788   0.315   5.828   4.213
 7963SOL    HW224789   0.173   5.877   4.278
 7964SOL     OW24790   6.833   4.506   1.966
 7964SOL    HW124791   6.930   4.525   1.951
 7964SOL    HW224792   6.787   4.589   1.997
 7965SOL     OW24793   3.142   2.594   6.409
 7965SOL    HW124794   3.225   2.623   6.456
 7965SOL    HW224795   3.153   2.610   6.310
 7966SOL     OW24796   4.885   3.593   4.820
 7966SOL    HW124797   4.912   3.513   4.766
 7966SOL    HW224798   4.876   3.567   4.916
 7967SOL     OW24799   1.872   4.486   2.100
 7967SOL    HW124800   1.880   4.448   2.008
 7967SOL    HW224801   1.780   4.470   2.136
 7968SOL     OW24802   0.054   2.488   4.677
 7968SOL    HW124803   0.049   2.471   4.579
 7968SOL    HW224804   0.131   2.439   4.716
 7969SOL     OW24805   4.480   4.670   0.128
 7969SOL    HW124806   4.493   4.708   0.036
 7969SOL    HW224807   4.545   4.711   0.191
 7970SOL     OW24808   5.813   3.008   2.471
 7970SOL    HW124809   5.874   3.073   2.517
 7970SOL    HW224810   5.864   2.926   2.447
 7971SOL     OW24811   3.205   1.017   0.480
 7971SOL    HW124812   3.169   1.028   0.388
 7971SOL    HW224813   3.133   1.038   0.547
 7972SOL     OW24814   3.892   3.854   3.174
 7972SOL    HW124815   3.925   3.819   3.087
 7972SOL    HW224816   3.943   3.812   3.249
 7973SOL     OW24817   6.230   3.774   2.096
 7973SOL    HW124818   6.222   3.738   2.189
 7973SOL    HW224819   6.326   3.772   2.067
 7974SOL     OW24820   6.857   2.531   6.296
 7974SOL    HW124821   6.893   2.444   6.263
 7974SOL    HW224822   6.798   2.515   6.375
 7975SOL     OW24823   5.818   0.753   1.130
 7975SOL    HW124824   5.725   0.754   1.167
 7975SOL    HW224825   5.827   0.676   1.067
 7976SOL     OW24826   0.898   6.932   0.222
 7976SOL    HW124827   0.836   6.854   0.213
 7976SOL    HW224828   0.926   6.943   0.317
 7977SOL     OW24829   5.559   5.364   3.428
 7977SOL    HW124830   5.643   5.394   3.383
 7977SOL    HW224831   5.562   5.265   3.442
 7978SOL     OW24832   0.231   4.411   1.873
 7978SOL    HW124833   0.198   4.347   1.804
 7978SOL    HW224834   0.325   4.438   1.851
 7979SOL     OW24835   1.874   2.758   4.204
 7979SOL    HW124836   1.837   2.851   4.194
 7979SOL    HW224837   1.912   2.727   4.117
 7980SOL     OW24838   4.189   5.567   0.080
 7980SOL    HW124839   4.215   5.474   0.053
 7980SOL    HW224840   4.137   5.610   0.006
 7981SOL     OW24841   1.742   4.992   3.064
 7981SOL    HW124842   1.803   4.913   3.065
 7981SOL    HW224843   1.783   5.066   3.011
 7982SOL     OW24844   6.444   2.181   5.461
 7982SOL    HW124845   6.438   2.102   5.400
 7982SOL    HW224846   6.380   2.169   5.537
 7983SOL     OW24847   4.843   1.294   1.603
 7983SOL    HW124848   4.884   1.239   1.530
 7983SOL    HW224849   4.913   1.351   1.646
 7984SOL     OW24850   0.947   1.715   2.771
 7984SOL    HW124851   0.856   1.732   2.733
 7984SOL    HW224852   0.942   1.718   2.871
 7985SOL     OW24853   2.459   2.388   5.282
 7985SOL    HW124854   2.513   2.419   5.204
 7985SOL    HW224855   2.519   2.377   5.362
 7986SOL     OW24856   2.755   1.105   3.946
 7986SOL    HW124857   2.739   1.086   4.043
 7986SOL    HW224858   2.764   1.204   3.932
 7987SOL     OW24859   1.536   3.397   0.374
 7987SOL    HW124860   1.531   3.392   0.274
 7987SOL    HW224861   1.470   3.465   0.407
 7988SOL     OW24862   6.986   1.745   1.000
 7988SOL    HW124863   6.969   1.667   0.939
 7988SOL    HW224864   7.019   1.711   1.088
 7989SOL     OW24865   0.231   4.436   0.384
 7989SOL    HW124866   0.274   4.476   0.303
 7989SOL    HW224867   0.297   4.432   0.459
 7990SOL     OW24868   4.025   5.394   5.707
 7990SOL    HW124869   4.115   5.414   5.668
 7990SOL    HW224870   3.982   5.479   5.737
 7991SOL     OW24871   6.245   1.193   4.870
 7991SOL    HW124872   6.263   1.194   4.772
 7991SOL    HW224873   6.310   1.132   4.915
 7992SOL     OW24874   2.697   6.917   0.214
 7992SOL    HW124875   2.700   6.982   0.139
 7992SOL    HW224876   2.614   6.931   0.268
 7993SOL     OW24877   6.685   5.962   1.298
 7993SOL    HW124878   6.741   6.039   1.269
 7993SOL    HW224879   6.731   5.916   1.375
 7994SOL     OW24880   5.607   0.246   3.830
 7994SOL    HW124881   5.557   0.172   3.785
 7994SOL    HW224882   5.640   0.214   3.919
 7995SOL     OW24883   0.385   4.465   1.513
 7995SOL    HW124884   0.398   4.464   1.414
 7995SOL    HW224885   0.345   4.552   1.540
 7996SOL     OW24886   3.265   0.771   3.042
 7996SOL    HW124887   3.219   0.724   3.117
 7996SOL    HW224888   3.201   0.782   2.966
 7997SOL     OW24889   1.322   1.530   6.443
 7997SOL    HW124890   1.412   1.568   6.463
 7997SOL    HW224891   1.307   1.530   6.344
 7998SOL     OW24892   2.597   1.185   0.674
 7998SOL    HW124893   2.638   1.244   0.605
 7998SOL    HW224894   2.502   1.213   0.689
 7999SOL     OW24895   0.867   0.348   4.579
 7999SOL    HW124896   0.790   0.315   4.633
 7999SOL    HW224897   0.949   0.351   4.636
 8000SOL     OW24898   4.490   5.222   6.746
 8000SOL    HW124899   4.563   5.248   6.809
 8000SOL    HW224900   4.521   5.147   6.688
 8001SOL     OW24901   4.441   6.522   1.562
 8001SOL    HW124902   4.535   6.543   1.589
 8001SOL    HW224903   4.438   6.432   1.518
 8002SOL     OW24904   0.844   0.193   5.272
 8002SOL    HW124905   0.779   0.143   5.215
 8002SOL    HW224906   0.831   0.167   5.368
 8003SOL     OW24907   1.956   5.750   2.365
 8003SOL    HW124908   2.054   5.757   2.346
 8003SOL    HW224909   1.906   5.742   2.279
 8004SOL     OW24910   1.240   3.310   3.470
 8004SOL    HW124911   1.299   3.352   3.401
 8004SOL    HW224912   1.155   3.279   3.426
 8005SOL     OW24913   2.259   0.274   3.351
 8005SOL    HW124914   2.341   0.321   3.319
 8005SOL    HW224915   2.270   0.176   3.339
 8006SOL     OW24916   3.594   4.881   5.426
 8006SOL    HW124917   3.600   4.782   5.432
 8006SOL    HW224918   3.648   4.913   5.348
 8007SOL     OW24919   6.358   0.576   6.369
 8007SOL    HW124920   6.446   0.535   6.344
 8007SOL    HW224921   6.284   0.511   6.352
 8008SOL     OW24922   5.625   6.867   6.719
 8008SOL    HW124923   5.708   6.876   6.775
 8008SOL    HW224924   5.650   6.872   6.622
 8009SOL     OW24925   4.981   1.894   6.115
 8009SOL    HW124926   4.969   1.795   6.107
 8009SOL    HW224927   4.991   1.919   6.212
 8010SOL     OW24928   2.782   1.981   5.495
 8010SOL    HW124929   2.702   1.966   5.553
 8010SOL    HW224930   2.779   1.919   5.416
 8011SOL     OW24931   4.337   1.569   2.160
 8011SOL    HW124932   4.287   1.543   2.078
 8011SOL    HW224933   4.313   1.663   2.185
 8012SOL     OW24934   0.106   1.546   5.362
 8012SOL    HW124935   0.103   1.645   5.360
 8012SOL    HW224936   0.015   1.510   5.385
 8013SOL     OW24937   3.122   2.053   2.558
 8013SOL    HW124938   3.165   2.046   2.468
 8013SOL    HW224939   3.187   2.090   2.624
 8014SOL     OW24940   2.238   1.542   2.274
 8014SOL    HW124941   2.269   1.498   2.358
 8014SOL    HW224942   2.222   1.639   2.290
 8015SOL     OW24943   3.314   0.030   5.582
 8015SOL    HW124944   3.405   7.014   5.586
 8015SOL    HW224945   3.247   6.990   5.617
 8016SOL     OW24946   3.568   1.895   4.764
 8016SOL    HW124947   3.527   1.803   4.764
 8016SOL    HW224948   3.665   1.888   4.786
 8017SOL     OW24949   6.114   6.075   1.235
 8017SOL    HW124950   6.054   6.126   1.296
 8017SOL    HW224951   6.133   5.985   1.274
 8018SOL     OW24952   4.009   1.842   6.815
 8018SOL    HW124953   3.935   1.896   6.855
 8018SOL    HW224954   4.079   1.825   6.884
 8019SOL     OW24955   2.490   3.741   1.214
 8019SOL    HW124956   2.482   3.794   1.130
 8019SOL    HW224957   2.513   3.646   1.191
 8020SOL     OW24958   0.351   0.895   5.438
 8020SOL    HW124959   0.261   0.931   5.414
 8020SOL    HW224960   0.380   0.830   5.368
 8021SOL     OW24961   1.407   2.018   1.471
 8021SOL    HW124962   1.439   2.112   1.484
 8021SOL    HW224963   1.307   2.017   1.467
 8022SOL     OW24964   4.873   1.813   2.325
 8022SOL    HW124965   4.822   1.739   2.281
 8022SOL    HW224966   4.813   1.892   2.338
 8023SOL     OW24967   4.931   5.563   2.740
 8023SOL    HW124968   5.010   5.534   2.686
 8023SOL    HW224969   4.853   5.503   2.721
 8024SOL     OW24970   2.279   0.832   6.688
 8024SOL    HW124971   2.224   0.754   6.720
 8024SOL    HW224972   2.253   0.914   6.739
 8025SOL     OW24973   1.182   6.031   1.223
 8025SOL    HW124974   1.135   6.001   1.140
 8025SOL    HW224975   1.280   6.019   1.211
 8026SOL     OW24976   0.599   5.400   6.539
 8026SOL    HW124977   0.586   5.301   6.546
 8026SOL    HW224978   0.659   5.430   6.614
 8027SOL     OW24979   3.440   7.006   6.976
 8027SOL    HW124980   3.404   6.955   0.030
 8027SOL    HW224981   3.528   6.967   6.949
 8028SOL     OW24982   3.186   5.522   5.352
 8028SOL    HW124983   3.129   5.446   5.321
 8028SOL    HW224984   3.271   5.485   5.391
 8029SOL     OW24985   0.032   6.921   0.373
 8029SOL    HW124986   0.033   7.006   0.321
 8029SOL    HW224987   0.006   6.845   0.313
 8030SOL     OW24988   1.051   3.756   0.842
 8030SOL    HW124989   1.131   3.726   0.894
 8030SOL    HW224990   0.977   3.780   0.906
 8031SOL     OW24991   0.201   0.722   3.384
 8031SOL    HW124992   0.298   0.705   3.403
 8031SOL    HW224993   0.163   0.780   3.457
 8032SOL     OW24994   5.875   2.961   1.060
 8032SOL    HW124995   5.852   2.927   0.969
 8032SOL    HW224996   5.974   2.969   1.069
 8033SOL     OW24997   5.273   3.462   0.580
 8033SOL    HW124998   5.197   3.482   0.518
 8033SOL    HW224999   5.258   3.508   0.667
 8034SOL     OW25000   6.317   0.140   5.750
 8034SOL    HW125001   6.318   0.151   5.651
 8034SOL    HW225002   6.353   0.050   5.774
 8035SOL     OW25003   5.575   1.830   2.741
 8035SOL    HW125004   5.569   1.929   2.733
 8035SOL    HW225005   5.494   1.796   2.790
 8036SOL     OW25006   6.049   2.409   3.665
 8036SOL    HW125007   6.018   2.332   3.721
 8036SOL    HW225008   6.005   2.405   3.576
 8037SOL     OW25009   1.126   2.084   6.029
 8037SOL    HW125010   1.096   2.107   5.937
 8037SOL    HW225011   1.062   2.018   6.069
 8038SOL     OW25012   6.912   5.027   2.272
 8038SOL    HW125013   6.917   5.113   2.322
 8038SOL    HW225014   6.957   4.955   2.326
 8039SOL     OW25015   1.408   2.514   5.480
 8039SOL    HW125016   1.376   2.420   5.492
 8039SOL    HW225017   1.329   2.575   5.471
 8040SOL     OW25018   2.179   5.325   6.513
 8040SOL    HW125019   2.097   5.275   6.485
 8040SOL    HW225020   2.256   5.297   6.455
 8041SOL     OW25021   3.824   1.314   3.759
 8041SOL    HW125022   3.760   1.361   3.699
 8041SOL    HW225023   3.854   1.376   3.832
 8042SOL     OW25024   4.129   4.302   5.540
 8042SOL    HW125025   4.076   4.301   5.625
 8042SOL    HW225026   4.164   4.211   5.522
 8043SOL     OW25027   5.528   5.377   6.546
 8043SOL    HW125028   5.505   5.459   6.494
 8043SOL    HW225029   5.489   5.297   6.500
 8044SOL     OW25030   2.731   3.653   1.484
 8044SOL    HW125031   2.646   3.700   1.508
 8044SOL    HW225032   2.740   3.570   1.539
 8045SOL     OW25033   0.378   1.849   3.237
 8045SOL    HW125034   0.315   1.917   3.199
 8045SOL    HW225035   0.393   1.777   3.169
 8046SOL     OW25036   6.960   4.913   1.792
 8046SOL    HW125037   6.932   4.958   1.877
 8046SOL    HW225038   6.881   4.871   1.749
 8047SOL     OW25039   3.773   6.264   6.586
 8047SOL    HW125040   3.690   6.208   6.588
 8047SOL    HW225041   3.750   6.358   6.611
 8048SOL     OW25042   3.655   2.642   6.428
 8048SOL    HW125043   3.697   2.577   6.366
 8048SOL    HW225044   3.718   2.719   6.444
 8049SOL     OW25045   1.360   1.297   0.183
 8049SOL    HW125046   1.362   1.397   0.187
 8049SOL    HW225047   1.383   1.260   0.273
 8050SOL     OW25048   0.334   4.811   5.710
 8050SOL    HW125049   0.266   4.740   5.728
 8050SOL    HW225050   0.341   4.827   5.612
 8051SOL     OW25051   3.951   6.047   3.829
 8051SOL    HW125052   4.037   6.099   3.834
 8051SOL    HW225053   3.876   6.106   3.858
 8052SOL     OW25054   2.474   2.579   2.335
 8052SOL    HW125055   2.464   2.559   2.238
 8052SOL    HW225056   2.420   2.514   2.388
 8053SOL     OW25057   2.039   2.742   6.360
 8053SOL    HW125058   2.060   2.672   6.291
 8053SOL    HW225059   1.966   2.801   6.326
 8054SOL     OW25060   4.711   3.479   5.416
 8054SOL    HW125061   4.687   3.515   5.326
 8054SOL    HW225062   4.811   3.468   5.421
 8055SOL     OW25063   6.253   0.477   6.659
 8055SOL    HW125064   6.239   0.558   6.601
 8055SOL    HW225065   6.241   0.502   6.755
 8056SOL     OW25066   2.023   1.342   4.750
 8056SOL    HW125067   1.938   1.308   4.790
 8056SOL    HW225068   2.009   1.361   4.653
 8057SOL     OW25069   2.786   2.083   2.006
 8057SOL    HW125070   2.875   2.046   1.980
 8057SOL    HW225071   2.798   2.173   2.046
 8058SOL     OW25072   3.558   6.423   2.747
 8058SOL    HW125073   3.491   6.449   2.677
 8058SOL    HW225074   3.644   6.471   2.730
 8059SOL     OW25075   2.614   2.985   6.303
 8059SOL    HW125076   2.611   3.080   6.335
 8059SOL    HW225077   2.523   2.944   6.313
 8060SOL     OW25078   6.063   0.460   5.284
 8060SOL    HW125079   6.137   0.396   5.267
 8060SOL    HW225080   6.088   0.522   5.358
 8061SOL     OW25081   6.951   0.436   2.404
 8061SOL    HW125082   6.971   0.346   2.365
 8061SOL    HW225083   7.005   0.448   2.488
 8062SOL     OW25084   4.282   5.447   5.630
 8062SOL    HW125085   4.301   5.495   5.544
 8062SOL    HW225086   4.366   5.408   5.666
 8063SOL     OW25087   3.526   5.465   2.990
 8063SOL    HW125088   3.563   5.556   3.011
 8063SOL    HW225089   3.600   5.398   2.991
 8064SOL     OW25090   6.043   1.755   0.823
 8064SOL    HW125091   6.052   1.748   0.922
 8064SOL    HW225092   6.022   1.665   0.784
 8065SOL     OW25093   3.968   5.417   6.338
 8065SOL    HW125094   3.999   5.340   6.394
 8065SOL    HW225095   3.954   5.497   6.396
 8066SOL     OW25096   0.560   0.011   5.422
 8066SOL    HW125097   0.509   0.076   5.366
 8066SOL    HW225098   0.499   6.962   5.451
 8067SOL     OW25099   5.458   3.111   4.143
 8067SOL    HW125100   5.410   3.044   4.086
 8067SOL    HW225101   5.543   3.138   4.098
 8068SOL     OW25102   6.207   4.407   1.449
 8068SOL    HW125103   6.285   4.344   1.448
 8068SOL    HW225104   6.130   4.362   1.495
 8069SOL     OW25105   2.384   5.022   2.664
 8069SOL    HW125106   2.412   5.054   2.755
 8069SOL    HW225107   2.464   5.023   2.603
 8070SOL     OW25108   4.730   4.850   0.244
 8070SOL    HW125109   4.744   4.871   0.340
 8070SOL    HW225110   4.800   4.785   0.213
 8071SOL     OW25111   2.946   6.645   5.544
 8071SOL    HW125112   2.967   6.642   5.446
 8071SOL    HW225113   2.853   6.677   5.557
 8072SOL     OW25114   1.329   2.263   5.560
 8072SOL    HW125115   1.335   2.164   5.546
 8072SOL    HW225116   1.359   2.284   5.653
 8073SOL     OW25117   3.783   0.487   0.168
 8073SOL    HW125118   3.720   0.457   0.097
 8073SOL    HW225119   3.732   0.502   0.253
 8074SOL     OW25120   1.301   0.956   6.538
 8074SOL    HW125121   1.341   1.007   6.614
 8074SOL    HW225122   1.372   0.936   6.470
 8075SOL     OW25123   0.598   6.794   0.789
 8075SOL    HW125124   0.581   6.891   0.805
 8075SOL    HW225125   0.633   6.751   0.872
 8076SOL     OW25126   6.905   5.817   0.628
 8076SOL    HW125127   6.970   5.772   0.567
 8076SOL    HW225128   6.841   5.750   0.665
 8077SOL     OW25129   4.546   4.831   0.937
 8077SOL    HW125130   4.630   4.777   0.943
 8077SOL    HW225131   4.568   4.929   0.942
 8078SOL     OW25132   0.657   0.423   2.348
 8078SOL    HW125133   0.615   0.504   2.307
 8078SOL    HW225134   0.613   0.405   2.436
 8079SOL     OW25135   1.303   1.994   5.556
 8079SOL    HW125136   1.247   1.953   5.628
 8079SOL    HW225137   1.258   1.983   5.468
 8080SOL     OW25138   1.275   2.709   3.204
 8080SOL    HW125139   1.211   2.683   3.131
 8080SOL    HW225140   1.236   2.784   3.257
 8081SOL     OW25141   6.367   6.275   4.473
 8081SOL    HW125142   6.349   6.281   4.375
 8081SOL    HW225143   6.281   6.272   4.523
 8082SOL     OW25144   3.825   1.827   2.247
 8082SOL    HW125145   3.905   1.884   2.228
 8082SOL    HW225146   3.746   1.885   2.265
 8083SOL     OW25147   5.775   2.585   4.788
 8083SOL    HW125148   5.845   2.590   4.859
 8083SOL    HW225149   5.702   2.649   4.808
 8084SOL     OW25150   3.514   1.361   5.843
 8084SOL    HW125151   3.581   1.302   5.887
 8084SOL    HW225152   3.426   1.354   5.891
 8085SOL     OW25153   1.672   6.324   4.411
 8085SOL    HW125154   1.597   6.269   4.447
 8085SOL    HW225155   1.641   6.419   4.402
 8086SOL     OW25156   6.940   0.836   2.065
 8086SOL    HW125157   6.947   0.874   2.157
 8086SOL    HW225158   6.845   0.842   2.034
 8087SOL     OW25159   1.581   0.888   0.846
 8087SOL    HW125160   1.638   0.960   0.888
 8087SOL    HW225161   1.514   0.856   0.913
 8088SOL     OW25162   6.508   0.089   4.610
 8088SOL    HW125163   6.605   0.115   4.612
 8088SOL    HW225164   6.501   7.014   4.617
 8089SOL     OW25165   5.422   2.899   6.376
 8089SOL    HW125166   5.423   2.855   6.286
 8089SOL    HW225167   5.369   2.983   6.371
 8090SOL     OW25168   3.958   1.974   5.367
 8090SOL    HW125169   3.991   2.008   5.279
 8090SOL    HW225170   3.865   1.939   5.356
 8091SOL     OW25171   1.809   4.700   4.662
 8091SOL    HW125172   1.863   4.758   4.723
 8091SOL    HW225173   1.726   4.748   4.635
 8092SOL     OW25174   4.977   1.860   5.639
 8092SOL    HW125175   4.899   1.810   5.677
 8092SOL    HW225176   5.046   1.872   5.710
 8093SOL     OW25177   4.217   6.390   2.344
 8093SOL    HW125178   4.315   6.373   2.356
 8093SOL    HW225179   4.194   6.385   2.247
 8094SOL     OW25180   1.713   3.963   3.621
 8094SOL    HW125181   1.692   4.035   3.687
 8094SOL    HW225182   1.798   3.918   3.647
 8095SOL     OW25183   1.388   4.740   5.600
 8095SOL    HW125184   1.381   4.830   5.556
 8095SOL    HW225185   1.297   4.703   5.615
 8096SOL     OW25186   0.955   5.985   1.682
 8096SOL    HW125187   1.040   5.938   1.655
 8096SOL    HW225188   0.946   5.981   1.782
 8097SOL     OW25189   3.639   5.803   5.151
 8097SOL    HW125190   3.674   5.823   5.243
 8097SOL    HW225191   3.600   5.711   5.149
 8098SOL     OW25192   1.541   5.602   5.005
 8098SOL    HW125193   1.471   5.576   5.073
 8098SOL    HW225194   1.521   5.693   4.970
 8099SOL     OW25195   2.384   5.854   3.287
 8099SOL    HW125196   2.481   5.847   3.264
 8099SOL    HW225197   2.364   5.797   3.367
 8100SOL     OW25198   0.146   0.340   0.099
 8100SOL    HW125199   0.186   0.431   0.098
 8100SOL    HW225200   0.116   0.315   0.007
 8101SOL     OW25201   2.463   5.986   2.048
 8101SOL    HW125202   2.398   6.046   2.095
 8101SOL    HW225203   2.436   5.890   2.062
 8102SOL     OW25204   1.347   3.398   5.328
 8102SOL    HW125205   1.309   3.321   5.378
 8102SOL    HW225206   1.407   3.365   5.255
 8103SOL     OW25207   3.326   1.398   2.046
 8103SOL    HW125208   3.307   1.317   2.102
 8103SOL    HW225209   3.396   1.453   2.091
 8104SOL     OW25210   2.157   6.559   0.136
 8104SOL    HW125211   2.223   6.506   0.083
 8104SOL    HW225212   2.170   6.541   0.233
 8105SOL     OW25213   0.069   0.780   3.129
 8105SOL    HW125214   0.149   0.781   3.189
 8105SOL    HW225215   0.094   0.819   3.040
 8106SOL     OW25216   2.883   6.357   5.472
 8106SOL    HW125217   2.824   6.414   5.415
 8106SOL    HW225218   2.958   6.412   5.508
 8107SOL     OW25219   1.954   5.921   5.985
 8107SOL    HW125220   1.928   6.016   6.004
 8107SOL    HW225221   2.034   5.920   5.925
 8108SOL     OW25222   0.504   1.603   6.499
 8108SOL    HW125223   0.585   1.634   6.450
 8108SOL    HW225224   0.531   1.534   6.567
 8109SOL     OW25225   6.719   3.132   0.688
 8109SOL    HW125226   6.659   3.138   0.768
 8109SOL    HW225227   6.666   3.103   0.609
 8110SOL     OW25228   4.300   5.139   0.930
 8110SOL    HW125229   4.212   5.187   0.931
 8110SOL    HW225230   4.335   5.138   0.836
 8111SOL     OW25231   6.049   1.664   3.162
 8111SOL    HW125232   6.095   1.744   3.124
 8111SOL    HW225233   6.028   1.680   3.259
 8112SOL     OW25234   0.797   3.446   5.734
 8112SOL    HW125235   0.850   3.444   5.820
 8112SOL    HW225236   0.860   3.445   5.657
 8113SOL     OW25237   5.588   3.049   6.980
 8113SOL    HW125238   5.607   3.042   0.054
 8113SOL    HW225239   5.674   3.051   6.930
 8114SOL     OW25240   2.019   4.223   1.533
 8114SOL    HW125241   2.100   4.254   1.582
 8114SOL    HW225242   2.046   4.165   1.456
 8115SOL     OW25243   2.029   1.215   6.398
 8115SOL    HW125244   1.983   1.251   6.317
 8115SOL    HW225245   1.963   1.206   6.473
 8116SOL     OW25246   3.331   4.118   1.324
 8116SOL    HW125247   3.363   4.154   1.411
 8116SOL    HW225248   3.340   4.018   1.323
 8117SOL     OW25249   2.885   6.954   2.753
 8117SOL    HW125250   2.927   7.020   2.692
 8117SOL    HW225251   2.892   6.862   2.713
 8118SOL     OW25252   6.620   3.000   0.443
 8118SOL    HW125253   6.579   3.047   0.365
 8118SOL    HW225254   6.710   2.966   0.418
 8119SOL     OW25255   6.112   6.049   6.564
 8119SOL    HW125256   6.078   6.098   6.644
 8119SOL    HW225257   6.164   5.970   6.593
 8120SOL     OW25258   2.326   6.051   1.449
 8120SOL    HW125259   2.318   6.041   1.350
 8120SOL    HW225260   2.394   6.122   1.470
 8121SOL     OW25261   1.064   3.016   2.584
 8121SOL    HW125262   1.112   2.950   2.643
 8121SOL    HW225263   1.118   3.032   2.502
 8122SOL     OW25264   0.765   4.271   2.142
 8122SOL    HW125265   0.726   4.199   2.200
 8122SOL    HW225266   0.692   4.332   2.112
 8123SOL     OW25267   6.909   1.827   5.759
 8123SOL    HW125268   6.976   1.768   5.804
 8123SOL    HW225269   6.920   1.920   5.793
 8124SOL     OW25270   5.423   4.822   4.544
 8124SOL    HW125271   5.371   4.737   4.549
 8124SOL    HW225272   5.520   4.803   4.560
 8125SOL     OW25273   1.406   6.267   2.641
 8125SOL    HW125274   1.491   6.222   2.665
 8125SOL    HW225275   1.387   6.340   2.707
 8126SOL     OW25276   3.836   4.948   4.110
 8126SOL    HW125277   3.844   5.046   4.129
 8126SOL    HW225278   3.885   4.926   4.025
 8127SOL     OW25279   3.408   2.723   7.008
 8127SOL    HW125280   3.454   2.653   0.037
 8127SOL    HW225281   3.401   2.807   0.038
 8128SOL     OW25282   3.500   2.779   1.889
 8128SOL    HW125283   3.506   2.792   1.988
 8128SOL    HW225284   3.439   2.703   1.868
 8129SOL     OW25285   1.014   2.794   1.155
 8129SOL    HW125286   0.980   2.716   1.208
 8129SOL    HW225287   0.968   2.796   1.066
 8130SOL     OW25288   1.253   5.061   6.746
 8130SOL    HW125289   1.190   5.138   6.732
 8130SOL    HW225290   1.296   5.037   6.659
 8131SOL     OW25291   2.091   3.491   0.602
 8131SOL    HW125292   2.011   3.451   0.557
 8131SOL    HW225293   2.088   3.471   0.700
 8132SOL     OW25294   0.368   6.811   4.789
 8132SOL    HW125295   0.418   6.735   4.829
 8132SOL    HW225296   0.385   6.814   4.691
 8133SOL     OW25297   3.485   5.321   0.767
 8133SOL    HW125298   3.481   5.241   0.826
 8133SOL    HW225299   3.435   5.397   0.809
 8134SOL     OW25300   5.941   1.010   5.153
 8134SOL    HW125301   5.980   0.918   5.165
 8134SOL    HW225302   5.961   1.042   5.061
 8135SOL     OW25303   2.240   6.967   1.412
 8135SOL    HW125304   2.174   6.901   1.449
 8135SOL    HW225305   2.324   6.963   1.465
 8136SOL     OW25306   4.537   4.943   2.331
 8136SOL    HW125307   4.454   4.930   2.386
 8136SOL    HW225308   4.525   5.021   2.270
 8137SOL     OW25309   3.831   1.774   4.375
 8137SOL    HW125310   3.886   1.692   4.359
 8137SOL    HW225311   3.810   1.781   4.473
 8138SOL     OW25312   4.530   0.961   1.424
 8138SOL    HW125313   4.445   0.908   1.425
 8138SOL    HW225314   4.514   1.050   1.468
 8139SOL     OW25315   0.935   1.732   3.053
 8139SOL    HW125316   0.971   1.726   3.146
 8139SOL    HW225317   0.882   1.817   3.043
 8140SOL     OW25318   3.627   0.839   3.642
 8140SOL    HW125319   3.685   0.771   3.688
 8140SOL    HW225320   3.660   0.931   3.665
 8141SOL     OW25321   4.250   5.049   4.720
 8141SOL    HW125322   4.307   5.078   4.643
 8141SOL    HW225323   4.249   4.949   4.726
 8142SOL     OW25324   6.171   5.502   0.397
 8142SOL    HW125325   6.111   5.528   0.473
 8142SOL    HW225326   6.228   5.580   0.372
 8143SOL     OW25327   6.055   4.259   5.386
 8143SOL    HW125328   6.081   4.163   5.402
 8143SOL    HW225329   6.137   4.316   5.386
 8144SOL     OW25330   6.037   6.379   6.577
 8144SOL    HW125331   6.004   6.306   6.637
 8144SOL    HW225332   6.031   6.466   6.626
 8145SOL     OW25333   5.997   5.921   2.209
 8145SOL    HW125334   6.015   5.979   2.130
 8145SOL    HW225335   6.084   5.893   2.250
 8146SOL     OW25336   3.157   1.294   4.944
 8146SOL    HW125337   3.172   1.257   5.035
 8146SOL    HW225338   3.237   1.278   4.887
 8147SOL     OW25339   4.750   1.674   3.848
 8147SOL    HW125340   4.778   1.683   3.752
 8147SOL    HW225341   4.654   1.645   3.852
 8148SOL     OW25342   5.524   3.733   3.358
 8148SOL    HW125343   5.582   3.653   3.341
 8148SOL    HW225344   5.429   3.710   3.340
 8149SOL     OW25345   4.078   4.967   3.248
 8149SOL    HW125346   4.035   4.974   3.338
 8149SOL    HW225347   4.102   5.058   3.214
 8150SOL     OW25348   0.256   5.609   6.725
 8150SOL    HW125349   0.298   5.698   6.743
 8150SOL    HW225350   0.304   5.539   6.777
 8151SOL     OW25351   1.096   1.681   5.396
 8151SOL    HW125352   1.140   1.651   5.311
 8151SOL    HW225353   1.113   1.613   5.468
 8152SOL     OW25354   1.694   0.838   2.957
 8152SOL    HW125355   1.667   0.934   2.955
 8152SOL    HW225356   1.755   0.822   3.035
 8153SOL     OW25357   1.836   6.537   0.580
 8153SOL    HW125358   1.789   6.566   0.664
 8153SOL    HW225359   1.878   6.448   0.594
 8154SOL     OW25360   1.998   6.755   3.897
 8154SOL    HW125361   2.018   6.748   3.994
 8154SOL    HW225362   1.909   6.713   3.878
 8155SOL     OW25363   2.997   3.155   3.399
 8155SOL    HW125364   2.919   3.216   3.384
 8155SOL    HW225365   2.991   3.116   3.491
 8156SOL     OW25366   6.419   0.326   5.975
 8156SOL    HW125367   6.376   0.256   5.918
 8156SOL    HW225368   6.349   0.373   6.028
 8157SOL     OW25369   6.311   3.565   6.686
 8157SOL    HW125370   6.308   3.640   6.752
 8157SOL    HW225371   6.283   3.480   6.730
 8158SOL     OW25372   1.528   5.197   2.068
 8158SOL    HW125373   1.542   5.283   2.119
 8158SOL    HW225374   1.594   5.129   2.098
 8159SOL     OW25375   1.652   6.199   2.258
 8159SOL    HW125376   1.685   6.261   2.330
 8159SOL    HW225377   1.605   6.122   2.300
 8160SOL     OW25378   4.305   2.489   1.711
 8160SOL    HW125379   4.314   2.530   1.802
 8160SOL    HW225380   4.209   2.464   1.695
 8161SOL     OW25381   5.421   1.451   1.128
 8161SOL    HW125382   5.515   1.450   1.163
 8161SOL    HW225383   5.393   1.358   1.103
 8162SOL     OW25384   5.831   0.465   1.802
 8162SOL    HW125385   5.922   0.486   1.764
 8162SOL    HW225386   5.779   0.549   1.812
 8163SOL     OW25387   2.234   4.101   5.313
 8163SOL    HW125388   2.313   4.077   5.255
 8163SOL    HW225389   2.255   4.183   5.365
 8164SOL     OW25390   4.476   2.499   2.314
 8164SOL    HW125391   4.423   2.433   2.260
 8164SOL    HW225392   4.518   2.566   2.252
 8165SOL     OW25393   2.115   4.818   1.627
 8165SOL    HW125394   2.183   4.782   1.690
 8165SOL    HW225395   2.030   4.835   1.676
 8166SOL     OW25396   2.948   6.844   2.066
 8166SOL    HW125397   2.935   6.903   1.986
 8166SOL    HW225398   2.898   6.759   2.054
 8167SOL     OW25399   6.317   2.485   3.995
 8167SOL    HW125400   6.340   2.544   4.072
 8167SOL    HW225401   6.232   2.435   4.016
 8168SOL     OW25402   3.238   1.364   3.242
 8168SOL    HW125403   3.165   1.432   3.234
 8168SOL    HW225404   3.243   1.310   3.158
 8169SOL     OW25405   4.356   3.526   6.577
 8169SOL    HW125406   4.287   3.598   6.586
 8169SOL    HW225407   4.323   3.442   6.620
 8170SOL     OW25408   0.691   5.374   3.866
 8170SOL    HW125409   0.781   5.331   3.871
 8170SOL    HW225410   0.622   5.306   3.842
 8171SOL     OW25411   0.441   2.042   5.862
 8171SOL    HW125412   0.366   2.102   5.835
 8171SOL    HW225413   0.410   1.980   5.934
 8172SOL     OW25414   0.165   6.582   0.925
 8172SOL    HW125415   0.101   6.559   0.852
 8172SOL    HW225416   0.220   6.502   0.948
 8173SOL     OW25417   4.340   2.260   6.624
 8173SOL    HW125418   4.376   2.231   6.536
 8173SOL    HW225419   4.263   2.201   6.650
 8174SOL     OW25420   5.818   0.569   2.280
 8174SOL    HW125421   5.914   0.592   2.297
 8174SOL    HW225422   5.790   0.497   2.343
 8175SOL     OW25423   1.046   3.187   6.390
 8175SOL    HW125424   0.989   3.130   6.449
 8175SOL    HW225425   1.039   3.156   6.295
 8176SOL     OW25426   2.903   5.617   2.265
 8176SOL    HW125427   2.968   5.683   2.302
 8176SOL    HW225428   2.820   5.664   2.235
 8177SOL     OW25429   0.487   6.541   5.402
 8177SOL    HW125430   0.449   6.620   5.451
 8177SOL    HW225431   0.495   6.464   5.466
 8178SOL     OW25432   2.204   6.605   6.396
 8178SOL    HW125433   2.131   6.566   6.452
 8178SOL    HW225434   2.251   6.677   6.448
 8179SOL     OW25435   3.223   1.517   0.305
 8179SOL    HW125436   3.292   1.564   0.251
 8179SOL    HW225437   3.267   1.445   0.360
 8180SOL     OW25438   5.952   6.047   5.442
 8180SOL    HW125439   5.898   5.988   5.502
 8180SOL    HW225440   5.929   6.143   5.461
 8181SOL     OW25441   2.545   2.525   2.898
 8181SOL    HW125442   2.525   2.515   2.801
 8181SOL    HW225443   2.643   2.511   2.913
 8182SOL     OW25444   3.732   2.787   5.493
 8182SOL    HW125445   3.697   2.767   5.401
 8182SOL    HW225446   3.766   2.703   5.535
 8183SOL     OW25447   1.387   3.438   4.884
 8183SOL    HW125448   1.312   3.497   4.853
 8183SOL    HW225449   1.471   3.491   4.894
 8184SOL     OW25450   6.133   6.073   5.725
 8184SOL    HW125451   6.147   6.112   5.634
 8184SOL    HW225452   6.099   5.979   5.717
 8185SOL     OW25453   2.237   1.603   2.813
 8185SOL    HW125454   2.330   1.596   2.777
 8185SOL    HW225455   2.202   1.695   2.797
 8186SOL     OW25456   3.692   5.295   5.834
 8186SOL    HW125457   3.696   5.393   5.814
 8186SOL    HW225458   3.617   5.277   5.897
 8187SOL     OW25459   1.241   1.950   5.294
 8187SOL    HW125460   1.264   2.032   5.242
 8187SOL    HW225461   1.298   1.873   5.264
 8188SOL     OW25462   5.143   3.607   3.152
 8188SOL    HW125463   5.055   3.563   3.171
 8188SOL    HW225464   5.191   3.624   3.238
 8189SOL     OW25465   6.125   4.193   2.436
 8189SOL    HW125466   6.122   4.140   2.351
 8189SOL    HW225467   6.172   4.139   2.506
 8190SOL     OW25468   4.875   3.518   3.075
 8190SOL    HW125469   4.886   3.566   2.987
 8190SOL    HW225470   4.828   3.432   3.061
 8191SOL     OW25471   0.596   5.126   3.306
 8191SOL    HW125472   0.683   5.079   3.291
 8191SOL    HW225473   0.557   5.154   3.218
 8192SOL     OW25474   1.770   4.349   1.440
 8192SOL    HW125475   1.854   4.309   1.476
 8192SOL    HW225476   1.734   4.289   1.368
 8193SOL     OW25477   3.875   0.158   6.020
 8193SOL    HW125478   3.779   0.134   6.030
 8193SOL    HW225479   3.901   0.219   6.095
 8194SOL     OW25480   1.048   0.196   0.623
 8194SOL    HW125481   1.133   0.186   0.674
 8194SOL    HW225482   1.000   0.279   0.653
 8195SOL     OW25483   6.498   6.994   0.569
 8195SOL    HW125484   6.499   0.026   0.652
 8195SOL    HW225485   6.440   0.013   0.500
 8196SOL     OW25486   2.425   0.207   6.295
 8196SOL    HW125487   2.411   0.234   6.200
 8196SOL    HW225488   2.523   0.196   6.312
 8197SOL     OW25489   0.772   0.113   6.751
 8197SOL    HW125490   0.721   0.033   6.781
 8197SOL    HW225491   0.870   0.091   6.751
 8198SOL     OW25492   3.577   6.159   2.750
 8198SOL    HW125493   3.567   6.256   2.771
 8198SOL    HW225494   3.666   6.143   2.706
 8199SOL     OW25495   5.951   3.436   0.245
 8199SOL    HW125496   6.035   3.443   0.299
 8199SOL    HW225497   5.872   3.434   0.307
 8200SOL     OW25498   5.332   3.924   1.268
 8200SOL    HW125499   5.288   3.848   1.219
 8200SOL    HW225500   5.426   3.935   1.234
 8201SOL     OW25501   6.103   0.638   4.227
 8201SOL    HW125502   6.134   0.681   4.312
 8201SOL    HW225503   6.161   0.668   4.152
 8202SOL     OW25504   1.650   4.374   3.320
 8202SOL    HW125505   1.689   4.461   3.349
 8202SOL    HW225506   1.636   4.375   3.221
 8203SOL     OW25507   5.560   3.361   0.816
 8203SOL    HW125508   5.526   3.390   0.905
 8203SOL    HW225509   5.504   3.285   0.782
 8204SOL     OW25510   3.346   0.115   1.526
 8204SOL    HW125511   3.369   0.048   1.455
 8204SOL    HW225512   3.275   0.176   1.491
 8205SOL     OW25513   6.189   5.366   3.385
 8205SOL    HW125514   6.112   5.330   3.332
 8205SOL    HW225515   6.275   5.329   3.349
 8206SOL     OW25516   4.673   1.936   4.050
 8206SOL    HW125517   4.745   2.005   4.039
 8206SOL    HW225518   4.688   1.863   3.984
 8207SOL     OW25519   2.710   6.352   6.859
 8207SOL    HW125520   2.793   6.398   6.827
 8207SOL    HW225521   2.679   6.286   6.791
 8208SOL     OW25522   1.353   4.601   6.157
 8208SOL    HW125523   1.437   4.638   6.119
 8208SOL    HW225524   1.274   4.641   6.109
 8209SOL     OW25525   0.345   6.741   5.550
 8209SOL    HW125526   0.297   6.802   5.487
 8209SOL    HW225527   0.278   6.689   5.604
 8210SOL     OW25528   2.725   2.268   7.024
 8210SOL    HW125529   2.659   2.196   0.024
 8210SOL    HW225530   2.793   2.230   6.961
 8211SOL     OW25531   3.169   3.437   4.685
 8211SOL    HW125532   3.211   3.347   4.675
 8211SOL    HW225533   3.070   3.426   4.690
 8212SOL     OW25534   3.576   6.834   0.951
 8212SOL    HW125535   3.486   6.864   0.981
 8212SOL    HW225536   3.574   6.814   0.853
 8213SOL     OW25537   4.200   4.020   1.736
 8213SOL    HW125538   4.131   4.087   1.709
 8213SOL    HW225539   4.283   4.067   1.765
 8214SOL     OW25540   4.000   5.401   4.431
 8214SOL    HW125541   3.902   5.414   4.443
 8214SOL    HW225542   4.046   5.409   4.519
 8215SOL     OW25543   3.682   6.330   0.064
 8215SOL    HW125544   3.609   6.377   0.013
 8215SOL    HW225545   3.769   6.374   0.045
 8216SOL     OW25546   5.942   4.660   1.683
 8216SOL    HW125547   5.938   4.658   1.783
 8216SOL    HW225548   6.038   4.659   1.653
 8217SOL     OW25549   2.925   6.621   3.988
 8217SOL    HW125550   3.010   6.665   4.016
 8217SOL    HW225551   2.892   6.662   3.903
 8218SOL     OW25552   2.946   6.807   4.854
 8218SOL    HW125553   3.015   6.759   4.909
 8218SOL    HW225554   2.874   6.743   4.829
 8219SOL     OW25555   3.751   2.873   1.159
 8219SOL    HW125556   3.841   2.891   1.199
 8219SOL    HW225557   3.751   2.785   1.113
 8220SOL     OW25558   3.930   3.842   4.307
 8220SOL    HW125559   3.923   3.940   4.289
 8220SOL    HW225560   3.860   3.794   4.255
 8221SOL     OW25561   5.624   3.871   3.104
 8221SOL    HW125562   5.591   3.812   3.177
 8221SOL    HW225563   5.625   3.821   3.018
 8222SOL     OW25564   6.903   2.996   0.374
 8222SOL    HW125565   6.961   3.059   0.321
 8222SOL    HW225566   6.961   2.941   0.435
 8223SOL     OW25567   1.808   6.071   5.652
 8223SOL    HW125568   1.773   6.128   5.578
 8223SOL    HW225569   1.860   6.127   5.716
 8224SOL     OW25570   5.283   1.682   0.508
 8224SOL    HW125571   5.372   1.696   0.550
 8224SOL    HW225572   5.271   1.746   0.432
 8225SOL     OW25573   5.192   1.945   0.402
 8225SOL    HW125574   5.094   1.958   0.417
 8225SOL    HW225575   5.238   2.034   0.409
 8226SOL     OW25576   4.179   0.307   0.438
 8226SOL    HW125577   4.132   0.244   0.500
 8226SOL    HW225578   4.120   0.386   0.419
 8227SOL     OW25579   4.549   2.508   2.997
 8227SOL    HW125580   4.617   2.548   3.059
 8227SOL    HW225581   4.477   2.464   3.050
 8228SOL     OW25582   2.244   0.068   4.992
 8228SOL    HW125583   2.264   0.022   4.906
 8228SOL    HW225584   2.201   0.156   4.973
 8229SOL     OW25585   4.691   4.511   0.378
 8229SOL    HW125586   4.717   4.586   0.317
 8229SOL    HW225587   4.772   4.455   0.399
 8230SOL     OW25588   5.621   0.825   6.472
 8230SOL    HW125589   5.610   0.910   6.523
 8230SOL    HW225590   5.584   0.749   6.524
 8231SOL     OW25591   2.471   2.248   2.779
 8231SOL    HW125592   2.518   2.226   2.693
 8231SOL    HW225593   2.538   2.259   2.852
 8232SOL     OW25594   3.383   5.533   3.256
 8232SOL    HW125595   3.371   5.434   3.245
 8232SOL    HW225596   3.468   5.561   3.212
 8233SOL     OW25597   0.481   1.253   5.999
 8233SOL    HW125598   0.403   1.309   5.972
 8233SOL    HW225599   0.492   1.256   6.098
 8234SOL     OW25600   0.697   1.994   0.685
 8234SOL    HW125601   0.635   2.010   0.763
 8234SOL    HW225602   0.645   1.997   0.600
 8235SOL     OW25603   0.926   6.942   1.479
 8235SOL    HW125604   1.024   6.922   1.480
 8235SOL    HW225605   0.881   6.893   1.553
 8236SOL     OW25606   0.844   6.754   1.739
 8236SOL    HW125607   0.831   6.683   1.808
 8236SOL    HW225608   0.755   6.785   1.706
 8237SOL     OW25609   4.482   5.153   6.451
 8237SOL    HW125610   4.419   5.149   6.374
 8237SOL    HW225611   4.556   5.217   6.430
 8238SOL     OW25612   0.534   4.685   0.371
 8238SOL    HW125613   0.489   4.741   0.441
 8238SOL    HW225614   0.633   4.701   0.374
 8239SOL     OW25615   1.538   1.336   5.597
 8239SOL    HW125616   1.626   1.375   5.570
 8239SOL    HW225617   1.520   1.254   5.544
 8240SOL     OW25618   3.199   3.585   4.942
 8240SOL    HW125619   3.105   3.589   4.977
 8240SOL    HW225620   3.201   3.527   4.860
 8241SOL     OW25621   2.023   4.362   5.326
 8241SOL    HW125622   2.085   4.385   5.401
 8241SOL    HW225623   1.997   4.445   5.276
 8242SOL     OW25624   0.740   3.154   2.949
 8242SOL    HW125625   0.745   3.244   2.993
 8242SOL    HW225626   0.772   3.085   3.013
 8243SOL     OW25627   2.005   5.875   4.069
 8243SOL    HW125628   2.048   5.885   3.979
 8243SOL    HW225629   2.075   5.858   4.138
 8244SOL     OW25630   6.914   1.575   4.046
 8244SOL    HW125631   6.946   1.665   4.019
 8244SOL    HW225632   6.967   1.504   4.000
 8245SOL     OW25633   5.331   1.785   2.825
 8245SOL    HW125634   5.250   1.823   2.868
 8245SOL    HW225635   5.334   1.686   2.841
 8246SOL     OW25636   1.590   4.941   6.330
 8246SOL    HW125637   1.662   4.993   6.284
 8246SOL    HW225638   1.631   4.862   6.376
 8247SOL     OW25639   3.185   5.842   3.077
 8247SOL    HW125640   3.172   5.935   3.042
 8247SOL    HW225641   3.124   5.827   3.155
 8248SOL     OW25642   6.661   5.492   2.695
 8248SOL    HW125643   6.755   5.494   2.661
 8248SOL    HW225644   6.631   5.397   2.704
 8249SOL     OW25645   3.246   1.313   6.913
 8249SOL    HW125646   3.151   1.289   6.893
 8249SOL    HW225647   3.294   1.330   6.827
 8250SOL     OW25648   1.098   1.666   0.016
 8250SOL    HW125649   1.001   1.680   0.035
 8250SOL    HW225650   1.133   1.743   6.987
 8251SOL     OW25651   1.220   2.909   5.276
 8251SOL    HW125652   1.139   2.926   5.219
 8251SOL    HW225653   1.297   2.961   5.240
 8252SOL     OW25654   1.215   2.264   6.615
 8252SOL    HW125655   1.181   2.179   6.573
 8252SOL    HW225656   1.146   2.335   6.606
 8253SOL     OW25657   4.247   5.760   0.252
 8253SOL    HW125658   4.212   5.838   0.201
 8253SOL    HW225659   4.230   5.676   0.200
 8254SOL     OW25660   5.516   5.349   6.838
 8254SOL    HW125661   5.539   5.367   6.743
 8254SOL    HW225662   5.424   5.309   6.843
 8255SOL     OW25663   2.347   1.032   5.753
 8255SOL    HW125664   2.263   0.992   5.789
 8255SOL    HW225665   2.416   0.960   5.739
 8256SOL     OW25666   1.513   5.107   5.111
 8256SOL    HW125667   1.561   5.077   5.193
 8256SOL    HW225668   1.573   5.166   5.057
 8257SOL     OW25669   5.094   3.969   2.676
 8257SOL    HW125670   5.138   3.973   2.765
 8257SOL    HW225671   5.161   3.945   2.606
 8258SOL     OW25672   0.028   3.368   1.944
 8258SOL    HW125673   0.033   3.333   1.851
 8258SOL    HW225674   0.067   3.460   1.948
 8259SOL     OW25675   5.502   1.630   3.852
 8259SOL    HW125676   5.591   1.604   3.814
 8259SOL    HW225677   5.460   1.699   3.792
 8260SOL     OW25678   4.058   2.344   0.927
 8260SOL    HW125679   4.070   2.418   0.862
 8260SOL    HW225680   3.961   2.332   0.947
 8261SOL     OW25681   5.572   1.378   2.742
 8261SOL    HW125682   5.608   1.471   2.736
 8261SOL    HW225683   5.522   1.367   2.828
 8262SOL     OW25684   5.724   3.462   1.469
 8262SOL    HW125685   5.744   3.522   1.391
 8262SOL    HW225686   5.657   3.393   1.441
 8263SOL     OW25687   6.251   2.081   5.631
 8263SOL    HW125688   6.172   2.035   5.589
 8263SOL    HW225689   6.235   2.091   5.729
 8264SOL     OW25690   3.284   0.147   2.697
 8264SOL    HW125691   3.257   0.066   2.647
 8264SOL    HW225692   3.383   0.161   2.687
 8265SOL     OW25693   4.493   6.521   0.701
 8265SOL    HW125694   4.571   6.496   0.758
 8265SOL    HW225695   4.417   6.549   0.759
 8266SOL     OW25696   3.137   0.852   3.798
 8266SOL    HW125697   3.055   0.828   3.849
 8266SOL    HW225698   3.112   0.879   3.705
 8267SOL     OW25699   1.735   3.525   2.545
 8267SOL    HW125700   1.777   3.437   2.525
 8267SOL    HW225701   1.804   3.597   2.536
 8268SOL     OW25702   2.902   4.630   6.702
 8268SOL    HW125703   2.985   4.670   6.740
 8268SOL    HW225704   2.915   4.532   6.687
 8269SOL     OW25705   6.464   3.291   4.526
 8269SOL    HW125706   6.366   3.312   4.522
 8269SOL    HW225707   6.476   3.203   4.573
 8270SOL     OW25708   4.035   6.630   6.762
 8270SOL    HW125709   3.975   6.708   6.743
 8270SOL    HW225710   4.072   6.595   6.677
 8271SOL     OW25711   3.723   6.313   6.183
 8271SOL    HW125712   3.789   6.354   6.247
 8271SOL    HW225713   3.758   6.225   6.151
 8272SOL     OW25714   0.755   0.228   2.175
 8272SOL    HW125715   0.727   0.302   2.237
 8272SOL    HW225716   0.757   0.263   2.082
 8273SOL     OW25717   4.195   0.744   0.247
 8273SOL    HW125718   4.103   0.751   0.209
 8273SOL    HW225719   4.226   0.835   0.275
 8274SOL     OW25720   5.246   6.350   5.353
 8274SOL    HW125721   5.196   6.273   5.392
 8274SOL    HW225722   5.314   6.317   5.288
 8275SOL     OW25723   5.348   0.299   4.078
 8275SOL    HW125724   5.314   0.375   4.134
 8275SOL    HW225725   5.275   0.265   4.019
 8276SOL     OW25726   6.640   1.921   6.841
 8276SOL    HW125727   6.715   1.926   6.775
 8276SOL    HW225728   6.560   1.968   6.804
 8277SOL     OW25729   1.364   0.144   7.022
 8277SOL    HW125730   1.267   0.128   7.004
 8277SOL    HW225731   1.416   0.135   6.937
 8278SOL     OW25732   2.619   1.477   1.110
 8278SOL    HW125733   2.702   1.437   1.071
 8278SOL    HW225734   2.643   1.556   1.166
 8279SOL     OW25735   3.413   6.068   5.463
 8279SOL    HW125736   3.364   5.984   5.486
 8279SOL    HW225737   3.471   6.095   5.540
 8280SOL     OW25738   5.415   4.079   0.182
 8280SOL    HW125739   5.490   4.144   0.198
 8280SOL    HW225740   5.450   3.986   0.191
 8281SOL     OW25741   2.784   5.303   0.139
 8281SOL    HW125742   2.878   5.269   0.143
 8281SOL    HW225743   2.723   5.239   0.187
 8282SOL     OW25744   2.860   2.948   1.609
 8282SOL    HW125745   2.815   2.859   1.615
 8282SOL    HW225746   2.950   2.942   1.653
 8283SOL     OW25747   0.522   6.647   3.976
 8283SOL    HW125748   0.462   6.680   4.048
 8283SOL    HW225749   0.610   6.693   3.982
 8284SOL     OW25750   3.428   1.599   2.213
 8284SOL    HW125751   3.371   1.619   2.292
 8284SOL    HW225752   3.464   1.684   2.175
 8285SOL     OW25753   2.137   4.365   0.168
 8285SOL    HW125754   2.186   4.447   0.140
 8285SOL    HW225755   2.040   4.374   0.145
 8286SOL     OW25756   5.532   2.458   5.274
 8286SOL    HW125757   5.534   2.531   5.341
 8286SOL    HW225758   5.522   2.370   5.320
 8287SOL     OW25759   1.620   6.818   4.071
 8287SOL    HW125760   1.570   6.898   4.038
 8287SOL    HW225761   1.577   6.785   4.155
 8288SOL     OW25762   1.987   0.262   2.623
 8288SOL    HW125763   1.891   0.249   2.601
 8288SOL    HW225764   2.029   0.324   2.556
 8289SOL     OW25765   6.489   1.220   6.330
 8289SOL    HW125766   6.471   1.298   6.390
 8289SOL    HW225767   6.528   1.145   6.384
 8290SOL     OW25768   4.569   2.888   1.588
 8290SOL    HW125769   4.492   2.826   1.570
 8290SOL    HW225770   4.572   2.910   1.685
 8291SOL     OW25771   4.325   5.806   6.531
 8291SOL    HW125772   4.336   5.711   6.561
 8291SOL    HW225773   4.241   5.815   6.478
 8292SOL     OW25774   0.529   3.349   4.586
 8292SOL    HW125775   0.622   3.315   4.571
 8292SOL    HW225776   0.512   3.355   4.685
 8293SOL     OW25777   3.084   5.105   3.369
 8293SOL    HW125778   3.152   5.168   3.405
 8293SOL    HW225779   3.129   5.023   3.333
 8294SOL     OW25780   4.543   3.740   5.940
 8294SOL    HW125781   4.458   3.776   5.903
 8294SOL    HW225782   4.556   3.771   6.034
 8295SOL     OW25783   5.253   5.012   2.352
 8295SOL    HW125784   5.187   5.078   2.385
 8295SOL    HW225785   5.235   4.922   2.393
 8296SOL     OW25786   3.949   6.952   1.874
 8296SOL    HW125787   3.986   7.005   1.797
 8296SOL    HW225788   3.983   6.858   1.868
 8297SOL     OW25789   5.623   4.276   3.641
 8297SOL    HW125790   5.553   4.206   3.628
 8297SOL    HW225791   5.712   4.232   3.652
 8298SOL     OW25792   0.133   6.857   6.952
 8298SOL    HW125793   0.148   6.809   6.866
 8298SOL    HW225794   0.113   6.791   0.000
 8299SOL     OW25795   0.855   3.495   1.011
 8299SOL    HW125796   0.919   3.555   0.963
 8299SOL    HW225797   0.791   3.455   0.946
 8300SOL     OW25798   5.959   4.930   3.694
 8300SOL    HW125799   5.861   4.932   3.674
 8300SOL    HW225800   5.987   5.018   3.733
 8301SOL     OW25801   5.365   6.731   0.573
 8301SOL    HW125802   5.397   6.673   0.498
 8301SOL    HW225803   5.421   6.716   0.654
 8302SOL     OW25804   3.554   6.980   5.439
 8302SOL    HW125805   3.580   0.048   5.467
 8302SOL    HW225806   3.487   6.985   5.365
 8303SOL     OW25807   0.328   5.383   2.653
 8303SOL    HW125808   0.369   5.295   2.677
 8303SOL    HW225809   0.290   5.426   2.735
 8304SOL     OW25810   6.041   4.890   3.089
 8304SOL    HW125811   6.106   4.895   3.166
 8304SOL    HW225812   5.951   4.918   3.121
 8305SOL     OW25813   5.414   6.577   5.077
 8305SOL    HW125814   5.466   6.591   4.992
 8305SOL    HW225815   5.466   6.519   5.139
 8306SOL     OW25816   6.661   1.922   2.793
 8306SOL    HW125817   6.648   2.009   2.745
 8306SOL    HW225818   6.747   1.880   2.764
 8307SOL     OW25819   1.517   3.201   2.437
 8307SOL    HW125820   1.559   3.224   2.350
 8307SOL    HW225821   1.438   3.261   2.453
 8308SOL     OW25822   0.971   5.024   1.304
 8308SOL    HW125823   1.008   5.048   1.214
 8308SOL    HW225824   0.988   4.927   1.322
 8309SOL     OW25825   6.840   4.714   4.603
 8309SOL    HW125826   6.869   4.674   4.689
 8309SOL    HW225827   6.852   4.648   4.529
 8310SOL     OW25828   1.671   0.239   0.794
 8310SOL    HW125829   1.630   0.245   0.703
 8310SOL    HW225830   1.600   0.257   0.863
 8311SOL     OW25831   5.549   5.650   3.156
 8311SOL    HW125832   5.510   5.713   3.223
 8311SOL    HW225833   5.534   5.685   3.064
 8312SOL     OW25834   5.577   1.528   0.285
 8312SOL    HW125835   5.619   1.528   0.376
 8312SOL    HW225836   5.639   1.484   0.220
 8313SOL     OW25837   5.731   2.909   5.601
 8313SOL    HW125838   5.657   2.905   5.668
 8313SOL    HW225839   5.703   2.860   5.518
 8314SOL     OW25840   4.519   5.644   4.037
 8314SOL    HW125841   4.420   5.641   4.021
 8314SOL    HW225842   4.540   5.600   4.125
 8315SOL     OW25843   3.369   3.586   4.569
 8315SOL    HW125844   3.283   3.560   4.615
 8315SOL    HW225845   3.381   3.685   4.576
 8316SOL     OW25846   2.387   2.222   5.584
 8316SOL    HW125847   2.314   2.241   5.518
 8316SOL    HW225848   2.367   2.271   5.669
 8317SOL     OW25849   0.970   2.226   3.640
 8317SOL    HW125850   0.879   2.258   3.613
 8317SOL    HW225851   1.021   2.303   3.679
 8318SOL     OW25852   4.687   0.100   6.375
 8318SOL    HW125853   4.716   0.161   6.302
 8318SOL    HW225854   4.589   0.112   6.392
 8319SOL     OW25855   2.048   5.771   6.343
 8319SOL    HW125856   1.964   5.761   6.290
 8319SOL    HW225857   2.076   5.682   6.378
 8320SOL     OW25858   3.436   3.328   5.233
 8320SOL    HW125859   3.476   3.374   5.154
 8320SOL    HW225860   3.340   3.353   5.241
 8321SOL     OW25861   0.158   6.818   0.819
 8321SOL    HW125862   0.175   6.731   0.865
 8321SOL    HW225863   0.231   6.883   0.841
 8322SOL     OW25864   0.591   6.293   0.125
 8322SOL    HW125865   0.525   6.277   0.051
 8322SOL    HW225866   0.667   6.348   0.091
 8323SOL     OW25867   5.452   4.410   0.516
 8323SOL    HW125868   5.466   4.462   0.432
 8323SOL    HW225869   5.464   4.470   0.595
 8324SOL     OW25870   4.813   6.066   6.501
 8324SOL    HW125871   4.719   6.097   6.515
 8324SOL    HW225872   4.859   6.125   6.435
 8325SOL     OW25873   1.509   6.287   6.071
 8325SOL    HW125874   1.550   6.319   5.986
 8325SOL    HW225875   1.500   6.187   6.068
 8326SOL     OW25876   1.353   3.161   6.277
 8326SOL    HW125877   1.378   3.067   6.299
 8326SOL    HW225878   1.263   3.182   6.315
 8327SOL     OW25879   1.506   5.821   4.868
 8327SOL    HW125880   1.483   5.841   4.773
 8327SOL    HW225881   1.603   5.839   4.883
 8328SOL     OW25882   0.776   6.058   6.967
 8328SOL    HW125883   0.705   6.047   6.897
 8328SOL    HW225884   0.826   6.142   6.951
 8329SOL     OW25885   1.472   3.296   5.101
 8329SOL    HW125886   1.569   3.280   5.117
 8329SOL    HW225887   1.459   3.341   5.013
 8330SOL     OW25888   3.336   1.179   0.157
 8330SOL    HW125889   3.265   1.115   0.187
 8330SOL    HW225890   3.297   1.247   0.096
 8331SOL     OW25891   1.650   2.671   5.576
 8331SOL    HW125892   1.609   2.760   5.557
 8331SOL    HW225893   1.582   2.599   5.567
 8332SOL     OW25894   6.200   4.652   1.543
 8332SOL    HW125895   6.185   4.562   1.502
 8332SOL    HW225896   6.162   4.723   1.484
 8333SOL     OW25897   2.248   4.062   0.238
 8333SOL    HW125898   2.330   4.060   0.181
 8333SOL    HW225899   2.216   4.156   0.246
 8334SOL     OW25900   2.937   2.307   5.904
 8334SOL    HW125901   2.997   2.387   5.909
 8334SOL    HW225902   2.868   2.322   5.833
 8335SOL     OW25903   5.570   4.892   6.287
 8335SOL    HW125904   5.470   4.881   6.280
 8335SOL    HW225905   5.603   4.848   6.370
 8336SOL     OW25906   0.996   4.199   3.634
 8336SOL    HW125907   0.998   4.290   3.674
 8336SOL    HW225908   0.906   4.182   3.595
 8337SOL     OW25909   0.414   1.418   4.343
 8337SOL    HW125910   0.411   1.388   4.248
 8337SOL    HW225911   0.499   1.385   4.385
 8338SOL     OW25912   3.446   5.397   1.326
 8338SOL    HW125913   3.477   5.481   1.280
 8338SOL    HW225914   3.361   5.366   1.283
 8339SOL     OW25915   5.698   0.633   1.376
 8339SOL    HW125916   5.659   0.584   1.453
 8339SOL    HW225917   5.745   0.715   1.409
 8340SOL     OW25918   5.946   1.960   6.574
 8340SOL    HW125919   5.996   1.925   6.495
 8340SOL    HW225920   5.849   1.937   6.564
 8341SOL     OW25921   3.795   1.023   1.241
 8341SOL    HW125922   3.769   0.990   1.332
 8341SOL    HW225923   3.716   1.019   1.180
 8342SOL     OW25924   4.543   0.538   0.566
 8342SOL    HW125925   4.565   0.488   0.649
 8342SOL    HW225926   4.489   0.620   0.589
 8343SOL     OW25927   5.412   4.110   3.563
 8343SOL    HW125928   5.336   4.062   3.607
 8343SOL    HW225929   5.446   4.056   3.486
 8344SOL     OW25930   0.716   5.373   6.040
 8344SOL    HW125931   0.691   5.467   6.013
 8344SOL    HW225932   0.793   5.342   5.985
 8345SOL     OW25933   5.164   0.466   3.603
 8345SOL    HW125934   5.116   0.495   3.520
 8345SOL    HW225935   5.260   0.493   3.598
 8346SOL     OW25936   5.742   3.275   4.674
 8346SOL    HW125937   5.678   3.281   4.751
 8346SOL    HW225938   5.813   3.345   4.685
 8347SOL     OW25939   2.292   1.093   6.822
 8347SOL    HW125940   2.285   1.186   6.857
 8347SOL    HW225941   2.389   1.069   6.812
 8348SOL     OW25942   3.309   6.205   2.315
 8348SOL    HW125943   3.231   6.258   2.347
 8348SOL    HW225944   3.337   6.141   2.387
 8349SOL     OW25945   6.307   6.160   2.316
 8349SOL    HW125946   6.309   6.065   2.288
 8349SOL    HW225947   6.399   6.191   2.340
 8350SOL     OW25948   2.106   0.674   6.810
 8350SOL    HW125949   2.008   0.681   6.796
 8350SOL    HW225950   2.124   0.626   6.896
 8351SOL     OW25951   0.033   3.731   2.829
 8351SOL    HW125952   0.014   3.677   2.911
 8351SOL    HW225953   6.973   3.742   2.776
 8352SOL     OW25954   3.018   5.713   0.975
 8352SOL    HW125955   2.942   5.670   1.023
 8352SOL    HW225956   3.037   5.664   0.890
 8353SOL     OW25957   1.298   4.775   1.624
 8353SOL    HW125958   1.329   4.835   1.698
 8353SOL    HW225959   1.371   4.766   1.556
 8354SOL     OW25960   3.331   0.402   3.149
 8354SOL    HW125961   3.373   0.338   3.213
 8354SOL    HW225962   3.310   0.355   3.063
 8355SOL     OW25963   2.764   6.778   6.405
 8355SOL    HW125964   2.804   6.687   6.419
 8355SOL    HW225965   2.676   6.769   6.360
 8356SOL     OW25966   1.650   5.307   0.654
 8356SOL    HW125967   1.619   5.392   0.696
 8356SOL    HW225968   1.649   5.316   0.554
 8357SOL     OW25969   4.796   6.750   5.765
 8357SOL    HW125970   4.758   6.679   5.823
 8357SOL    HW225971   4.724   6.814   5.739
 8358SOL     OW25972   1.133   0.973   4.991
 8358SOL    HW125973   1.179   0.969   5.080
 8358SOL    HW225974   1.088   1.061   4.980
 8359SOL     OW25975   3.849   1.991   6.012
 8359SOL    HW125976   3.894   2.029   6.094
 8359SOL    HW225977   3.779   2.054   5.981
 8360SOL     OW25978   4.965   0.478   1.046
 8360SOL    HW125979   5.019   0.424   1.110
 8360SOL    HW225980   4.948   0.425   0.963
 8361SOL     OW25981   3.893   1.115   6.761
 8361SOL    HW125982   3.939   1.193   6.804
 8361SOL    HW225983   3.822   1.148   6.699
 8362SOL     OW25984   6.976   4.431   1.370
 8362SOL    HW125985   0.004   4.507   1.332
 8362SOL    HW225986   6.891   4.465   1.411
 8363SOL     OW25987   1.506   2.857   1.097
 8363SOL    HW125988   1.409   2.831   1.095
 8363SOL    HW225989   1.524   2.925   1.026
 8364SOL     OW25990   0.192   3.610   4.379
 8364SOL    HW125991   0.292   3.608   4.378
 8364SOL    HW225992   0.160   3.678   4.445
 8365SOL     OW25993   1.354   2.047   2.086
 8365SOL    HW125994   1.289   2.007   2.150
 8365SOL    HW225995   1.388   2.133   2.124
 8366SOL     OW25996   5.460   5.151   2.481
 8366SOL    HW125997   5.420   5.196   2.560
 8366SOL    HW225998   5.388   5.115   2.422
 8367SOL     OW25999   2.620   5.441   4.064
 8367SOL    HW126000   2.687   5.513   4.041
 8367SOL    HW226001   2.639   5.407   4.156
 8368SOL     OW26002   5.953   6.541   6.167
 8368SOL    HW126003   6.049   6.562   6.184
 8368SOL    HW226004   5.898   6.623   6.182
 8369SOL     OW26005   2.425   6.494   1.102
 8369SOL    HW126006   2.476   6.466   1.021
 8369SOL    HW226007   2.436   6.592   1.116
 8370SOL     OW26008   3.061   3.988   6.848
 8370SOL    HW126009   3.038   3.931   6.927
 8370SOL    HW226010   3.099   3.930   6.775
 8371SOL     OW26011   1.920   4.466   5.009
 8371SOL    HW126012   2.017   4.457   4.988
 8371SOL    HW226013   1.910   4.520   5.093
 8372SOL     OW26014   1.930   6.446   2.007
 8372SOL    HW126015   1.941   6.502   1.924
 8372SOL    HW226016   1.839   6.405   2.008
 8373SOL     OW26017   6.537   1.683   4.048
 8373SOL    HW126018   6.572   1.751   3.984
 8373SOL    HW226019   6.492   1.610   3.997
 8374SOL     OW26020   6.896   1.528   4.307
 8374SOL    HW126021   6.989   1.531   4.344
 8374SOL    HW226022   6.900   1.533   4.207
 8375SOL     OW26023   3.426   0.643   4.682
 8375SOL    HW126024   3.470   0.627   4.770
 8375SOL    HW226025   3.426   0.741   4.662
 8376SOL     OW26026   2.019   0.828   3.059
 8376SOL    HW126027   2.051   0.912   3.014
 8376SOL    HW226028   1.969   0.853   3.142
 8377SOL     OW26029   5.030   5.349   0.496
 8377SOL    HW126030   4.952   5.412   0.493
 8377SOL    HW226031   5.066   5.336   0.404
 8378SOL     OW26032   5.412   5.588   4.231
 8378SOL    HW126033   5.477   5.658   4.204
 8378SOL    HW226034   5.461   5.507   4.263
 8379SOL     OW26035   5.393   1.290   1.419
 8379SOL    HW126036   5.355   1.248   1.501
 8379SOL    HW226037   5.492   1.302   1.430
 8380SOL     OW26038   6.553   5.900   0.813
 8380SOL    HW126039   6.554   5.956   0.895
 8380SOL    HW226040   6.544   5.958   0.732
 8381SOL     OW26041   0.349   1.340   2.658
 8381SOL    HW126042   0.352   1.433   2.694
 8381SOL    HW226043   0.441   1.310   2.633
 8382SOL     OW26044   1.943   0.816   0.861
 8382SOL    HW126045   2.033   0.809   0.819
 8382SOL    HW226046   1.948   0.875   0.942
 8383SOL     OW26047   3.059   6.691   6.827
 8383SOL    HW126048   3.032   6.776   6.873
 8383SOL    HW226049   3.112   6.713   6.746
 8384SOL     OW26050   0.547   2.795   2.546
 8384SOL    HW126051   0.591   2.851   2.476
 8384SOL    HW226052   0.617   2.746   2.599
 8385SOL     OW26053   4.005   2.906   1.268
 8385SOL    HW126054   3.973   2.852   1.347
 8385SOL    HW226055   4.067   2.978   1.300
 8386SOL     OW26056   2.147   5.783   1.907
 8386SOL    HW126057   2.156   5.861   1.969
 8386SOL    HW226058   2.072   5.724   1.937
 8387SOL     OW26059   1.271   0.853   2.616
 8387SOL    HW126060   1.358   0.878   2.657
 8387SOL    HW226061   1.262   0.898   2.527
 8388SOL     OW26062   4.452   6.318   1.391
 8388SOL    HW126063   4.485   6.270   1.310
 8388SOL    HW226064   4.378   6.266   1.433
 8389SOL     OW26065   0.228   2.594   3.673
 8389SOL    HW126066   0.191   2.515   3.721
 8389SOL    HW226067   0.194   2.596   3.580
 8390SOL     OW26068   3.179   0.189   5.427
 8390SOL    HW126069   3.217   0.125   5.492
 8390SOL    HW226070   3.134   0.139   5.353
 8391SOL     OW26071   5.226   5.791   1.278
 8391SOL    HW126072   5.166   5.868   1.256
 8391SOL    HW226073   5.173   5.720   1.325
 8392SOL     OW26074   6.419   6.596   5.551
 8392SOL    HW126075   6.405   6.673   5.489
 8392SOL    HW226076   6.385   6.621   5.642
 8393SOL     OW26077   6.533   5.792   2.989
 8393SOL    HW126078   6.477   5.814   3.069
 8393SOL    HW226079   6.620   5.752   3.020
 8394SOL     OW26080   0.644   1.743   2.737
 8394SOL    HW126081   0.620   1.801   2.815
 8394SOL    HW226082   0.646   1.799   2.654
 8395SOL     OW26083   0.374   6.316   5.763
 8395SOL    HW126084   0.423   6.298   5.677
 8395SOL    HW226085   0.352   6.229   5.807
 8396SOL     OW26086   5.097   3.679   1.176
 8396SOL    HW126087   5.032   3.626   1.122
 8396SOL    HW226088   5.050   3.758   1.215
 8397SOL     OW26089   1.791   5.516   3.041
 8397SOL    HW126090   1.817   5.453   3.115
 8397SOL    HW226091   1.795   5.468   2.953
 8398SOL     OW26092   4.656   1.963   0.235
 8398SOL    HW126093   4.670   2.002   0.144
 8398SOL    HW226094   4.632   2.036   0.300
 8399SOL     OW26095   5.559   6.100   0.473
 8399SOL    HW126096   5.640   6.140   0.430
 8399SOL    HW226097   5.587   6.041   0.549
 8400SOL     OW26098   5.988   0.364   4.158
 8400SOL    HW126099   6.033   0.452   4.176
 8400SOL    HW226100   6.025   0.324   4.074
 8401SOL     OW26101   3.169   4.610   6.834
 8401SOL    HW126102   3.182   4.513   6.859
 8401SOL    HW226103   3.243   4.639   6.775
 8402SOL     OW26104   4.027   1.776   0.465
 8402SOL    HW126105   4.021   1.702   0.531
 8402SOL    HW226106   4.097   1.755   0.397
 8403SOL     OW26107   1.277   1.898   4.612
 8403SOL    HW126108   1.202   1.919   4.675
 8403SOL    HW226109   1.239   1.863   4.526
 8404SOL     OW26110   4.299   4.928   5.592
 8404SOL    HW126111   4.230   4.937   5.664
 8404SOL    HW226112   4.366   5.002   5.602
 8405SOL     OW26113   0.163   2.986   4.973
 8405SOL    HW126114   0.262   2.975   4.988
 8405SOL    HW226115   0.114   2.967   5.058
 8406SOL     OW26116   5.128   3.908   1.487
 8406SOL    HW126117   5.151   3.905   1.390
 8406SOL    HW226118   5.030   3.890   1.499
 8407SOL     OW26119   5.277   4.200   2.266
 8407SOL    HW126120   5.266   4.231   2.172
 8407SOL    HW226121   5.270   4.279   2.328
 8408SOL     OW26122   4.420   2.334   4.050
 8408SOL    HW126123   4.404   2.296   3.959
 8408SOL    HW226124   4.465   2.266   4.108
 8409SOL     OW26125   0.609   2.620   4.130
 8409SOL    HW126126   0.560   2.534   4.120
 8409SOL    HW226127   0.676   2.613   4.204
 8410SOL     OW26128   3.711   6.718   2.223
 8410SOL    HW126129   3.785   6.780   2.198
 8410SOL    HW226130   3.707   6.643   2.157
 8411SOL     OW26131   1.726   2.758   3.713
 8411SOL    HW126132   1.785   2.686   3.750
 8411SOL    HW226133   1.745   2.844   3.759
 8412SOL     OW26134   6.146   2.617   2.994
 8412SOL    HW126135   6.115   2.537   2.943
 8412SOL    HW226136   6.246   2.617   2.999
 8413SOL     OW26137   3.022   4.114   0.741
 8413SOL    HW126138   3.060   4.137   0.652
 8413SOL    HW226139   2.962   4.034   0.733
 8414SOL     OW26140   4.485   6.205   2.895
 8414SOL    HW126141   4.427   6.279   2.928
 8414SOL    HW226142   4.543   6.172   2.970
 8415SOL     OW26143   6.281   3.576   2.316
 8415SOL    HW126144   6.325   3.486   2.311
 8415SOL    HW226145   6.192   3.568   2.361
 8416SOL     OW26146   5.178   3.948   2.287
 8416SOL    HW126147   5.080   3.963   2.300
 8416SOL    HW226148   5.226   4.035   2.286
 8417SOL     OW26149   2.754   6.185   5.969
 8417SOL    HW126150   2.674   6.150   6.018
 8417SOL    HW226151   2.727   6.214   5.877
 8418SOL     OW26152   5.701   5.923   2.540
 8418SOL    HW126153   5.687   6.022   2.552
 8418SOL    HW226154   5.621   5.873   2.574
 8419SOL     OW26155   4.226   0.165   3.874
 8419SOL    HW126156   4.319   0.158   3.909
 8419SOL    HW226157   4.168   0.210   3.942
 8420SOL     OW26158   3.847   1.440   6.071
 8420SOL    HW126159   3.863   1.436   6.169
 8420SOL    HW226160   3.901   1.515   6.032
 8421SOL     OW26161   2.454   6.677   1.950
 8421SOL    HW126162   2.513   6.757   1.963
 8421SOL    HW226163   2.497   6.613   1.887
 8422SOL     OW26164   3.569   6.938   1.452
 8422SOL    HW126165   3.563   6.894   1.542
 8422SOL    HW226166   3.620   6.880   1.390
 8423SOL     OW26167   3.081   4.271   1.408
 8423SOL    HW126168   3.142   4.194   1.391
 8423SOL    HW226169   3.029   4.254   1.492
 8424SOL     OW26170   2.921   2.139   2.730
 8424SOL    HW126171   2.858   2.215   2.712
 8424SOL    HW226172   2.953   2.101   2.643
 8425SOL     OW26173   5.441   5.274   0.325
 8425SOL    HW126174   5.497   5.288   0.243
 8425SOL    HW226175   5.474   5.194   0.375
 8426SOL     OW26176   3.808   3.334   2.671
 8426SOL    HW126177   3.878   3.269   2.640
 8426SOL    HW226178   3.739   3.346   2.600
 8427SOL     OW26179   2.235   3.555   6.129
 8427SOL    HW126180   2.186   3.551   6.042
 8427SOL    HW226181   2.199   3.485   6.191
 8428SOL     OW26182   5.967   4.585   2.333
 8428SOL    HW126183   5.918   4.672   2.338
 8428SOL    HW226184   5.998   4.558   2.424
 8429SOL     OW26185   1.765   6.369   2.436
 8429SOL    HW126186   1.783   6.346   2.531
 8429SOL    HW226187   1.851   6.389   2.389
 8430SOL     OW26188   4.545   4.414   3.129
 8430SOL    HW126189   4.634   4.369   3.133
 8430SOL    HW226190   4.509   4.412   3.036
 8431SOL     OW26191   3.321   4.273   1.096
 8431SOL    HW126192   3.353   4.208   1.027
 8431SOL    HW226193   3.352   4.244   1.187
 8432SOL     OW26194   4.250   6.226   6.554
 8432SOL    HW126195   4.275   6.176   6.637
 8432SOL    HW226196   4.330   6.233   6.494
 8433SOL     OW26197   0.864   1.358   5.465
 8433SOL    HW126198   0.834   1.393   5.377
 8433SOL    HW226199   0.809   1.278   5.490
 8434SOL     OW26200   5.460   6.497   5.490
 8434SOL    HW126201   5.391   6.459   5.429
 8434SOL    HW226202   5.529   6.546   5.436
 8435SOL     OW26203   4.522   2.355   1.612
 8435SOL    HW126204   4.583   2.417   1.563
 8435SOL    HW226205   4.430   2.393   1.615
 8436SOL     OW26206   3.699   4.574   1.578
 8436SOL    HW126207   3.620   4.534   1.532
 8436SOL    HW226208   3.783   4.529   1.547
 8437SOL     OW26209   0.249   0.837   1.216
 8437SOL    HW126210   0.226   0.740   1.220
 8437SOL    HW226211   0.252   0.875   1.309
 8438SOL     OW26212   2.128   6.742   1.572
 8438SOL    HW126213   2.068   6.805   1.622
 8438SOL    HW226214   2.195   6.703   1.635
 8439SOL     OW26215   6.630   5.947   1.855
 8439SOL    HW126216   6.696   5.974   1.926
 8439SOL    HW226217   6.622   6.021   1.789
 8440SOL     OW26218   0.228   1.567   3.890
 8440SOL    HW126219   0.237   1.487   3.831
 8440SOL    HW226220   0.203   1.646   3.835
 8441SOL     OW26221   4.535   5.538   0.640
 8441SOL    HW126222   4.461   5.553   0.574
 8441SOL    HW226223   4.526   5.447   0.680
 8442SOL     OW26224   2.642   4.071   0.171
 8442SOL    HW126225   2.572   4.035   0.110
 8442SOL    HW226226   2.604   4.148   0.223
 8443SOL     OW26227   2.083   1.111   2.342
 8443SOL    HW126228   2.165   1.101   2.285
 8443SOL    HW226229   2.096   1.059   2.427
 8444SOL     OW26230   3.936   0.007   3.222
 8444SOL    HW126231   3.909   0.029   3.316
 8444SOL    HW226232   3.966   6.936   3.218
 8445SOL     OW26233   3.855   4.874   2.069
 8445SOL    HW126234   3.776   4.823   2.038
 8445SOL    HW226235   3.894   4.927   1.993
 8446SOL     OW26236   6.420   5.099   3.511
 8446SOL    HW126237   6.322   5.083   3.499
 8446SOL    HW226238   6.468   5.011   3.506
 8447SOL     OW26239   4.971   3.184   1.462
 8447SOL    HW126240   4.874   3.165   1.475
 8447SOL    HW226241   4.984   3.283   1.449
 8448SOL     OW26242   0.929   2.742   6.566
 8448SOL    HW126243   1.026   2.769   6.565
 8448SOL    HW226244   0.891   2.753   6.475
 8449SOL     OW26245   1.868   2.709   5.415
 8449SOL    HW126246   1.828   2.683   5.327
 8449SOL    HW226247   1.800   2.698   5.488
 8450SOL     OW26248   2.045   5.168   2.347
 8450SOL    HW126249   2.139   5.197   2.367
 8450SOL    HW226250   2.038   5.069   2.358
 8451SOL     OW26251   3.332   3.112   0.489
 8451SOL    HW126252   3.279   3.036   0.528
 8451SOL    HW226253   3.414   3.077   0.445
 8452SOL     OW26254   6.885   5.754   1.026
 8452SOL    HW126255   6.919   5.734   1.118
 8452SOL    HW226256   6.874   5.853   1.016
 8453SOL     OW26257   0.112   4.585   6.286
 8453SOL    HW126258   0.041   4.628   6.342
 8453SOL    HW226259   0.166   4.656   6.241
 8454SOL     OW26260   1.890   6.761   4.670
 8454SOL    HW126261   1.945   6.817   4.609
 8454SOL    HW226262   1.843   6.820   4.736
 8455SOL     OW26263   5.665   1.874   1.382
 8455SOL    HW126264   5.742   1.857   1.443
 8455SOL    HW226265   5.690   1.946   1.317
 8456SOL     OW26266   5.257   5.587   2.851
 8456SOL    HW126267   5.239   5.504   2.904
 8456SOL    HW226268   5.214   5.581   2.762
 8457SOL     OW26269   0.415   6.567   6.835
 8457SOL    HW126270   0.444   6.625   6.911
 8457SOL    HW226271   0.332   6.604   6.794
 8458SOL     OW26272   1.030   1.368   1.467
 8458SOL    HW126273   1.078   1.340   1.385
 8458SOL    HW226274   0.933   1.343   1.460
 8459SOL     OW26275   2.656   5.445   2.403
 8459SOL    HW126276   2.582   5.511   2.393
 8459SOL    HW226277   2.742   5.493   2.420
 8460SOL     OW26278   4.624   1.024   0.509
 8460SOL    HW126279   4.530   0.999   0.534
 8460SOL    HW226280   4.623   1.098   0.443
 8461SOL     OW26281   5.581   4.440   2.284
 8461SOL    HW126282   5.679   4.423   2.273
 8461SOL    HW226283   5.559   4.443   2.382
 8462SOL     OW26284   2.573   5.132   0.176
 8462SOL    HW126285   2.587   5.116   0.274
 8462SOL    HW226286   2.532   5.051   0.135
 8463SOL     OW26287   6.530   1.127   0.595
 8463SOL    HW126288   6.446   1.141   0.543
 8463SOL    HW226289   6.570   1.038   0.570
 8464SOL     OW26290   0.924   3.442   6.351
 8464SOL    HW126291   0.996   3.505   6.381
 8464SOL    HW226292   0.963   3.350   6.343
 8465SOL     OW26293   4.624   3.217   1.062
 8465SOL    HW126294   4.652   3.307   1.096
 8465SOL    HW226295   4.590   3.226   0.968
 8466SOL     OW26296   6.098   1.488   5.549
 8466SOL    HW126297   6.110   1.587   5.542
 8466SOL    HW226298   6.165   1.442   5.490
 8467SOL     OW26299   3.551   0.747   1.215
 8467SOL    HW126300   3.571   0.808   1.139
 8467SOL    HW226301   3.469   0.695   1.194
 8468SOL     OW26302   5.913   3.041   0.280
 8468SOL    HW126303   5.937   2.949   0.251
 8468SOL    HW226304   5.962   3.063   0.364
 8469SOL     OW26305   4.656   3.048   6.391
 8469SOL    HW126306   4.588   3.003   6.334
 8469SOL    HW226307   4.637   3.146   6.394
 8470SOL     OW26308   1.712   4.952   1.404
 8470SOL    HW126309   1.731   4.922   1.310
 8470SOL    HW226310   1.724   4.875   1.467
 8471SOL     OW26311   3.435   2.109   4.334
 8471SOL    HW126312   3.529   2.134   4.310
 8471SOL    HW226313   3.427   2.099   4.433
 8472SOL     OW26314   5.831   1.168   5.642
 8472SOL    HW126315   5.881   1.125   5.566
 8472SOL    HW226316   5.738   1.189   5.613
 8473SOL     OW26317   4.686   4.478   6.618
 8473SOL    HW126318   4.775   4.514   6.590
 8473SOL    HW226319   4.662   4.515   6.708
 8474SOL     OW26320   3.469   4.150   2.882
 8474SOL    HW126321   3.551   4.098   2.907
 8474SOL    HW226322   3.456   4.224   2.948
 8475SOL     OW26323   0.384   2.559   2.142
 8475SOL    HW126324   0.368   2.463   2.120
 8475SOL    HW226325   0.481   2.580   2.131
 8476SOL     OW26326   6.467   0.193   2.003
 8476SOL    HW126327   6.543   0.247   2.037
 8476SOL    HW226328   6.392   0.195   2.070
 8477SOL     OW26329   5.531   0.002   2.071
 8477SOL    HW126330   5.518   6.987   2.162
 8477SOL    HW226331   5.599   6.973   2.021
 8478SOL     OW26332   6.605   0.527   5.869
 8478SOL    HW126333   6.577   0.445   5.919
 8478SOL    HW226334   6.574   0.608   5.920
 8479SOL     OW26335   0.877   2.331   0.741
 8479SOL    HW126336   0.795   2.320   0.796
 8479SOL    HW226337   0.926   2.244   0.735
 8480SOL     OW26338   4.387   3.751   0.143
 8480SOL    HW126339   4.335   3.783   0.222
 8480SOL    HW226340   4.484   3.774   0.154
 8481SOL     OW26341   4.487   1.638   3.248
 8481SOL    HW126342   4.402   1.594   3.277
 8481SOL    HW226343   4.466   1.712   3.183
 8482SOL     OW26344   4.778   1.037   0.746
 8482SOL    HW126345   4.737   0.998   0.828
 8482SOL    HW226346   4.723   1.012   0.666
 8483SOL     OW26347   2.994   5.414   3.112
 8483SOL    HW126348   3.048   5.430   3.195
 8483SOL    HW226349   2.940   5.495   3.090
 8484SOL     OW26350   5.190   5.699   4.364
 8484SOL    HW126351   5.217   5.727   4.457
 8484SOL    HW226352   5.271   5.669   4.314
 8485SOL     OW26353   3.072   2.866   7.013
 8485SOL    HW126354   3.018   2.932   6.960
 8485SOL    HW226355   3.115   2.912   0.066
 8486SOL     OW26356   0.720   1.921   2.972
 8486SOL    HW126357   0.762   2.001   2.928
 8486SOL    HW226358   0.691   1.945   3.064
 8487SOL     OW26359   5.980   1.689   5.958
 8487SOL    HW126360   5.960   1.631   5.879
 8487SOL    HW226361   5.969   1.635   6.042
 8488SOL     OW26362   4.292   4.811   1.348
 8488SOL    HW126363   4.302   4.881   1.418
 8488SOL    HW226364   4.343   4.837   1.267
 8489SOL     OW26365   5.358   1.599   2.197
 8489SOL    HW126366   5.319   1.680   2.241
 8489SOL    HW226367   5.373   1.618   2.100
 8490SOL     OW26368   2.852   0.100   6.585
 8490SOL    HW126369   2.895   0.152   6.659
 8490SOL    HW226370   2.813   0.016   6.622
 8491SOL     OW26371   3.197   5.620   1.979
 8491SOL    HW126372   3.220   5.698   1.922
 8491SOL    HW226373   3.101   5.597   1.967
 8492SOL     OW26374   6.968   6.367   4.164
 8492SOL    HW126375   6.980   6.272   4.136
 8492SOL    HW226376   6.992   6.428   4.089
 8493SOL     OW26377   4.385   1.015   6.897
 8493SOL    HW126378   4.371   1.001   6.995
 8493SOL    HW226379   4.308   0.975   6.847
 8494SOL     OW26380   6.634   4.924   2.173
 8494SOL    HW126381   6.625   4.915   2.272
 8494SOL    HW226382   6.731   4.932   2.149
 8495SOL     OW26383   6.406   5.489   6.994
 8495SOL    HW126384   6.467   5.439   0.032
 8495SOL    HW226385   6.363   5.425   6.931
 8496SOL     OW26386   5.487   2.875   2.081
 8496SOL    HW126387   5.554   2.931   2.130
 8496SOL    HW226388   5.450   2.805   2.142
 8497SOL     OW26389   6.840   0.705   3.721
 8497SOL    HW126390   6.908   0.767   3.760
 8497SOL    HW226391   6.772   0.682   3.791
 8498SOL     OW26392   4.546   0.473   3.884
 8498SOL    HW126393   4.630   0.437   3.842
 8498SOL    HW226394   4.471   0.468   3.819
 8499SOL     OW26395   6.207   6.635   6.245
 8499SOL    HW126396   6.179   6.650   6.340
 8499SOL    HW226397   6.307   6.632   6.239
 8500SOL     OW26398   1.116   0.307   4.725
 8500SOL    HW126399   1.164   0.254   4.795
 8500SOL    HW226400   1.165   0.300   4.639
 8501SOL     OW26401   0.896   2.170   6.380
 8501SOL    HW126402   0.979   2.133   6.423
 8501SOL    HW226403   0.842   2.095   6.342
 8502SOL     OW26404   0.934   3.455   6.993
 8502SOL    HW126405   0.844   3.497   6.979
 8502SOL    HW226406   1.005   3.524   6.984
 8503SOL     OW26407   5.847   1.043   4.571
 8503SOL    HW126408   5.871   0.975   4.640
 8503SOL    HW226409   5.770   1.098   4.605
 8504SOL     OW26410   1.210   6.115   1.862
 8504SOL    HW126411   1.153   6.167   1.798
 8504SOL    HW226412   1.289   6.171   1.888
 8505SOL     OW26413   5.031   3.309   3.305
 8505SOL    HW126414   5.016   3.296   3.207
 8505SOL    HW226415   4.990   3.396   3.333
 8506SOL     OW26416   2.244   0.121   6.664
 8506SOL    HW126417   2.260   0.210   6.623
 8506SOL    HW226418   2.211   0.132   6.758
 8507SOL     OW26419   4.041   5.765   5.330
 8507SOL    HW126420   4.087   5.681   5.304
 8507SOL    HW226421   3.983   5.796   5.255
 8508SOL     OW26422   3.284   1.692   6.724
 8508SOL    HW126423   3.225   1.733   6.794
 8508SOL    HW226424   3.250   1.716   6.634
 8509SOL     OW26425   5.710   1.963   3.254
 8509SOL    HW126426   5.680   1.874   3.288
 8509SOL    HW226427   5.710   2.030   3.328
 8510SOL     OW26428   6.731   2.134   4.267
 8510SOL    HW126429   6.682   2.218   4.242
 8510SOL    HW226430   6.763   2.088   4.185
 8511SOL     OW26431   5.776   2.521   2.087
 8511SOL    HW126432   5.844   2.451   2.108
 8511SOL    HW226433   5.688   2.495   2.128
 8512SOL     OW26434   2.365   0.061   5.606
 8512SOL    HW126435   2.420   7.005   5.583
 8512SOL    HW226436   2.348   0.063   5.704
 8513SOL     OW26437   5.245   6.641   6.293
 8513SOL    HW126438   5.158   6.606   6.326
 8513SOL    HW226439   5.229   6.694   6.209
 8514SOL     OW26440   2.703   6.418   3.685
 8514SOL    HW126441   2.705   6.389   3.780
 8514SOL    HW226442   2.791   6.460   3.661
 8515SOL     OW26443   5.573   1.615   0.622
 8515SOL    HW126444   5.537   1.620   0.715
 8515SOL    HW226445   5.632   1.535   0.613
 8516SOL     OW26446   6.832   2.330   2.516
 8516SOL    HW126447   6.867   2.394   2.584
 8516SOL    HW226448   6.909   2.291   2.464
 8517SOL     OW26449   1.341   3.881   0.315
 8517SOL    HW126450   1.413   3.852   0.253
 8517SOL    HW226451   1.290   3.801   0.347
 8518SOL     OW26452   3.368   5.590   0.851
 8518SOL    HW126453   3.356   5.638   0.938
 8518SOL    HW226454   3.422   5.646   0.789
 8519SOL     OW26455   1.588   4.786   2.886
 8519SOL    HW126456   1.554   4.749   2.973
 8519SOL    HW226457   1.594   4.885   2.892
 8520SOL     OW26458   3.041   0.478   0.259
 8520SOL    HW126459   3.108   0.425   0.311
 8520SOL    HW226460   2.951   0.468   0.302
 8521SOL     OW26461   1.129   6.949   6.570
 8521SOL    HW126462   1.199   6.888   6.606
 8521SOL    HW226463   1.041   6.901   6.570
 8522SOL     OW26464   1.857   5.898   5.268
 8522SOL    HW126465   1.859   5.990   5.228
 8522SOL    HW226466   1.767   5.858   5.253
 8523SOL     OW26467   1.558   0.083   6.839
 8523SOL    HW126468   1.573   0.064   6.742
 8523SOL    HW226469   1.612   0.019   6.895
 8524SOL     OW26470   1.483   2.534   5.899
 8524SOL    HW126471   1.576   2.562   5.879
 8524SOL    HW226472   1.464   2.445   5.856
 8525SOL     OW26473   5.143   2.956   2.878
 8525SOL    HW126474   5.130   2.951   2.977
 8525SOL    HW226475   5.071   2.903   2.832
 8526SOL     OW26476   2.271   2.865   1.985
 8526SOL    HW126477   2.359   2.860   1.938
 8526SOL    HW226478   2.229   2.954   1.969
 8527SOL     OW26479   4.328   0.185   4.202
 8527SOL    HW126480   4.399   0.148   4.142
 8527SOL    HW226481   4.276   0.255   4.154
 8528SOL     OW26482   5.078   2.693   6.762
 8528SOL    HW126483   4.992   2.720   6.806
 8528SOL    HW226484   5.085   2.593   6.762
 8529SOL     OW26485   0.391   4.392   0.051
 8529SOL    HW126486   0.349   4.466   0.103
 8529SOL    HW226487   0.438   4.330   0.113
 8530SOL     OW26488   1.334   3.145   5.655
 8530SOL    HW126489   1.291   3.170   5.742
 8530SOL    HW226490   1.433   3.151   5.663
 8531SOL     OW26491   4.478   4.835   2.699
 8531SOL    HW126492   4.538   4.817   2.776
 8531SOL    HW226493   4.509   4.784   2.619
 8532SOL     OW26494   1.420   4.251   5.776
 8532SOL    HW126495   1.516   4.228   5.762
 8532SOL    HW226496   1.385   4.203   5.856
 8533SOL     OW26497   3.491   0.428   6.044
 8533SOL    HW126498   3.495   0.499   6.115
 8533SOL    HW226499   3.428   0.356   6.073
 8534SOL     OW26500   1.709   2.785   2.892
 8534SOL    HW126501   1.751   2.742   2.972
 8534SOL    HW226502   1.755   2.872   2.873
 8535SOL     OW26503   6.913   2.923   4.023
 8535SOL    HW126504   7.005   2.911   4.061
 8535SOL    HW226505   6.889   2.841   3.971
 8536SOL     OW26506   0.098   1.578   4.940
 8536SOL    HW126507   0.146   1.665   4.953
 8536SOL    HW226508   0.002   1.589   4.969
 8537SOL     OW26509   6.101   0.570   1.792
 8537SOL    HW126510   6.130   0.508   1.865
 8537SOL    HW226511   6.122   0.529   1.704
 8538SOL     OW26512   6.082   1.592   4.895
 8538SOL    HW126513   6.050   1.664   4.834
 8538SOL    HW226514   6.043   1.504   4.868
 8539SOL     OW26515   6.909   2.954   2.224
 8539SOL    HW126516   6.990   2.939   2.281
 8539SOL    HW226517   6.841   2.883   2.243
 8540SOL     OW26518   4.218   0.253   0.158
 8540SOL    HW126519   4.209   0.279   0.254
 8540SOL    HW226520   4.312   0.223   0.140
 8541SOL     OW26521   3.582   6.702   5.330
 8541SOL    HW126522   3.609   6.606   5.321
 8541SOL    HW226523   3.602   6.750   5.245
 8542SOL     OW26524   1.023   4.910   6.147
 8542SOL    HW126525   0.984   5.000   6.128
 8542SOL    HW226526   1.051   4.868   6.061
 8543SOL     OW26527   2.193   2.250   5.843
 8543SOL    HW126528   2.237   2.337   5.825
 8543SOL    HW226529   2.254   2.191   5.895
 8544SOL     OW26530   5.373   4.408   5.566
 8544SOL    HW126531   5.395   4.371   5.657
 8544SOL    HW226532   5.407   4.502   5.559
 8545SOL     OW26533   2.802   0.513   6.465
 8545SOL    HW126534   2.707   0.486   6.477
 8545SOL    HW226535   2.856   0.434   6.435
 8546SOL     OW26536   5.197   0.905   2.247
 8546SOL    HW126537   5.210   0.853   2.163
 8546SOL    HW226538   5.213   0.846   2.326
 8547SOL     OW26539   5.714   5.882   5.548
 8547SOL    HW126540   5.652   5.846   5.618
 8547SOL    HW226541   5.667   5.881   5.460
 8548SOL     OW26542   0.574   3.504   5.408
 8548SOL    HW126543   0.485   3.503   5.454
 8548SOL    HW226544   0.602   3.410   5.388
 8549SOL     OW26545   2.050   7.001   4.017
 8549SOL    HW126546   2.078   6.937   3.946
 8549SOL    HW226547   2.074   0.070   3.988
 8550SOL     OW26548   6.556   4.133   6.440
 8550SOL    HW126549   6.564   4.041   6.478
 8550SOL    HW226550   6.565   4.200   6.513
 8551SOL     OW26551   1.896   0.988   6.076
 8551SOL    HW126552   1.887   0.949   5.984
 8551SOL    HW226553   1.937   0.921   6.137
 8552SOL     OW26554   3.179   1.881   3.214
 8552SOL    HW126555   3.165   1.848   3.308
 8552SOL    HW226556   3.237   1.816   3.164
 8553SOL     OW26557   4.989   4.402   0.107
 8553SOL    HW126558   5.079   4.426   0.072
 8553SOL    HW226559   4.952   4.324   0.055
 8554SOL     OW26560   2.471   1.026   0.892
 8554SOL    HW126561   2.494   1.083   0.813
 8554SOL    HW226562   2.474   1.082   0.976
 8555SOL     OW26563   3.863   1.209   4.070
 8555SOL    HW126564   3.793   1.256   4.125
 8555SOL    HW226565   3.943   1.192   4.127
 8556SOL     OW26566   1.933   5.759   0.358
 8556SOL    HW126567   2.032   5.764   0.348
 8556SOL    HW226568   1.909   5.678   0.412
 8557SOL     OW26569   7.005   0.910   6.600
 8557SOL    HW126570   0.015   0.865   6.683
 8557SOL    HW226571   7.005   0.845   6.524
 8558SOL     OW26572   3.090   6.132   4.307
 8558SOL    HW126573   3.056   6.190   4.381
 8558SOL    HW226574   3.059   6.038   4.322
 8559SOL     OW26575   1.828   4.687   2.770
 8559SOL    HW126576   1.848   4.608   2.829
 8559SOL    HW226577   1.754   4.741   2.811
 8560SOL     OW26578   2.613   4.892   1.057
 8560SOL    HW126579   2.533   4.832   1.060
 8560SOL    HW226580   2.671   4.874   1.136
 8561SOL     OW26581   4.808   1.030   2.651
 8561SOL    HW126582   4.714   1.003   2.630
 8561SOL    HW226583   4.855   1.053   2.566
 8562SOL     OW26584   5.101   2.096   6.738
 8562SOL    HW126585   5.055   2.027   6.682
 8562SOL    HW226586   5.177   2.135   6.687
 8563SOL     OW26587   2.433   5.363   2.155
 8563SOL    HW126588   2.368   5.337   2.227
 8563SOL    HW226589   2.520   5.390   2.197
 8564SOL     OW26590   3.974   0.150   0.223
 8564SOL    HW126591   3.911   0.081   0.188
 8564SOL    HW226592   4.051   0.160   0.161
 8565SOL     OW26593   1.802   4.917   0.721
 8565SOL    HW126594   1.756   4.859   0.654
 8565SOL    HW226595   1.803   4.871   0.810
 8566SOL     OW26596   3.275   1.235   2.279
 8566SOL    HW126597   3.251   1.155   2.224
 8566SOL    HW226598   3.368   1.227   2.313
 8567SOL     OW26599   1.399   3.085   2.070
 8567SOL    HW126600   1.447   3.146   2.006
 8567SOL    HW226601   1.300   3.101   2.064
 8568SOL     OW26602   6.064   0.758   6.636
 8568SOL    HW126603   6.039   0.855   6.630
 8568SOL    HW226604   6.007   0.705   6.574
 8569SOL     OW26605   3.924   2.084   6.316
 8569SOL    HW126606   3.936   2.077   6.415
 8569SOL    HW226607   3.850   2.149   6.296
 8570SOL     OW26608   1.981   2.527   1.997
 8570SOL    HW126609   1.940   2.507   1.908
 8570SOL    HW226610   1.924   2.593   2.046
 8571SOL     OW26611   1.693   1.093   2.870
 8571SOL    HW126612   1.686   1.168   2.936
 8571SOL    HW226613   1.756   1.119   2.796
 8572SOL     OW26614   2.496   4.560   5.856
 8572SOL    HW126615   2.596   4.559   5.849
 8572SOL    HW226616   2.464   4.654   5.869
 8573SOL     OW26617   3.644   6.374   0.340
 8573SOL    HW126618   3.620   6.470   0.321
 8573SOL    HW226619   3.661   6.326   0.254
 8574SOL     OW26620   5.419   0.708   5.086
 8574SOL    HW126621   5.354   0.638   5.056
 8574SOL    HW226622   5.446   0.764   5.007
 8575SOL     OW26623   3.010   6.015   3.690
 8575SOL    HW126624   2.973   5.926   3.664
 8575SOL    HW226625   2.958   6.051   3.767
 8576SOL     OW26626   1.413   4.870   3.509
 8576SOL    HW126627   1.346   4.802   3.483
 8576SOL    HW226628   1.484   4.876   3.439
 8577SOL     OW26629   1.573   1.968   0.433
 8577SOL    HW126630   1.598   2.061   0.461
 8577SOL    HW226631   1.576   1.962   0.333
 8578SOL     OW26632   6.970   6.662   6.639
 8578SOL    HW126633   7.019   6.619   6.563
 8578SOL    HW226634   6.898   6.721   6.603
 8579SOL     OW26635   2.800   6.559   2.271
 8579SOL    HW126636   2.854   6.576   2.353
 8579SOL    HW226637   2.721   6.502   2.294
 8580SOL     OW26638   2.005   0.639   1.133
 8580SOL    HW126639   2.058   0.586   1.068
 8580SOL    HW226640   1.908   0.633   1.110
 8581SOL     OW26641   3.498   4.898   1.593
 8581SOL    HW126642   3.414   4.883   1.644
 8581SOL    HW226643   3.479   4.953   1.511
 8582SOL     OW26644   3.304   4.663   5.891
 8582SOL    HW126645   3.356   4.700   5.814
 8582SOL    HW226646   3.206   4.668   5.869
 8583SOL     OW26647   4.219   0.749   2.766
 8583SOL    HW126648   4.185   0.763   2.859
 8583SOL    HW226649   4.179   0.819   2.705
 8584SOL     OW26650   0.078   1.808   5.315
 8584SOL    HW126651   0.065   1.860   5.231
 8584SOL    HW226652   7.020   1.811   5.371
 8585SOL     OW26653   5.207   2.693   2.231
 8585SOL    HW126654   5.225   2.787   2.204
 8585SOL    HW226655   5.240   2.678   2.324
 8586SOL     OW26656   6.759   6.051   0.540
 8586SOL    HW126657   6.836   6.110   0.515
 8586SOL    HW226658   6.792   5.959   0.558
 8587SOL     OW26659   0.622   1.645   6.795
 8587SOL    HW126660   0.700   1.668   6.736
 8587SOL    HW226661   0.584   1.557   6.768
 8588SOL     OW26662   2.837   1.891   6.199
 8588SOL    HW126663   2.801   1.853   6.284
 8588SOL    HW226664   2.848   1.990   6.208
 8589SOL     OW26665   6.363   2.790   6.693
 8589SOL    HW126666   6.330   2.840   6.613
 8589SOL    HW226667   6.293   2.724   6.722
 8590SOL     OW26668   1.231   0.389   4.491
 8590SOL    HW126669   1.266   0.295   4.498
 8590SOL    HW226670   1.261   0.429   4.405
 8591SOL     OW26671   6.901   4.086   6.588
 8591SOL    HW126672   6.877   4.047   6.499
 8591SOL    HW226673   6.857   4.175   6.599
 8592SOL     OW26674   0.510   1.847   5.206
 8592SOL    HW126675   0.471   1.757   5.224
 8592SOL    HW226676   0.447   1.918   5.238
 8593SOL     OW26677   4.358   1.365   0.069
 8593SOL    HW126678   4.298   1.311   0.128
 8593SOL    HW226679   4.369   1.457   0.108
 8594SOL     OW26680   6.454   2.975   5.967
 8594SOL    HW126681   6.372   2.967   6.024
 8594SOL    HW226682   6.459   2.897   5.905
 8595SOL     OW26683   6.149   6.852   3.342
 8595SOL    HW126684   6.182   6.763   3.375
 8595SOL    HW226685   6.184   6.924   3.402
 8596SOL     OW26686   0.909   1.307   4.259
 8596SOL    HW126687   0.915   1.312   4.160
 8596SOL    HW226688   1.000   1.319   4.299
 8597SOL     OW26689   5.321   3.686   0.131
 8597SOL    HW126690   5.256   3.643   0.068
 8597SOL    HW226691   5.280   3.693   0.222
 8598SOL     OW26692   5.742   6.469   4.742
 8598SOL    HW126693   5.833   6.448   4.779
 8598SOL    HW226694   5.752   6.508   4.650
 8599SOL     OW26695   6.956   3.715   4.142
 8599SOL    HW126696   6.944   3.628   4.189
 8599SOL    HW226697   6.957   3.700   4.043
 8600SOL     OW26698   4.683   1.681   0.897
 8600SOL    HW126699   4.634   1.689   0.984
 8600SOL    HW226700   4.630   1.723   0.825
 8601SOL     OW26701   0.713   5.863   4.009
 8601SOL    HW126702   0.742   5.773   4.042
 8601SOL    HW226703   0.629   5.852   3.955
 8602SOL     OW26704   2.330   6.234   5.026
 8602SOL    HW126705   2.272   6.261   5.102
 8602SOL    HW226706   2.380   6.313   4.991
 8603SOL     OW26707   0.150   0.195   0.544
 8603SOL    HW126708   0.182   0.257   0.615
 8603SOL    HW226709   0.129   0.247   0.461
 8604SOL     OW26710   0.292   4.319   6.642
 8604SOL    HW126711   0.238   4.367   6.573
 8604SOL    HW226712   0.339   4.385   6.701
 8605SOL     OW26713   6.282   4.892   4.716
 8605SOL    HW126714   6.288   4.974   4.658
 8605SOL    HW226715   6.356   4.830   4.693
 8606SOL     OW26716   1.995   2.339   0.688
 8606SOL    HW126717   1.901   2.369   0.707
 8606SOL    HW226718   1.992   2.251   0.640
 8607SOL     OW26719   2.667   4.292   1.451
 8607SOL    HW126720   2.618   4.375   1.479
 8607SOL    HW226721   2.674   4.230   1.529
 8608SOL     OW26722   1.866   5.083   2.760
 8608SOL    HW126723   1.964   5.100   2.752
 8608SOL    HW226724   1.818   5.129   2.684
 8609SOL     OW26725   4.178   1.754   4.266
 8609SOL    HW126726   4.215   1.730   4.177
 8609SOL    HW226727   4.117   1.833   4.258
 8610SOL     OW26728   6.643   6.290   3.308
 8610SOL    HW126729   6.708   6.278   3.382
 8610SOL    HW226730   6.671   6.234   3.229
 8611SOL     OW26731   3.083   1.595   5.128
 8611SOL    HW126732   3.134   1.572   5.045
 8611SOL    HW226733   3.078   1.694   5.139
 8612SOL     OW26734   3.519   4.142   3.979
 8612SOL    HW126735   3.503   4.043   3.986
 8612SOL    HW226736   3.545   4.178   4.068
 8613SOL     OW26737   3.947   3.033   2.089
 8613SOL    HW126738   3.884   3.110   2.081
 8613SOL    HW226739   3.947   2.981   2.004
 8614SOL     OW26740   1.670   1.326   3.096
 8614SOL    HW126741   1.646   1.378   3.014
 8614SOL    HW226742   1.754   1.364   3.136
 8615SOL     OW26743   4.085   1.246   4.432
 8615SOL    HW126744   4.101   1.302   4.351
 8615SOL    HW226745   4.100   1.301   4.515
 8616SOL     OW26746   5.576   4.374   2.963
 8616SOL    HW126747   5.494   4.428   2.940
 8616SOL    HW226748   5.571   4.346   3.059
 8617SOL     OW26749   2.871   0.403   3.656
 8617SOL    HW126750   2.784   0.425   3.611
 8617SOL    HW226751   2.919   0.333   3.603
 8618SOL     OW26752   5.089   4.533   1.013
 8618SOL    HW126753   5.102   4.600   0.940
 8618SOL    HW226754   5.155   4.550   1.086
 8619SOL     OW26755   4.857   5.264   0.737
 8619SOL    HW126756   4.761   5.291   0.732
 8619SOL    HW226757   4.902   5.284   0.650
 8620SOL     OW26758   2.471   0.762   4.482
 8620SOL    HW126759   2.432   0.671   4.464
 8620SOL    HW226760   2.463   0.782   4.580
 8621SOL     OW26761   5.719   3.124   1.746
 8621SOL    HW126762   5.722   3.109   1.647
 8621SOL    HW226763   5.686   3.042   1.792
 8622SOL     OW26764   6.735   5.120   2.860
 8622SOL    HW126765   6.793   5.194   2.894
 8622SOL    HW226766   6.686   5.150   2.779
 8623SOL     OW26767   0.994   3.562   4.089
 8623SOL    HW126768   0.954   3.653   4.073
 8623SOL    HW226769   0.989   3.508   4.005
 8624SOL     OW26770   3.031   4.064   4.917
 8624SOL    HW126771   3.005   4.161   4.917
 8624SOL    HW226772   2.952   4.009   4.945
 8625SOL     OW26773   4.067   2.723   5.831
 8625SOL    HW126774   4.007   2.802   5.815
 8625SOL    HW226775   4.162   2.753   5.835
 8626SOL     OW26776   3.507   3.738   0.784
 8626SOL    HW126777   3.491   3.748   0.882
 8626SOL    HW226778   3.424   3.702   0.741
 8627SOL     OW26779   1.830   0.684   1.754
 8627SOL    HW126780   1.826   0.586   1.771
 8627SOL    HW226781   1.738   0.719   1.734
 8628SOL     OW26782   0.430   6.396   1.133
 8628SOL    HW126783   0.496   6.465   1.104
 8628SOL    HW226784   0.476   6.307   1.141
 8629SOL     OW26785   0.120   6.425   5.718
 8629SOL    HW126786   0.217   6.399   5.718
 8629SOL    HW226787   0.112   6.523   5.699
 8630SOL     OW26788   4.957   3.308   2.349
 8630SOL    HW126789   4.922   3.226   2.303
 8630SOL    HW226790   4.937   3.388   2.293
 8631SOL     OW26791   2.402   6.850   6.894
 8631SOL    HW126792   2.328   6.790   6.863
 8631SOL    HW226793   2.483   6.796   6.915
 8632SOL     OW26794   5.361   5.307   5.643
 8632SOL    HW126795   5.385   5.265   5.730
 8632SOL    HW226796   5.429   5.377   5.619
 8633SOL     OW26797   5.700   4.678   6.003
 8633SOL    HW126798   5.720   4.613   6.076
 8633SOL    HW226799   5.602   4.678   5.984
 8634SOL     OW26800   4.362   2.609   0.547
 8634SOL    HW126801   4.449   2.615   0.595
 8634SOL    HW226802   4.290   2.584   0.612
 8635SOL     OW26803   5.367   2.647   5.807
 8635SOL    HW126804   5.298   2.610   5.745
 8635SOL    HW226805   5.322   2.683   5.889
 8636SOL     OW26806   4.503   6.996   2.037
 8636SOL    HW126807   4.555   6.913   2.057
 8636SOL    HW226808   4.520   0.040   2.107
 8637SOL     OW26809   1.300   2.106   0.145
 8637SOL    HW126810   1.362   2.181   0.122
 8637SOL    HW226811   1.209   2.143   0.167
 8638SOL     OW26812   4.990   2.323   4.040
 8638SOL    HW126813   5.007   2.412   3.998
 8638SOL    HW226814   4.908   2.329   4.097
 8639SOL     OW26815   3.630   3.857   0.067
 8639SOL    HW126816   3.611   3.787   0.136
 8639SOL    HW226817   3.680   3.816   7.015
 8640SOL     OW26818   2.935   3.200   0.666
 8640SOL    HW126819   2.847   3.238   0.640
 8640SOL    HW226820   2.926   3.151   0.753
 8641SOL     OW26821   4.651   5.749   2.004
 8641SOL    HW126822   4.711   5.784   1.931
 8641SOL    HW226823   4.671   5.652   2.018
 8642SOL     OW26824   0.809   5.724   3.505
 8642SOL    HW126825   0.858   5.686   3.426
 8642SOL    HW226826   0.774   5.649   3.561
 8643SOL     OW26827   3.999   6.274   1.177
 8643SOL    HW126828   3.918   6.304   1.126
 8643SOL    HW226829   3.970   6.227   1.260
 8644SOL     OW26830   6.287   2.073   6.151
 8644SOL    HW126831   6.313   1.976   6.153
 8644SOL    HW226832   6.340   2.120   6.081
 8645SOL     OW26833   5.740   4.242   2.777
 8645SOL    HW126834   5.711   4.234   2.682
 8645SOL    HW226835   5.671   4.290   2.830
 8646SOL     OW26836   6.552   1.907   5.227
 8646SOL    HW126837   6.465   1.952   5.245
 8646SOL    HW226838   6.582   1.860   5.310
 8647SOL     OW26839   2.100   5.344   1.794
 8647SOL    HW126840   2.014   5.314   1.835
 8647SOL    HW226841   2.082   5.418   1.729
 8648SOL     OW26842   5.138   4.888   0.887
 8648SOL    HW126843   5.089   4.975   0.887
 8648SOL    HW226844   5.182   4.875   0.976
 8649SOL     OW26845   5.172   0.295   0.729
 8649SOL    HW126846   5.094   0.343   0.689
 8649SOL    HW226847   5.215   0.238   0.658
 8650SOL     OW26848   2.236   6.552   4.818
 8650SOL    HW126849   2.324   6.535   4.863
 8650SOL    HW226850   2.252   6.588   4.726
 8651SOL     OW26851   3.298   1.808   1.271
 8651SOL    HW126852   3.253   1.862   1.200
 8651SOL    HW226853   3.229   1.776   1.337
 8652SOL     OW26854   1.169   2.662   3.547
 8652SOL    HW126855   1.220   2.580   3.523
 8652SOL    HW226856   1.227   2.723   3.601
 8653SOL     OW26857   6.613   1.575   6.605
 8653SOL    HW126858   6.710   1.579   6.626
 8653SOL    HW226859   6.596   1.615   6.514
 8654SOL     OW26860   0.043   4.602   1.912
 8654SOL    HW126861   0.123   4.543   1.905
 8654SOL    HW226862   0.044   4.650   2.000
 8655SOL     OW26863   0.263   0.442   4.571
 8655SOL    HW126864   0.169   0.435   4.536
 8655SOL    HW226865   0.263   0.494   4.656
 8656SOL     OW26866   5.191   0.248   1.125
 8656SOL    HW126867   5.268   0.186   1.110
 8656SOL    HW226868   5.225   0.342   1.130
 8657SOL     OW26869   4.295   1.348   3.273
 8657SOL    HW126870   4.359   1.273   3.259
 8657SOL    HW226871   4.271   1.389   3.185
 8658SOL     OW26872   6.367   4.298   1.058
 8658SOL    HW126873   6.340   4.385   1.099
 8658SOL    HW226874   6.428   4.315   0.981
 8659SOL     OW26875   3.462   1.414   2.952
 8659SOL    HW126876   3.423   1.325   2.974
 8659SOL    HW226877   3.531   1.403   2.880
 8660SOL     OW26878   6.800   3.849   1.828
 8660SOL    HW126879   6.750   3.883   1.908
 8660SOL    HW226880   6.825   3.753   1.843
 8661SOL     OW26881   6.695   3.967   2.826
 8661SOL    HW126882   6.618   4.020   2.789
 8661SOL    HW226883   6.747   3.927   2.750
 8662SOL     OW26884   2.249   4.140   2.973
 8662SOL    HW126885   2.234   4.218   3.034
 8662SOL    HW226886   2.346   4.135   2.949
 8663SOL     OW26887   4.235   5.566   2.586
 8663SOL    HW126888   4.315   5.603   2.634
 8663SOL    HW226889   4.218   5.472   2.617
 8664SOL     OW26890   3.521   5.909   3.867
 8664SOL    HW126891   3.577   5.923   3.785
 8664SOL    HW226892   3.530   5.988   3.927
 8665SOL     OW26893   5.187   3.539   6.959
 8665SOL    HW126894   5.260   3.474   6.938
 8665SOL    HW226895   5.104   3.489   6.986
 8666SOL     OW26896   4.476   6.921   2.464
 8666SOL    HW126897   4.405   6.853   2.445
 8666SOL    HW226898   4.519   6.900   2.552
 8667SOL     OW26899   4.802   2.253   2.799
 8667SOL    HW126900   4.816   2.215   2.707
 8667SOL    HW226901   4.732   2.199   2.846
 8668SOL     OW26902   5.149   2.555   4.707
 8668SOL    HW126903   5.222   2.538   4.640
 8668SOL    HW226904   5.115   2.468   4.741
 8669SOL     OW26905   6.357   6.119   6.423
 8669SOL    HW126906   6.265   6.096   6.455
 8669SOL    HW226907   6.369   6.086   6.329
 8670SOL     OW26908   6.328   4.112   6.303
 8670SOL    HW126909   6.290   4.201   6.277
 8670SOL    HW226910   6.423   4.123   6.332
 8671SOL     OW26911   0.392   2.835   2.791
 8671SOL    HW126912   0.310   2.882   2.759
 8671SOL    HW226913   0.437   2.790   2.713
 8672SOL     OW26914   0.711   0.849   3.152
 8672SOL    HW126915   0.703   0.943   3.120
 8672SOL    HW226916   0.695   0.787   3.075
 8673SOL     OW26917   0.390   1.722   1.665
 8673SOL    HW126918   0.372   1.627   1.638
 8673SOL    HW226919   0.311   1.779   1.640
 8674SOL     OW26920   6.844   3.856   3.830
 8674SOL    HW126921   6.776   3.799   3.876
 8674SOL    HW226922   6.881   3.807   3.752
 8675SOL     OW26923   3.285   2.118   5.265
 8675SOL    HW126924   3.369   2.097   5.215
 8675SOL    HW226925   3.240   2.197   5.224
 8676SOL     OW26926   5.289   1.284   0.831
 8676SOL    HW126927   5.389   1.289   0.826
 8676SOL    HW226928   5.253   1.256   0.742
 8677SOL     OW26929   2.667   6.625   6.167
 8677SOL    HW126930   2.622   6.542   6.134
 8677SOL    HW226931   2.684   6.686   6.089
 8678SOL     OW26932   1.348   1.942   0.652
 8678SOL    HW126933   1.446   1.949   0.632
 8678SOL    HW226934   1.296   1.951   0.567
 8679SOL     OW26935   1.204   1.822   5.764
 8679SOL    HW126936   1.241   1.744   5.713
 8679SOL    HW226937   1.244   1.824   5.855
 8680SOL     OW26938   6.804   0.950   0.360
 8680SOL    HW126939   6.825   0.946   0.262
 8680SOL    HW226940   6.721   1.003   0.375
 8681SOL     OW26941   5.436   6.688   1.622
 8681SOL    HW126942   5.348   6.689   1.669
 8681SOL    HW226943   5.494   6.762   1.658
 8682SOL     OW26944   1.708   0.624   1.126
 8682SOL    HW126945   1.677   0.687   1.197
 8682SOL    HW226946   1.640   0.622   1.052
 8683SOL     OW26947   1.607   4.071   4.330
 8683SOL    HW126948   1.561   4.149   4.289
 8683SOL    HW226949   1.670   4.103   4.401
 8684SOL     OW26950   1.364   3.745   4.164
 8684SOL    HW126951   1.296   3.715   4.231
 8684SOL    HW226952   1.352   3.693   4.079
 8685SOL     OW26953   4.963   2.067   4.898
 8685SOL    HW126954   4.896   2.110   4.959
 8685SOL    HW226955   4.976   1.971   4.926
 8686SOL     OW26956   1.229   5.741   2.743
 8686SOL    HW126957   1.137   5.704   2.755
 8686SOL    HW226958   1.274   5.747   2.832
 8687SOL     OW26959   4.938   4.578   6.055
 8687SOL    HW126960   4.885   4.662   6.069
 8687SOL    HW226961   4.916   4.540   5.965
 8688SOL     OW26962   0.394   4.045   5.305
 8688SOL    HW126963   0.335   4.107   5.357
 8688SOL    HW226964   0.338   3.985   5.249
 8689SOL     OW26965   3.850   3.554   0.098
 8689SOL    HW126966   3.900   3.640   0.112
 8689SOL    HW226967   3.755   3.566   0.127
 8690SOL     OW26968   1.585   2.529   3.084
 8690SOL    HW126969   1.601   2.574   3.172
 8690SOL    HW226970   1.671   2.497   3.046
 8691SOL     OW26971   3.322   2.575   5.339
 8691SOL    HW126972   3.289   2.499   5.283
 8691SOL    HW226973   3.375   2.540   5.416
 8692SOL     OW26974   4.295   1.643   5.226
 8692SOL    HW126975   4.231   1.568   5.242
 8692SOL    HW226976   4.337   1.633   5.136
 8693SOL     OW26977   6.251   6.893   6.128
 8693SOL    HW126978   6.248   6.796   6.155
 8693SOL    HW226979   6.212   6.949   6.201
 8694SOL     OW26980   5.901   3.668   4.831
 8694SOL    HW126981   5.845   3.737   4.786
 8694SOL    HW226982   5.868   3.654   4.924
 8695SOL     OW26983   3.743   4.543   6.338
 8695SOL    HW126984   3.834   4.508   6.317
 8695SOL    HW226985   3.750   4.635   6.377
 8696SOL     OW26986   2.843   4.694   6.027
 8696SOL    HW126987   2.805   4.669   6.116
 8696SOL    HW226988   2.836   4.616   5.965
 8697SOL     OW26989   1.852   3.789   5.550
 8697SOL    HW126990   1.804   3.862   5.599
 8697SOL    HW226991   1.900   3.828   5.471
 8698SOL     OW26992   5.550   5.506   5.568
 8698SOL    HW126993   5.608   5.477   5.492
 8698SOL    HW226994   5.604   5.508   5.652
 8699SOL     OW26995   1.292   2.881   6.425
 8699SOL    HW126996   1.244   2.807   6.471
 8699SOL    HW226997   1.332   2.943   6.493
 8700SOL     OW26998   1.262   0.291   3.959
 8700SOL    HW126999   1.221   0.323   4.044
 8700SOL    HW227000   1.230   0.198   3.940
 8701SOL     OW27001   0.404   2.593   0.579
 8701SOL    HW127002   0.479   2.607   0.644
 8701SOL    HW227003   0.386   2.496   0.569
 8702SOL     OW27004   5.205   4.915   1.930
 8702SOL    HW127005   5.220   4.918   1.831
 8702SOL    HW227006   5.139   4.843   1.951
 8703SOL     OW27007   2.061   5.780   1.124
 8703SOL    HW127008   2.038   5.701   1.067
 8703SOL    HW227009   1.978   5.831   1.146
 8704SOL     OW27010   1.059   0.456   4.944
 8704SOL    HW127011   1.001   0.535   4.927
 8704SOL    HW227012   1.089   0.417   4.857
 8705SOL     OW27013   4.069   2.380   6.886
 8705SOL    HW127014   4.027   2.335   6.808
 8705SOL    HW227015   3.998   2.419   6.944
 8706SOL     OW27016   4.610   3.319   6.333
 8706SOL    HW127017   4.689   3.356   6.284
 8706SOL    HW227018   4.527   3.330   6.277
 8707SOL     OW27019   1.561   1.999   5.479
 8707SOL    HW127020   1.470   1.999   5.520
 8707SOL    HW227021   1.593   1.905   5.469
 8708SOL     OW27022   6.017   2.755   0.142
 8708SOL    HW127023   6.106   2.797   0.127
 8708SOL    HW227024   5.969   2.747   0.055
 8709SOL     OW27025   6.186   6.821   5.646
 8709SOL    HW127026   6.154   6.734   5.682
 8709SOL    HW227027   6.209   6.882   5.721
 8710SOL     OW27028   2.471   0.926   3.421
 8710SOL    HW127029   2.420   0.994   3.474
 8710SOL    HW227030   2.512   0.970   3.341
 8711SOL     OW27031   1.382   1.018   1.742
 8711SOL    HW127032   1.311   1.019   1.671
 8711SOL    HW227033   1.405   1.112   1.768
 8712SOL     OW27034   1.970   4.080   5.891
 8712SOL    HW127035   1.881   4.092   5.847
 8712SOL    HW227036   2.005   3.989   5.870
 8713SOL     OW27037   7.009   4.021   1.767
 8713SOL    HW127038   6.929   3.970   1.796
 8713SOL    HW227039   0.021   4.074   1.843
 8714SOL     OW27040   0.063   5.889   6.575
 8714SOL    HW127041   0.063   5.790   6.593
 8714SOL    HW227042   0.062   5.938   6.662
 8715SOL     OW27043   2.060   3.378   1.486
 8715SOL    HW127044   2.085   3.319   1.410
 8715SOL    HW227045   1.983   3.338   1.536
 8716SOL     OW27046   6.765   6.839   2.241
 8716SOL    HW127047   6.713   6.879   2.166
 8716SOL    HW227048   6.809   6.755   2.211
 8717SOL     OW27049   2.889   3.842   0.633
 8717SOL    HW127050   2.873   3.908   0.561
 8717SOL    HW227051   2.895   3.750   0.594
 8718SOL     OW27052   2.107   4.836   6.215
 8718SOL    HW127053   2.171   4.887   6.272
 8718SOL    HW227054   2.117   4.864   6.119
 8719SOL     OW27055   3.470   0.539   5.607
 8719SOL    HW127056   3.440   0.630   5.581
 8719SOL    HW227057   3.475   0.481   5.526
 8720SOL     OW27058   6.741   5.270   4.908
 8720SOL    HW127059   6.698   5.252   4.996
 8720SOL    HW227060   6.725   5.193   4.847
 8721SOL     OW27061   0.355   0.266   6.810
 8721SOL    HW127062   0.412   0.333   6.857
 8721SOL    HW227063   0.401   0.235   6.727
 8722SOL     OW27064   3.469   0.937   1.411
 8722SOL    HW127065   3.532   0.919   1.487
 8722SOL    HW227066   3.493   0.878   1.334
 8723SOL     OW27067   4.204   0.448   2.730
 8723SOL    HW127068   4.298   0.451   2.695
 8723SOL    HW227069   4.155   0.529   2.699
 8724SOL     OW27070   4.143   0.981   4.392
 8724SOL    HW127071   4.115   1.076   4.406
 8724SOL    HW227072   4.131   0.956   4.296
 8725SOL     OW27073   0.271   6.756   3.535
 8725SOL    HW127074   0.309   6.707   3.613
 8725SOL    HW227075   0.296   6.709   3.450
 8726SOL     OW27076   0.129   0.676   0.905
 8726SOL    HW127077   0.223   0.658   0.934
 8726SOL    HW227078   0.120   0.655   0.808
 8727SOL     OW27079   4.690   6.532   5.942
 8727SOL    HW127080   4.674   6.473   5.862
 8727SOL    HW227081   4.612   6.525   6.005
 8728SOL     OW27082   6.788   7.013   3.786
 8728SOL    HW127083   6.831   0.052   3.850
 8728SOL    HW227084   6.758   0.038   3.705
 8729SOL     OW27085   4.447   5.971   6.344
 8729SOL    HW127086   4.420   5.929   6.431
 8729SOL    HW227087   4.468   6.068   6.359
 8730SOL     OW27088   4.636   5.286   1.321
 8730SOL    HW127089   4.629   5.334   1.233
 8730SOL    HW227090   4.624   5.188   1.306
 8731SOL     OW27091   0.222   1.584   3.544
 8731SOL    HW127092   0.154   1.533   3.492
 8731SOL    HW227093   0.272   1.521   3.604
 8732SOL     OW27094   5.998   6.779   0.310
 8732SOL    HW127095   6.074   6.777   0.374
 8732SOL    HW227096   5.913   6.760   0.358
 8733SOL     OW27097   6.089   5.304   2.150
 8733SOL    HW127098   6.152   5.362   2.202
 8733SOL    HW227099   6.017   5.361   2.111
 8734SOL     OW27100   6.840   3.769   2.639
 8734SOL    HW127101   6.896   3.848   2.613
 8734SOL    HW227102   6.854   3.694   2.575
 8735SOL     OW27103   0.182   3.602   5.203
 8735SOL    HW127104   0.116   3.633   5.272
 8735SOL    HW227105   0.143   3.526   5.152
 8736SOL     OW27106   1.257   6.136   3.978
 8736SOL    HW127107   1.198   6.071   4.027
 8736SOL    HW227108   1.345   6.094   3.960
 8737SOL     OW27109   1.917   6.451   0.009
 8737SOL    HW127110   1.982   6.516   0.048
 8737SOL    HW227111   1.841   6.439   0.073
 8738SOL     OW27112   1.521   2.681   3.310
 8738SOL    HW127113   1.434   2.661   3.265
 8738SOL    HW227114   1.517   2.771   3.354
 8739SOL     OW27115   5.018   4.094   6.056
 8739SOL    HW127116   4.958   4.017   6.036
 8739SOL    HW227117   4.969   4.161   6.111
 8740SOL     OW27118   2.938   0.529   4.813
 8740SOL    HW127119   2.846   0.513   4.777
 8740SOL    HW227120   2.971   0.446   4.860
 8741SOL     OW27121   1.073   0.422   2.681
 8741SOL    HW127122   1.171   0.406   2.686
 8741SOL    HW227123   1.055   0.520   2.675
 8742SOL     OW27124   2.797   1.601   2.418
 8742SOL    HW127125   2.804   1.613   2.517
 8742SOL    HW227126   2.858   1.665   2.372
 8743SOL     OW27127   0.424   2.171   1.509
 8743SOL    HW127128   0.451   2.160   1.605
 8743SOL    HW227129   0.502   2.151   1.450
 8744SOL     OW27130   3.209   4.401   5.727
 8744SOL    HW127131   3.193   4.388   5.825
 8744SOL    HW227132   3.183   4.319   5.678
 8745SOL     OW27133   5.517   0.937   6.214
 8745SOL    HW127134   5.571   1.013   6.177
 8745SOL    HW227135   5.562   0.901   6.296
 8746SOL     OW27136   4.898   5.447   5.131
 8746SOL    HW127137   4.907   5.489   5.221
 8746SOL    HW227138   4.824   5.381   5.132
 8747SOL     OW27139   0.334   0.528   2.281
 8747SOL    HW127140   0.275   0.464   2.231
 8747SOL    HW227141   0.409   0.558   2.221
 8748SOL     OW27142   6.544   2.010   3.625
 8748SOL    HW127143   6.580   2.082   3.683
 8748SOL    HW227144   6.619   1.969   3.572
 8749SOL     OW27145   2.738   1.390   3.900
 8749SOL    HW127146   2.750   1.477   3.948
 8749SOL    HW227147   2.640   1.368   3.897
 8750SOL     OW27148   3.986   3.845   0.144
 8750SOL    HW127149   4.071   3.882   0.182
 8750SOL    HW227150   3.908   3.886   0.192
 8751SOL     OW27151   1.601   6.284   0.932
 8751SOL    HW127152   1.672   6.265   0.863
 8751SOL    HW227153   1.512   6.256   0.897
 8752SOL     OW27154   6.154   3.023   5.876
 8752SOL    HW127155   6.065   3.008   5.833
 8752SOL    HW227156   6.213   3.074   5.813
 8753SOL     OW27157   2.621   2.454   0.845
 8753SOL    HW127158   2.687   2.382   0.825
 8753SOL    HW227159   2.619   2.472   0.943
 8754SOL     OW27160   1.708   4.940   6.656
 8754SOL    HW127161   1.618   4.962   6.693
 8754SOL    HW227162   1.746   5.020   6.610
 8755SOL     OW27163   6.954   2.674   1.598
 8755SOL    HW127164   6.864   2.715   1.619
 8755SOL    HW227165   7.008   2.669   1.682
 8756SOL     OW27166   2.182   1.757   1.631
 8756SOL    HW127167   2.254   1.825   1.645
 8756SOL    HW227168   2.207   1.671   1.676
 8757SOL     OW27169   5.388   5.980   5.339
 8757SOL    HW127170   5.461   5.921   5.304
 8757SOL    HW227171   5.411   6.009   5.432
 8758SOL     OW27172   3.558   5.437   4.911
 8758SOL    HW127173   3.568   5.510   4.844
 8758SOL    HW227174   3.517   5.474   4.995
 8759SOL     OW27175   5.835   0.651   0.638
 8759SOL    HW127176   5.799   0.742   0.658
 8759SOL    HW227177   5.832   0.596   0.721
 8760SOL     OW27178   2.761   2.356   4.038
 8760SOL    HW127179   2.837   2.337   4.100
 8760SOL    HW227180   2.786   2.332   3.945
 8761SOL     OW27181   5.707   1.436   2.490
 8761SOL    HW127182   5.799   1.397   2.492
 8761SOL    HW227183   5.700   1.509   2.558
 8762SOL     OW27184   2.438   5.249   3.107
 8762SOL    HW127185   2.424   5.179   3.037
 8762SOL    HW227186   2.511   5.218   3.169
 8763SOL     OW27187   0.596   0.744   6.948
 8763SOL    HW127188   0.553   0.832   6.932
 8763SOL    HW227189   0.677   0.756   7.005
 8764SOL     OW27190   2.880   5.148   5.091
 8764SOL    HW127191   2.809   5.080   5.075
 8764SOL    HW227192   2.952   5.138   5.024
 8765SOL     OW27193   4.836   0.090   4.250
 8765SOL    HW127194   4.793   0.017   4.197
 8765SOL    HW227195   4.792   0.177   4.228
 8766SOL     OW27196   4.696   6.332   5.737
 8766SOL    HW127197   4.765   6.302   5.803
 8766SOL    HW227198   4.642   6.253   5.707
 8767SOL     OW27199   2.194   1.529   4.066
 8767SOL    HW127200   2.206   1.594   3.991
 8767SOL    HW227201   2.156   1.444   4.031
 8768SOL     OW27202   6.415   1.602   6.774
 8768SOL    HW127203   6.336   1.617   6.714
 8768SOL    HW227204   6.499   1.608   6.720
 8769SOL     OW27205   6.723   6.875   0.134
 8769SOL    HW127206   6.698   6.963   0.176
 8769SOL    HW227207   6.797   6.889   0.069
 8770SOL     OW27208   5.251   3.122   0.580
 8770SOL    HW127209   5.300   3.138   0.666
 8770SOL    HW227210   5.198   3.204   0.557
 8771SOL     OW27211   0.677   3.112   0.355
 8771SOL    HW127212   0.768   3.078   0.375
 8771SOL    HW227213   0.672   3.143   0.260
 8772SOL     OW27214   6.951   6.755   4.074
 8772SOL    HW127215   6.940   6.691   4.150
 8772SOL    HW227216   6.934   6.706   3.988
 8773SOL     OW27217   0.001   0.808   4.479
 8773SOL    HW127218   6.936   0.851   4.492
 8773SOL    HW227219   0.035   0.829   4.387
 8774SOL     OW27220   1.615   1.644   0.317
 8774SOL    HW127221   1.648   1.728   0.276
 8774SOL    HW227222   1.522   1.658   0.353
 8775SOL     OW27223   5.734   2.521   4.289
 8775SOL    HW127224   5.672   2.451   4.254
 8775SOL    HW227225   5.705   2.549   4.380
 8776SOL     OW27226   4.214   2.972   0.544
 8776SOL    HW127227   4.176   3.042   0.604
 8776SOL    HW227228   4.270   3.015   0.473
 8777SOL     OW27229   6.937   1.984   2.892
 8777SOL    HW127230   6.955   1.945   2.802
 8777SOL    HW227231   6.902   1.912   2.953
 8778SOL     OW27232   3.122   4.848   6.955
 8778SOL    HW127233   3.030   4.880   6.978
 8778SOL    HW227234   3.118   4.754   6.921
 8779SOL     OW27235   4.326   4.993   3.476
 8779SOL    HW127236   4.425   5.000   3.461
 8779SOL    HW227237   4.280   5.071   3.432
 8780SOL     OW27238   6.582   4.617   4.232
 8780SOL    HW127239   6.624   4.637   4.144
 8780SOL    HW227240   6.545   4.524   4.231
 8781SOL     OW27241   3.294   0.584   2.092
 8781SOL    HW127242   3.383   0.538   2.098
 8781SOL    HW227243   3.275   0.607   1.997
 8782SOL     OW27244   4.961   2.006   0.838
 8782SOL    HW127245   5.058   2.025   0.852
 8782SOL    HW227246   4.949   1.946   0.759
 8783SOL     OW27247   5.151   3.632   4.519
 8783SOL    HW127248   5.133   3.709   4.580
 8783SOL    HW227249   5.065   3.591   4.489
 8784SOL     OW27250   5.245   1.182   1.691
 8784SOL    HW127251   5.203   1.092   1.705
 8784SOL    HW227252   5.175   1.253   1.702
 8785SOL     OW27253   0.165   5.433   5.513
 8785SOL    HW127254   0.146   5.367   5.440
 8785SOL    HW227255   0.262   5.455   5.514
 8786SOL     OW27256   4.497   1.882   3.087
 8786SOL    HW127257   4.569   1.872   3.019
 8786SOL    HW227258   4.494   1.977   3.119
 8787SOL     OW27259   3.617   6.233   1.147
 8787SOL    HW127260   3.667   6.280   1.074
 8787SOL    HW227261   3.603   6.137   1.121
 8788SOL     OW27262   0.868   0.008   3.700
 8788SOL    HW127263   0.813   6.950   3.691
 8788SOL    HW227264   0.915   0.026   3.613
 8789SOL     OW27265   6.988   2.740   6.539
 8789SOL    HW127266   6.971   2.667   6.605
 8789SOL    HW227267   0.021   2.705   6.465
 8790SOL     OW27268   4.942   3.675   5.598
 8790SOL    HW127269   4.865   3.728   5.631
 8790SOL    HW227270   4.920   3.577   5.604
 8791SOL     OW27271   3.785   5.784   4.873
 8791SOL    HW127272   3.689   5.808   4.887
 8791SOL    HW227273   3.842   5.836   4.937
 8792SOL     OW27274   5.002   4.823   1.708
 8792SOL    HW127275   5.041   4.731   1.707
 8792SOL    HW227276   4.912   4.821   1.750
 8793SOL     OW27277   0.046   5.768   4.371
 8793SOL    HW127278   0.107   5.707   4.422
 8793SOL    HW227279   6.996   5.715   4.332
 8794SOL     OW27280   6.941   0.989   2.503
 8794SOL    HW127281   6.972   0.895   2.487
 8794SOL    HW227282   6.988   1.051   2.441
 8795SOL     OW27283   1.151   5.980   6.817
 8795SOL    HW127284   1.194   5.998   6.905
 8795SOL    HW227285   1.140   5.882   6.803
 8796SOL     OW27286   6.620   3.480   3.739
 8796SOL    HW127287   6.547   3.435   3.789
 8796SOL    HW227288   6.643   3.566   3.784
 8797SOL     OW27289   4.728   6.940   3.944
 8797SOL    HW127290   4.744   0.008   3.908
 8797SOL    HW227291   4.791   6.876   3.901
 8798SOL     OW27292   3.328   6.884   5.890
 8798SOL    HW127293   3.245   6.899   5.836
 8798SOL    HW227294   3.311   6.812   5.957
 8799SOL     OW27295   0.728   4.593   1.836
 8799SOL    HW127296   0.712   4.690   1.852
 8799SOL    HW227297   0.804   4.561   1.893
 8800SOL     OW27298   0.129   5.536   5.145
 8800SOL    HW127299   0.160   5.617   5.096
 8800SOL    HW227300   0.190   5.518   5.222
 8801SOL     OW27301   5.641   3.146   5.424
 8801SOL    HW127302   5.546   3.119   5.441
 8801SOL    HW227303   5.702   3.091   5.481
 8802SOL     OW27304   1.355   6.780   6.547
 8802SOL    HW127305   1.337   6.793   6.449
 8802SOL    HW227306   1.362   6.682   6.566
 8803SOL     OW27307   6.430   6.656   6.592
 8803SOL    HW127308   6.484   6.579   6.627
 8803SOL    HW227309   6.360   6.623   6.529
 8804SOL     OW27310   1.773   6.273   2.695
 8804SOL    HW127311   1.706   6.200   2.704
 8804SOL    HW227312   1.821   6.285   2.782
 8805SOL     OW27313   5.652   4.975   3.712
 8805SOL    HW127314   5.620   4.888   3.750
 8805SOL    HW227315   5.621   5.050   3.770
 8806SOL     OW27316   1.910   0.265   0.929
 8806SOL    HW127317   1.874   0.302   1.015
 8806SOL    HW227318   1.834   0.245   0.867
 8807SOL     OW27319   4.876   2.999   1.248
 8807SOL    HW127320   4.881   2.939   1.327
 8807SOL    HW227321   4.788   2.986   1.202
 8808SOL     OW27322   1.835   2.685   0.075
 8808SOL    HW127323   1.850   2.598   0.122
 8808SOL    HW227324   1.890   2.688   7.016
 8809SOL     OW27325   0.640   4.003   3.286
 8809SOL    HW127326   0.579   3.978   3.211
 8809SOL    HW227327   0.699   4.079   3.258
 8810SOL     OW27328   0.747   0.929   5.185
 8810SOL    HW127329   0.845   0.951   5.186
 8810SOL    HW227330   0.732   0.845   5.237
 8811SOL     OW27331   3.992   5.545   2.342
 8811SOL    HW127332   4.032   5.478   2.279
 8811SOL    HW227333   3.938   5.497   2.411
 8812SOL     OW27334   4.475   1.150   6.461
 8812SOL    HW127335   4.473   1.214   6.384
 8812SOL    HW227336   4.390   1.158   6.514
 8813SOL     OW27337   2.098   3.915   3.367
 8813SOL    HW127338   2.084   3.818   3.387
 8813SOL    HW227339   2.094   3.930   3.268
 8814SOL     OW27340   5.302   0.849   5.750
 8814SOL    HW127341   5.394   0.868   5.785
 8814SOL    HW227342   5.243   0.819   5.825
 8815SOL     OW27343   5.573   1.174   0.100
 8815SOL    HW127344   5.570   1.097   0.037
 8815SOL    HW227345   5.489   1.227   0.092
 8816SOL     OW27346   1.056   5.843   4.721
 8816SOL    HW127347   1.085   5.917   4.781
 8816SOL    HW227348   1.087   5.755   4.757
 8817SOL     OW27349   1.760   2.581   3.462
 8817SOL    HW127350   1.773   2.617   3.554
 8817SOL    HW227351   1.676   2.620   3.423
 8818SOL     OW27352   1.295   0.475   5.345
 8818SOL    HW127353   1.217   0.452   5.403
 8818SOL    HW227354   1.297   0.574   5.330
 8819SOL     OW27355   5.299   4.889   6.262
 8819SOL    HW127356   5.208   4.900   6.302
 8819SOL    HW227357   5.293   4.828   6.183
 8820SOL     OW27358   3.229   0.476   5.295
 8820SOL    HW127359   3.290   0.470   5.373
 8820SOL    HW227360   3.263   0.545   5.231
 8821SOL     OW27361   6.522   4.442   6.611
 8821SOL    HW127362   6.483   4.397   6.691
 8821SOL    HW227363   6.483   4.534   6.602
 8822SOL     OW27364   6.681   0.328   4.045
 8822SOL    HW127365   6.619   0.396   4.084
 8822SOL    HW227366   6.704   0.259   4.114
 8823SOL     OW27367   4.029   1.466   2.838
 8823SOL    HW127368   3.975   1.549   2.826
 8823SOL    HW227369   4.083   1.474   2.921
 8824SOL     OW27370   1.573   0.779   1.757
 8824SOL    HW127371   1.555   0.740   1.848
 8824SOL    HW227372   1.488   0.814   1.719
 8825SOL     OW27373   0.196   5.825   0.210
 8825SOL    HW127374   0.261   5.766   0.163
 8825SOL    HW227375   0.132   5.863   0.143
 8826SOL     OW27376   1.641   4.106   0.904
 8826SOL    HW127377   1.602   4.022   0.866
 8826SOL    HW227378   1.581   4.144   0.974
 8827SOL     OW27379   4.855   0.434   3.001
 8827SOL    HW127380   4.784   0.365   3.011
 8827SOL    HW227381   4.945   0.390   2.996
 8828SOL     OW27382   3.682   2.184   5.902
 8828SOL    HW127383   3.697   2.176   5.804
 8828SOL    HW227384   3.583   2.179   5.921
 8829SOL     OW27385   6.706   1.131   1.956
 8829SOL    HW127386   6.680   1.191   2.032
 8829SOL    HW227387   6.742   1.045   1.992
 8830SOL     OW27388   2.662   0.687   3.323
 8830SOL    HW127389   2.725   0.629   3.272
 8830SOL    HW227390   2.712   0.760   3.369
 8831SOL     OW27391   0.550   2.593   1.724
 8831SOL    HW127392   0.513   2.651   1.652
 8831SOL    HW227393   0.491   2.513   1.737
 8832SOL     OW27394   5.870   0.852   4.754
 8832SOL    HW127395   5.970   0.851   4.762
 8832SOL    HW227396   5.831   0.784   4.816
 8833SOL     OW27397   4.764   2.627   1.256
 8833SOL    HW127398   4.724   2.541   1.287
 8833SOL    HW227399   4.791   2.619   1.160
 8834SOL     OW27400   5.301   4.074   5.780
 8834SOL    HW127401   5.347   4.162   5.768
 8834SOL    HW227402   5.271   4.064   5.874
 8835SOL     OW27403   0.291   0.386   6.351
 8835SOL    HW127404   0.192   0.397   6.365
 8835SOL    HW227405   0.339   0.456   6.404
 8836SOL     OW27406   4.792   2.117   1.471
 8836SOL    HW127407   4.774   2.152   1.563
 8836SOL    HW227408   4.888   2.087   1.466
 8837SOL     OW27409   4.062   6.994   0.401
 8837SOL    HW127410   4.030   0.032   0.330
 8837SOL    HW227411   4.159   6.973   0.386
 8838SOL     OW27412   1.453   4.001   3.519
 8838SOL    HW127413   1.418   3.921   3.470
 8838SOL    HW227414   1.530   3.974   3.576
 8839SOL     OW27415   4.907   5.380   3.022
 8839SOL    HW127416   4.841   5.412   3.090
 8839SOL    HW227417   5.000   5.398   3.053
 8840SOL     OW27418   0.130   0.577   1.306
 8840SOL    HW127419   0.072   0.581   1.224
 8840SOL    HW227420   0.073   0.587   1.388
 8841SOL     OW27421   3.615   0.182   1.124
 8841SOL    HW127422   3.596   0.278   1.104
 8841SOL    HW227423   3.530   0.135   1.148
 8842SOL     OW27424   4.110   3.487   4.580
 8842SOL    HW127425   4.109   3.542   4.497
 8842SOL    HW227426   4.137   3.394   4.558
 8843SOL     OW27427   2.750   5.945   6.537
 8843SOL    HW127428   2.816   5.883   6.579
 8843SOL    HW227429   2.663   5.897   6.524
 8844SOL     OW27430   3.595   2.129   6.445
 8844SOL    HW127431   3.500   2.106   6.422
 8844SOL    HW227432   3.611   2.112   6.542
 8845SOL     OW27433   6.294   4.034   2.159
 8845SOL    HW127434   6.228   4.088   2.107
 8845SOL    HW227435   6.276   3.937   2.146
 8846SOL     OW27436   5.838   4.605   5.217
 8846SOL    HW127437   5.847   4.691   5.268
 8846SOL    HW227438   5.754   4.558   5.247
 8847SOL     OW27439   2.405   1.321   3.929
 8847SOL    HW127440   2.395   1.302   4.027
 8847SOL    HW227441   2.434   1.238   3.882
 8848SOL     OW27442   4.270   1.668   0.675
 8848SOL    HW127443   4.299   1.758   0.641
 8848SOL    HW227444   4.335   1.598   0.644
 8849SOL     OW27445   2.922   4.870   4.432
 8849SOL    HW127446   2.969   4.943   4.381
 8849SOL    HW227447   2.967   4.859   4.521
 8850SOL     OW27448   3.192   0.768   1.450
 8850SOL    HW127449   3.280   0.755   1.497
 8850SOL    HW227450   3.203   0.750   1.353
 8851SOL     OW27451   6.888   5.067   2.004
 8851SOL    HW127452   6.908   5.051   2.101
 8851SOL    HW227453   6.805   5.121   1.995
 8852SOL     OW27454   4.615   2.729   4.475
 8852SOL    HW127455   4.615   2.817   4.427
 8852SOL    HW227456   4.617   2.745   4.574
 8853SOL     OW27457   4.285   1.735   5.675
 8853SOL    HW127458   4.258   1.760   5.581
 8853SOL    HW227459   4.383   1.749   5.686
 8854SOL     OW27460   1.199   1.870   6.921
 8854SOL    HW127461   1.164   1.873   6.828
 8854SOL    HW227462   1.182   1.958   6.965
 8855SOL     OW27463   6.200   5.660   0.043
 8855SOL    HW127464   6.280   5.603   0.028
 8855SOL    HW227465   6.124   5.627   7.011
 8856SOL     OW27466   5.842   1.169   4.311
 8856SOL    HW127467   5.792   1.119   4.240
 8856SOL    HW227468   5.814   1.135   4.401
 8857SOL     OW27469   0.085   2.666   4.955
 8857SOL    HW127470   0.049   2.756   4.980
 8857SOL    HW227471   0.178   2.677   4.920
 8858SOL     OW27472   0.088   3.915   6.616
 8858SOL    HW127473   0.000   3.959   6.599
 8858SOL    HW227474   0.089   3.876   6.708
 8859SOL     OW27475   2.907   5.132   5.560
 8859SOL    HW127476   2.997   5.170   5.539
 8859SOL    HW227477   2.856   5.117   5.475
 8860SOL     OW27478   1.280   2.371   1.607
 8860SOL    HW127479   1.218   2.448   1.594
 8860SOL    HW227480   1.230   2.294   1.647
 8861SOL     OW27481   3.216   3.468   0.015
 8861SOL    HW127482   3.212   3.502   0.109
 8861SOL    HW227483   3.145   3.512   6.985
 8862SOL     OW27484   6.581   2.430   4.430
 8862SOL    HW127485   6.596   2.459   4.335
 8862SOL    HW227486   6.667   2.432   4.480
 8863SOL     OW27487   2.190   5.421   4.874
 8863SOL    HW127488   2.197   5.373   4.787
 8863SOL    HW227489   2.205   5.519   4.860
 8864SOL     OW27490   0.877   2.417   6.217
 8864SOL    HW127491   0.889   2.329   6.261
 8864SOL    HW227492   0.812   2.408   6.141
 8865SOL     OW27493   2.874   2.649   6.310
 8865SOL    HW127494   2.948   2.620   6.370
 8865SOL    HW227495   2.905   2.647   6.215
 8866SOL     OW27496   4.107   6.851   4.314
 8866SOL    HW127497   4.104   6.821   4.219
 8866SOL    HW227498   4.068   6.943   4.320
 8867SOL     OW27499   0.328   3.217   3.832
 8867SOL    HW127500   0.303   3.292   3.770
 8867SOL    HW227501   0.270   3.137   3.813
 8868SOL     OW27502   4.137   3.552   0.884
 8868SOL    HW127503   4.179   3.518   0.968
 8868SOL    HW227504   4.204   3.606   0.833
 8869SOL     OW27505   5.680   2.920   4.098
 8869SOL    HW127506   5.692   2.982   4.175
 8869SOL    HW227507   5.723   2.832   4.118
 8870SOL     OW27508   4.427   1.476   1.275
 8870SOL    HW127509   4.413   1.576   1.276
 8870SOL    HW227510   4.523   1.456   1.258
 8871SOL     OW27511   1.648   2.233   4.754
 8871SOL    HW127512   1.689   2.282   4.677
 8871SOL    HW227513   1.706   2.245   4.835
 8872SOL     OW27514   1.592   3.485   3.841
 8872SOL    HW127515   1.555   3.402   3.798
 8872SOL    HW227516   1.564   3.488   3.937
 8873SOL     OW27517   0.278   6.036   4.992
 8873SOL    HW127518   0.278   6.113   5.056
 8873SOL    HW227519   0.232   6.063   4.908
 8874SOL     OW27520   2.372   0.985   0.508
 8874SOL    HW127521   2.354   1.081   0.529
 8874SOL    HW227522   2.464   0.961   0.540
 8875SOL     OW27523   1.581   2.323   4.371
 8875SOL    HW127524   1.491   2.359   4.346
 8875SOL    HW227525   1.571   2.230   4.406
 8876SOL     OW27526   1.588   7.021   4.495
 8876SOL    HW127527   1.662   0.006   4.428
 8876SOL    HW227528   1.506   6.988   4.449
 8877SOL     OW27529   2.719   6.668   4.808
 8877SOL    HW127530   2.648   6.689   4.741
 8877SOL    HW227531   2.697   6.581   4.853
 8878SOL     OW27532   6.009   4.389   6.565
 8878SOL    HW127533   6.052   4.444   6.636
 8878SOL    HW227534   6.064   4.308   6.547
 8879SOL     OW27535   4.461   5.981   4.380
 8879SOL    HW127536   4.442   5.884   4.364
 8879SOL    HW227537   4.473   5.997   4.478
 8880SOL     OW27538   0.096   5.242   5.269
 8880SOL    HW127539   0.012   5.189   5.256
 8880SOL    HW227540   0.121   5.285   5.183
 8881SOL     OW27541   6.643   0.596   1.820
 8881SOL    HW127542   6.543   0.591   1.823
 8881SOL    HW227543   6.675   0.562   1.732
 8882SOL     OW27544   5.568   2.027   6.818
 8882SOL    HW127545   5.478   1.989   6.836
 8882SOL    HW227546   5.635   1.985   6.880
 8883SOL     OW27547   6.709   1.163   5.854
 8883SOL    HW127548   6.780   1.225   5.887
 8883SOL    HW227549   6.659   1.125   5.932
 8884SOL     OW27550   6.426   0.529   5.650
 8884SOL    HW127551   6.341   0.564   5.688
 8884SOL    HW227552   6.498   0.534   5.720
 8885SOL     OW27553   5.113   4.215   1.476
 8885SOL    HW127554   5.143   4.274   1.401
 8885SOL    HW227555   5.073   4.131   1.438
 8886SOL     OW27556   2.972   6.899   6.996
 8886SOL    HW127557   2.910   6.971   0.000
 8886SOL    HW227558   3.061   6.938   6.973
 8887SOL     OW27559   2.577   0.826   1.339
 8887SOL    HW127560   2.669   0.820   1.378
 8887SOL    HW227561   2.509   0.819   1.412
 8888SOL     OW27562   2.848   1.642   2.685
 8888SOL    HW127563   2.919   1.705   2.653
 8888SOL    HW227564   2.880   1.596   2.768
 8889SOL     OW27565   4.201   0.336   5.496
 8889SOL    HW127566   4.273   0.400   5.472
 8889SOL    HW227567   4.116   0.364   5.451
 8890SOL     OW27568   0.998   4.960   4.243
 8890SOL    HW127569   0.977   4.871   4.283
 8890SOL    HW227570   1.086   4.993   4.277
 8891SOL     OW27571   3.928   2.046   6.603
 8891SOL    HW127572   3.884   2.003   6.681
 8891SOL    HW227573   3.937   2.145   6.620
 8892SOL     OW27574   1.052   5.733   2.392
 8892SOL    HW127575   1.027   5.816   2.343
 8892SOL    HW227576   1.127   5.753   2.455
 8893SOL     OW27577   0.614   1.192   1.241
 8893SOL    HW127578   0.549   1.225   1.173
 8893SOL    HW227579   0.663   1.112   1.205
 8894SOL     OW27580   4.118   2.872   6.225
 8894SOL    HW127581   4.216   2.881   6.238
 8894SOL    HW227582   4.095   2.778   6.202
 8895SOL     OW27583   0.217   6.030   2.783
 8895SOL    HW127584   0.234   5.977   2.866
 8895SOL    HW227585   0.304   6.052   2.738
 8896SOL     OW27586   1.754   3.801   5.056
 8896SOL    HW127587   1.831   3.821   4.996
 8896SOL    HW227588   1.762   3.708   5.091
 8897SOL     OW27589   1.527   2.369   1.258
 8897SOL    HW127590   1.599   2.411   1.203
 8897SOL    HW227591   1.463   2.322   1.197
 8898SOL     OW27592   5.680   4.211   4.661
 8898SOL    HW127593   5.639   4.144   4.723
 8898SOL    HW227594   5.743   4.270   4.712
 8899SOL     OW27595   2.436   4.027   0.014
 8899SOL    HW127596   2.385   4.093   6.984
 8899SOL    HW227597   2.432   3.937   6.995
 8900SOL     OW27598   5.456   2.276   3.162
 8900SOL    HW127599   5.424   2.366   3.132
 8900SOL    HW227600   5.543   2.254   3.117
 8901SOL     OW27601   1.940   7.008   2.816
 8901SOL    HW127602   1.953   0.070   2.768
 8901SOL    HW227603   2.019   6.990   2.875
 8902SOL     OW27604   1.767   5.512   5.892
 8902SOL    HW127605   1.690   5.451   5.879
 8902SOL    HW227606   1.833   5.500   5.818
 8903SOL     OW27607   1.680   1.143   3.346
 8903SOL    HW127608   1.656   1.207   3.272
 8903SOL    HW227609   1.617   1.066   3.343
 8904SOL     OW27610   1.477   6.070   2.986
 8904SOL    HW127611   1.480   6.085   3.085
 8904SOL    HW227612   1.400   6.120   2.946
 8905SOL     OW27613   2.688   4.145   5.291
 8905SOL    HW127614   2.678   4.195   5.377
 8905SOL    HW227615   2.598   4.110   5.263
 8906SOL     OW27616   0.715   5.912   5.709
 8906SOL    HW127617   0.635   5.940   5.656
 8906SOL    HW227618   0.741   5.819   5.684
 8907SOL     OW27619   3.303   2.786   5.524
 8907SOL    HW127620   3.325   2.727   5.446
 8907SOL    HW227621   3.387   2.828   5.558
 8908SOL     OW27622   0.503   2.525   0.998
 8908SOL    HW127623   0.445   2.465   1.054
 8908SOL    HW227624   0.596   2.525   1.034
 8909SOL     OW27625   2.691   0.212   6.331
 8909SOL    HW127626   2.729   0.176   6.416
 8909SOL    HW227627   2.736   0.298   6.308
 8910SOL     OW27628   3.515   4.092   6.737
 8910SOL    HW127629   3.555   4.176   6.775
 8910SOL    HW227630   3.554   4.013   6.783
 8911SOL     OW27631   3.384   2.052   3.768
 8911SOL    HW127632   3.296   2.062   3.814
 8911SOL    HW227633   3.433   1.974   3.808
 8912SOL     OW27634   5.213   2.958   5.807
 8912SOL    HW127635   5.297   2.953   5.861
 8912SOL    HW227636   5.184   3.054   5.800
 8913SOL     OW27637   5.251   3.839   0.738
 8913SOL    HW127638   5.337   3.891   0.737
 8913SOL    HW227639   5.176   3.898   0.712
 8914SOL     OW27640   4.104   2.162   4.629
 8914SOL    HW127641   4.158   2.221   4.569
 8914SOL    HW227642   4.012   2.152   4.592
 8915SOL     OW27643   1.252   5.217   2.075
 8915SOL    HW127644   1.346   5.209   2.041
 8915SOL    HW227645   1.241   5.160   2.156
 8916SOL     OW27646   6.602   3.519   2.094
 8916SOL    HW127647   6.609   3.510   2.194
 8916SOL    HW227648   6.647   3.441   2.051
 8917SOL     OW27649   5.998   5.529   6.426
 8917SOL    HW127650   5.962   5.467   6.357
 8917SOL    HW227651   5.938   5.528   6.506
 8918SOL     OW27652   4.980   5.188   6.612
 8918SOL    HW127653   5.056   5.135   6.649
 8918SOL    HW227654   4.983   5.281   6.649
 8919SOL     OW27655   2.276   4.685   0.900
 8919SOL    HW127656   2.341   4.690   0.976
 8919SOL    HW227657   2.283   4.596   0.855
 8920SOL     OW27658   6.357   5.883   5.789
 8920SOL    HW127659   6.298   5.962   5.771
 8920SOL    HW227660   6.444   5.895   5.741
 8921SOL     OW27661   1.536   0.077   3.617
 8921SOL    HW127662   1.618   0.078   3.675
 8921SOL    HW227663   1.563   0.060   3.522
 8922SOL     OW27664   6.789   4.084   6.854
 8922SOL    HW127665   6.856   4.069   6.927
 8922SOL    HW227666   6.836   4.085   6.766
 8923SOL     OW27667   2.232   4.541   5.652
 8923SOL    HW127668   2.315   4.550   5.708
 8923SOL    HW227669   2.152   4.537   5.712
 8924SOL     OW27670   2.731   5.042   5.744
 8924SOL    HW127671   2.690   5.127   5.778
 8924SOL    HW227672   2.804   5.064   5.679
 8925SOL     OW27673   6.424   6.450   1.951
 8925SOL    HW127674   6.457   6.528   2.004
 8925SOL    HW227675   6.391   6.379   2.013
 8926SOL     OW27676   5.669   1.324   1.064
 8926SOL    HW127677   5.764   1.312   1.091
 8926SOL    HW227678   5.623   1.235   1.061
 8927SOL     OW27679   2.152   2.059   5.275
 8927SOL    HW127680   2.069   2.011   5.246
 8927SOL    HW227681   2.178   2.127   5.207
 8928SOL     OW27682   0.135   6.922   4.913
 8928SOL    HW127683   0.147   6.868   4.996
 8928SOL    HW227684   0.201   6.891   4.843
 8929SOL     OW27685   6.023   3.783   3.751
 8929SOL    HW127686   6.006   3.850   3.679
 8929SOL    HW227687   6.056   3.829   3.834
 8930SOL     OW27688   0.419   5.007   4.744
 8930SOL    HW127689   0.408   4.982   4.648
 8930SOL    HW227690   0.434   4.925   4.798
 8931SOL     OW27691   5.260   0.956   0.752
 8931SOL    HW127692   5.176   0.937   0.803
 8931SOL    HW227693   5.248   1.039   0.697
 8932SOL     OW27694   0.034   0.692   6.778
 8932SOL    HW127695   0.098   0.616   6.765
 8932SOL    HW227696   6.964   0.658   6.771
 8933SOL     OW27697   1.458   6.515   5.761
 8933SOL    HW127698   1.532   6.571   5.725
 8933SOL    HW227699   1.458   6.426   5.714
 8934SOL     OW27700   4.254   6.485   2.984
 8934SOL    HW127701   4.331   6.472   3.047
 8934SOL    HW227702   4.276   6.559   2.920
 8935SOL     OW27703   5.569   2.592   2.978
 8935SOL    HW127704   5.531   2.657   2.913
 8935SOL    HW227705   5.506   2.515   2.990
 8936SOL     OW27706   1.495   4.764   2.302
 8936SOL    HW127707   1.440   4.687   2.334
 8936SOL    HW227708   1.531   4.744   2.211
 8937SOL     OW27709   5.049   6.749   5.213
 8937SOL    HW127710   5.071   6.690   5.291
 8937SOL    HW227711   5.132   6.764   5.159
 8938SOL     OW27712   5.918   0.433   1.310
 8938SOL    HW127713   5.899   0.416   1.213
 8938SOL    HW227714   5.840   0.482   1.350
 8939SOL     OW27715   0.174   3.430   3.714
 8939SOL    HW127716   0.096   3.377   3.679
 8939SOL    HW227717   0.146   3.482   3.794
 8940SOL     OW27718   6.217   2.374   0.522
 8940SOL    HW127719   6.254   2.416   0.439
 8940SOL    HW227720   6.124   2.343   0.505
 8941SOL     OW27721   4.214   2.944   1.690
 8941SOL    HW127722   4.239   2.867   1.632
 8941SOL    HW227723   4.123   2.930   1.728
 8942SOL     OW27724   5.836   4.156   4.409
 8942SOL    HW127725   5.822   4.143   4.310
 8942SOL    HW227726   5.755   4.200   4.448
 8943SOL     OW27727   4.414   4.249   0.225
 8943SOL    HW127728   4.431   4.233   0.322
 8943SOL    HW227729   4.495   4.289   0.183
 8944SOL     OW27730   5.631   5.367   4.608
 8944SOL    HW127731   5.590   5.401   4.692
 8944SOL    HW227732   5.641   5.268   4.614
 8945SOL     OW27733   5.568   4.254   3.910
 8945SOL    HW127734   5.596   4.259   3.814
 8945SOL    HW227735   5.468   4.250   3.915
 8946SOL     OW27736   4.841   0.880   5.544
 8946SOL    HW127737   4.785   0.804   5.509
 8946SOL    HW227738   4.937   0.862   5.525
 8947SOL     OW27739   2.219   5.400   6.953
 8947SOL    HW127740   2.276   5.373   6.875
 8947SOL    HW227741   2.275   5.452   7.018
 8948SOL     OW27742   5.690   1.164   2.633
 8948SOL    HW127743   5.666   1.261   2.642
 8948SOL    HW227744   5.632   1.110   2.693
 8949SOL     OW27745   3.522   6.328   0.646
 8949SOL    HW127746   3.469   6.308   0.563
 8949SOL    HW227747   3.476   6.288   0.725
 8950SOL     OW27748   3.676   3.360   0.744
 8950SOL    HW127749   3.711   3.440   0.793
 8950SOL    HW227750   3.583   3.340   0.773
 8951SOL     OW27751   1.830   1.342   4.164
 8951SOL    HW127752   1.862   1.407   4.233
 8951SOL    HW227753   1.784   1.392   4.090
 8952SOL     OW27754   2.092   3.783   4.335
 8952SOL    HW127755   2.105   3.751   4.241
 8952SOL    HW227756   2.059   3.878   4.334
 8953SOL     OW27757   1.194   4.481   1.235
 8953SOL    HW127758   1.109   4.428   1.234
 8953SOL    HW227759   1.173   4.577   1.213
 8954SOL     OW27760   2.293   5.035   5.519
 8954SOL    HW127761   2.315   5.098   5.445
 8954SOL    HW227762   2.365   4.966   5.527
 8955SOL     OW27763   6.069   2.360   4.535
 8955SOL    HW127764   6.076   2.366   4.634
 8955SOL    HW227765   6.136   2.421   4.493
 8956SOL     OW27766   0.561   5.643   6.875
 8956SOL    HW127767   0.485   5.578   6.873
 8956SOL    HW227768   0.545   5.712   6.945
 8957SOL     OW27769   6.679   6.065   3.122
 8957SOL    HW127770   6.630   5.979   3.139
 8957SOL    HW227771   6.767   6.045   3.078
 8958SOL     OW27772   1.784   2.964   4.969
 8958SOL    HW127773   1.860   2.953   5.033
 8958SOL    HW227774   1.820   2.973   4.876
 8959SOL     OW27775   6.795   2.782   2.518
 8959SOL    HW127776   6.842   2.705   2.560
 8959SOL    HW227777   6.701   2.787   2.552
 8960SOL     OW27778   5.463   4.485   3.382
 8960SOL    HW127779   5.400   4.415   3.415
 8960SOL    HW227780   5.420   4.538   3.309
 8961SOL     OW27781   1.836   1.200   5.343
 8961SOL    HW127782   1.834   1.127   5.274
 8961SOL    HW227783   1.836   1.159   5.434
 8962SOL     OW27784   6.840   5.542   2.475
 8962SOL    HW127785   6.867   5.461   2.423
 8962SOL    HW227786   6.763   5.587   2.430
 8963SOL     OW27787   4.851   6.910   5.126
 8963SOL    HW127788   4.892   6.996   5.097
 8963SOL    HW227789   4.923   6.849   5.161
 8964SOL     OW27790   1.290   3.061   4.450
 8964SOL    HW127791   1.265   3.019   4.537
 8964SOL    HW227792   1.221   3.129   4.424
 8965SOL     OW27793   4.142   5.688   6.068
 8965SOL    HW127794   4.131   5.775   6.019
 8965SOL    HW227795   4.052   5.652   6.091
 8966SOL     OW27796   4.125   5.546   5.122
 8966SOL    HW127797   4.085   5.477   5.183
 8966SOL    HW227798   4.192   5.502   5.062
 8967SOL     OW27799   3.013   7.013   4.032
 8967SOL    HW127800   2.988   0.047   3.955
 8967SOL    HW227801   3.098   6.965   4.011
 8968SOL     OW27802   3.734   5.382   2.420
 8968SOL    HW127803   3.754   5.331   2.503
 8968SOL    HW227804   3.695   5.471   2.443
 8969SOL     OW27805   0.875   0.875   2.820
 8969SOL    HW127806   0.880   0.975   2.822
 8969SOL    HW227807   0.923   0.841   2.739
 8970SOL     OW27808   1.708   0.355   4.041
 8970SOL    HW127809   1.730   0.275   3.986
 8970SOL    HW227810   1.705   0.436   3.982
 8971SOL     OW27811   3.342   4.596   0.307
 8971SOL    HW127812   3.339   4.668   0.377
 8971SOL    HW227813   3.426   4.605   0.254
 8972SOL     OW27814   6.274   3.801   6.877
 8972SOL    HW127815   6.270   3.900   6.872
 8972SOL    HW227816   6.209   3.768   6.946
 8973SOL     OW27817   1.475   2.338   3.296
 8973SOL    HW127818   1.414   2.262   3.275
 8973SOL    HW227819   1.510   2.378   3.212
 8974SOL     OW27820   2.115   4.362   4.839
 8974SOL    HW127821   2.163   4.312   4.912
 8974SOL    HW227822   2.148   4.456   4.837
 8975SOL     OW27823   0.064   5.561   5.936
 8975SOL    HW127824   0.069   5.462   5.920
 8975SOL    HW227825   0.156   5.599   5.931
 8976SOL     OW27826   6.134   6.692   2.197
 8976SOL    HW127827   6.090   6.615   2.150
 8976SOL    HW227828   6.080   6.775   2.182
 8977SOL     OW27829   6.751   4.874   5.866
 8977SOL    HW127830   6.764   4.776   5.880
 8977SOL    HW227831   6.653   4.895   5.868
 8978SOL     OW27832   5.830   5.928   6.426
 8978SOL    HW127833   5.910   5.880   6.392
 8978SOL    HW227834   5.817   6.012   6.373
 8979SOL     OW27835   1.484   5.046   4.821
 8979SOL    HW127836   1.512   5.034   4.916
 8979SOL    HW227837   1.435   5.133   4.811
 8980SOL     OW27838   3.565   0.325   0.040
 8980SOL    HW127839   3.598   0.272   0.118
 8980SOL    HW227840   3.475   0.291   0.013
 8981SOL     OW27841   4.740   3.481   6.572
 8981SOL    HW127842   4.661   3.540   6.556
 8981SOL    HW227843   4.751   3.419   6.495
 8982SOL     OW27844   0.466   1.879   1.875
 8982SOL    HW127845   0.566   1.881   1.876
 8982SOL    HW227846   0.435   1.797   1.826
 8983SOL     OW27847   1.600   6.536   2.002
 8983SOL    HW127848   1.535   6.572   1.935
 8983SOL    HW227849   1.671   6.605   2.020
 8984SOL     OW27850   0.073   0.661   4.011
 8984SOL    HW127851   0.043   0.593   4.078
 8984SOL    HW227852   0.167   0.641   3.983
 8985SOL     OW27853   5.097   2.103   1.162
 8985SOL    HW127854   5.027   2.034   1.144
 8985SOL    HW227855   5.066   2.164   1.235
 8986SOL     OW27856   6.793   4.720   0.481
 8986SOL    HW127857   6.881   4.702   0.438
 8986SOL    HW227858   6.755   4.805   0.445
 8987SOL     OW27859   2.151   0.008   1.817
 8987SOL    HW127860   2.110   6.987   1.896
 8987SOL    HW227861   2.251   7.019   1.819
 8988SOL     OW27862   2.199   6.141   1.766
 8988SOL    HW127863   2.187   6.160   1.864
 8988SOL    HW227864   2.183   6.225   1.714
 8989SOL     OW27865   5.113   2.152   2.855
 8989SOL    HW127866   5.027   2.193   2.826
 8989SOL    HW227867   5.183   2.167   2.784
 8990SOL     OW27868   3.345   0.863   2.282
 8990SOL    HW127869   3.285   0.925   2.231
 8990SOL    HW227870   3.368   0.905   2.370
 8991SOL     OW27871   1.508   1.542   0.755
 8991SOL    HW127872   1.583   1.587   0.708
 8991SOL    HW227873   1.544   1.473   0.819
 8992SOL     OW27874   1.215   4.176   6.328
 8992SOL    HW127875   1.248   4.269   6.346
 8992SOL    HW227876   1.125   4.181   6.284
 8993SOL     OW27877   5.987   3.528   4.255
 8993SOL    HW127878   5.905   3.585   4.249
 8993SOL    HW227879   6.012   3.496   4.164
 8994SOL     OW27880   0.825   5.366   2.860
 8994SOL    HW127881   0.909   5.416   2.881
 8994SOL    HW227882   0.774   5.415   2.789
 8995SOL     OW27883   2.125   3.888   4.894
 8995SOL    HW127884   2.203   3.946   4.914
 8995SOL    HW227885   2.125   3.864   4.797
 8996SOL     OW27886   1.137   3.765   2.151
 8996SOL    HW127887   1.037   3.757   2.139
 8996SOL    HW227888   1.180   3.681   2.117
 8997SOL     OW27889   4.095   2.184   5.521
 8997SOL    HW127890   4.070   2.185   5.618
 8997SOL    HW227891   4.048   2.109   5.475
 8998SOL     OW27892   0.575   1.585   6.065
 8998SOL    HW127893   0.635   1.655   6.105
 8998SOL    HW227894   0.596   1.496   6.105
 8999SOL     OW27895   6.309   0.853   5.270
 8999SOL    HW127896   6.363   0.813   5.344
 8999SOL    HW227897   6.299   0.786   5.197
 9000SOL     OW27898   2.589   4.365   0.665
 9000SOL    HW127899   2.638   4.315   0.737
 9000SOL    HW227900   2.654   4.398   0.597
 9001SOL     OW27901   1.722   4.650   3.419
 9001SOL    HW127902   1.666   4.725   3.383
 9001SOL    HW227903   1.717   4.650   3.519
 9002SOL     OW27904   5.060   4.623   6.309
 9002SOL    HW127905   5.128   4.551   6.327
 9002SOL    HW227906   5.027   4.615   6.215
 9003SOL     OW27907   5.530   2.874   5.770
 9003SOL    HW127908   5.513   2.971   5.787
 9003SOL    HW227909   5.448   2.821   5.793
 9004SOL     OW27910   4.294   5.612   0.465
 9004SOL    HW127911   4.317   5.529   0.414
 9004SOL    HW227912   4.283   5.688   0.401
 9005SOL     OW27913   4.731   1.910   3.289
 9005SOL    HW127914   4.638   1.884   3.265
 9005SOL    HW227915   4.728   1.990   3.350
 9006SOL     OW27916   1.721   6.595   0.828
 9006SOL    HW127917   1.642   6.630   0.879
 9006SOL    HW227918   1.760   6.517   0.876
 9007SOL     OW27919   3.062   6.409   4.846
 9007SOL    HW127920   3.120   6.330   4.867
 9007SOL    HW227921   3.102   6.492   4.885
 9008SOL     OW27922   6.421   4.622   2.683
 9008SOL    HW127923   6.408   4.561   2.761
 9008SOL    HW227924   6.441   4.567   2.601
 9009SOL     OW27925   3.946   6.159   1.427
 9009SOL    HW127926   3.915   6.071   1.462
 9009SOL    HW227927   3.884   6.231   1.457
 9010SOL     OW27928   1.195   6.050   5.264
 9010SOL    HW127929   1.268   6.026   5.201
 9010SOL    HW227930   1.231   6.107   5.338
 9011SOL     OW27931   3.923   1.954   1.484
 9011SOL    HW127932   3.950   1.885   1.416
 9011SOL    HW227933   3.831   1.934   1.517
 9012SOL     OW27934   6.621   5.562   1.323
 9012SOL    HW127935   6.715   5.570   1.290
 9012SOL    HW227936   6.612   5.612   1.409
 9013SOL     OW27937   4.930   5.948   3.605
 9013SOL    HW127938   4.985   5.941   3.522
 9013SOL    HW227939   4.873   6.031   3.600
 9014SOL     OW27940   3.362   1.417   0.797
 9014SOL    HW127941   3.461   1.408   0.810
 9014SOL    HW227942   3.316   1.338   0.836
 9015SOL     OW27943   6.498   1.271   5.695
 9015SOL    HW127944   6.568   1.249   5.764
 9015SOL    HW227945   6.529   1.240   5.606
 9016SOL     OW27946   6.836   6.326   6.082
 9016SOL    HW127947   6.931   6.357   6.071
 9016SOL    HW227948   6.828   6.272   6.166
 9017SOL     OW27949   0.237   3.915   3.829
 9017SOL    HW127950   0.312   3.909   3.895
 9017SOL    HW227951   0.168   3.978   3.863
 9018SOL     OW27952   3.497   2.432   5.495
 9018SOL    HW127953   3.589   2.393   5.494
 9018SOL    HW227954   3.437   2.374   5.550
 9019SOL     OW27955   1.852   6.801   0.394
 9019SOL    HW127956   1.930   6.819   0.334
 9019SOL    HW227957   1.867   6.715   0.443
 9020SOL     OW27958   0.319   5.089   2.927
 9020SOL    HW127959   0.411   5.130   2.922
 9020SOL    HW227960   0.319   5.002   2.879
 9021SOL     OW27961   6.653   6.011   5.365
 9021SOL    HW127962   6.578   6.075   5.355
 9021SOL    HW227963   6.713   6.015   5.285
 9022SOL     OW27964   3.155   0.831   6.670
 9022SOL    HW127965   3.222   0.888   6.717
 9022SOL    HW227966   3.185   0.736   6.671
 9023SOL     OW27967   3.526   2.910   2.938
 9023SOL    HW127968   3.610   2.922   2.887
 9023SOL    HW227969   3.448   2.935   2.881
 9024SOL     OW27970   1.951   6.851   6.735
 9024SOL    HW127971   2.037   6.800   6.738
 9024SOL    HW227972   1.880   6.800   6.783
 9025SOL     OW27973   6.239   4.523   1.196
 9025SOL    HW127974   6.164   4.529   1.130
 9025SOL    HW227975   6.207   4.475   1.278
 9026SOL     OW27976   3.222   3.112   5.493
 9026SOL    HW127977   3.152   3.122   5.421
 9026SOL    HW227978   3.204   3.029   5.545
 9027SOL     OW27979   2.271   2.661   3.073
 9027SOL    HW127980   2.263   2.579   3.129
 9027SOL    HW227981   2.252   2.742   3.130
 9028SOL     OW27982   2.614   4.628   4.864
 9028SOL    HW127983   2.662   4.646   4.778
 9028SOL    HW227984   2.680   4.626   4.939
 9029SOL     OW27985   5.042   5.183   3.533
 9029SOL    HW127986   5.126   5.234   3.515
 9029SOL    HW227987   4.992   5.167   3.448
 9030SOL     OW27988   3.149   1.913   1.651
 9030SOL    HW127989   3.243   1.925   1.618
 9030SOL    HW227990   3.094   1.869   1.580
 9031SOL     OW27991   2.321   0.581   0.290
 9031SOL    HW127992   2.251   0.524   0.334
 9031SOL    HW227993   2.411   0.558   0.328
 9032SOL     OW27994   1.561   1.437   2.402
 9032SOL    HW127995   1.488   1.491   2.446
 9032SOL    HW227996   1.634   1.499   2.371
 9033SOL     OW27997   0.807   3.228   2.443
 9033SOL    HW127998   0.877   3.185   2.385
 9033SOL    HW227999   0.840   3.231   2.537
 9034SOL     OW28000   2.673   0.571   5.795
 9034SOL    HW128001   2.618   0.545   5.874
 9034SOL    HW228002   2.766   0.590   5.824
 9035SOL     OW28003   0.029   1.199   4.434
 9035SOL    HW128004   0.104   1.132   4.430
 9035SOL    HW228005   0.065   1.289   4.408
 9036SOL     OW28006   1.334   2.192   5.004
 9036SOL    HW128007   1.377   2.103   5.012
 9036SOL    HW228008   1.237   2.181   4.984
 9037SOL     OW28009   2.075   3.855   5.785
 9037SOL    HW128010   2.062   3.772   5.839
 9037SOL    HW228011   2.131   3.834   5.705
 9038SOL     OW28012   5.658   6.555   5.310
 9038SOL    HW128013   5.677   6.500   5.229
 9038SOL    HW228014   5.742   6.597   5.343
 9039SOL     OW28015   2.370   5.698   6.050
 9039SOL    HW128016   2.322   5.610   6.052
 9039SOL    HW228017   2.469   5.683   6.051
 9040SOL     OW28018   1.909   0.952   1.796
 9040SOL    HW128019   1.899   0.857   1.764
 9040SOL    HW228020   1.987   0.958   1.858
 9041SOL     OW28021   1.530   3.406   0.108
 9041SOL    HW128022   1.453   3.361   0.062
 9041SOL    HW228023   1.612   3.394   0.052
 9042SOL     OW28024   2.746   5.317   3.755
 9042SOL    HW128025   2.669   5.374   3.725
 9042SOL    HW228026   2.715   5.253   3.826
 9043SOL     OW28027   6.568   2.115   6.340
 9043SOL    HW128028   6.526   2.199   6.375
 9043SOL    HW228029   6.520   2.085   6.258
 9044SOL     OW28030   6.142   5.016   6.988
 9044SOL    HW128031   6.198   4.972   6.918
 9044SOL    HW228032   6.200   5.051   0.037
 9045SOL     OW28033   3.299   6.220   3.862
 9045SOL    HW128034   3.330   6.201   3.768
 9045SOL    HW228035   3.376   6.210   3.925
 9046SOL     OW28036   2.992   3.819   5.713
 9046SOL    HW128037   3.046   3.749   5.666
 9046SOL    HW228038   2.941   3.872   5.646
 9047SOL     OW28039   1.129   4.453   4.703
 9047SOL    HW128040   1.069   4.533   4.708
 9047SOL    HW228041   1.212   4.477   4.653
 9048SOL     OW28042   1.454   3.203   4.761
 9048SOL    HW128043   1.407   3.278   4.807
 9048SOL    HW228044   1.491   3.234   4.674
 9049SOL     OW28045   5.340   5.791   6.176
 9049SOL    HW128046   5.418   5.854   6.176
 9049SOL    HW228047   5.343   5.734   6.094
 9050SOL     OW28048   0.146   5.998   5.563
 9050SOL    HW128049   0.210   5.989   5.487
 9050SOL    HW228050   0.064   5.943   5.545
 9051SOL     OW28051   5.437   6.602   5.940
 9051SOL    HW128052   5.439   6.641   5.848
 9051SOL    HW228053   5.359   6.639   5.990
 9052SOL     OW28054   2.678   5.750   4.370
 9052SOL    HW128055   2.584   5.721   4.356
 9052SOL    HW228056   2.722   5.765   4.281
 9053SOL     OW28057   2.710   1.561   3.556
 9053SOL    HW128058   2.687   1.466   3.532
 9053SOL    HW228059   2.630   1.604   3.599
 9054SOL     OW28060   3.545   0.262   1.627
 9054SOL    HW128061   3.472   0.200   1.597
 9054SOL    HW228062   3.627   0.247   1.571
 9055SOL     OW28063   1.410   1.461   4.104
 9055SOL    HW128064   1.479   1.491   4.038
 9055SOL    HW228065   1.357   1.386   4.064
 9056SOL     OW28066   5.599   1.087   2.891
 9056SOL    HW128067   5.665   1.148   2.936
 9056SOL    HW228068   5.510   1.132   2.887
 9057SOL     OW28069   4.575   6.577   6.828
 9057SOL    HW128070   4.591   6.672   6.800
 9057SOL    HW228071   4.494   6.542   6.783
 9058SOL     OW28072   1.643   2.895   5.186
 9058SOL    HW128073   1.696   2.918   5.105
 9058SOL    HW228074   1.640   2.795   5.196
 9059SOL     OW28075   0.053   1.076   3.286
 9059SOL    HW128076   0.128   1.027   3.243
 9059SOL    HW228077   7.018   1.010   3.333
 9060SOL     OW28078   0.482   5.201   1.612
 9060SOL    HW128079   0.487   5.282   1.669
 9060SOL    HW228080   0.386   5.176   1.596
 9061SOL     OW28081   5.786   4.359   2.503
 9061SOL    HW128082   5.771   4.288   2.435
 9061SOL    HW228083   5.884   4.368   2.520
 9062SOL     OW28084   0.652   5.521   3.129
 9062SOL    HW128085   0.620   5.496   3.038
 9062SOL    HW228086   0.721   5.455   3.159
 9063SOL     OW28087   4.516   1.700   1.946
 9063SOL    HW128088   4.454   1.624   1.962
 9063SOL    HW228089   4.466   1.776   1.905
 9064SOL     OW28090   1.228   5.379   3.303
 9064SOL    HW128091   1.246   5.386   3.205
 9064SOL    HW228092   1.247   5.467   3.347
 9065SOL     OW28093   2.733   4.494   5.397
 9065SOL    HW128094   2.723   4.405   5.441
 9065SOL    HW228095   2.801   4.486   5.324
 9066SOL     OW28096   4.865   4.956   4.795
 9066SOL    HW128097   4.818   4.959   4.707
 9066SOL    HW228098   4.801   4.926   4.866
 9067SOL     OW28099   1.137   6.348   4.085
 9067SOL    HW128100   1.170   6.261   4.049
 9067SOL    HW228101   1.092   6.400   4.011
 9068SOL     OW28102   5.071   6.819   5.797
 9068SOL    HW128103   4.977   6.803   5.766
 9068SOL    HW228104   5.128   6.847   5.720
 9069SOL     OW28105   5.309   1.912   1.186
 9069SOL    HW128106   5.239   1.978   1.209
 9069SOL    HW228107   5.333   1.859   1.267
 9070SOL     OW28108   1.390   2.075   5.899
 9070SOL    HW128109   1.401   1.976   5.907
 9070SOL    HW228110   1.315   2.105   5.958
 9071SOL     OW28111   5.068   2.256   6.057
 9071SOL    HW128112   5.039   2.279   5.964
 9071SOL    HW228113   5.108   2.336   6.101
 9072SOL     OW28114   5.051   0.983   2.494
 9072SOL    HW128115   5.102   0.897   2.504
 9072SOL    HW228116   5.032   0.998   2.397
 9073SOL     OW28117   4.688   1.413   5.559
 9073SOL    HW128118   4.652   1.460   5.479
 9073SOL    HW228119   4.612   1.376   5.612
 9074SOL     OW28120   1.575   0.429   1.729
 9074SOL    HW128121   1.614   0.486   1.657
 9074SOL    HW228122   1.649   0.391   1.785
 9075SOL     OW28123   5.678   6.325   1.092
 9075SOL    HW128124   5.728   6.392   1.036
 9075SOL    HW228125   5.644   6.369   1.175
 9076SOL     OW28126   6.627   0.546   2.526
 9076SOL    HW128127   6.545   0.502   2.489
 9076SOL    HW228128   6.708   0.501   2.490
 9077SOL     OW28129   6.289   1.662   6.435
 9077SOL    HW128130   6.203   1.680   6.483
 9077SOL    HW228131   6.286   1.704   6.344
 9078SOL     OW28132   4.984   6.305   6.974
 9078SOL    HW128133   5.000   6.207   6.963
 9078SOL    HW228134   4.887   6.321   6.996
 9079SOL     OW28135   1.706   1.020   6.578
 9079SOL    HW128136   1.632   1.086   6.592
 9079SOL    HW228137   1.688   0.937   6.631
 9080SOL     OW28138   5.932   3.132   1.245
 9080SOL    HW128139   5.895   3.054   1.196
 9080SOL    HW228140   5.980   3.100   1.327
 9081SOL     OW28141   4.487   1.774   7.014
 9081SOL    HW128142   4.577   1.793   0.029
 9081SOL    HW228143   4.498   1.742   6.920
 9082SOL     OW28144   3.663   5.618   5.986
 9082SOL    HW128145   3.662   5.716   6.005
 9082SOL    HW228146   3.735   5.574   6.040
 9083SOL     OW28147   4.261   5.346   6.604
 9083SOL    HW128148   4.297   5.381   6.517
 9083SOL    HW228149   4.330   5.287   6.646
 9084SOL     OW28150   6.748   2.134   6.050
 9084SOL    HW128151   6.818   2.096   5.990
 9084SOL    HW228152   6.791   2.178   6.129
 9085SOL     OW28153   1.789   4.826   0.079
 9085SOL    HW128154   1.841   4.744   0.055
 9085SOL    HW228155   1.848   4.907   0.070
 9086SOL     OW28156   6.883   4.764   1.243
 9086SOL    HW128157   6.816   4.694   1.267
 9086SOL    HW228158   6.935   4.790   1.324
 9087SOL     OW28159   6.145   1.271   2.108
 9087SOL    HW128160   6.149   1.180   2.066
 9087SOL    HW228161   6.051   1.305   2.106
 9088SOL     OW28162   6.623   6.550   0.527
 9088SOL    HW128163   6.620   6.589   0.619
 9088SOL    HW228164   6.604   6.622   0.460
 9089SOL     OW28165   5.299   5.442   3.864
 9089SOL    HW128166   5.326   5.397   3.779
 9089SOL    HW228167   5.337   5.535   3.866
 9090SOL     OW28168   5.744   6.183   5.218
 9090SOL    HW128169   5.761   6.141   5.307
 9090SOL    HW228170   5.785   6.126   5.146
 9091SOL     OW28171   2.320   1.603   1.323
 9091SOL    HW128172   2.327   1.575   1.228
 9091SOL    HW228173   2.242   1.665   1.334
 9092SOL     OW28174   1.650   0.575   5.880
 9092SOL    HW128175   1.576   0.545   5.821
 9092SOL    HW228176   1.649   0.521   5.964
 9093SOL     OW28177   2.316   4.465   0.750
 9093SOL    HW128178   2.357   4.387   0.797
 9093SOL    HW228179   2.342   4.465   0.654
 9094SOL     OW28180   6.708   4.921   1.449
 9094SOL    HW128181   6.716   5.019   1.432
 9094SOL    HW228182   6.636   4.883   1.391
 9095SOL     OW28183   3.584   3.189   6.830
 9095SOL    HW128184   3.510   3.178   6.762
 9095SOL    HW228185   3.642   3.108   6.829
 9096SOL     OW28186   5.314   2.468   3.057
 9096SOL    HW128187   5.255   2.450   3.135
 9096SOL    HW228188   5.285   2.552   3.011
 9097SOL     OW28189   0.628   4.932   6.259
 9097SOL    HW128190   0.619   4.882   6.345
 9097SOL    HW228191   0.685   5.012   6.273
 9098SOL     OW28192   3.883   3.599   2.646
 9098SOL    HW128193   3.933   3.597   2.560
 9098SOL    HW228194   3.859   3.506   2.674
 9099SOL     OW28195   2.529   3.487   1.108
 9099SOL    HW128196   2.562   3.406   1.157
 9099SOL    HW228197   2.431   3.478   1.091
 9100SOL     OW28198   0.378   2.840   1.030
 9100SOL    HW128199   0.335   2.781   0.962
 9100SOL    HW228200   0.414   2.785   1.105
 9101SOL     OW28201   1.921   2.272   1.400
 9101SOL    HW128202   1.850   2.334   1.367
 9101SOL    HW228203   1.884   2.214   1.472
 9102SOL     OW28204   3.338   5.405   2.557
 9102SOL    HW128205   3.407   5.353   2.607
 9102SOL    HW228206   3.384   5.470   2.496
 9103SOL     OW28207   0.528   3.781   0.355
 9103SOL    HW128208   0.471   3.850   0.310
 9103SOL    HW228209   0.623   3.794   0.329
 9104SOL     OW28210   4.499   6.782   1.210
 9104SOL    HW128211   4.535   6.801   1.118
 9104SOL    HW228212   4.573   6.789   1.277
 9105SOL     OW28213   1.573   1.857   5.879
 9105SOL    HW128214   1.598   1.953   5.865
 9105SOL    HW228215   1.628   1.799   5.819
 9106SOL     OW28216   5.773   4.817   0.731
 9106SOL    HW128217   5.692   4.775   0.691
 9106SOL    HW228218   5.771   4.915   0.715
 9107SOL     OW28219   4.532   0.254   1.411
 9107SOL    HW128220   4.549   0.282   1.316
 9107SOL    HW228221   4.616   0.219   1.451
 9108SOL     OW28222   4.513   5.288   5.352
 9108SOL    HW128223   4.478   5.203   5.311
 9108SOL    HW228224   4.589   5.266   5.413
 9109SOL     OW28225   3.364   1.630   3.681
 9109SOL    HW128226   3.288   1.577   3.643
 9109SOL    HW228227   3.330   1.688   3.756
 9110SOL     OW28228   1.849   4.278   3.502
 9110SOL    HW128229   1.813   4.264   3.595
 9110SOL    HW228230   1.775   4.311   3.443
 9111SOL     OW28231   3.404   4.040   1.806
 9111SOL    HW128232   3.442   4.019   1.896
 9111SOL    HW228233   3.436   3.973   1.740
 9112SOL     OW28234   6.935   4.550   2.330
 9112SOL    HW128235   6.887   4.476   2.283
 9112SOL    HW228236   6.981   4.514   2.411
 9113SOL     OW28237   4.500   6.870   0.658
 9113SOL    HW128238   4.462   6.840   0.571
 9113SOL    HW228239   4.438   6.844   0.732
 9114SOL     OW28240   2.661   4.977   1.662
 9114SOL    HW128241   2.760   4.964   1.661
 9114SOL    HW228242   2.632   5.007   1.753
 9115SOL     OW28243   1.249   4.916   4.987
 9115SOL    HW128244   1.232   4.993   4.927
 9115SOL    HW228245   1.330   4.934   5.043
 9116SOL     OW28246   0.080   1.655   6.183
 9116SOL    HW128247   0.022   1.584   6.221
 9116SOL    HW228248   0.163   1.615   6.145
 9117SOL     OW28249   0.107   2.940   0.036
 9117SOL    HW128250   0.024   2.918   7.009
 9117SOL    HW228251   0.115   2.879   0.114
 9118SOL     OW28252   6.698   6.722   1.509
 9118SOL    HW128253   6.605   6.686   1.507
 9118SOL    HW228254   6.734   6.726   1.415
 9119SOL     OW28255   6.625   0.225   1.735
 9119SOL    HW128256   6.611   0.210   1.833
 9119SOL    HW228257   6.554   0.286   1.700
 9120SOL     OW28258   5.239   1.372   6.110
 9120SOL    HW128259   5.285   1.398   6.026
 9120SOL    HW228260   5.205   1.453   6.157
 9121SOL     OW28261   0.419   1.912   6.128
 9121SOL    HW128262   0.338   1.854   6.131
 9121SOL    HW228263   0.501   1.856   6.133
 9122SOL     OW28264   1.846   3.058   2.858
 9122SOL    HW128265   1.940   3.028   2.842
 9122SOL    HW228266   1.821   3.125   2.787
 9123SOL     OW28267   2.643   5.677   6.517
 9123SOL    HW128268   2.567   5.653   6.456
 9123SOL    HW228269   2.629   5.635   6.606
 9124SOL     OW28270   6.885   5.907   5.522
 9124SOL    HW128271   6.902   5.988   5.579
 9124SOL    HW228272   6.807   5.925   5.462
 9125SOL     OW28273   4.881   3.934   3.881
 9125SOL    HW128274   4.827   3.972   3.805
 9125SOL    HW228275   4.941   3.862   3.846
 9126SOL     OW28276   6.171   0.425   2.016
 9126SOL    HW128277   6.195   0.334   2.051
 9126SOL    HW228278   6.131   0.480   2.089
 9127SOL     OW28279   5.314   0.343   6.683
 9127SOL    HW128280   5.405   0.376   6.709
 9127SOL    HW228281   5.322   0.252   6.643
 9128SOL     OW28282   3.490   1.983   5.160
 9128SOL    HW128283   3.420   1.913   5.144
 9128SOL    HW228284   3.515   2.026   5.074
 9129SOL     OW28285   1.517   1.639   6.222
 9129SOL    HW128286   1.535   1.540   6.216
 9129SOL    HW228287   1.583   1.681   6.283
 9130SOL     OW28288   5.833   5.003   0.364
 9130SOL    HW128289   5.905   4.934   0.354
 9130SOL    HW228290   5.874   5.092   0.383
 9131SOL     OW28291   0.592   4.474   4.305
 9131SOL    HW128292   0.551   4.463   4.396
 9131SOL    HW228293   0.577   4.391   4.251
 9132SOL     OW28294   6.665   3.479   4.547
 9132SOL    HW128295   6.585   3.419   4.543
 9132SOL    HW228296   6.667   3.525   4.636
 9133SOL     OW28297   2.118   4.030   1.323
 9133SOL    HW128298   2.134   4.069   1.232
 9133SOL    HW228299   2.203   4.031   1.376
 9134SOL     OW28300   3.220   6.596   0.005
 9134SOL    HW128301   3.229   6.685   0.049
 9134SOL    HW228302   3.182   6.608   6.937
 9135SOL     OW28303   6.241   6.613   3.389
 9135SOL    HW128304   6.244   6.596   3.487
 9135SOL    HW228305   6.191   6.539   3.343
 9136SOL     OW28306   5.117   5.404   5.678
 9136SOL    HW128307   5.212   5.373   5.676
 9136SOL    HW228308   5.115   5.504   5.668
 9137SOL     OW28309   4.429   0.859   1.736
 9137SOL    HW128310   4.495   0.818   1.673
 9137SOL    HW228311   4.429   0.808   1.822
 9138SOL     OW28312   5.614   4.766   6.531
 9138SOL    HW128313   5.698   4.711   6.534
 9138SOL    HW228314   5.627   4.851   6.582
 9139SOL     OW28315   3.464   1.058   5.722
 9139SOL    HW128316   3.560   1.041   5.699
 9139SOL    HW228317   3.453   1.151   5.757
 9140SOL     OW28318   6.623   2.585   2.800
 9140SOL    HW128319   6.547   2.536   2.755
 9140SOL    HW228320   6.586   2.654   2.862
 9141SOL     OW28321   5.260   0.185   5.939
 9141SOL    HW128322   5.228   0.275   5.911
 9141SOL    HW228323   5.335   0.156   5.881
 9142SOL     OW28324   0.609   2.815   6.213
 9142SOL    HW128325   0.537   2.780   6.273
 9142SOL    HW228326   0.569   2.848   6.128
 9143SOL     OW28327   4.410   3.312   0.498
 9143SOL    HW128328   4.334   3.376   0.511
 9143SOL    HW228329   4.434   3.270   0.586
 9144SOL     OW28330   2.212   5.464   5.696
 9144SOL    HW128331   2.279   5.510   5.637
 9144SOL    HW228332   2.123   5.509   5.687
 9145SOL     OW28333   0.635   4.366   0.429
 9145SOL    HW128334   0.576   4.314   0.368
 9145SOL    HW228335   0.607   4.462   0.428
 9146SOL     OW28336   5.590   2.500   0.972
 9146SOL    HW128337   5.623   2.461   0.886
 9146SOL    HW228338   5.639   2.457   1.048
 9147SOL     OW28339   4.384   5.415   3.811
 9147SOL    HW128340   4.349   5.508   3.824
 9147SOL    HW228341   4.308   5.351   3.802
 9148SOL     OW28342   5.037   5.919   3.360
 9148SOL    HW128343   5.088   5.844   3.402
 9148SOL    HW228344   4.965   5.881   3.302
 9149SOL     OW28345   5.046   3.152   4.344
 9149SOL    HW128346   5.072   3.058   4.321
 9149SOL    HW228347   4.955   3.171   4.308
 9150SOL     OW28348   5.129   7.022   3.475
 9150SOL    HW128349   5.181   6.968   3.541
 9150SOL    HW228350   5.188   0.067   3.434
 9151SOL     OW28351   1.372   4.144   2.312
 9151SOL    HW128352   1.331   4.234   2.323
 9151SOL    HW228353   1.436   4.127   2.387
 9152SOL     OW28354   2.247   6.517   3.450
 9152SOL    HW128355   2.239   6.442   3.385
 9152SOL    HW228356   2.267   6.602   3.401
 9153SOL     OW28357   1.579   2.073   6.529
 9153SOL    HW128358   1.672   2.057   6.561
 9153SOL    HW228359   1.520   1.998   6.559
 9154SOL     OW28360   2.683   5.970   6.904
 9154SOL    HW128361   2.761   5.988   6.844
 9154SOL    HW228362   2.716   5.928   6.989
 9155SOL     OW28363   1.938   3.789   6.147
 9155SOL    HW128364   1.987   3.866   6.189
 9155SOL    HW228365   1.898   3.732   6.219
 9156SOL     OW28366   3.368   2.180   1.190
 9156SOL    HW128367   3.445   2.183   1.254
 9156SOL    HW228368   3.403   2.188   1.096
 9157SOL     OW28369   5.604   4.340   4.967
 9157SOL    HW128370   5.585   4.258   4.913
 9157SOL    HW228371   5.550   4.336   5.052
 9158SOL     OW28372   0.054   3.764   4.840
 9158SOL    HW128373   7.005   3.710   4.882
 9158SOL    HW228374   0.141   3.716   4.849
 9159SOL     OW28375   0.197   5.501   2.862
 9159SOL    HW128376   0.106   5.505   2.820
 9159SOL    HW228377   0.202   5.568   2.937
 9160SOL     OW28378   0.803   6.567   6.097
 9160SOL    HW128379   0.867   6.491   6.084
 9160SOL    HW228380   0.820   6.637   6.027
 9161SOL     OW28381   4.868   3.807   4.655
 9161SOL    HW128382   4.851   3.718   4.698
 9161SOL    HW228383   4.963   3.833   4.668
 9162SOL     OW28384   5.060   3.266   3.048
 9162SOL    HW128385   5.056   3.288   2.950
 9162SOL    HW228386   5.155   3.252   3.075
 9163SOL     OW28387   2.835   2.300   3.753
 9163SOL    HW128388   2.755   2.342   3.709
 9163SOL    HW228389   2.858   2.214   3.706
 9164SOL     OW28390   2.724   0.710   6.653
 9164SOL    HW128391   2.681   0.793   6.619
 9164SOL    HW228392   2.776   0.667   6.579
 9165SOL     OW28393   5.848   0.823   6.285
 9165SOL    HW128394   5.847   0.918   6.318
 9165SOL    HW228395   5.763   0.778   6.311
 9166SOL     OW28396   4.289   5.985   0.840
 9166SOL    HW128397   4.206   6.018   0.885
 9166SOL    HW228398   4.352   6.062   0.825
 9167SOL     OW28399   1.468   3.689   5.923
 9167SOL    HW128400   1.441   3.649   5.836
 9167SOL    HW228401   1.552   3.743   5.911
 9168SOL     OW28402   2.139   0.216   5.529
 9168SOL    HW128403   2.183   0.279   5.465
 9168SOL    HW228404   2.209   0.172   5.585
 9169SOL     OW28405   0.419   1.082   4.962
 9169SOL    HW128406   0.447   1.160   4.905
 9169SOL    HW228407   0.455   1.094   5.054
 9170SOL     OW28408   6.870   4.874   0.106
 9170SOL    HW128409   6.936   4.934   0.060
 9170SOL    HW228410   6.874   4.889   0.205
 9171SOL     OW28411   2.953   5.516   6.863
 9171SOL    HW128412   2.993   5.434   6.823
 9171SOL    HW228413   3.026   5.577   6.893
 9172SOL     OW28414   3.575   0.920   4.150
 9172SOL    HW128415   3.557   1.015   4.172
 9172SOL    HW228416   3.489   0.870   4.144
 9173SOL     OW28417   5.866   4.663   4.955
 9173SOL    HW128418   5.862   4.620   5.045
 9173SOL    HW228419   5.823   4.753   4.958
 9174SOL     OW28420   6.196   4.348   0.359
 9174SOL    HW128421   6.264   4.356   0.286
 9174SOL    HW228422   6.109   4.317   0.320
 9175SOL     OW28423   2.726   6.245   5.714
 9175SOL    HW128424   2.793   6.256   5.641
 9175SOL    HW228425   2.670   6.164   5.697
 9176SOL     OW28426   2.082   1.353   5.386
 9176SOL    HW128427   2.114   1.430   5.330
 9176SOL    HW228428   2.001   1.313   5.344
 9177SOL     OW28429   1.465   3.854   4.514
 9177SOL    HW128430   1.476   3.907   4.429
 9177SOL    HW228431   1.395   3.783   4.500
 9178SOL     OW28432   1.978   5.562   1.018
 9178SOL    HW128433   1.896   5.516   1.053
 9178SOL    HW228434   1.976   5.562   0.918
 9179SOL     OW28435   2.700   5.018   4.227
 9179SOL    HW128436   2.725   4.924   4.252
 9179SOL    HW228437   2.652   5.017   4.139
 9180SOL     OW28438   6.275   2.549   3.719
 9180SOL    HW128439   6.194   2.496   3.696
 9180SOL    HW228440   6.277   2.565   3.818
 9181SOL     OW28441   4.494   2.458   2.721
 9181SOL    HW128442   4.536   2.528   2.663
 9181SOL    HW228443   4.525   2.471   2.816
 9182SOL     OW28444   1.911   6.117   2.299
 9182SOL    HW128445   1.817   6.152   2.298
 9182SOL    HW228446   1.913   6.026   2.258
 9183SOL     OW28447   5.089   6.202   0.655
 9183SOL    HW128448   5.167   6.158   0.609
 9183SOL    HW228449   5.034   6.133   0.700
 9184SOL     OW28450   5.486   0.047   0.710
 9184SOL    HW128451   5.405   7.022   0.741
 9184SOL    HW228452   5.460   0.113   0.639
 9185SOL     OW28453   4.019   0.737   5.063
 9185SOL    HW128454   4.082   0.674   5.018
 9185SOL    HW228455   3.956   0.775   4.995
 9186SOL     OW28456   6.590   0.619   4.887
 9186SOL    HW128457   6.688   0.638   4.882
 9186SOL    HW228458   6.574   0.521   4.872
 9187SOL     OW28459   2.052   6.875   2.025
 9187SOL    HW128460   2.121   6.889   2.096
 9187SOL    HW228461   1.990   6.802   2.053
 9188SOL     OW28462   2.583   6.985   1.091
 9188SOL    HW128463   2.531   6.907   1.127
 9188SOL    HW228464   2.523   0.040   1.085
 9189SOL     OW28465   5.179   5.566   2.590
 9189SOL    HW128466   5.239   5.495   2.553
 9189SOL    HW228467   5.135   5.616   2.514
 9190SOL     OW28468   2.181   5.453   0.413
 9190SOL    HW128469   2.257   5.390   0.424
 9190SOL    HW228470   2.216   5.545   0.394
 9191SOL     OW28471   6.495   0.328   5.479
 9191SOL    HW128472   6.559   0.364   5.411
 9191SOL    HW228473   6.443   0.404   5.519
 9192SOL     OW28474   0.541   4.499   4.576
 9192SOL    HW128475   0.621   4.510   4.635
 9192SOL    HW228476   0.473   4.441   4.621
 9193SOL     OW28477   3.683   3.615   0.569
 9193SOL    HW128478   3.662   3.628   0.666
 9193SOL    HW228479   3.612   3.658   0.513
 9194SOL     OW28480   3.490   0.559   4.108
 9194SOL    HW128481   3.415   0.620   4.084
 9194SOL    HW228482   3.453   0.469   4.134
 9195SOL     OW28483   1.752   2.400   4.547
 9195SOL    HW128484   1.673   2.393   4.486
 9195SOL    HW228485   1.760   2.494   4.579
 9196SOL     OW28486   4.477   1.380   5.023
 9196SOL    HW128487   4.565   1.394   5.069
 9196SOL    HW228488   4.426   1.309   5.072
 9197SOL     OW28489   2.555   3.928   1.415
 9197SOL    HW128490   2.636   3.972   1.377
 9197SOL    HW228491   2.523   3.858   1.351
 9198SOL     OW28492   6.771   5.395   5.560
 9198SOL    HW128493   6.691   5.376   5.504
 9198SOL    HW228494   6.795   5.314   5.614
 9199SOL     OW28495   0.521   3.866   6.178
 9199SOL    HW128496   0.544   3.957   6.212
 9199SOL    HW228497   0.498   3.871   6.081
 9200SOL     OW28498   2.810   0.616   0.895
 9200SOL    HW128499   2.744   0.686   0.919
 9200SOL    HW228500   2.895   0.659   0.863
 9201SOL     OW28501   1.406   3.028   6.655
 9201SOL    HW128502   1.375   2.953   6.714
 9201SOL    HW228503   1.384   3.115   6.699
 9202SOL     OW28504   1.945   6.654   3.186
 9202SOL    HW128505   1.963   6.728   3.252
 9202SOL    HW228506   1.996   6.671   3.102
 9203SOL     OW28507   0.167   5.103   0.292
 9203SOL    HW128508   0.164   5.189   0.344
 9203SOL    HW228509   0.246   5.049   0.322
 9204SOL     OW28510   4.929   1.676   6.921
 9204SOL    HW128511   4.896   1.769   6.933
 9204SOL    HW228512   4.879   1.614   6.981
 9205SOL     OW28513   6.704   4.316   2.852
 9205SOL    HW128514   6.658   4.299   2.939
 9205SOL    HW228515   6.659   4.263   2.780
 9206SOL     OW28516   3.329   6.033   0.495
 9206SOL    HW128517   3.364   6.121   0.465
 9206SOL    HW228518   3.383   5.959   0.455
 9207SOL     OW28519   4.636   5.549   0.111
 9207SOL    HW128520   4.621   5.605   0.193
 9207SOL    HW228521   4.617   5.604   0.029
 9208SOL     OW28522   6.286   3.979   4.356
 9208SOL    HW128523   6.378   3.956   4.325
 9208SOL    HW228524   6.267   3.932   4.442
 9209SOL     OW28525   2.864   1.708   6.754
 9209SOL    HW128526   2.936   1.731   6.689
 9209SOL    HW228527   2.906   1.671   6.838
 9210SOL     OW28528   6.517   1.619   2.858
 9210SOL    HW128529   6.610   1.597   2.887
 9210SOL    HW228530   6.502   1.583   2.766
 9211SOL     OW28531   0.132   3.061   3.782
 9211SOL    HW128532   0.103   2.968   3.759
 9211SOL    HW228533   0.072   3.098   3.854
 9212SOL     OW28534   3.659   5.188   4.038
 9212SOL    HW128535   3.650   5.214   3.942
 9212SOL    HW228536   3.655   5.270   4.095
 9213SOL     OW28537   5.906   3.038   5.749
 9213SOL    HW128538   5.913   3.137   5.760
 9213SOL    HW228539   5.838   3.017   5.679
 9214SOL     OW28540   0.346   5.642   6.260
 9214SOL    HW128541   0.287   5.581   6.312
 9214SOL    HW228542   0.300   5.668   6.175
 9215SOL     OW28543   1.175   1.082   0.457
 9215SOL    HW128544   1.092   1.100   0.404
 9215SOL    HW228545   1.253   1.126   0.412
 9216SOL     OW28546   2.703   0.078   3.631
 9216SOL    HW128547   2.754   0.006   3.584
 9216SOL    HW228548   2.705   0.161   3.576
 9217SOL     OW28549   0.309   1.424   6.374
 9217SOL    HW128550   0.279   1.426   6.469
 9217SOL    HW228551   0.384   1.490   6.362
 9218SOL     OW28552   3.464   6.769   0.423
 9218SOL    HW128553   3.511   6.780   0.511
 9218SOL    HW228554   3.371   6.803   0.431
 9219SOL     OW28555   1.073   2.491   0.832
 9219SOL    HW128556   0.990   2.439   0.810
 9219SOL    HW228557   1.056   2.589   0.820
 9220SOL     OW28558   3.363   6.704   1.403
 9220SOL    HW128559   3.391   6.672   1.493
 9220SOL    HW228560   3.431   6.676   1.335
 9221SOL     OW28561   3.392   0.017   4.358
 9221SOL    HW128562   3.464   0.056   4.417
 9221SOL    HW228563   3.358   0.088   4.296
 9222SOL     OW28564   2.530   0.883   6.539
 9222SOL    HW128565   2.489   0.921   6.456
 9222SOL    HW228566   2.461   0.833   6.592
 9223SOL     OW28567   1.420   3.047   5.178
 9223SOL    HW128568   1.509   3.002   5.170
 9223SOL    HW228569   1.429   3.142   5.149
 9224SOL     OW28570   2.442   5.397   3.869
 9224SOL    HW128571   2.348   5.415   3.899
 9224SOL    HW228572   2.504   5.414   3.945
 9225SOL     OW28573   3.124   6.475   6.498
 9225SOL    HW128574   3.202   6.537   6.507
 9225SOL    HW228575   3.041   6.528   6.481
 9226SOL     OW28576   4.743   6.289   1.393
 9226SOL    HW128577   4.817   6.342   1.433
 9226SOL    HW228578   4.698   6.235   1.465
 9227SOL     OW28579   0.947   5.153   2.997
 9227SOL    HW128580   0.888   5.209   2.939
 9227SOL    HW228581   1.040   5.189   2.995
 9228SOL     OW28582   1.652   1.054   5.906
 9228SOL    HW128583   1.750   1.064   5.926
 9228SOL    HW228584   1.621   0.964   5.936
 9229SOL     OW28585   1.496   5.324   3.678
 9229SOL    HW128586   1.499   5.360   3.585
 9229SOL    HW228587   1.449   5.236   3.679
 9230SOL     OW28588   5.860   0.335   3.346
 9230SOL    HW128589   5.857   0.291   3.435
 9230SOL    HW228590   5.829   0.271   3.276
 9231SOL     OW28591   1.517   3.165   4.290
 9231SOL    HW128592   1.422   3.178   4.320
 9231SOL    HW228593   1.550   3.076   4.321
 9232SOL     OW28594   3.825   5.257   0.445
 9232SOL    HW128595   3.846   5.326   0.514
 9232SOL    HW228596   3.734   5.219   0.461
 9233SOL     OW28597   5.778   5.325   1.429
 9233SOL    HW128598   5.783   5.407   1.373
 9233SOL    HW228599   5.868   5.304   1.466
 9234SOL     OW28600   2.533   5.643   3.389
 9234SOL    HW128601   2.564   5.551   3.363
 9234SOL    HW228602   2.448   5.636   3.441
 9235SOL     OW28603   2.053   1.774   3.154
 9235SOL    HW128604   1.975   1.806   3.207
 9235SOL    HW228605   2.027   1.763   3.058
 9236SOL     OW28606   3.202   3.983   5.378
 9236SOL    HW128607   3.224   4.043   5.301
 9236SOL    HW228608   3.222   3.888   5.353
 9237SOL     OW28609   1.472   4.257   4.142
 9237SOL    HW128610   1.521   4.227   4.061
 9237SOL    HW228611   1.384   4.298   4.116
 9238SOL     OW28612   4.747   2.794   6.433
 9238SOL    HW128613   4.705   2.884   6.446
 9238SOL    HW228614   4.846   2.801   6.445
 9239SOL     OW28615   0.214   3.973   1.176
 9239SOL    HW128616   0.305   3.937   1.154
 9239SOL    HW228617   0.212   4.072   1.159
 9240SOL     OW28618   5.414   1.567   1.405
 9240SOL    HW128619   5.503   1.587   1.363
 9240SOL    HW228620   5.372   1.489   1.358
 9241SOL     OW28621   6.777   5.561   6.537
 9241SOL    HW128622   6.821   5.566   6.627
 9241SOL    HW228623   6.848   5.557   6.466
 9242SOL     OW28624   0.115   5.986   1.252
 9242SOL    HW128625   0.056   5.908   1.272
 9242SOL    HW228626   0.066   6.071   1.269
 9243SOL     OW28627   0.004   6.066   4.130
 9243SOL    HW128628   6.997   6.040   4.039
 9243SOL    HW228629   0.089   6.016   4.151
 9244SOL     OW28630   4.591   5.540   6.692
 9244SOL    HW128631   4.529   5.462   6.694
 9244SOL    HW228632   4.582   5.592   6.777
 9245SOL     OW28633   0.864   5.153   2.362
 9245SOL    HW128634   0.861   5.086   2.436
 9245SOL    HW228635   0.932   5.223   2.384
 9246SOL     OW28636   6.873   5.299   3.660
 9246SOL    HW128637   6.922   5.215   3.683
 9246SOL    HW228638   6.775   5.282   3.659
 9247SOL     OW28639   1.318   0.078   3.253
 9247SOL    HW128640   1.284   7.009   3.241
 9247SOL    HW228641   1.414   0.083   3.228
 9248SOL     OW28642   2.911   2.635   6.020
 9248SOL    HW128643   2.819   2.611   5.988
 9248SOL    HW228644   2.978   2.572   5.982
 9249SOL     OW28645   5.504   1.893   4.645
 9249SOL    HW128646   5.604   1.903   4.638
 9249SOL    HW228647   5.479   1.878   4.741
 9250SOL     OW28648   4.820   3.998   4.170
 9250SOL    HW128649   4.811   3.925   4.238
 9250SOL    HW228650   4.831   3.959   4.079
 9251SOL     OW28651   3.336   1.236   3.483
 9251SOL    HW128652   3.401   1.160   3.483
 9251SOL    HW228653   3.313   1.260   3.389
 9252SOL     OW28654   6.945   7.006   4.740
 9252SOL    HW128655   7.020   6.955   4.699
 9252SOL    HW228656   6.914   6.960   4.822
 9253SOL     OW28657   2.806   6.356   6.206
 9253SOL    HW128658   2.737   6.299   6.250
 9253SOL    HW228659   2.805   6.340   6.108
 9254SOL     OW28660   5.888   3.860   1.425
 9254SOL    HW128661   5.792   3.858   1.452
 9254SOL    HW228662   5.943   3.811   1.494
 9255SOL     OW28663   4.863   2.968   0.214
 9255SOL    HW128664   4.912   2.895   0.166
 9255SOL    HW228665   4.894   3.056   0.180
 9256SOL     OW28666   3.888   4.843   2.330
 9256SOL    HW128667   3.875   4.867   2.233
 9256SOL    HW228668   3.799   4.824   2.371
 9257SOL     OW28669   0.840   3.873   2.501
 9257SOL    HW128670   0.844   3.945   2.431
 9257SOL    HW228671   0.929   3.829   2.508
 9258SOL     OW28672   3.544   3.098   3.756
 9258SOL    HW128673   3.552   3.016   3.699
 9258SOL    HW228674   3.512   3.175   3.700
 9259SOL     OW28675   1.024   2.248   1.119
 9259SOL    HW128676   1.061   2.302   1.044
 9259SOL    HW228677   1.026   2.303   1.203
 9260SOL     OW28678   5.073   2.933   6.136
 9260SOL    HW128679   5.007   2.872   6.093
 9260SOL    HW228680   5.029   2.985   6.210
 9261SOL     OW28681   3.801   0.232   6.743
 9261SOL    HW128682   3.850   0.312   6.777
 9261SOL    HW228683   3.741   0.197   6.814
 9262SOL     OW28684   5.713   1.903   5.409
 9262SOL    HW128685   5.636   1.954   5.372
 9262SOL    HW228686   5.796   1.925   5.358
 9263SOL     OW28687   5.316   4.134   1.111
 9263SOL    HW128688   5.303   4.061   1.178
 9263SOL    HW228689   5.414   4.145   1.093
 9264SOL     OW28690   6.570   3.507   0.294
 9264SOL    HW128691   6.497   3.439   0.302
 9264SOL    HW228692   6.612   3.500   0.204
 9265SOL     OW28693   2.519   1.581   0.355
 9265SOL    HW128694   2.587   1.654   0.365
 9265SOL    HW228695   2.459   1.580   0.435
 9266SOL     OW28696   2.554   6.459   2.420
 9266SOL    HW128697   2.480   6.525   2.432
 9266SOL    HW228698   2.517   6.373   2.384
 9267SOL     OW28699   0.536   3.840   4.451
 9267SOL    HW128700   0.626   3.843   4.496
 9267SOL    HW228701   0.506   3.745   4.445
 9268SOL     OW28702   0.359   6.616   3.315
 9268SOL    HW128703   0.357   6.610   3.215
 9268SOL    HW228704   0.428   6.553   3.351
 9269SOL     OW28705   2.710   1.820   0.075
 9269SOL    HW128706   2.702   1.897   0.138
 9269SOL    HW228707   2.635   1.823   0.009
 9270SOL     OW28708   7.002   6.791   5.442
 9270SOL    HW128709   7.004   6.754   5.350
 9270SOL    HW228710   6.984   6.889   5.438
 9271SOL     OW28711   1.465   6.574   0.973
 9271SOL    HW128712   1.442   6.640   0.902
 9271SOL    HW228713   1.490   6.487   0.931
 9272SOL     OW28714   2.507   4.047   6.138
 9272SOL    HW128715   2.566   4.126   6.156
 9272SOL    HW228716   2.500   3.991   6.221
 9273SOL     OW28717   4.899   5.356   3.674
 9273SOL    HW128718   4.801   5.349   3.660
 9273SOL    HW228719   4.946   5.286   3.619
 9274SOL     OW28720   5.170   2.433   6.995
 9274SOL    HW128721   5.208   2.341   7.004
 9274SOL    HW228722   5.113   2.438   6.912
 9275SOL     OW28723   1.051   1.429   6.849
 9275SOL    HW128724   1.125   1.461   6.790
 9275SOL    HW228725   1.001   1.508   6.885
 9276SOL     OW28726   3.486   5.809   4.862
 9276SOL    HW128727   3.449   5.724   4.899
 9276SOL    HW228728   3.475   5.809   4.763
 9277SOL     OW28729   3.615   3.617   0.237
 9277SOL    HW128730   3.566   3.544   0.189
 9277SOL    HW228731   3.558   3.652   0.311
 9278SOL     OW28732   1.070   1.859   3.799
 9278SOL    HW128733   1.083   1.844   3.701
 9278SOL    HW228734   1.158   1.851   3.846
 9279SOL     OW28735   3.818   0.544   2.214
 9279SOL    HW128736   3.856   0.452   2.225
 9279SOL    HW228737   3.842   0.600   2.293
 9280SOL     OW28738   1.279   6.725   3.490
 9280SOL    HW128739   1.191   6.678   3.497
 9280SOL    HW228740   1.353   6.658   3.485
 9281SOL     OW28741   2.516   2.643   0.674
 9281SOL    HW128742   2.488   2.603   0.587
 9281SOL    HW228743   2.548   2.571   0.736
 9282SOL     OW28744   4.842   1.764   4.576
 9282SOL    HW128745   4.909   1.708   4.526
 9282SOL    HW228746   4.796   1.707   4.645
 9283SOL     OW28747   6.298   2.303   2.746
 9283SOL    HW128748   6.300   2.207   2.718
 9283SOL    HW228749   6.341   2.359   2.675
 9284SOL     OW28750   3.786   4.340   0.852
 9284SOL    HW128751   3.720   4.288   0.797
 9284SOL    HW228752   3.747   4.430   0.873
 9285SOL     OW28753   6.836   2.872   6.910
 9285SOL    HW128754   6.904   2.845   6.842
 9285SOL    HW228755   6.820   2.971   6.904
 9286SOL     OW28756   5.883   6.715   5.364
 9286SOL    HW128757   5.937   6.797   5.380
 9286SOL    HW228758   5.904   6.677   5.274
 9287SOL     OW28759   2.938   5.512   1.349
 9287SOL    HW128760   2.850   5.558   1.360
 9287SOL    HW228761   2.936   5.425   1.398
 9288SOL     OW28762   3.663   1.563   5.666
 9288SOL    HW128763   3.700   1.553   5.574
 9288SOL    HW228764   3.583   1.504   5.677
 9289SOL     OW28765   5.059   2.786   2.683
 9289SOL    HW128766   5.029   2.692   2.702
 9289SOL    HW228767   4.980   2.839   2.652
 9290SOL     OW28768   4.102   2.196   4.914
 9290SOL    HW128769   4.117   2.281   4.965
 9290SOL    HW228770   4.125   2.211   4.818
 9291SOL     OW28771   1.817   0.244   5.139
 9291SOL    HW128772   1.745   0.240   5.209
 9291SOL    HW228773   1.835   0.152   5.105
 9292SOL     OW28774   0.184   3.091   6.126
 9292SOL    HW128775   0.118   3.104   6.053
 9292SOL    HW228776   0.275   3.118   6.095
 9293SOL     OW28777   5.588   4.136   0.574
 9293SOL    HW128778   5.616   4.224   0.535
 9293SOL    HW228779   5.590   4.066   0.502
 9294SOL     OW28780   4.102   6.030   0.081
 9294SOL    HW128781   4.074   6.119   0.115
 9294SOL    HW228782   4.024   5.984   0.038
 9295SOL     OW28783   4.483   2.225   2.883
 9295SOL    HW128784   4.461   2.187   2.794
 9295SOL    HW228785   4.494   2.325   2.876
 9296SOL     OW28786   6.417   6.630   5.817
 9296SOL    HW128787   6.357   6.589   5.886
 9296SOL    HW228788   6.512   6.610   5.839
 9297SOL     OW28789   0.374   0.497   1.218
 9297SOL    HW128790   0.341   0.406   1.196
 9297SOL    HW228791   0.299   0.551   1.256
 9298SOL     OW28792   2.645   6.000   5.669
 9298SOL    HW128793   2.656   5.901   5.670
 9298SOL    HW228794   2.589   6.027   5.591
 9299SOL     OW28795   1.423   3.054   3.801
 9299SOL    HW128796   1.443   2.963   3.764
 9299SOL    HW228797   1.326   3.075   3.788
 9300SOL     OW28798   6.695   5.218   5.174
 9300SOL    HW128799   6.651   5.273   5.245
 9300SOL    HW228800   6.650   5.129   5.169
 9301SOL     OW28801   4.819   4.603   3.139
 9301SOL    HW128802   4.801   4.578   3.044
 9301SOL    HW228803   4.761   4.548   3.200
 9302SOL     OW28804   2.473   2.569   3.443
 9302SOL    HW128805   2.373   2.572   3.448
 9302SOL    HW228806   2.502   2.598   3.351
 9303SOL     OW28807   3.862   6.831   0.491
 9303SOL    HW128808   3.877   6.772   0.571
 9303SOL    HW228809   3.947   6.880   0.470
 9304SOL     OW28810   3.583   4.271   0.645
 9304SOL    HW128811   3.630   4.338   0.587
 9304SOL    HW228812   3.490   4.303   0.663
 9305SOL     OW28813   5.732   2.122   1.219
 9305SOL    HW128814   5.769   2.207   1.180
 9305SOL    HW228815   5.633   2.129   1.226
 9306SOL     OW28816   6.993   4.484   4.147
 9306SOL    HW128817   6.967   4.515   4.238
 9306SOL    HW228818   6.958   4.549   4.079
 9307SOL     OW28819   1.342   2.240   1.113
 9307SOL    HW128820   1.303   2.332   1.101
 9307SOL    HW228821   1.346   2.195   1.024
 9308SOL     OW28822   0.486   3.385   1.070
 9308SOL    HW128823   0.394   3.374   1.109
 9308SOL    HW228824   0.554   3.357   1.138
 9309SOL     OW28825   4.110   4.328   6.052
 9309SOL    HW128826   4.046   4.349   5.977
 9309SOL    HW228827   4.065   4.345   6.140
 9310SOL     OW28828   4.110   6.732   6.139
 9310SOL    HW128829   4.136   6.815   6.090
 9310SOL    HW228830   4.027   6.694   6.098
 9311SOL     OW28831   5.462   3.754   0.494
 9311SOL    HW128832   5.531   3.809   0.446
 9311SOL    HW228833   5.372   3.793   0.479
 9312SOL     OW28834   1.400   4.331   6.689
 9312SOL    HW128835   1.346   4.264   6.639
 9312SOL    HW228836   1.357   4.421   6.683
 9313SOL     OW28837   6.599   0.827   2.562
 9313SOL    HW128838   6.540   0.873   2.496
 9313SOL    HW228839   6.607   0.731   2.538
 9314SOL     OW28840   4.035   5.483   6.778
 9314SOL    HW128841   3.949   5.461   6.731
 9314SOL    HW228842   4.109   5.430   6.738
 9315SOL     OW28843   0.193   0.523   5.578
 9315SOL    HW128844   0.199   0.612   5.622
 9315SOL    HW228845   0.185   0.452   5.648
 9316SOL     OW28846   3.891   5.984   4.485
 9316SOL    HW128847   3.878   5.982   4.386
 9316SOL    HW228848   3.935   6.070   4.511
 9317SOL     OW28849   5.961   5.270   3.272
 9317SOL    HW128850   5.914   5.191   3.232
 9317SOL    HW228851   5.898   5.346   3.281
 9318SOL     OW28852   0.479   0.990   6.640
 9318SOL    HW128853   0.569   1.034   6.642
 9318SOL    HW228854   0.464   0.948   6.551
 9319SOL     OW28855   0.883   3.311   6.703
 9319SOL    HW128856   0.851   3.352   6.618
 9319SOL    HW228857   0.822   3.235   6.728
 9320SOL     OW28858   3.794   2.414   5.812
 9320SOL    HW128859   3.725   2.487   5.809
 9320SOL    HW228860   3.755   2.333   5.857
 9321SOL     OW28861   6.205   6.985   2.848
 9321SOL    HW128862   6.137   0.031   2.827
 9321SOL    HW228863   6.217   6.979   2.947
 9322SOL     OW28864   0.313   6.495   6.087
 9322SOL    HW128865   0.351   6.552   6.014
 9322SOL    HW228866   0.218   6.474   6.067
 9323SOL     OW28867   0.872   1.334   6.413
 9323SOL    HW128868   0.878   1.265   6.341
 9323SOL    HW228869   0.905   1.296   6.499
 9324SOL     OW28870   1.036   5.096   0.531
 9324SOL    HW128871   1.021   5.018   0.472
 9324SOL    HW228872   1.119   5.145   0.502
 9325SOL     OW28873   5.230   1.601   0.927
 9325SOL    HW128874   5.283   1.548   0.993
 9325SOL    HW228875   5.174   1.668   0.975
 9326SOL     OW28876   2.585   0.006   0.584
 9326SOL    HW128877   2.557   0.099   0.609
 9326SOL    HW228878   2.565   6.969   0.660
 9327SOL     OW28879   4.853   7.023   3.535
 9327SOL    HW128880   4.901   6.992   3.617
 9327SOL    HW228881   4.920   0.032   3.468
 9328SOL     OW28882   3.671   1.654   0.026
 9328SOL    HW128883   3.639   1.686   6.961
 9328SOL    HW228884   3.706   1.561   0.019
 9329SOL     OW28885   6.733   3.462   2.889
 9329SOL    HW128886   6.696   3.413   2.969
 9329SOL    HW228887   6.831   3.475   2.902
 9330SOL     OW28888   6.834   6.720   0.915
 9330SOL    HW128889   6.907   6.772   0.959
 9330SOL    HW228890   6.785   6.778   0.851
 9331SOL     OW28891   0.159   0.944   0.139
 9331SOL    HW128892   0.248   0.908   0.168
 9331SOL    HW228893   0.173   1.022   0.077
 9332SOL     OW28894   3.055   3.965   3.702
 9332SOL    HW128895   3.000   4.041   3.738
 9332SOL    HW228896   3.027   3.880   3.745
 9333SOL     OW28897   6.098   3.728   0.745
 9333SOL    HW128898   6.162   3.662   0.786
 9333SOL    HW228899   6.130   3.821   0.763
 9334SOL     OW28900   2.945   0.134   3.819
 9334SOL    HW128901   2.846   0.123   3.805
 9334SOL    HW228902   2.988   0.158   3.732
 9335SOL     OW28903   1.533   1.611   6.694
 9335SOL    HW128904   1.530   1.539   6.763
 9335SOL    HW228905   1.598   1.587   6.622
 9336SOL     OW28906   3.071   6.410   6.245
 9336SOL    HW128907   3.086   6.406   6.344
 9336SOL    HW228908   2.975   6.394   6.225
 9337SOL     OW28909   5.508   0.401   2.283
 9337SOL    HW128910   5.478   0.369   2.372
 9337SOL    HW228911   5.451   0.479   2.255
 9338SOL     OW28912   4.005   0.483   2.478
 9338SOL    HW128913   4.099   0.475   2.447
 9338SOL    HW228914   3.971   0.575   2.459
 9339SOL     OW28915   5.305   6.797   1.139
 9339SOL    HW128916   5.316   6.872   1.204
 9339SOL    HW228917   5.318   6.710   1.186
 9340SOL     OW28918   5.290   3.543   5.892
 9340SOL    HW128919   5.360   3.592   5.944
 9340SOL    HW228920   5.309   3.445   5.894
 9341SOL     OW28921   1.142   5.703   6.912
 9341SOL    HW128922   1.096   5.632   6.857
 9341SOL    HW228923   1.241   5.691   6.905
 9342SOL     OW28924   1.759   7.010   5.480
 9342SOL    HW128925   1.844   6.970   5.447
 9342SOL    HW228926   1.778   0.071   5.528
 9343SOL     OW28927   6.680   5.687   5.417
 9343SOL    HW128928   6.602   5.716   5.363
 9343SOL    HW228929   6.741   5.631   5.361
 9344SOL     OW28930   4.656   6.505   1.244
 9344SOL    HW128931   4.682   6.422   1.293
 9344SOL    HW228932   4.667   6.584   1.304
 9345SOL     OW28933   6.783   3.069   1.798
 9345SOL    HW128934   6.692   3.073   1.840
 9345SOL    HW228935   6.852   3.063   1.869
 9346SOL     OW28936   6.378   0.911   1.396
 9346SOL    HW128937   6.477   0.902   1.406
 9346SOL    HW228938   6.333   0.837   1.447
 9347SOL     OW28939   1.447   5.964   1.591
 9347SOL    HW128940   1.357   5.940   1.555
 9347SOL    HW228941   1.441   6.053   1.636
 9348SOL     OW28942   3.720   5.767   0.493
 9348SOL    HW128943   3.800   5.827   0.499
 9348SOL    HW228944   3.737   5.696   0.425
 9349SOL     OW28945   1.256   6.535   2.644
 9349SOL    HW128946   1.287   6.514   2.736
 9349SOL    HW228947   1.330   6.577   2.592
 9350SOL     OW28948   0.380   2.294   6.411
 9350SOL    HW128949   0.364   2.224   6.481
 9350SOL    HW228950   0.338   2.380   6.440
 9351SOL     OW28951   3.171   2.457   6.738
 9351SOL    HW128952   3.098   2.442   6.672
 9351SOL    HW228953   3.143   2.525   6.806
 9352SOL     OW28954   2.695   4.679   0.064
 9352SOL    HW128955   2.778   4.628   0.046
 9352SOL    HW228956   2.668   4.667   0.160
 9353SOL     OW28957   0.600   5.972   1.795
 9353SOL    HW128958   0.655   5.997   1.875
 9353SOL    HW228959   0.577   5.875   1.799
 9354SOL     OW28960   5.845   2.407   6.938
 9354SOL    HW128961   5.828   2.361   6.851
 9354SOL    HW228962   5.901   2.348   6.996
 9355SOL     OW28963   0.718   1.490   5.264
 9355SOL    HW128964   0.731   1.575   5.212
 9355SOL    HW228965   0.626   1.455   5.249
 9356SOL     OW28966   4.734   6.828   1.962
 9356SOL    HW128967   4.642   6.829   1.922
 9356SOL    HW228968   4.732   6.779   2.049
 9357SOL     OW28969   0.853   1.863   6.925
 9357SOL    HW128970   0.765   1.867   6.973
 9357SOL    HW228971   0.926   1.892   6.987
 9358SOL     OW28972   1.302   3.519   2.152
 9358SOL    HW128973   1.345   3.468   2.077
 9358SOL    HW228974   1.372   3.544   2.219
 9359SOL     OW28975   2.264   6.597   6.100
 9359SOL    HW128976   2.279   6.603   6.199
 9359SOL    HW228977   2.337   6.544   6.059
 9360SOL     OW28978   1.470   0.425   6.354
 9360SOL    HW128979   1.500   0.491   6.423
 9360SOL    HW228980   1.370   0.425   6.349
 9361SOL     OW28981   2.614   6.199   4.176
 9361SOL    HW128982   2.537   6.249   4.215
 9361SOL    HW228983   2.667   6.259   4.117
 9362SOL     OW28984   2.060   0.372   2.039
 9362SOL    HW128985   2.071   0.321   2.123
 9362SOL    HW228986   1.999   0.450   2.055
 9363SOL     OW28987   2.961   5.376   2.373
 9363SOL    HW128988   3.051   5.338   2.352
 9363SOL    HW228989   2.944   5.454   2.313
 9364SOL     OW28990   1.799   1.830   1.350
 9364SOL    HW128991   1.726   1.765   1.332
 9364SOL    HW228992   1.882   1.780   1.378
 9365SOL     OW28993   3.250   1.836   4.304
 9365SOL    HW128994   3.333   1.825   4.358
 9365SOL    HW228995   3.273   1.876   4.216
 9366SOL     OW28996   3.378   5.599   0.439
 9366SOL    HW128997   3.421   5.689   0.434
 9366SOL    HW228998   3.447   5.528   0.427
 9367SOL     OW28999   6.298   0.712   1.549
 9367SOL    HW129000   6.199   0.715   1.565
 9367SOL    HW229001   6.339   0.643   1.610
 9368SOL     OW29002   3.508   0.966   3.013
 9368SOL    HW129003   3.568   0.955   2.934
 9368SOL    HW229004   3.468   0.878   3.038
 9369SOL     OW29005   1.823   5.411   6.604
 9369SOL    HW129006   1.881   5.458   6.538
 9369SOL    HW229007   1.799   5.474   6.679
 9370SOL     OW29008   4.907   2.072   3.999
 9370SOL    HW129009   4.973   2.001   4.023
 9370SOL    HW229010   4.948   2.162   4.011
 9371SOL     OW29011   3.872   5.936   1.529
 9371SOL    HW129012   3.912   5.855   1.487
 9371SOL    HW229013   3.775   5.943   1.504
 9372SOL     OW29014   4.941   6.453   1.478
 9372SOL    HW129015   5.022   6.422   1.528
 9372SOL    HW229016   4.959   6.541   1.434
 9373SOL     OW29017   6.588   1.127   0.875
 9373SOL    HW129018   6.673   1.180   0.874
 9373SOL    HW229019   6.547   1.131   0.784
 9374SOL     OW29020   0.831   4.981   5.622
 9374SOL    HW129021   0.851   4.920   5.699
 9374SOL    HW229022   0.735   5.010   5.627
 9375SOL     OW29023   0.423   1.752   6.970
 9375SOL    HW129024   0.337   1.768   6.920
 9375SOL    HW229025   0.485   1.699   6.912
 9376SOL     OW29026   2.124   3.642   2.128
 9376SOL    HW129027   2.185   3.686   2.194
 9376SOL    HW229028   2.175   3.578   2.071
 9377SOL     OW29029   2.590   6.621   2.982
 9377SOL    HW129030   2.668   6.602   3.043
 9377SOL    HW229031   2.610   6.702   2.927
 9378SOL     OW29032   3.004   0.521   3.441
 9378SOL    HW129033   3.099   0.535   3.469
 9378SOL    HW229034   2.960   0.459   3.506
 9379SOL     OW29035   4.356   6.534   4.468
 9379SOL    HW129036   4.272   6.517   4.415
 9379SOL    HW229037   4.334   6.593   4.545
 9380SOL     OW29038   4.734   5.881   6.836
 9380SOL    HW129039   4.820   5.881   6.888
 9380SOL    HW229040   4.745   5.936   6.754
 9381SOL     OW29041   5.569   2.294   4.452
 9381SOL    HW129042   5.645   2.292   4.518
 9381SOL    HW229043   5.524   2.204   4.450
 9382SOL     OW29044   3.346   0.149   4.749
 9382SOL    HW129045   3.334   0.071   4.687
 9382SOL    HW229046   3.380   0.228   4.697
 9383SOL     OW29047   4.758   4.118   3.345
 9383SOL    HW129048   4.727   4.025   3.366
 9383SOL    HW229049   4.854   4.115   3.318
 9384SOL     OW29050   1.893   0.539   2.207
 9384SOL    HW129051   1.907   0.635   2.181
 9384SOL    HW229052   1.827   0.497   2.144
 9385SOL     OW29053   3.995   1.659   3.334
 9385SOL    HW129054   3.910   1.668   3.386
 9385SOL    HW229055   4.049   1.584   3.371
 9386SOL     OW29056   4.265   6.478   6.081
 9386SOL    HW129057   4.201   6.401   6.078
 9386SOL    HW229058   4.216   6.562   6.101
 9387SOL     OW29059   2.821   2.544   6.906
 9387SOL    HW129060   2.769   2.629   6.899
 9387SOL    HW229061   2.831   2.503   6.816
 9388SOL     OW29062   1.948   5.998   4.689
 9388SOL    HW129063   2.003   6.064   4.739
 9388SOL    HW229064   1.879   6.046   4.635
 9389SOL     OW29065   2.824   4.710   1.690
 9389SOL    HW129066   2.757   4.761   1.743
 9389SOL    HW229067   2.855   4.631   1.743
 9390SOL     OW29068   5.317   5.049   5.052
 9390SOL    HW129069   5.243   5.074   4.989
 9390SOL    HW229070   5.302   4.956   5.087
 9391SOL     OW29071   2.169   5.830   4.648
 9391SOL    HW129072   2.084   5.862   4.689
 9391SOL    HW229073   2.217   5.771   4.713
 9392SOL     OW29074   6.063   4.452   2.561
 9392SOL    HW129075   6.112   4.376   2.517
 9392SOL    HW229076   6.046   4.429   2.657
 9393SOL     OW29077   2.791   6.851   5.985
 9393SOL    HW129078   2.704   6.824   5.943
 9393SOL    HW229079   2.774   6.918   6.057
 9394SOL     OW29080   4.442   0.358   0.780
 9394SOL    HW129081   4.476   0.269   0.752
 9394SOL    HW229082   4.344   0.351   0.802
 9395SOL     OW29083   2.137   1.918   0.800
 9395SOL    HW129084   2.189   1.859   0.862
 9395SOL    HW229085   2.113   2.002   0.847
 9396SOL     OW29086   0.809   6.625   6.564
 9396SOL    HW129087   0.716   6.588   6.565
 9396SOL    HW229088   0.870   6.561   6.517
 9397SOL     OW29089   4.055   1.201   5.709
 9397SOL    HW129090   3.983   1.259   5.746
 9397SOL    HW229091   4.144   1.235   5.740
 9398SOL     OW29092   0.270   1.522   6.786
 9398SOL    HW129093   0.222   1.490   6.704
 9398SOL    HW229094   0.318   1.444   6.828
 9399SOL     OW29095   1.444   2.827   3.635
 9399SOL    HW129096   1.535   2.787   3.644
 9399SOL    HW229097   1.442   2.887   3.554
 9400SOL     OW29098   5.632   1.224   0.789
 9400SOL    HW129099   5.601   1.146   0.735
 9400SOL    HW229100   5.619   1.206   0.886
 9401SOL     OW29101   0.242   1.963   3.031
 9401SOL    HW129102   0.272   1.982   2.938
 9401SOL    HW229103   0.148   1.994   3.044
 9402SOL     OW29104   1.611   6.038   3.659
 9402SOL    HW129105   1.579   6.120   3.612
 9402SOL    HW229106   1.667   5.983   3.597
 9403SOL     OW29107   6.424   2.330   2.114
 9403SOL    HW129108   6.369   2.247   2.126
 9403SOL    HW229109   6.386   2.385   2.040
 9404SOL     OW29110   1.932   3.097   0.830
 9404SOL    HW129111   2.001   3.026   0.843
 9404SOL    HW229112   1.877   3.077   0.749
 9405SOL     OW29113   0.569   5.346   5.494
 9405SOL    HW129114   0.523   5.434   5.505
 9405SOL    HW229115   0.667   5.358   5.504
 9406SOL     OW29116   0.091   3.132   0.241
 9406SOL    HW129117   0.118   3.082   0.159
 9406SOL    HW229118   0.073   3.228   0.217
 9407SOL     OW29119   1.200   5.297   5.668
 9407SOL    HW129120   1.125   5.252   5.619
 9407SOL    HW229121   1.274   5.232   5.683
 9408SOL     OW29122   0.391   4.299   4.678
 9408SOL    HW129123   0.406   4.205   4.647
 9408SOL    HW229124   0.419   4.307   4.774
 9409SOL     OW29125   6.645   5.210   2.074
 9409SOL    HW129126   6.637   5.301   2.033
 9409SOL    HW229127   6.690   5.218   2.164
 9410SOL     OW29128   3.988   0.812   1.288
 9410SOL    HW129129   3.901   0.841   1.248
 9410SOL    HW229130   4.003   0.714   1.268
 9411SOL     OW29131   3.093   3.072   3.138
 9411SOL    HW129132   3.059   3.079   3.231
 9411SOL    HW229133   3.162   2.999   3.133
 9412SOL     OW29134   5.940   6.518   1.406
 9412SOL    HW129135   5.840   6.516   1.401
 9412SOL    HW229136   5.972   6.610   1.385
 9413SOL     OW29137   4.592   4.452   2.664
 9413SOL    HW129138   4.621   4.358   2.647
 9413SOL    HW229139   4.542   4.487   2.585
 9414SOL     OW29140   1.665   2.005   4.137
 9414SOL    HW129141   1.682   1.907   4.135
 9414SOL    HW229142   1.745   2.054   4.101
 9415SOL     OW29143   4.055   1.311   2.589
 9415SOL    HW129144   4.111   1.295   2.508
 9415SOL    HW229145   4.079   1.400   2.629
 9416SOL     OW29146   6.238   5.072   6.103
 9416SOL    HW129147   6.333   5.041   6.103
 9416SOL    HW229148   6.207   5.085   6.197
 9417SOL     OW29149   3.754   5.969   1.906
 9417SOL    HW129150   3.841   5.920   1.915
 9417SOL    HW229151   3.688   5.929   1.969
 9418SOL     OW29152   3.068   1.998   4.623
 9418SOL    HW129153   3.029   2.052   4.697
 9418SOL    HW229154   3.158   2.035   4.599
 9419SOL     OW29155   1.863   3.129   6.227
 9419SOL    HW129156   1.807   3.174   6.158
 9419SOL    HW229157   1.843   3.167   6.317
 9420SOL     OW29158   6.175   4.172   0.022
 9420SOL    HW129159   6.265   4.136   7.023
 9420SOL    HW229160   6.186   4.255   0.077
 9421SOL     OW29161   3.813   6.362   5.456
 9421SOL    HW129162   3.717   6.335   5.454
 9421SOL    HW229163   3.859   6.334   5.372
 9422SOL     OW29164   2.599   6.131   4.717
 9422SOL    HW129165   2.529   6.062   4.701
 9422SOL    HW229166   2.564   6.221   4.692
 9423SOL     OW29167   4.817   4.556   3.516
 9423SOL    HW129168   4.832   4.630   3.450
 9423SOL    HW229169   4.872   4.572   3.598
 9424SOL     OW29170   5.881   6.902   4.649
 9424SOL    HW129171   5.925   6.813   4.659
 9424SOL    HW229172   5.795   6.904   4.700
 9425SOL     OW29173   6.872   5.045   1.196
 9425SOL    HW129174   6.781   5.085   1.192
 9425SOL    HW229175   6.868   4.958   1.247
 9426SOL     OW29176   6.954   2.201   6.749
 9426SOL    HW129177   6.972   2.103   6.748
 9426SOL    HW229178   6.957   2.235   6.843
 9427SOL     OW29179   4.620   4.780   2.971
 9427SOL    HW129180   4.642   4.683   2.960
 9427SOL    HW229181   4.555   4.791   3.046
 9428SOL     OW29182   6.989   6.346   5.377
 9428SOL    HW129183   7.004   6.274   5.445
 9428SOL    HW229184   7.007   6.309   5.286
 9429SOL     OW29185   2.499   2.287   3.906
 9429SOL    HW129186   2.584   2.336   3.923
 9429SOL    HW229187   2.439   2.342   3.849
 9430SOL     OW29188   0.963   2.292   4.532
 9430SOL    HW129189   1.045   2.237   4.540
 9430SOL    HW229190   0.983   2.387   4.559
 9431SOL     OW29191   0.921   4.660   5.117
 9431SOL    HW129192   0.943   4.666   5.215
 9431SOL    HW229193   0.940   4.748   5.074
 9432SOL     OW29194   6.648   1.148   3.716
 9432SOL    HW129195   6.740   1.111   3.704
 9432SOL    HW229196   6.648   1.245   3.693
 9433SOL     OW29197   4.697   5.491   2.056
 9433SOL    HW129198   4.755   5.451   2.126
 9433SOL    HW229199   4.723   5.456   1.966
 9434SOL     OW29200   4.834   5.127   4.356
 9434SOL    HW129201   4.796   5.219   4.361
 9434SOL    HW229202   4.836   5.097   4.261
 9435SOL     OW29203   0.426   2.872   1.649
 9435SOL    HW129204   0.475   2.936   1.590
 9435SOL    HW229205   0.444   2.894   1.745
 9436SOL     OW29206   1.832   0.752   2.718
 9436SOL    HW129207   1.790   0.788   2.802
 9436SOL    HW229208   1.857   0.656   2.733
 9437SOL     OW29209   6.101   6.183   4.999
 9437SOL    HW129210   6.145   6.201   5.087
 9437SOL    HW229211   6.145   6.104   4.955
 9438SOL     OW29212   4.711   6.160   2.518
 9438SOL    HW129213   4.767   6.077   2.511
 9438SOL    HW229214   4.705   6.204   2.428
 9439SOL     OW29215   1.424   3.070   0.926
 9439SOL    HW129216   1.373   3.002   0.874
 9439SOL    HW229217   1.361   3.139   0.962
 9440SOL     OW29218   2.250   5.353   3.291
 9440SOL    HW129219   2.340   5.342   3.248
 9440SOL    HW229220   2.240   5.287   3.365
 9441SOL     OW29221   0.883   5.991   4.411
 9441SOL    HW129222   0.926   5.901   4.402
 9441SOL    HW229223   0.786   5.984   4.386
 9442SOL     OW29224   4.507   3.234   0.746
 9442SOL    HW129225   4.533   3.140   0.722
 9442SOL    HW229226   4.588   3.292   0.749
 9443SOL     OW29227   2.172   4.772   3.131
 9443SOL    HW129228   2.145   4.802   3.039
 9443SOL    HW229229   2.101   4.714   3.169
 9444SOL     OW29230   0.894   4.663   6.224
 9444SOL    HW129231   0.921   4.757   6.203
 9444SOL    HW229232   0.794   4.653   6.215
 9445SOL     OW29233   0.579   1.258   4.014
 9445SOL    HW129234   0.512   1.309   4.067
 9445SOL    HW229235   0.671   1.294   4.031
 9446SOL     OW29236   6.404   5.262   3.255
 9446SOL    HW129237   6.469   5.296   3.323
 9446SOL    HW229238   6.426   5.168   3.232
 9447SOL     OW29239   4.793   4.219   1.605
 9447SOL    HW129240   4.887   4.196   1.582
 9447SOL    HW229241   4.792   4.290   1.675
 9448SOL     OW29242   6.219   0.722   5.031
 9448SOL    HW129243   6.245   0.643   4.976
 9448SOL    HW229244   6.120   0.728   5.036
 9449SOL     OW29245   5.594   7.004   1.371
 9449SOL    HW129246   5.496   7.006   1.348
 9449SOL    HW229247   5.606   0.012   1.465
 9450SOL     OW29248   1.279   5.403   3.041
 9450SOL    HW129249   1.239   5.324   2.994
 9450SOL    HW229250   1.377   5.389   3.052
 9451SOL     OW29251   3.474   5.583   6.199
 9451SOL    HW129252   3.503   5.652   6.266
 9451SOL    HW229253   3.538   5.582   6.122
 9452SOL     OW29254   6.393   3.914   0.330
 9452SOL    HW129255   6.306   3.899   0.282
 9452SOL    HW229256   6.375   3.953   0.420
 9453SOL     OW29257   4.623   5.163   1.883
 9453SOL    HW129258   4.536   5.212   1.879
 9453SOL    HW229259   4.663   5.159   1.791
 9454SOL     OW29260   5.818   4.363   0.436
 9454SOL    HW129261   5.822   4.357   0.536
 9454SOL    HW229262   5.791   4.456   0.410
 9455SOL     OW29263   3.493   1.736   1.841
 9455SOL    HW129264   3.515   1.747   1.938
 9455SOL    HW229265   3.577   1.732   1.787
 9456SOL     OW29266   6.785   3.072   1.508
 9456SOL    HW129267   6.687   3.058   1.494
 9456SOL    HW229268   6.804   3.073   1.606
 9457SOL     OW29269   0.105   6.128   4.402
 9457SOL    HW129270   0.060   6.139   4.313
 9457SOL    HW229271   0.114   6.218   4.446
 9458SOL     OW29272   6.708   3.524   0.065
 9458SOL    HW129273   6.656   3.604   0.033
 9458SOL    HW229274   6.777   3.500   7.021
 9459SOL     OW29275   4.592   5.027   5.279
 9459SOL    HW129276   4.624   4.947   5.330
 9459SOL    HW229277   4.667   5.062   5.222
 9460SOL     OW29278   1.654   2.043   3.047
 9460SOL    HW129279   1.740   2.051   2.996
 9460SOL    HW229280   1.672   2.058   3.144
 9461SOL     OW29281   1.406   2.276   2.201
 9461SOL    HW129282   1.492   2.315   2.234
 9461SOL    HW229283   1.331   2.310   2.257
 9462SOL     OW29284   1.158   1.330   4.343
 9462SOL    HW129285   1.132   1.415   4.388
 9462SOL    HW229286   1.211   1.351   4.261
 9463SOL     OW29287   5.266   5.183   1.649
 9463SOL    HW129288   5.223   5.256   1.596
 9463SOL    HW229289   5.365   5.199   1.653
 9464SOL     OW29290   1.059   1.077   2.081
 9464SOL    HW129291   0.983   1.121   2.034
 9464SOL    HW229292   1.035   1.062   2.177
 9465SOL     OW29293   6.462   4.569   1.314
 9465SOL    HW129294   6.475   4.497   1.383
 9465SOL    HW229295   6.377   4.552   1.264
 9466SOL     OW29296   3.820   4.980   5.996
 9466SOL    HW129297   3.881   5.048   5.954
 9466SOL    HW229298   3.725   5.011   5.987
 9467SOL     OW29299   1.912   4.037   0.867
 9467SOL    HW129300   1.814   4.044   0.889
 9467SOL    HW229301   1.922   3.995   0.777
 9468SOL     OW29302   6.426   1.656   0.331
 9468SOL    HW129303   6.403   1.727   0.396
 9468SOL    HW229304   6.352   1.648   0.263
 9469SOL     OW29305   1.182   6.539   1.707
 9469SOL    HW129306   1.133   6.452   1.710
 9469SOL    HW229307   1.125   6.609   1.664
 9470SOL     OW29308   3.841   4.017   0.856
 9470SOL    HW129309   3.793   3.969   0.929
 9470SOL    HW229310   3.804   3.989   0.768
 9471SOL     OW29311   6.233   3.668   5.577
 9471SOL    HW129312   6.155   3.612   5.550
 9471SOL    HW229313   6.230   3.685   5.676
 9472SOL     OW29314   1.857   2.844   6.183
 9472SOL    HW129315   1.856   2.832   6.084
 9472SOL    HW229316   1.863   2.942   6.204
 9473SOL     OW29317   2.782   4.625   0.928
 9473SOL    HW129318   2.712   4.686   0.965
 9473SOL    HW229319   2.867   4.634   0.980
 9474SOL     OW29320   5.413   2.936   0.392
 9474SOL    HW129321   5.349   2.999   0.436
 9474SOL    HW229322   5.475   2.898   0.461
 9475SOL     OW29323   4.885   3.490   6.268
 9475SOL    HW129324   4.813   3.497   6.200
 9475SOL    HW229325   4.914   3.582   6.296
 9476SOL     OW29326   3.658   4.276   6.393
 9476SOL    HW129327   3.660   4.375   6.375
 9476SOL    HW229328   3.722   4.255   6.466
 9477SOL     OW29329   1.863   4.153   0.594
 9477SOL    HW129330   1.797   4.129   0.524
 9477SOL    HW229331   1.825   4.222   0.655
 9478SOL     OW29332   5.631   3.032   0.231
 9478SOL    HW129333   5.725   3.029   0.264
 9478SOL    HW229334   5.569   3.012   0.307
 9479SOL     OW29335   3.990   0.837   2.080
 9479SOL    HW129336   4.051   0.823   2.002
 9479SOL    HW229337   3.932   0.917   2.062
 9480SOL     OW29338   6.820   0.852   0.914
 9480SOL    HW129339   6.728   0.861   0.951
 9480SOL    HW229340   6.887   0.864   0.987
 9481SOL     OW29341   4.125   0.066   3.460
 9481SOL    HW129342   4.072   7.024   3.513
 9481SOL    HW229343   4.118   0.045   3.363
 9482SOL     OW29344   6.420   6.183   0.065
 9482SOL    HW129345   6.428   6.167   6.991
 9482SOL    HW229346   6.398   6.279   0.082
 9483SOL     OW29347   6.667   0.095   0.247
 9483SOL    HW129348   6.731   0.149   0.302
 9483SOL    HW229349   6.621   0.154   0.181
 9484SOL     OW29350   3.842   5.523   4.887
 9484SOL    HW129351   3.820   5.620   4.896
 9484SOL    HW229352   3.914   5.499   4.951
 9485SOL     OW29353   0.067   1.047   0.395
 9485SOL    HW129354   6.993   1.037   0.404
 9485SOL    HW229355   0.099   0.996   0.315
 9486SOL     OW29356   5.148   6.161   0.295
 9486SOL    HW129357   5.152   6.244   0.239
 9486SOL    HW229358   5.058   6.119   0.286
 9487SOL     OW29359   3.258   2.876   3.086
 9487SOL    HW129360   3.317   2.927   3.023
 9487SOL    HW229361   3.198   2.816   3.034
 9488SOL     OW29362   1.894   0.989   0.642
 9488SOL    HW129363   1.864   0.917   0.579
 9488SOL    HW229364   1.899   0.954   0.735
 9489SOL     OW29365   5.492   3.285   0.232
 9489SOL    HW129366   5.478   3.351   0.306
 9489SOL    HW229367   5.569   3.225   0.255
 9490SOL     OW29368   5.560   3.936   4.117
 9490SOL    HW129369   5.484   3.888   4.161
 9490SOL    HW229370   5.559   3.917   4.019
 9491SOL     OW29371   5.068   6.171   2.873
 9491SOL    HW129372   5.141   6.234   2.902
 9491SOL    HW229373   5.105   6.078   2.869
 9492SOL     OW29374   5.114   2.945   4.169
 9492SOL    HW129375   5.036   2.890   4.139
 9492SOL    HW229376   5.173   2.890   4.228
 9493SOL     OW29377   4.307   6.714   1.947
 9493SOL    HW129378   4.350   6.662   2.021
 9493SOL    HW229379   4.377   6.742   1.881
 9494SOL     OW29380   5.287   2.317   1.948
 9494SOL    HW129381   5.211   2.266   1.907
 9494SOL    HW229382   5.371   2.262   1.941
 9495SOL     OW29383   0.337   1.954   2.393
 9495SOL    HW129384   0.319   1.928   2.298
 9495SOL    HW229385   0.349   2.054   2.398
 9496SOL     OW29386   5.139   2.311   2.227
 9496SOL    HW129387   5.215   2.289   2.166
 9496SOL    HW229388   5.132   2.240   2.298
 9497SOL     OW29389   5.157   4.427   4.704
 9497SOL    HW129390   5.232   4.457   4.645
 9497SOL    HW229391   5.119   4.341   4.668
 9498SOL     OW29392   0.721   5.261   3.530
 9498SOL    HW129393   0.726   5.360   3.534
 9498SOL    HW229394   0.648   5.234   3.467
 9499SOL     OW29395   6.420   5.773   5.274
 9499SOL    HW129396   6.343   5.799   5.332
 9499SOL    HW229397   6.452   5.854   5.224
 9500SOL     OW29398   3.937   1.824   0.882
 9500SOL    HW129399   3.983   1.814   0.794
 9500SOL    HW229400   3.953   1.742   0.937
 9501SOL     OW29401   1.982   3.303   5.365
 9501SOL    HW129402   2.044   3.370   5.325
 9501SOL    HW229403   1.889   3.340   5.365
 9502SOL     OW29404   5.002   4.655   4.786
 9502SOL    HW129405   5.075   4.722   4.797
 9502SOL    HW229406   5.039   4.572   4.744
 9503SOL     OW29407   0.302   2.504   0.160
 9503SOL    HW129408   0.256   2.592   0.165
 9503SOL    HW229409   0.401   2.517   0.155
 9504SOL     OW29410   5.856   5.308   2.423
 9504SOL    HW129411   5.766   5.351   2.418
 9504SOL    HW229412   5.846   5.209   2.418
 9505SOL     OW29413   4.333   5.496   5.356
 9505SOL    HW129414   4.244   5.450   5.351
 9505SOL    HW229415   4.406   5.427   5.353
 9506SOL     OW29416   3.147   1.227   1.184
 9506SOL    HW129417   3.166   1.158   1.254
 9506SOL    HW229418   3.143   1.317   1.228
 9507SOL     OW29419   4.802   0.390   2.384
 9507SOL    HW129420   4.890   0.351   2.411
 9507SOL    HW229421   4.816   0.479   2.341
 9508SOL     OW29422   5.131   1.899   2.965
 9508SOL    HW129423   5.129   1.992   2.927
 9508SOL    HW229424   5.138   1.904   3.065
 9509SOL     OW29425   5.634   0.791   3.555
 9509SOL    HW129426   5.644   0.870   3.494
 9509SOL    HW229427   5.687   0.807   3.639
 9510SOL     OW29428   1.115   2.431   3.808
 9510SOL    HW129429   1.049   2.484   3.861
 9510SOL    HW229430   1.199   2.483   3.797
 9511SOL     OW29431   1.702   1.484   0.522
 9511SOL    HW129432   1.666   1.553   0.459
 9511SOL    HW229433   1.761   1.529   0.589
 9512SOL     OW29434   6.243   1.811   1.058
 9512SOL    HW129435   6.193   1.893   1.085
 9512SOL    HW229436   6.329   1.838   1.013
 9513SOL     OW29437   4.256   5.118   6.251
 9513SOL    HW129438   4.161   5.144   6.269
 9513SOL    HW229439   4.305   5.194   6.210
 9514SOL     OW29440   3.664   2.921   6.802
 9514SOL    HW129441   3.745   2.870   6.776
 9514SOL    HW229442   3.583   2.877   6.763
 9515SOL     OW29443   0.472   5.248   3.755
 9515SOL    HW129444   0.454   5.150   3.754
 9515SOL    HW229445   0.431   5.290   3.674
 9516SOL     OW29446   7.024   4.247   0.945
 9516SOL    HW129447   0.019   4.155   0.910
 9516SOL    HW229448   6.925   4.259   0.954
 9517SOL     OW29449   0.788   4.991   0.434
 9517SOL    HW129450   0.833   4.930   0.369
 9517SOL    HW229451   0.775   4.944   0.521
 9518SOL     OW29452   1.001   1.113   0.224
 9518SOL    HW129453   1.011   1.194   0.166
 9518SOL    HW229454   1.078   1.051   0.206
 9519SOL     OW29455   1.167   3.280   5.137
 9519SOL    HW129456   1.232   3.270   5.213
 9519SOL    HW229457   1.141   3.376   5.128
 9520SOL     OW29458   3.241   0.008   1.773
 9520SOL    HW129459   3.243   0.074   1.848
 9520SOL    HW229460   3.263   0.054   1.687
 9521SOL     OW29461   5.611   5.175   3.915
 9521SOL    HW129462   5.511   5.167   3.918
 9521SOL    HW229463   5.640   5.249   3.975
 9522SOL     OW29464   3.587   5.775   0.735
 9522SOL    HW129465   3.641   5.777   0.651
 9522SOL    HW229466   3.649   5.776   0.814
 9523SOL     OW29467   3.709   6.100   4.673
 9523SOL    HW129468   3.614   6.129   4.677
 9523SOL    HW229469   3.723   6.042   4.593
 9524SOL     OW29470   4.577   2.639   0.713
 9524SOL    HW129471   4.588   2.686   0.800
 9524SOL    HW229472   4.644   2.566   0.705
 9525SOL     OW29473   3.702   0.558   6.389
 9525SOL    HW129474   3.753   0.640   6.361
 9525SOL    HW229475   3.680   0.565   6.487
 9526SOL     OW29476   5.380   5.204   1.921
 9526SOL    HW129477   5.368   5.202   1.822
 9526SOL    HW229478   5.296   5.175   1.965
 9527SOL     OW29479   6.262   2.092   2.115
 9527SOL    HW129480   6.197   2.127   2.049
 9527SOL    HW229481   6.253   1.993   2.123
 9528SOL     OW29482   6.422   0.973   2.427
 9528SOL    HW129483   6.373   0.973   2.340
 9528SOL    HW229484   6.479   1.055   2.433
 9529SOL     OW29485   0.461   3.584   5.139
 9529SOL    HW129486   0.442   3.499   5.089
 9529SOL    HW229487   0.413   3.582   5.227
 9530SOL     OW29488   1.327   2.406   4.387
 9530SOL    HW129489   1.271   2.341   4.438
 9530SOL    HW229490   1.287   2.422   4.297
 9531SOL     OW29491   3.167   6.097   3.020
 9531SOL    HW129492   3.097   6.161   3.053
 9531SOL    HW229493   3.250   6.148   2.999
 9532SOL     OW29494   2.316   0.605   1.943
 9532SOL    HW129495   2.299   0.525   2.001
 9532SOL    HW229496   2.254   0.603   1.864
 9533SOL     OW29497   2.223   0.374   5.326
 9533SOL    HW129498   2.268   0.403   5.242
 9533SOL    HW229499   2.124   0.381   5.315
 9534SOL     OW29500   4.699   1.937   4.970
 9534SOL    HW129501   4.726   1.989   5.051
 9534SOL    HW229502   4.767   1.866   4.952
 9535SOL     OW29503   2.234   1.688   5.685
 9535SOL    HW129504   2.292   1.696   5.767
 9535SOL    HW229505   2.241   1.772   5.631
 9536SOL     OW29506   2.590   6.731   5.829
 9536SOL    HW129507   2.672   6.742   5.772
 9536SOL    HW229508   2.556   6.637   5.821
 9537SOL     OW29509   2.817   6.697   0.898
 9537SOL    HW129510   2.885   6.687   0.971
 9537SOL    HW229511   2.830   6.785   0.853
 9538SOL     OW29512   6.446   3.225   3.904
 9538SOL    HW129513   6.490   3.187   3.822
 9538SOL    HW229514   6.361   3.176   3.922
 9539SOL     OW29515   0.387   4.996   1.035
 9539SOL    HW129516   0.340   5.082   1.019
 9539SOL    HW229517   0.446   5.004   1.116
 9540SOL     OW29518   5.143   3.852   4.712
 9540SOL    HW129519   5.171   3.944   4.739
 9540SOL    HW229520   5.196   3.785   4.764
 9541SOL     OW29521   1.676   1.909   3.627
 9541SOL    HW129522   1.767   1.905   3.585
 9541SOL    HW229523   1.668   1.993   3.681
 9542SOL     OW29524   4.906   3.507   4.476
 9542SOL    HW129525   4.898   3.432   4.541
 9542SOL    HW229526   4.845   3.491   4.399
 9543SOL     OW29527   4.928   2.636   2.238
 9543SOL    HW129528   4.905   2.540   2.228
 9543SOL    HW229529   5.027   2.648   2.237
 9544SOL     OW29530   3.135   1.651   2.092
 9544SOL    HW129531   3.162   1.667   1.997
 9544SOL    HW229532   3.215   1.626   2.146
 9545SOL     OW29533   0.364   6.880   4.251
 9545SOL    HW129534   0.447   6.922   4.214
 9545SOL    HW229535   0.387   6.832   4.336
 9546SOL     OW29536   2.808   4.996   0.882
 9546SOL    HW129537   2.750   4.971   0.804
 9546SOL    HW229538   2.759   4.978   0.967
 9547SOL     OW29539   6.369   6.405   3.033
 9547SOL    HW129540   6.303   6.370   2.967
 9547SOL    HW229541   6.450   6.345   3.033
 9548SOL     OW29542   4.741   6.540   3.056
 9548SOL    HW129543   4.735   6.584   3.146
 9548SOL    HW229544   4.812   6.471   3.058
 9549SOL     OW29545   2.531   6.063   0.662
 9549SOL    HW129546   2.531   5.995   0.590
 9549SOL    HW229547   2.614   6.055   0.717
 9550SOL     OW29548   1.057   1.539   0.394
 9550SOL    HW129549   1.007   1.462   0.354
 9550SOL    HW229550   1.052   1.534   0.494
 9551SOL     OW29551   2.337   5.974   4.957
 9551SOL    HW129552   2.368   5.968   4.862
 9551SOL    HW229553   2.309   6.068   4.976
 9552SOL     OW29554   0.966   5.628   3.295
 9552SOL    HW129555   0.997   5.535   3.274
 9552SOL    HW229556   0.937   5.674   3.211
 9553SOL     OW29557   5.690   4.886   5.009
 9553SOL    HW129558   5.644   4.797   5.016
 9553SOL    HW229559   5.644   4.942   4.940
 9554SOL     OW29560   2.197   1.508   1.743
 9554SOL    HW129561   2.207   1.501   1.842
 9554SOL    HW229562   2.287   1.510   1.700
 9555SOL     OW29563   6.507   2.282   6.961
 9555SOL    HW129564   6.448   2.360   6.981
 9555SOL    HW229565   6.473   2.234   6.880
 9556SOL     OW29566   0.642   1.600   1.355
 9556SOL    HW129567   0.720   1.636   1.303
 9556SOL    HW229568   0.560   1.604   1.298
 9557SOL     OW29569   5.202   2.424   1.465
 9557SOL    HW129570   5.149   2.489   1.520
 9557SOL    HW229571   5.284   2.470   1.430
 9558SOL     OW29572   6.108   5.024   2.262
 9558SOL    HW129573   6.104   5.009   2.361
 9558SOL    HW229574   6.109   5.122   2.244
 9559SOL     OW29575   6.466   2.877   2.145
 9559SOL    HW129576   6.401   2.818   2.193
 9559SOL    HW229577   6.559   2.846   2.163
 9560SOL     OW29578   3.293   1.512   4.010
 9560SOL    HW129579   3.249   1.426   3.984
 9560SOL    HW229580   3.255   1.587   3.956
 9561SOL     OW29581   4.264   6.857   1.312
 9561SOL    HW129582   4.180   6.851   1.258
 9561SOL    HW229583   4.342   6.833   1.253
 9562SOL     OW29584   6.146   5.842   3.152
 9562SOL    HW129585   6.054   5.805   3.137
 9562SOL    HW229586   6.146   5.940   3.133
 9563SOL     OW29587   6.907   5.616   6.765
 9563SOL    HW129588   6.833   5.676   6.797
 9563SOL    HW229589   6.986   5.626   6.825
 9564SOL     OW29590   2.390   6.773   6.571
 9564SOL    HW129591   2.411   6.788   6.474
 9564SOL    HW229592   2.429   6.848   6.625
 9565SOL     OW29593   4.218   6.258   4.515
 9565SOL    HW129594   4.192   6.346   4.476
 9565SOL    HW229595   4.151   6.231   4.584
 9566SOL     OW29596   3.243   4.911   5.273
 9566SOL    HW129597   3.172   4.842   5.279
 9566SOL    HW229598   3.294   4.915   5.359
 9567SOL     OW29599   6.154   5.611   5.805
 9567SOL    HW129600   6.250   5.606   5.830
 9567SOL    HW229601   6.122   5.705   5.814
 9568SOL     OW29602   5.442   3.771   6.899
 9568SOL    HW129603   5.464   3.868   6.900
 9568SOL    HW229604   5.413   3.743   6.991
 9569SOL     OW29605   6.142   0.290   1.033
 9569SOL    HW129606   6.049   0.259   1.048
 9569SOL    HW229607   6.160   0.372   1.089
 9570SOL     OW29608   0.680   0.321   6.602
 9570SOL    HW129609   0.730   0.247   6.647
 9570SOL    HW229610   0.582   0.302   6.605
 9571SOL     OW29611   2.092   3.899   0.115
 9571SOL    HW129612   2.122   3.972   0.176
 9571SOL    HW229613   2.170   3.865   0.063
 9572SOL     OW29614   0.827   4.057   0.866
 9572SOL    HW129615   0.904   4.060   0.802
 9572SOL    HW229616   0.829   3.970   0.917
 9573SOL     OW29617   6.553   2.033   1.670
 9573SOL    HW129618   6.493   1.957   1.644
 9573SOL    HW229619   6.626   1.999   1.729
 9574SOL     OW29620   2.479   2.289   4.904
 9574SOL    HW129621   2.532   2.362   4.948
 9574SOL    HW229622   2.435   2.233   4.975
 9575SOL     OW29623   4.952   1.061   1.776
 9575SOL    HW129624   4.961   1.159   1.794
 9575SOL    HW229625   4.858   1.040   1.750
 9576SOL     OW29626   3.409   1.275   5.123
 9576SOL    HW129627   3.396   1.238   5.215
 9576SOL    HW229628   3.501   1.312   5.115
 9577SOL     OW29629   0.155   6.026   3.193
 9577SOL    HW129630   0.194   6.118   3.184
 9577SOL    HW229631   0.083   6.026   3.262
 9578SOL     OW29632   5.745   3.600   1.724
 9578SOL    HW129633   5.675   3.670   1.732
 9578SOL    HW229634   5.739   3.556   1.634
 9579SOL     OW29635   0.968   6.416   3.052
 9579SOL    HW129636   0.922   6.405   2.963
 9579SOL    HW229637   0.909   6.382   3.124
 9580SOL     OW29638   4.435   4.122   6.026
 9580SOL    HW129639   4.532   4.143   6.012
 9580SOL    HW229640   4.379   4.198   5.993
 9581SOL     OW29641   1.551   5.199   6.650
 9581SOL    HW129642   1.592   5.274   6.597
 9581SOL    HW229643   1.464   5.173   6.608
 9582SOL     OW29644   4.445   4.675   4.545
 9582SOL    HW129645   4.490   4.596   4.503
 9582SOL    HW229646   4.388   4.720   4.477
 9583SOL     OW29647   2.410   4.638   2.096
 9583SOL    HW129648   2.386   4.735   2.098
 9583SOL    HW229649   2.326   4.583   2.097
 9584SOL     OW29650   6.063   5.869   6.129
 9584SOL    HW129651   6.083   5.940   6.197
 9584SOL    HW229652   6.011   5.908   6.054
 9585SOL     OW29653   0.261   6.666   4.136
 9585SOL    HW129654   0.243   6.706   4.046
 9585SOL    HW229655   0.282   6.739   4.201
 9586SOL     OW29656   5.205   3.655   2.636
 9586SOL    HW129657   5.138   3.687   2.569
 9586SOL    HW229658   5.213   3.556   2.630
 9587SOL     OW29659   4.700   6.367   2.787
 9587SOL    HW129660   4.717   6.393   2.882
 9587SOL    HW229661   4.627   6.299   2.784
 9588SOL     OW29662   0.013   0.536   3.307
 9588SOL    HW129663   0.080   0.610   3.319
 9588SOL    HW229664   0.001   0.518   3.209
 9589SOL     OW29665   2.269   1.392   5.948
 9589SOL    HW129666   2.298   1.470   6.003
 9589SOL    HW229667   2.198   1.421   5.884
 9590SOL     OW29668   0.124   4.379   4.572
 9590SOL    HW129669   0.220   4.370   4.598
 9590SOL    HW229670   0.087   4.289   4.548
 9591SOL     OW29671   1.618   4.482   2.223
 9591SOL    HW129672   1.581   4.467   2.131
 9591SOL    HW229673   1.544   4.492   2.289
 9592SOL     OW29674   4.827   5.157   2.081
 9592SOL    HW129675   4.766   5.136   2.005
 9592SOL    HW229676   4.921   5.161   2.047
 9593SOL     OW29677   1.643   2.518   3.990
 9593SOL    HW129678   1.593   2.434   4.011
 9593SOL    HW229679   1.741   2.499   3.992
 9594SOL     OW29680   6.023   6.420   2.097
 9594SOL    HW129681   5.926   6.404   2.082
 9594SOL    HW229682   6.062   6.466   2.017
 9595SOL     OW29683   0.695   4.144   4.796
 9595SOL    HW129684   0.782   4.134   4.844
 9595SOL    HW229685   0.641   4.060   4.807
 9596SOL     OW29686   4.584   5.633   3.023
 9596SOL    HW129687   4.654   5.682   2.971
 9596SOL    HW229688   4.584   5.537   2.997
 9597SOL     OW29689   1.997   3.854   1.041
 9597SOL    HW129690   1.997   3.913   0.960
 9597SOL    HW229691   2.058   3.893   1.110
 9598SOL     OW29692   0.990   5.761   5.698
 9598SOL    HW129693   1.047   5.823   5.642
 9598SOL    HW229694   0.980   5.799   5.790
 9599SOL     OW29695   4.997   1.739   4.228
 9599SOL    HW129696   5.074   1.788   4.189
 9599SOL    HW229697   4.957   1.679   4.159
 9600SOL     OW29698   1.362   6.053   0.277
 9600SOL    HW129699   1.266   6.077   0.289
 9600SOL    HW229700   1.370   5.956   0.257
 9601SOL     OW29701   0.630   5.975   6.350
 9601SOL    HW129702   0.668   5.930   6.270
 9601SOL    HW229703   0.558   5.918   6.391
 9602SOL     OW29704   0.967   5.750   0.685
 9602SOL    HW129705   0.892   5.788   0.739
 9602SOL    HW229706   1.006   5.822   0.627
 9603SOL     OW29707   1.312   4.607   4.044
 9603SOL    HW129708   1.260   4.594   4.129
 9603SOL    HW229709   1.402   4.644   4.067
 9604SOL     OW29710   6.710   6.828   0.666
 9604SOL    HW129711   6.803   6.849   0.636
 9604SOL    HW229712   6.646   6.889   0.619
 9605SOL     OW29713   2.172   5.902   6.574
 9605SOL    HW129714   2.229   5.889   6.655
 9605SOL    HW229715   2.166   5.817   6.522
 9606SOL     OW29716   6.699   6.822   4.678
 9606SOL    HW129717   6.752   6.837   4.761
 9606SOL    HW229718   6.633   6.749   4.694
 9607SOL     OW29719   0.305   3.228   1.621
 9607SOL    HW129720   0.304   3.136   1.580
 9607SOL    HW229721   0.216   3.247   1.661
 9608SOL     OW29722   0.075   6.691   2.748
 9608SOL    HW129723   0.092   6.629   2.671
 9608SOL    HW229724   0.063   6.638   2.832
 9609SOL     OW29725   2.030   2.044   3.363
 9609SOL    HW129726   2.126   2.034   3.339
 9609SOL    HW229727   1.987   2.114   3.306
 9610SOL     OW29728   3.314   2.005   6.139
 9610SOL    HW129729   3.399   1.952   6.137
 9610SOL    HW229730   3.321   2.077   6.208
 9611SOL     OW29731   5.719   6.075   1.196
 9611SOL    HW129732   5.701   6.148   1.130
 9611SOL    HW229733   5.791   6.105   1.258
 9612SOL     OW29734   4.952   3.715   2.850
 9612SOL    HW129735   4.902   3.776   2.788
 9612SOL    HW229736   5.039   3.690   2.808
 9613SOL     OW29737   5.460   6.676   5.684
 9613SOL    HW129738   5.481   6.763   5.640
 9613SOL    HW229739   5.444   6.606   5.615
 9614SOL     OW29740   3.050   3.171   2.279
 9614SOL    HW129741   3.135   3.215   2.310
 9614SOL    HW229742   3.034   3.195   2.183
 9615SOL     OW29743   0.912   6.148   4.173
 9615SOL    HW129744   0.950   6.092   4.098
 9615SOL    HW229745   0.926   6.101   4.260
 9616SOL     OW29746   2.196   3.249   1.260
 9616SOL    HW129747   2.155   3.162   1.233
 9616SOL    HW229748   2.232   3.296   1.180
 9617SOL     OW29749   0.995   3.501   2.469
 9617SOL    HW129750   0.995   3.453   2.381
 9617SOL    HW229751   0.902   3.506   2.505
 9618SOL     OW29752   4.239   4.875   0.721
 9618SOL    HW129753   4.314   4.904   0.779
 9618SOL    HW229754   4.154   4.876   0.774
 9619SOL     OW29755   1.853   6.854   1.038
 9619SOL    HW129756   1.934   6.891   0.994
 9619SOL    HW229757   1.829   6.910   1.118
 9620SOL     OW29758   3.573   1.904   0.086
 9620SOL    HW129759   3.527   1.954   0.160
 9620SOL    HW229760   3.559   1.806   0.098
 9621SOL     OW29761   1.117   2.111   1.826
 9621SOL    HW129762   1.154   2.116   1.919
 9621SOL    HW229763   1.162   2.037   1.776
 9622SOL     OW29764   6.996   6.193   5.639
 9622SOL    HW129765   0.010   6.284   5.654
 9622SOL    HW229766   0.046   6.129   5.618
 9623SOL     OW29767   4.867   6.694   6.162
 9623SOL    HW129768   4.811   6.761   6.113
 9623SOL    HW229769   4.843   6.602   6.132
 9624SOL     OW29770   4.892   5.119   5.112
 9624SOL    HW129771   4.829   5.187   5.074
 9624SOL    HW229772   4.959   5.094   5.043
 9625SOL     OW29773   4.503   3.627   5.592
 9625SOL    HW129774   4.553   3.558   5.540
 9625SOL    HW229775   4.480   3.592   5.682
 9626SOL     OW29776   2.102   2.193   6.132
 9626SOL    HW129777   2.032   2.252   6.091
 9626SOL    HW229778   2.150   2.143   6.059
 9627SOL     OW29779   0.367   5.414   6.905
 9627SOL    HW129780   0.391   5.327   6.861
 9627SOL    HW229781   0.292   5.398   6.970
 9628SOL     OW29782   5.948   1.484   6.316
 9628SOL    HW129783   6.044   1.495   6.339
 9628SOL    HW229784   5.921   1.388   6.325
 9629SOL     OW29785   0.505   5.541   4.472
 9629SOL    HW129786   0.550   5.467   4.521
 9629SOL    HW229787   0.574   5.598   4.428
 9630SOL     OW29788   6.071   6.890   5.404
 9630SOL    HW129789   6.143   6.908   5.337
 9630SOL    HW229790   6.110   6.843   5.483
 9631SOL     OW29791   3.455   0.004   0.628
 9631SOL    HW129792   3.418   6.948   0.676
 9631SOL    HW229793   3.544   0.028   0.667
 9632SOL     OW29794   3.204   5.265   2.312
 9632SOL    HW129795   3.187   5.166   2.319
 9632SOL    HW229796   3.281   5.290   2.370
 9633SOL     OW29797   3.634   3.195   2.877
 9633SOL    HW129798   3.643   3.294   2.887
 9633SOL    HW229799   3.630   3.152   2.967
 9634SOL     OW29800   5.862   4.688   3.858
 9634SOL    HW129801   5.879   4.647   3.768
 9634SOL    HW229802   5.887   4.785   3.855
 9635SOL     OW29803   1.350   5.262   4.043
 9635SOL    HW129804   1.308   5.190   3.986
 9635SOL    HW229805   1.445   5.274   4.016
 9636SOL     OW29806   5.201   3.868   3.928
 9636SOL    HW129807   5.157   3.825   4.007
 9636SOL    HW229808   5.288   3.823   3.910
 9637SOL     OW29809   1.839   3.401   0.058
 9637SOL    HW129810   1.868   3.413   0.153
 9637SOL    HW229811   1.902   3.338   0.012
 9638SOL     OW29812   5.795   5.378   5.434
 9638SOL    HW129813   5.738   5.296   5.433
 9638SOL    HW229814   5.831   5.395   5.342
 9639SOL     OW29815   4.156   1.769   2.259
 9639SOL    HW129816   4.110   1.716   2.331
 9639SOL    HW229817   4.165   1.864   2.289
 9640SOL     OW29818   4.719   0.576   3.396
 9640SOL    HW129819   4.653   0.607   3.465
 9640SOL    HW229820   4.748   0.482   3.417
 9641SOL     OW29821   6.724   3.561   3.265
 9641SOL    HW129822   6.792   3.623   3.226
 9641SOL    HW229823   6.634   3.606   3.266
 9642SOL     OW29824   1.404   0.207   4.647
 9642SOL    HW129825   1.404   0.163   4.737
 9642SOL    HW229826   1.430   0.140   4.578
 9643SOL     OW29827   4.719   4.950   4.556
 9643SOL    HW129828   4.777   5.004   4.494
 9643SOL    HW229829   4.661   4.889   4.502
 9644SOL     OW29830   1.865   5.370   3.884
 9644SOL    HW129831   1.865   5.364   3.784
 9644SOL    HW229832   1.882   5.464   3.912
 9645SOL     OW29833   0.736   4.594   5.944
 9645SOL    HW129834   0.638   4.600   5.931
 9645SOL    HW229835   0.755   4.534   6.022
 9646SOL     OW29836   4.348   5.518   6.354
 9646SOL    HW129837   4.388   5.448   6.295
 9646SOL    HW229838   4.309   5.591   6.297
 9647SOL     OW29839   6.799   6.902   3.507
 9647SOL    HW129840   6.712   6.926   3.549
 9647SOL    HW229841   6.823   6.970   3.437
 9648SOL     OW29842   3.682   2.429   1.232
 9648SOL    HW129843   3.683   2.352   1.295
 9648SOL    HW229844   3.634   2.506   1.275
 9649SOL     OW29845   0.833   5.523   6.908
 9649SOL    HW129846   0.735   5.543   6.901
 9649SOL    HW229847   0.863   5.477   6.824
 9650SOL     OW29848   6.939   4.499   4.441
 9650SOL    HW129849   7.020   4.465   4.488
 9650SOL    HW229850   6.877   4.423   4.422
 9651SOL     OW29851   4.159   1.752   0.223
 9651SOL    HW129852   4.159   1.805   0.139
 9651SOL    HW229853   4.237   1.689   0.222
 9652SOL     OW29854   0.153   3.872   0.283
 9652SOL    HW129855   0.171   3.805   0.355
 9652SOL    HW229856   0.059   3.905   0.291
 9653SOL     OW29857   4.341   4.640   6.158
 9653SOL    HW129858   4.369   4.573   6.089
 9653SOL    HW229859   4.336   4.731   6.117
 9654SOL     OW29860   3.317   3.589   3.077
 9654SOL    HW129861   3.282   3.683   3.081
 9654SOL    HW229862   3.279   3.543   2.997
 9655SOL     OW29863   4.083   1.307   1.480
 9655SOL    HW129864   4.002   1.366   1.486
 9655SOL    HW229865   4.137   1.333   1.399
 9656SOL     OW29866   5.833   3.496   0.021
 9656SOL    HW129867   5.893   3.482   0.099
 9656SOL    HW229868   5.747   3.538   0.051
 9657SOL     OW29869   6.254   3.933   3.919
 9657SOL    HW129870   6.261   3.836   3.942
 9657SOL    HW229871   6.218   3.984   3.997
 9658SOL     OW29872   4.774   2.306   2.437
 9658SOL    HW129873   4.804   2.356   2.519
 9658SOL    HW229874   4.820   2.345   2.356
 9659SOL     OW29875   2.497   3.325   6.734
 9659SOL    HW129876   2.592   3.333   6.703
 9659SOL    HW229877   2.472   3.228   6.737
 9660SOL     OW29878   1.492   5.900   1.979
 9660SOL    HW129879   1.415   5.925   2.039
 9660SOL    HW229880   1.536   5.982   1.944
 9661SOL     OW29881   4.799   3.735   1.182
 9661SOL    HW129882   4.705   3.767   1.170
 9661SOL    HW229883   4.862   3.811   1.165
 9662SOL     OW29884   5.571   5.347   6.212
 9662SOL    HW129885   5.555   5.266   6.270
 9662SOL    HW229886   5.603   5.422   6.269
 9663SOL     OW29887   0.726   5.099   2.776
 9663SOL    HW129888   0.759   5.189   2.801
 9663SOL    HW229889   0.793   5.052   2.719
 9664SOL     OW29890   5.021   4.597   2.355
 9664SOL    HW129891   5.097   4.532   2.350
 9664SOL    HW229892   4.945   4.564   2.299
 9665SOL     OW29893   6.730   5.816   6.255
 9665SOL    HW129894   6.738   5.730   6.205
 9665SOL    HW229895   6.637   5.851   6.248
 9666SOL     OW29896   6.145   3.817   0.253
 9666SOL    HW129897   6.099   3.784   0.335
 9666SOL    HW229898   6.082   3.874   0.200
 9667SOL     OW29899   6.092   6.064   6.295
 9667SOL    HW129900   6.059   6.158   6.298
 9667SOL    HW229901   6.120   6.035   6.387
 9668SOL     OW29902   1.101   0.574   6.552
 9668SOL    HW129903   1.176   0.565   6.618
 9668SOL    HW229904   1.014   0.583   6.602
 9669SOL     OW29905   4.071   0.533   0.350
 9669SOL    HW129906   4.131   0.609   0.327
 9669SOL    HW229907   3.978   0.566   0.362
 9670SOL     OW29908   0.157   0.114   6.958
 9670SOL    HW129909   0.161   0.015   6.944
 9670SOL    HW229910   0.228   0.158   6.902
 9671SOL     OW29911   1.058   5.264   6.809
 9671SOL    HW129912   1.142   5.292   6.856
 9671SOL    HW229913   0.995   5.224   6.876
 9672SOL     OW29914   1.004   3.393   3.600
 9672SOL    HW129915   1.075   3.457   3.629
 9672SOL    HW229916   0.988   3.404   3.502
 9673SOL     OW29917   2.376   3.446   0.552
 9673SOL    HW129918   2.396   3.352   0.582
 9673SOL    HW229919   2.277   3.461   0.553
 9674SOL     OW29920   2.773   6.578   4.224
 9674SOL    HW129921   2.841   6.581   4.298
 9674SOL    HW229922   2.818   6.596   4.136
 9675SOL     OW29923   5.680   3.454   6.813
 9675SOL    HW129924   5.584   3.449   6.842
 9675SOL    HW229925   5.738   3.475   6.891
 9676SOL     OW29926   0.754   3.010   0.026
 9676SOL    HW129927   0.741   3.107   0.049
 9676SOL    HW229928   0.810   2.967   0.097
 9677SOL     OW29929   0.017   4.769   1.472
 9677SOL    HW129930   7.016   4.705   1.545
 9677SOL    HW229931   0.113   4.755   1.447
 9678SOL     OW29932   3.515   3.664   5.227
 9678SOL    HW129933   3.417   3.646   5.223
 9678SOL    HW229934   3.533   3.734   5.296
 9679SOL     OW29935   1.442   1.718   4.461
 9679SOL    HW129936   1.534   1.679   4.470
 9679SOL    HW229937   1.415   1.759   4.549
 9680SOL     OW29938   4.623   6.136   1.984
 9680SOL    HW129939   4.636   6.089   2.071
 9680SOL    HW229940   4.557   6.211   1.995
 9681SOL     OW29941   1.750   1.453   1.660
 9681SOL    HW129942   1.742   1.552   1.677
 9681SOL    HW229943   1.722   1.433   1.566
 9682SOL     OW29944   4.897   5.944   5.716
 9682SOL    HW129945   4.940   5.943   5.626
 9682SOL    HW229946   4.967   5.947   5.787
 9683SOL     OW29947   3.159   6.750   2.816
 9683SOL    HW129948   3.178   6.779   2.722
 9683SOL    HW229949   3.169   6.828   2.878
 9684SOL     OW29950   0.297   3.315   5.300
 9684SOL    HW129951   0.295   3.379   5.377
 9684SOL    HW229952   0.217   3.328   5.243
 9685SOL     OW29953   3.943   4.026   1.516
 9685SOL    HW129954   4.013   3.961   1.487
 9685SOL    HW229955   3.986   4.112   1.541
 9686SOL     OW29956   6.266   1.739   5.693
 9686SOL    HW129957   6.321   1.659   5.716
 9686SOL    HW229958   6.223   1.725   5.603
 9687SOL     OW29959   5.857   1.512   3.019
 9687SOL    HW129960   5.813   1.433   3.063
 9687SOL    HW229961   5.920   1.555   3.084
 9688SOL     OW29962   0.443   4.396   1.249
 9688SOL    HW129963   0.363   4.375   1.193
 9688SOL    HW229964   0.517   4.332   1.227
 9689SOL     OW29965   2.351   6.064   1.194
 9689SOL    HW129966   2.283   6.037   1.126
 9689SOL    HW229967   2.415   6.129   1.152
 9690SOL     OW29968   6.387   5.386   4.672
 9690SOL    HW129969   6.460   5.437   4.718
 9690SOL    HW229970   6.397   5.398   4.573
 9691SOL     OW29971   2.961   3.691   1.930
 9691SOL    HW129972   2.955   3.656   2.024
 9691SOL    HW229973   2.876   3.672   1.882
 9692SOL     OW29974   4.946   4.312   0.952
 9692SOL    HW129975   4.856   4.327   0.994
 9692SOL    HW229976   4.999   4.397   0.955
 9693SOL     OW29977   5.195   3.442   5.015
 9693SOL    HW129978   5.107   3.431   5.062
 9693SOL    HW229979   5.262   3.381   5.056
 9694SOL     OW29980   2.758   6.955   2.466
 9694SOL    HW129981   2.819   0.009   2.477
 9694SOL    HW229982   2.799   6.875   2.512
 9695SOL     OW29983   0.846   2.647   3.006
 9695SOL    HW129984   0.855   2.742   2.977
 9695SOL    HW229985   0.770   2.604   2.957
 9696SOL     OW29986   5.126   2.418   3.263
 9696SOL    HW129987   5.103   2.328   3.226
 9696SOL    HW229988   5.042   2.467   3.287
 9697SOL     OW29989   0.620   6.608   1.003
 9697SOL    HW129990   0.686   6.539   0.973
 9697SOL    HW229991   0.641   6.635   1.097
 9698SOL     OW29992   6.401   3.703   1.759
 9698SOL    HW129993   6.389   3.802   1.747
 9698SOL    HW229994   6.328   3.668   1.818
 9699SOL     OW29995   1.261   5.772   0.829
 9699SOL    HW129996   1.301   5.816   0.748
 9699SOL    HW229997   1.301   5.681   0.840
 9700SOL     OW29998   5.671   0.038   5.082
 9700SOL    HW129999   5.627   6.983   5.125
 9700SOL    HW230000   5.769   0.037   5.102
 9701SOL     OW30001   4.113   3.508   6.248
 9701SOL    HW130002   4.079   3.576   6.182
 9701SOL    HW230003   4.062   3.517   6.334
 9702SOL     OW30004   3.808   3.487   2.011
 9702SOL    HW130005   3.901   3.511   1.984
 9702SOL    HW230006   3.761   3.445   1.933
 9703SOL     OW30007   6.806   4.269   4.989
 9703SOL    HW130008   6.904   4.280   5.002
 9703SOL    HW230009   6.764   4.358   4.970
 9704SOL     OW30010   1.821   3.987   2.800
 9704SOL    HW130011   1.791   3.897   2.832
 9704SOL    HW230012   1.741   4.044   2.781
 9705SOL     OW30013   6.007   3.616   5.752
 9705SOL    HW130014   5.976   3.627   5.658
 9705SOL    HW230015   6.047   3.701   5.784
 9706SOL     OW30016   0.678   1.469   2.729
 9706SOL    HW130017   0.659   1.566   2.714
 9706SOL    HW230018   0.643   1.416   2.651
 9707SOL     OW30019   1.154   4.643   2.380
 9707SOL    HW130020   1.154   4.610   2.474
 9707SOL    HW230021   1.158   4.743   2.380
 9708SOL     OW30022   2.359   0.345   1.662
 9708SOL    HW130023   2.391   0.253   1.637
 9708SOL    HW230024   2.270   0.339   1.707
 9709SOL     OW30025   5.356   1.920   1.692
 9709SOL    HW130026   5.321   2.014   1.701
 9709SOL    HW230027   5.452   1.923   1.667
 9710SOL     OW30028   6.813   5.643   3.353
 9710SOL    HW130029   6.839   5.556   3.394
 9710SOL    HW230030   6.751   5.626   3.276
 9711SOL     OW30031   3.779   0.766   0.918
 9711SOL    HW130032   3.742   0.776   0.825
 9711SOL    HW230033   3.878   0.751   0.913
 9712SOL     OW30034   5.650   1.989   6.563
 9712SOL    HW130035   5.636   2.002   6.661
 9712SOL    HW230036   5.661   1.891   6.544
 9713SOL     OW30037   0.816   6.718   3.177
 9713SOL    HW130038   0.861   6.642   3.130
 9713SOL    HW230039   0.878   6.796   3.180
 9714SOL     OW30040   2.427   4.413   3.976
 9714SOL    HW130041   2.506   4.414   4.036
 9714SOL    HW230042   2.408   4.319   3.947
 9715SOL     OW30043   6.789   3.753   6.553
 9715SOL    HW130044   6.747   3.670   6.516
 9715SOL    HW230045   6.853   3.791   6.485
 9716SOL     OW30046   2.080   4.919   0.079
 9716SOL    HW130047   2.141   4.985   0.123
 9716SOL    HW230048   2.106   4.907   7.007
 9717SOL     OW30049   3.695   1.926   5.327
 9717SOL    HW130050   3.634   1.959   5.255
 9717SOL    HW230051   3.643   1.912   5.411
 9718SOL     OW30052   3.828   2.871   6.434
 9718SOL    HW130053   3.847   2.934   6.509
 9718SOL    HW230054   3.882   2.898   6.354
 9719SOL     OW30055   5.043   7.020   5.988
 9719SOL    HW130056   5.114   0.064   5.975
 9719SOL    HW230057   5.049   6.951   5.917
 9720SOL     OW30058   1.928   3.181   3.315
 9720SOL    HW130059   2.002   3.157   3.253
 9720SOL    HW230060   1.864   3.104   3.324
 9721SOL     OW30061   0.699   1.111   0.232
 9721SOL    HW130062   0.797   1.109   0.212
 9721SOL    HW230063   0.674   1.029   0.284
 9722SOL     OW30064   4.109   2.663   5.390
 9722SOL    HW130065   4.124   2.606   5.309
 9722SOL    HW230066   4.089   2.757   5.361
 9723SOL     OW30067   6.805   6.818   4.972
 9723SOL    HW130068   6.741   6.762   5.025
 9723SOL    HW230069   6.838   6.894   5.029
 9724SOL     OW30070   1.291   5.371   6.915
 9724SOL    HW130071   1.390   5.366   6.912
 9724SOL    HW230072   1.262   5.395   7.008
 9725SOL     OW30073   4.101   5.339   5.332
 9725SOL    HW130074   4.032   5.356   5.403
 9725SOL    HW230075   4.116   5.240   5.323
 9726SOL     OW30076   6.871   1.257   4.143
 9726SOL    HW130077   6.846   1.246   4.240
 9726SOL    HW230078   6.844   1.175   4.093
 9727SOL     OW30079   0.466   1.391   0.676
 9727SOL    HW130080   0.378   1.435   0.694
 9727SOL    HW230081   0.451   1.294   0.657
 9728SOL     OW30082   4.746   1.450   5.089
 9728SOL    HW130083   4.807   1.482   5.016
 9728SOL    HW230084   4.771   1.357   5.115
 9729SOL     OW30085   0.475   5.153   2.656
 9729SOL    HW130086   0.498   5.198   2.569
 9729SOL    HW230087   0.559   5.125   2.702
 9730SOL     OW30088   0.374   4.026   2.885
 9730SOL    HW130089   0.295   4.087   2.877
 9730SOL    HW230090   0.344   3.939   2.924
 9731SOL     OW30091   5.386   3.497   1.518
 9731SOL    HW130092   5.332   3.446   1.584
 9731SOL    HW230093   5.381   3.595   1.540
 9732SOL     OW30094   1.659   3.064   3.079
 9732SOL    HW130095   1.707   3.059   2.991
 9732SOL    HW230096   1.617   3.154   3.089
 9733SOL     OW30097   6.377   4.724   2.316
 9733SOL    HW130098   6.330   4.751   2.400
 9733SOL    HW230099   6.343   4.780   2.240
 9734SOL     OW30100   5.621   6.152   6.124
 9734SOL    HW130101   5.567   6.227   6.086
 9734SOL    HW230102   5.637   6.168   6.221
 9735SOL     OW30103   0.271   3.066   0.910
 9735SOL    HW130104   0.262   3.134   0.982
 9735SOL    HW230105   0.300   2.979   0.950
 9736SOL     OW30106   5.381   1.722   4.443
 9736SOL    HW130107   5.425   1.788   4.503
 9736SOL    HW230108   5.450   1.675   4.388
 9737SOL     OW30109   5.800   2.975   2.878
 9737SOL    HW130110   5.746   3.010   2.801
 9737SOL    HW230111   5.866   2.908   2.845
 9738SOL     OW30112   2.505   6.259   1.583
 9738SOL    HW130113   2.408   6.284   1.595
 9738SOL    HW230114   2.526   6.181   1.643
 9739SOL     OW30115   5.874   0.289   6.787
 9739SOL    HW130116   5.949   0.259   6.728
 9739SOL    HW230117   5.834   0.210   6.833
 9740SOL     OW30118   6.115   0.406   2.885
 9740SOL    HW130119   6.144   0.498   2.861
 9740SOL    HW230120   6.175   0.369   2.955
 9741SOL     OW30121   2.405   1.683   4.786
 9741SOL    HW130122   2.479   1.620   4.811
 9741SOL    HW230123   2.339   1.688   4.862
 9742SOL     OW30124   3.929   1.734   6.021
 9742SOL    HW130125   3.894   1.826   6.004
 9742SOL    HW230126   4.011   1.740   6.078
 9743SOL     OW30127   5.103   3.729   4.149
 9743SOL    HW130128   5.041   3.770   4.216
 9743SOL    HW230129   5.081   3.632   4.137
 9744SOL     OW30130   1.673   0.747   3.483
 9744SOL    HW130131   1.630   0.836   3.468
 9744SOL    HW230132   1.606   0.682   3.518
 9745SOL     OW30133   0.153   0.294   5.745
 9745SOL    HW130134   0.057   0.280   5.723
 9745SOL    HW230135   0.199   0.205   5.748
 9746SOL     OW30136   4.660   5.331   6.340
 9746SOL    HW130137   4.676   5.427   6.364
 9746SOL    HW230138   4.674   5.319   6.242
 9747SOL     OW30139   2.315   2.017   3.020
 9747SOL    HW130140   2.395   2.071   2.997
 9747SOL    HW230141   2.335   1.961   3.101
 9748SOL     OW30142   1.368   0.932   3.649
 9748SOL    HW130143   1.451   0.969   3.607
 9748SOL    HW230144   1.383   0.922   3.748
 9749SOL     OW30145   6.571   1.271   2.155
 9749SOL    HW130146   6.483   1.297   2.116
 9749SOL    HW230147   6.591   1.329   2.235
 9750SOL     OW30148   6.392   2.978   4.231
 9750SOL    HW130149   6.464   3.032   4.276
 9750SOL    HW230150   6.305   3.027   4.237
 9751SOL     OW30151   2.993   0.060   1.674
 9751SOL    HW130152   3.082   0.051   1.719
 9751SOL    HW230153   3.005   0.060   1.575
 9752SOL     OW30154   3.348   3.423   6.716
 9752SOL    HW130155   3.260   3.399   6.757
 9752SOL    HW230156   3.384   3.344   6.665
 9753SOL     OW30157   0.018   6.266   5.068
 9753SOL    HW130158   6.977   6.270   4.992
 9753SOL    HW230159   0.104   6.307   5.039
 9754SOL     OW30160   3.228   1.016   1.770
 9754SOL    HW130161   3.273   0.932   1.741
 9754SOL    HW230162   3.297   1.085   1.792
 9755SOL     OW30163   3.100   4.618   0.599
 9755SOL    HW130164   3.008   4.655   0.603
 9755SOL    HW230165   3.124   4.596   0.505
 9756SOL     OW30166   5.979   0.417   5.735
 9756SOL    HW130167   6.008   0.375   5.821
 9756SOL    HW230168   5.948   0.510   5.752
 9757SOL     OW30169   5.067   4.263   3.762
 9757SOL    HW130170   5.132   4.336   3.783
 9757SOL    HW230171   4.977   4.285   3.801
 9758SOL     OW30172   2.112   0.280   1.786
 9758SOL    HW130173   2.125   0.182   1.797
 9758SOL    HW230174   2.088   0.322   1.874
 9759SOL     OW30175   6.996   0.922   1.486
 9759SOL    HW130176   0.067   0.950   1.475
 9759SOL    HW230177   6.946   0.993   1.535
 9760SOL     OW30178   4.638   1.292   0.086
 9760SOL    HW130179   4.540   1.312   0.086
 9760SOL    HW230180   4.658   1.223   0.017
 9761SOL     OW30181   1.077   2.095   0.770
 9761SOL    HW130182   1.061   2.035   0.848
 9761SOL    HW230183   1.021   2.065   0.693
 9762SOL     OW30184   2.629   1.960   5.891
 9762SOL    HW130185   2.590   1.917   5.972
 9762SOL    HW230186   2.720   1.923   5.873
 9763SOL     OW30187   6.241   0.938   0.790
 9763SOL    HW130188   6.260   0.841   0.779
 9763SOL    HW230189   6.326   0.988   0.809
 9764SOL     OW30190   6.846   2.565   2.104
 9764SOL    HW130191   6.936   2.608   2.104
 9764SOL    HW230192   6.855   2.468   2.127
 9765SOL     OW30193   6.641   0.390   2.053
 9765SOL    HW130194   6.697   0.430   2.125
 9765SOL    HW230195   6.652   0.444   1.969
 9766SOL     OW30196   2.147   2.119   4.658
 9766SOL    HW130197   2.207   2.054   4.614
 9766SOL    HW230198   2.053   2.106   4.626
 9767SOL     OW30199   2.393   3.128   5.673
 9767SOL    HW130200   2.339   3.096   5.595
 9767SOL    HW230201   2.335   3.131   5.754
 9768SOL     OW30202   5.630   3.083   0.950
 9768SOL    HW130203   5.665   2.993   0.922
 9768SOL    HW230204   5.707   3.145   0.963
 9769SOL     OW30205   2.876   2.202   5.092
 9769SOL    HW130206   2.959   2.251   5.066
 9769SOL    HW230207   2.860   2.127   5.029
 9770SOL     OW30208   2.599   2.610   6.400
 9770SOL    HW130209   2.540   2.690   6.406
 9770SOL    HW230210   2.677   2.631   6.341
 9771SOL     OW30211   2.900   6.732   2.588
 9771SOL    HW130212   2.998   6.714   2.581
 9771SOL    HW230213   2.850   6.646   2.585
 9772SOL     OW30214   1.403   0.476   1.169
 9772SOL    HW130215   1.439   0.548   1.227
 9772SOL    HW230216   1.315   0.444   1.205
 9773SOL     OW30217   5.146   4.667   2.095
 9773SOL    HW130218   5.215   4.694   2.162
 9773SOL    HW230219   5.058   4.707   2.119
 9774SOL     OW30220   1.337   5.313   5.263
 9774SOL    HW130221   1.306   5.225   5.298
 9774SOL    HW230222   1.360   5.304   5.166
 9775SOL     OW30223   2.391   1.383   3.346
 9775SOL    HW130224   2.417   1.346   3.256
 9775SOL    HW230225   2.311   1.334   3.380
 9776SOL     OW30226   2.361   5.527   0.143
 9776SOL    HW130227   2.437   5.575   0.188
 9776SOL    HW230228   2.280   5.585   0.144
 9777SOL     OW30229   4.447   0.739   5.453
 9777SOL    HW130230   4.398   0.815   5.411
 9777SOL    HW230231   4.434   0.741   5.552
 9778SOL     OW30232   0.201   3.630   3.927
 9778SOL    HW130233   0.297   3.602   3.913
 9778SOL    HW230234   0.187   3.721   3.889
 9779SOL     OW30235   2.143   0.839   3.905
 9779SOL    HW130236   2.077   0.797   3.967
 9779SOL    HW230237   2.205   0.768   3.870
 9780SOL     OW30238   0.890   2.234   1.749
 9780SOL    HW130239   0.903   2.330   1.773
 9780SOL    HW230240   0.971   2.182   1.776
 9781SOL     OW30241   2.154   2.357   3.558
 9781SOL    HW130242   2.209   2.285   3.516
 9781SOL    HW230243   2.071   2.318   3.597
 9782SOL     OW30244   6.621   2.355   1.231
 9782SOL    HW130245   6.649   2.328   1.323
 9782SOL    HW230246   6.702   2.382   1.179
 9783SOL     OW30247   3.564   1.079   3.409
 9783SOL    HW130248   3.587   1.049   3.501
 9783SOL    HW230249   3.627   1.150   3.380
 9784SOL     OW30250   1.452   1.121   6.270
 9784SOL    HW130251   1.479   1.025   6.267
 9784SOL    HW230252   1.387   1.140   6.196
 9785SOL     OW30253   0.418   3.376   4.849
 9785SOL    HW130254   0.331   3.328   4.834
 9785SOL    HW230255   0.470   3.328   4.919
 9786SOL     OW30256   2.138   4.108   0.622
 9786SOL    HW130257   2.151   4.026   0.678
 9786SOL    HW230258   2.046   4.108   0.583
 9787SOL     OW30259   3.332   3.637   3.494
 9787SOL    HW130260   3.343   3.732   3.524
 9787SOL    HW230261   3.395   3.619   3.418
 9788SOL     OW30262   4.882   7.013   2.061
 9788SOL    HW130263   4.949   6.973   2.123
 9788SOL    HW230264   4.826   6.941   2.020
 9789SOL     OW30265   3.878   1.104   6.209
 9789SOL    HW130266   3.833   1.191   6.231
 9789SOL    HW230267   3.810   1.040   6.172
 9790SOL     OW30268   0.193   4.529   4.315
 9790SOL    HW130269   0.148   4.516   4.227
 9790SOL    HW230270   0.236   4.443   4.344
 9791SOL     OW30271   1.134   6.335   0.983
 9791SOL    HW130272   1.215   6.285   0.953
 9791SOL    HW230273   1.128   6.333   1.083
 9792SOL     OW30274   4.159   6.454   0.557
 9792SOL    HW130275   4.244   6.406   0.534
 9792SOL    HW230276   4.097   6.451   0.478
 9793SOL     OW30277   5.400   0.914   3.109
 9793SOL    HW130278   5.441   0.855   3.039
 9793SOL    HW230279   5.326   0.967   3.069
 9794SOL     OW30280   4.560   4.894   4.806
 9794SOL    HW130281   4.591   4.899   4.711
 9794SOL    HW230282   4.617   4.829   4.856
 9795SOL     OW30283   1.709   3.826   3.349
 9795SOL    HW130284   1.706   3.834   3.449
 9795SOL    HW230285   1.752   3.907   3.310
 9796SOL     OW30286   3.892   3.490   3.631
 9796SOL    HW130287   3.819   3.557   3.637
 9796SOL    HW230288   3.859   3.407   3.586
 9797SOL     OW30289   3.144   5.855   6.755
 9797SOL    HW130290   3.165   5.828   6.849
 9797SOL    HW230291   3.131   5.954   6.751
 9798SOL     OW30292   0.775   3.873   0.265
 9798SOL    HW130293   0.727   3.843   0.183
 9798SOL    HW230294   0.861   3.918   0.240
 9799SOL     OW30295   2.996   0.552   6.800
 9799SOL    HW130296   2.986   0.651   6.793
 9799SOL    HW230297   2.908   0.511   6.823
 9800SOL     OW30298   6.492   3.429   5.146
 9800SOL    HW130299   6.430   3.491   5.098
 9800SOL    HW230300   6.507   3.347   5.090
 9801SOL     OW30301   5.940   6.186   6.755
 9801SOL    HW130302   5.871   6.114   6.757
 9801SOL    HW230303   5.995   6.182   6.839
 9802SOL     OW30304   3.868   4.737   0.335
 9802SOL    HW130305   3.928   4.727   0.256
 9802SOL    HW230306   3.854   4.834   0.354
 9803SOL     OW30307   0.913   3.855   6.794
 9803SOL    HW130308   0.990   3.824   6.738
 9803SOL    HW230309   0.897   3.791   6.868
 9804SOL     OW30310   6.981   5.744   2.610
 9804SOL    HW130311   6.950   5.839   2.614
 9804SOL    HW230312   6.914   5.689   2.561
 9805SOL     OW30313   0.817   6.268   3.613
 9805SOL    HW130314   0.757   6.194   3.582
 9805SOL    HW230315   0.770   6.321   3.684
 9806SOL     OW30316   3.436   1.774   6.383
 9806SOL    HW130317   3.340   1.762   6.409
 9806SOL    HW230318   3.490   1.799   6.463
 9807SOL     OW30319   3.209   3.348   2.077
 9807SOL    HW130320   3.281   3.415   2.057
 9807SOL    HW230321   3.167   3.318   1.991
 9808SOL     OW30322   4.537   5.924   2.880
 9808SOL    HW130323   4.618   5.878   2.917
 9808SOL    HW230324   4.554   6.022   2.873
 9809SOL     OW30325   6.568   3.232   1.367
 9809SOL    HW130326   6.645   3.187   1.322
 9809SOL    HW230327   6.535   3.175   1.443
 9810SOL     OW30328   2.310   1.359   6.945
 9810SOL    HW130329   2.232   1.408   6.985
 9810SOL    HW230330   2.395   1.393   6.985
 9811SOL     OW30331   6.183   3.724   4.094
 9811SOL    HW130332   6.120   3.801   4.103
 9811SOL    HW230333   6.222   3.702   4.183
 9812SOL     OW30334   3.347   6.361   5.432
 9812SOL    HW130335   3.369   6.265   5.451
 9812SOL    HW230336   3.358   6.414   5.515
 9813SOL     OW30337   5.051   1.947   1.456
 9813SOL    HW130338   5.136   1.902   1.427
 9813SOL    HW230339   5.033   1.926   1.552
 9814SOL     OW30340   5.665   1.097   0.345
 9814SOL    HW130341   5.703   1.011   0.310
 9814SOL    HW230342   5.618   1.145   0.271
 9815SOL     OW30343   4.440   2.202   5.008
 9815SOL    HW130344   4.494   2.119   5.017
 9815SOL    HW230345   4.481   2.261   4.937
 9816SOL     OW30346   1.702   6.672   0.109
 9816SOL    HW130347   1.641   6.713   0.176
 9816SOL    HW230348   1.758   6.601   0.153
 9817SOL     OW30349   6.976   6.599   3.141
 9817SOL    HW130350   6.877   6.596   3.156
 9817SOL    HW230351   7.008   6.693   3.143
 9818SOL     OW30352   6.910   2.536   4.145
 9818SOL    HW130353   6.975   2.571   4.212
 9818SOL    HW230354   6.826   2.590   4.149
 9819SOL     OW30355   3.728   1.069   3.720
 9819SOL    HW130356   3.668   1.082   3.799
 9819SOL    HW230357   3.780   1.153   3.705
 9820SOL     OW30358   4.271   3.829   5.587
 9820SOL    HW130359   4.182   3.808   5.546
 9820SOL    HW230360   4.333   3.751   5.575
 9821SOL     OW30361   5.894   5.687   0.207
 9821SOL    HW130362   5.824   5.737   0.258
 9821SOL    HW230363   5.858   5.598   0.180
 9822SOL     OW30364   0.620   6.849   2.744
 9822SOL    HW130365   0.549   6.799   2.795
 9822SOL    HW230366   0.673   6.905   2.808
 9823SOL     OW30367   3.184   1.030   2.109
 9823SOL    HW130368   3.231   1.040   2.021
 9823SOL    HW230369   3.101   1.086   2.109
 9824SOL     OW30370   1.401   4.191   5.025
 9824SOL    HW130371   1.482   4.138   5.048
 9824SOL    HW230372   1.321   4.131   5.023
 9825SOL     OW30373   3.883   4.978   5.434
 9825SOL    HW130374   3.846   4.926   5.511
 9825SOL    HW230375   3.846   4.943   5.349
 9826SOL     OW30376   4.108   7.011   5.923
 9826SOL    HW130377   4.020   0.016   5.960
 9826SOL    HW230378   4.121   0.027   5.832
 9827SOL     OW30379   0.959   3.481   4.770
 9827SOL    HW130380   0.891   3.521   4.831
 9827SOL    HW230381   1.049   3.517   4.793
 9828SOL     OW30382   3.639   2.476   6.669
 9828SOL    HW130383   3.680   2.531   6.595
 9828SOL    HW230384   3.564   2.422   6.632
 9829SOL     OW30385   2.226   5.883   0.416
 9829SOL    HW130386   2.320   5.899   0.445
 9829SOL    HW230387   2.225   5.857   0.319
 9830SOL     OW30388   6.126   1.440   1.693
 9830SOL    HW130389   6.081   1.514   1.744
 9830SOL    HW230390   6.076   1.355   1.708
 9831SOL     OW30391   0.148   6.931   1.880
 9831SOL    HW130392   0.154   7.003   1.811
 9831SOL    HW230393   0.238   6.915   1.920
 9832SOL     OW30394   4.347   5.263   1.655
 9832SOL    HW130395   4.376   5.271   1.751
 9832SOL    HW230396   4.248   5.275   1.649
 9833SOL     OW30397   3.618   3.856   5.401
 9833SOL    HW130398   3.636   3.856   5.500
 9833SOL    HW230399   3.565   3.937   5.377
 9834SOL     OW30400   1.084   3.782   5.061
 9834SOL    HW130401   1.078   3.792   4.962
 9834SOL    HW230402   1.074   3.685   5.085
 9835SOL     OW30403   4.959   1.304   4.343
 9835SOL    HW130404   5.010   1.348   4.269
 9835SOL    HW230405   4.891   1.242   4.305
 9836SOL     OW30406   5.256   4.665   3.580
 9836SOL    HW130407   5.233   4.683   3.676
 9836SOL    HW230408   5.244   4.749   3.527
 9837SOL     OW30409   2.530   6.771   4.648
 9837SOL    HW130410   2.430   6.769   4.644
 9837SOL    HW230411   2.565   6.832   4.576
 9838SOL     OW30412   0.902   6.129   6.175
 9838SOL    HW130413   0.815   6.141   6.127
 9838SOL    HW230414   0.885   6.118   6.273
 9839SOL     OW30415   6.994   1.337   1.541
 9839SOL    HW130416   6.894   1.338   1.539
 9839SOL    HW230417   0.005   1.325   1.449
 9840SOL     OW30418   6.391   0.373   0.966
 9840SOL    HW130419   6.317   0.306   0.964
 9840SOL    HW230420   6.438   0.369   1.054
 9841SOL     OW30421   1.841   3.945   4.708
 9841SOL    HW130422   1.845   4.037   4.747
 9841SOL    HW230423   1.932   3.916   4.682
 9842SOL     OW30424   3.131   3.215   2.592
 9842SOL    HW130425   3.142   3.117   2.574
 9842SOL    HW230426   3.088   3.227   2.682
 9843SOL     OW30427   6.959   1.974   1.614
 9843SOL    HW130428   6.891   1.967   1.541
 9843SOL    HW230429   6.913   1.995   1.700
 9844SOL     OW30430   5.083   0.238   2.691
 9844SOL    HW130431   5.107   0.163   2.629
 9844SOL    HW230432   4.999   0.282   2.660
 9845SOL     OW30433   2.000   1.851   3.840
 9845SOL    HW130434   2.000   1.908   3.922
 9845SOL    HW230435   1.982   1.907   3.760
 9846SOL     OW30436   3.129   3.527   3.312
 9846SOL    HW130437   3.174   3.514   3.224
 9846SOL    HW230438   3.193   3.567   3.378
 9847SOL     OW30439   1.623   3.714   6.780
 9847SOL    HW130440   1.682   3.795   6.781
 9847SOL    HW230441   1.529   3.742   6.761
 9848SOL     OW30442   4.169   2.789   7.020
 9848SOL    HW130443   4.268   2.782   0.002
 9848SOL    HW230444   4.127   2.720   0.055
 9849SOL     OW30445   6.568   0.168   6.153
 9849SOL    HW130446   6.490   0.143   6.210
 9849SOL    HW230447   6.540   0.239   6.089
 9850SOL     OW30448   3.887   6.899   2.165
 9850SOL    HW130449   3.916   6.912   2.071
 9850SOL    HW230450   3.957   6.936   2.227
 9851SOL     OW30451   5.214   1.818   5.104
 9851SOL    HW130452   5.150   1.780   5.038
 9851SOL    HW230453   5.190   1.788   5.196
 9852SOL     OW30454   4.839   1.605   3.515
 9852SOL    HW130455   4.818   1.538   3.444
 9852SOL    HW230456   4.937   1.605   3.533
 9853SOL     OW30457   5.652   3.847   2.725
 9853SOL    HW130458   5.722   3.810   2.663
 9853SOL    HW230459   5.649   3.947   2.716
 9854SOL     OW30460   5.538   5.371   4.339
 9854SOL    HW130461   5.540   5.393   4.436
 9854SOL    HW230462   5.624   5.327   4.313
 9855SOL     OW30463   0.715   4.224   1.477
 9855SOL    HW130464   0.719   4.295   1.548
 9855SOL    HW230465   0.656   4.149   1.508
 9856SOL     OW30466   3.467   3.682   0.439
 9856SOL    HW130467   3.440   3.778   0.426
 9856SOL    HW230468   3.395   3.633   0.487
 9857SOL     OW30469   5.305   3.283   3.255
 9857SOL    HW130470   5.220   3.277   3.308
 9857SOL    HW230471   5.339   3.377   3.258
 9858SOL     OW30472   5.186   1.199   2.208
 9858SOL    HW130473   5.192   1.290   2.249
 9858SOL    HW230474   5.273   1.152   2.220
 9859SOL     OW30475   6.429   0.869   1.921
 9859SOL    HW130476   6.358   0.917   1.868
 9859SOL    HW230477   6.393   0.781   1.951
 9860SOL     OW30478   0.300   0.707   2.479
 9860SOL    HW130479   0.328   0.644   2.407
 9860SOL    HW230480   0.370   0.709   2.551
 9861SOL     OW30481   4.294   6.159   4.257
 9861SOL    HW130482   4.362   6.109   4.311
 9861SOL    HW230483   4.234   6.210   4.319
 9862SOL     OW30484   1.905   3.034   0.413
 9862SOL    HW130485   1.842   2.959   0.430
 9862SOL    HW230486   1.915   3.089   0.496
 9863SOL     OW30487   3.038   0.370   3.156
 9863SOL    HW130488   3.084   0.368   3.067
 9863SOL    HW230489   3.100   0.408   3.225
 9864SOL     OW30490   4.445   5.473   3.514
 9864SOL    HW130491   4.352   5.466   3.550
 9864SOL    HW230492   4.507   5.422   3.572
 9865SOL     OW30493   0.654   0.152   3.524
 9865SOL    HW130494   0.652   0.236   3.578
 9865SOL    HW230495   0.587   0.088   3.561
 9866SOL     OW30496   4.852   3.805   4.360
 9866SOL    HW130497   4.785   3.730   4.356
 9866SOL    HW230498   4.876   3.822   4.456
 9867SOL     OW30499   4.647   1.279   0.776
 9867SOL    HW130500   4.695   1.197   0.746
 9867SOL    HW230501   4.706   1.333   0.836
 9868SOL     OW30502   6.920   4.455   6.890
 9868SOL    HW130503   6.981   4.501   6.955
 9868SOL    HW230504   6.963   4.371   6.857
 9869SOL     OW30505   2.119   3.941   3.109
 9869SOL    HW130506   2.166   4.019   3.068
 9869SOL    HW230507   2.079   3.885   3.036
 9870SOL     OW30508   4.593   4.709   2.470
 9870SOL    HW130509   4.545   4.631   2.430
 9870SOL    HW230510   4.588   4.787   2.409
 9871SOL     OW30511   2.159   0.714   5.735
 9871SOL    HW130512   2.109   0.662   5.804
 9871SOL    HW230513   2.214   0.652   5.679
 9872SOL     OW30514   2.992   4.848   3.183
 9872SOL    HW130515   2.959   4.842   3.089
 9872SOL    HW230516   2.927   4.804   3.245
 9873SOL     OW30517   1.983   2.909   0.186
 9873SOL    HW130518   1.902   2.854   0.164
 9873SOL    HW230519   1.974   2.946   0.278
 9874SOL     OW30520   0.570   2.747   3.260
 9874SOL    HW130521   0.522   2.759   3.173
 9874SOL    HW230522   0.630   2.825   3.276
 9875SOL     OW30523   0.481   0.726   2.681
 9875SOL    HW130524   0.533   0.789   2.625
 9875SOL    HW230525   0.506   0.737   2.777
 9876SOL     OW30526   6.438   0.049   2.713
 9876SOL    HW130527   6.359   7.021   2.745
 9876SOL    HW230528   6.467   0.015   2.623
 9877SOL     OW30529   3.052   0.310   2.561
 9877SOL    HW130530   2.976   0.370   2.536
 9877SOL    HW230531   3.030   0.216   2.534
 9878SOL     OW30532   1.526   5.682   5.790
 9878SOL    HW130533   1.529   5.782   5.802
 9878SOL    HW230534   1.611   5.642   5.824
 9879SOL     OW30535   4.530   5.562   4.810
 9879SOL    HW130536   4.475   5.643   4.829
 9879SOL    HW230537   4.625   5.588   4.796
 9880SOL     OW30538   0.812   1.986   5.559
 9880SOL    HW130539   0.861   1.960   5.476
 9880SOL    HW230540   0.851   2.071   5.596
 9881SOL     OW30541   0.639   2.707   4.954
 9881SOL    HW130542   0.635   2.807   4.959
 9881SOL    HW230543   0.711   2.673   5.015
 9882SOL     OW30544   1.263   2.655   4.521
 9882SOL    HW130545   1.264   2.565   4.476
 9882SOL    HW230546   1.244   2.726   4.453
 9883SOL     OW30547   1.690   0.589   1.529
 9883SOL    HW130548   1.775   0.641   1.518
 9883SOL    HW230549   1.701   0.498   1.489
 9884SOL     OW30550   4.211   0.738   3.654
 9884SOL    HW130551   4.235   0.766   3.561
 9884SOL    HW230552   4.152   0.807   3.695
 9885SOL     OW30553   6.203   4.126   4.949
 9885SOL    HW130554   6.144   4.178   5.010
 9885SOL    HW230555   6.178   4.029   4.953
 9886SOL     OW30556   1.279   4.777   2.823
 9886SOL    HW130557   1.348   4.705   2.815
 9886SOL    HW230558   1.195   4.739   2.860
 9887SOL     OW30559   3.545   1.679   6.809
 9887SOL    HW130560   3.593   1.614   6.751
 9887SOL    HW230561   3.452   1.692   6.774
 9888SOL     OW30562   0.370   3.457   0.356
 9888SOL    HW130563   0.354   3.363   0.327
 9888SOL    HW230564   0.416   3.507   0.282
 9889SOL     OW30565   6.349   5.277   0.378
 9889SOL    HW130566   6.278   5.347   0.382
 9889SOL    HW230567   6.419   5.296   0.446
 9890SOL     OW30568   1.756   2.441   1.091
 9890SOL    HW130569   1.690   2.402   1.025
 9890SOL    HW230570   1.847   2.404   1.073
 9891SOL     OW30571   5.707   2.712   0.283
 9891SOL    HW130572   5.701   2.772   0.362
 9891SOL    HW230573   5.683   2.764   0.200
 9892SOL     OW30574   0.031   4.614   0.388
 9892SOL    HW130575   0.074   4.701   0.409
 9892SOL    HW230576   0.093   4.539   0.411
 9893SOL     OW30577   2.597   0.779   0.845
 9893SOL    HW130578   2.543   0.847   0.895
 9893SOL    HW230579   2.620   0.815   0.755
 9894SOL     OW30580   1.234   1.675   0.745
 9894SOL    HW130581   1.318   1.621   0.744
 9894SOL    HW230582   1.256   1.770   0.725
 9895SOL     OW30583   5.570   3.584   4.632
 9895SOL    HW130584   5.529   3.606   4.544
 9895SOL    HW230585   5.531   3.498   4.666
 9896SOL     OW30586   6.896   6.950   6.966
 9896SOL    HW130587   6.989   6.924   6.942
 9896SOL    HW230588   6.835   6.928   6.890
 9897SOL     OW30589   5.866   5.314   3.566
 9897SOL    HW130590   5.862   5.370   3.649
 9897SOL    HW230591   5.902   5.369   3.490
 9898SOL     OW30592   3.279   6.297   6.114
 9898SOL    HW130593   3.231   6.229   6.059
 9898SOL    HW230594   3.214   6.365   6.147
 9899SOL     OW30595   0.727   5.370   0.683
 9899SOL    HW130596   0.735   5.407   0.776
 9899SOL    HW230597   0.816   5.375   0.637
 9900SOL     OW30598   1.504   4.284   3.520
 9900SOL    HW130599   1.542   4.315   3.433
 9900SOL    HW230600   1.510   4.184   3.526
 9901SOL     OW30601   2.805   2.353   5.640
 9901SOL    HW130602   2.777   2.447   5.657
 9901SOL    HW230603   2.818   2.340   5.541
 9902SOL     OW30604   2.174   4.804   6.606
 9902SOL    HW130605   2.203   4.882   6.550
 9902SOL    HW230606   2.123   4.739   6.549
 9903SOL     OW30607   5.302   1.558   3.499
 9903SOL    HW130608   5.333   1.630   3.561
 9903SOL    HW230609   5.217   1.587   3.455
 9904SOL     OW30610   0.525   3.344   6.331
 9904SOL    HW130611   0.593   3.391   6.274
 9904SOL    HW230612   0.571   3.278   6.390
 9905SOL     OW30613   3.887   1.416   0.893
 9905SOL    HW130614   3.797   1.376   0.912
 9905SOL    HW230615   3.958   1.349   0.912
 9906SOL     OW30616   3.742   2.902   2.592
 9906SOL    HW130617   3.756   2.878   2.496
 9906SOL    HW230618   3.708   2.996   2.597
 9907SOL     OW30619   6.981   0.623   1.548
 9907SOL    HW130620   6.981   0.723   1.546
 9907SOL    HW230621   0.001   0.591   1.632
 9908SOL     OW30622   5.104   2.772   3.126
 9908SOL    HW130623   5.016   2.744   3.086
 9908SOL    HW230624   5.094   2.780   3.226
 9909SOL     OW30625   3.534   6.703   3.669
 9909SOL    HW130626   3.532   6.698   3.768
 9909SOL    HW230627   3.487   6.625   3.630
 9910SOL     OW30628   1.072   4.171   2.606
 9910SOL    HW130629   1.042   4.248   2.551
 9910SOL    HW230630   1.025   4.088   2.576
 9911SOL     OW30631   3.943   0.305   2.278
 9911SOL    HW130632   4.020   0.241   2.281
 9911SOL    HW230633   3.944   0.362   2.360
 9912SOL     OW30634   4.205   2.055   1.450
 9912SOL    HW130635   4.126   1.996   1.467
 9912SOL    HW230636   4.183   2.118   1.375
 9913SOL     OW30637   6.049   3.629   6.928
 9913SOL    HW130638   5.968   3.583   6.962
 9913SOL    HW230639   6.023   3.713   6.880
 9914SOL     OW30640   0.342   3.142   4.510
 9914SOL    HW130641   0.427   3.195   4.510
 9914SOL    HW230642   0.264   3.204   4.508
 9915SOL     OW30643   4.480   1.170   2.926
 9915SOL    HW130644   4.459   1.140   3.020
 9915SOL    HW230645   4.419   1.122   2.862
 9916SOL     OW30646   2.335   2.784   2.499
 9916SOL    HW130647   2.399   2.719   2.458
 9916SOL    HW230648   2.353   2.792   2.597
 9917SOL     OW30649   6.525   3.698   6.910
 9917SOL    HW130650   6.502   3.605   6.881
 9917SOL    HW230651   6.449   3.760   6.886
 9918SOL     OW30652   4.118   1.888   2.836
 9918SOL    HW130653   4.125   1.834   2.752
 9918SOL    HW230654   4.022   1.908   2.856
 9919SOL     OW30655   6.284   6.246   1.111
 9919SOL    HW130656   6.239   6.192   1.183
 9919SOL    HW230657   6.217   6.268   1.040
 9920SOL     OW30658   4.893   1.292   2.402
 9920SOL    HW130659   4.915   1.384   2.370
 9920SOL    HW230660   4.935   1.225   2.341
 9921SOL     OW30661   4.822   5.572   5.893
 9921SOL    HW130662   4.807   5.542   5.799
 9921SOL    HW230663   4.735   5.594   5.936
 9922SOL     OW30664   0.890   5.398   0.114
 9922SOL    HW130665   0.800   5.372   0.150
 9922SOL    HW230666   0.878   5.437   0.022
 9923SOL     OW30667   4.572   4.900   6.997
 9923SOL    HW130668   4.639   4.952   0.026
 9923SOL    HW230669   4.492   4.958   6.978
 9924SOL     OW30670   6.894   2.691   4.727
 9924SOL    HW130671   6.926   2.735   4.811
 9924SOL    HW230672   6.957   2.618   4.702
 9925SOL     OW30673   6.389   3.633   3.870
 9925SOL    HW130674   6.350   3.608   3.959
 9925SOL    HW230675   6.322   3.615   3.798
 9926SOL     OW30676   2.404   3.926   6.609
 9926SOL    HW130677   2.315   3.883   6.625
 9926SOL    HW230678   2.391   4.020   6.578
 9927SOL     OW30679   6.099   6.937   2.427
 9927SOL    HW130680   6.132   6.872   2.496
 9927SOL    HW230681   6.132   0.004   2.450
 9928SOL     OW30682   4.702   4.746   1.396
 9928SOL    HW130683   4.765   4.751   1.319
 9928SOL    HW230684   4.727   4.669   1.455
 9929SOL     OW30685   2.274   5.689   4.868
 9929SOL    HW130686   2.289   5.735   4.955
 9929SOL    HW230687   2.358   5.641   4.841
 9930SOL     OW30688   6.490   0.336   4.826
 9930SOL    HW130689   6.578   0.307   4.790
 9930SOL    HW230690   6.425   0.260   4.823
 9931SOL     OW30691   0.645   4.602   5.068
 9931SOL    HW130692   0.742   4.622   5.050
 9931SOL    HW230693   0.636   4.560   5.158
 9932SOL     OW30694   1.748   6.637   6.498
 9932SOL    HW130695   1.740   6.735   6.480
 9932SOL    HW230696   1.656   6.597   6.507
 9933SOL     OW30697   2.119   5.137   2.738
 9933SOL    HW130698   2.200   5.116   2.684
 9933SOL    HW230699   2.116   5.236   2.756
 9934SOL     OW30700   5.690   2.249   5.781
 9934SOL    HW130701   5.599   2.289   5.796
 9934SOL    HW230702   5.700   2.168   5.839
 9935SOL     OW30703   2.654   0.910   0.585
 9935SOL    HW130704   2.663   1.006   0.609
 9935SOL    HW230705   2.730   0.883   0.525
 9936SOL     OW30706   6.973   5.390   4.910
 9936SOL    HW130707   6.880   5.356   4.921
 9936SOL    HW230708   6.997   5.449   4.987
 9937SOL     OW30709   6.222   2.331   5.857
 9937SOL    HW130710   6.209   2.374   5.947
 9937SOL    HW230711   6.142   2.276   5.835
 9938SOL     OW30712   6.506   6.021   3.429
 9938SOL    HW130713   6.586   6.000   3.486
 9938SOL    HW230714   6.479   6.116   3.444
 9939SOL     OW30715   3.224   3.009   0.853
 9939SOL    HW130716   3.180   2.973   0.771
 9939SOL    HW230717   3.178   3.093   0.882
 9940SOL     OW30718   0.405   0.762   0.984
 9940SOL    HW130719   0.483   0.704   1.007
 9940SOL    HW230720   0.359   0.792   1.068
 9941SOL     OW30721   2.911   3.818   4.990
 9941SOL    HW130722   2.922   3.719   5.000
 9941SOL    HW230723   2.859   3.854   5.068
 9942SOL     OW30724   2.281   6.232   2.218
 9942SOL    HW130725   2.258   6.246   2.314
 9942SOL    HW230726   2.349   6.300   2.190
 9943SOL     OW30727   0.216   5.791   6.032
 9943SOL    HW130728   0.294   5.848   6.004
 9943SOL    HW230729   0.140   5.849   6.059
 9944SOL     OW30730   2.131   4.557   6.127
 9944SOL    HW130731   2.127   4.649   6.166
 9944SOL    HW230732   2.134   4.490   6.201
 9945SOL     OW30733   6.741   5.181   6.859
 9945SOL    HW130734   6.663   5.150   6.804
 9945SOL    HW230735   6.726   5.276   6.887
 9946SOL     OW30736   5.313   1.210   5.083
 9946SOL    HW130737   5.266   1.135   5.036
 9946SOL    HW230738   5.412   1.193   5.081
 9947SOL     OW30739   6.700   3.761   6.075
 9947SOL    HW130740   6.748   3.849   6.080
 9947SOL    HW230741   6.699   3.730   5.980
 9948SOL     OW30742   4.693   4.286   4.845
 9948SOL    HW130743   4.652   4.366   4.803
 9948SOL    HW230744   4.640   4.258   4.925
 9949SOL     OW30745   5.617   4.658   3.139
 9949SOL    HW130746   5.537   4.660   3.079
 9949SOL    HW230747   5.693   4.614   3.091
 9950SOL     OW30748   5.457   6.248   5.215
 9950SOL    HW130749   5.557   6.255   5.205
 9950SOL    HW230750   5.432   6.152   5.224
 9951SOL     OW30751   5.966   2.175   3.856
 9951SOL    HW130752   6.047   2.140   3.902
 9951SOL    HW230753   5.937   2.260   3.900
 9952SOL     OW30754   6.414   3.661   0.843
 9952SOL    HW130755   6.474   3.676   0.922
 9952SOL    HW230756   6.436   3.727   0.771
 9953SOL     OW30757   6.526   2.421   3.670
 9953SOL    HW130758   6.429   2.442   3.670
 9953SOL    HW230759   6.540   2.324   3.689
 9954SOL     OW30760   5.945   6.525   5.614
 9954SOL    HW130761   5.987   6.571   5.693
 9954SOL    HW230762   5.908   6.594   5.552
 9955SOL     OW30763   6.796   4.980   4.627
 9955SOL    HW130764   6.782   4.888   4.589
 9955SOL    HW230765   6.714   5.035   4.610
 9956SOL     OW30766   1.338   6.980   1.673
 9956SOL    HW130767   1.357   6.931   1.588
 9956SOL    HW230768   1.273   6.927   1.728
 9957SOL     OW30769   6.170   5.564   3.548
 9957SOL    HW130770   6.165   5.483   3.490
 9957SOL    HW230771   6.177   5.646   3.491
 9958SOL     OW30772   3.558   4.731   0.608
 9958SOL    HW130773   3.604   4.724   0.519
 9958SOL    HW230774   3.621   4.771   0.675
 9959SOL     OW30775   4.130   3.605   5.754
 9959SOL    HW130776   4.210   3.560   5.795
 9959SOL    HW230777   4.144   3.614   5.655
 9960SOL     OW30778   6.993   1.068   2.778
 9960SOL    HW130779   0.069   1.075   2.775
 9960SOL    HW230780   6.959   1.043   2.687
 9961SOL     OW30781   2.238   5.691   3.880
 9961SOL    HW130782   2.300   5.679   3.958
 9961SOL    HW230783   2.194   5.604   3.859
 9962SOL     OW30784   5.634   6.190   4.862
 9962SOL    HW130785   5.627   6.268   4.800
 9962SOL    HW230786   5.548   6.140   4.862
 9963SOL     OW30787   3.246   2.162   0.733
 9963SOL    HW130788   3.253   2.180   0.635
 9963SOL    HW230789   3.198   2.076   0.748
 9964SOL     OW30790   4.681   5.363   4.333
 9964SOL    HW130791   4.720   5.450   4.303
 9964SOL    HW230792   4.599   5.343   4.280
 9965SOL     OW30793   3.873   6.781   0.048
 9965SOL    HW130794   3.957   6.728   0.037
 9965SOL    HW230795   3.796   6.731   0.010
 9966SOL     OW30796   1.456   5.168   1.778
 9966SOL    HW130797   1.470   5.237   1.850
 9966SOL    HW230798   1.433   5.214   1.692
 9967SOL     OW30799   1.134   5.629   1.569
 9967SOL    HW130800   1.082   5.670   1.494
 9967SOL    HW230801   1.075   5.620   1.650
 9968SOL     OW30802   3.519   3.798   2.048
 9968SOL    HW130803   3.531   3.712   2.097
 9968SOL    HW230804   3.608   3.836   2.024
 9969SOL     OW30805   1.352   3.558   2.794
 9969SOL    HW130806   1.370   3.601   2.883
 9969SOL    HW230807   1.321   3.628   2.729
 9970SOL     OW30808   5.425   4.729   1.949
 9970SOL    HW130809   5.375   4.655   1.994
 9970SOL    HW230810   5.361   4.804   1.928
 9971SOL     OW30811   1.424   4.497   1.057
 9971SOL    HW130812   1.338   4.504   1.108
 9971SOL    HW230813   1.406   4.503   0.959
 9972SOL     OW30814   6.061   5.161   2.937
 9972SOL    HW130815   6.061   5.080   2.995
 9972SOL    HW230816   6.153   5.200   2.934
 9973SOL     OW30817   5.839   0.634   4.102
 9973SOL    HW130818   5.915   0.634   4.167
 9973SOL    HW230819   5.850   0.557   4.039
 9974SOL     OW30820   1.563   0.603   3.916
 9974SOL    HW130821   1.495   0.677   3.925
 9974SOL    HW230822   1.517   0.519   3.888
 9975SOL     OW30823   0.030   2.862   0.604
 9975SOL    HW130824   7.002   2.778   0.613
 9975SOL    HW230825   0.116   2.844   0.557
 9976SOL     OW30826   1.293   7.023   5.235
 9976SOL    HW130827   1.372   0.056   5.215
 9976SOL    HW230828   1.298   6.938   5.182
 9977SOL     OW30829   6.549   4.299   5.183
 9977SOL    HW130830   6.644   4.272   5.193
 9977SOL    HW230831   6.514   4.265   5.096
 9978SOL     OW30832   0.379   2.924   4.334
 9978SOL    HW130833   0.352   2.995   4.399
 9978SOL    HW230834   0.447   2.961   4.271
 9979SOL     OW30835   5.909   4.015   4.845
 9979SOL    HW130836   5.907   4.113   4.825
 9979SOL    HW230837   5.850   3.966   4.781
 9980SOL     OW30838   3.531   0.443   6.770
 9980SOL    HW130839   3.445   0.398   6.748
 9980SOL    HW230840   3.563   0.412   6.860
 9981SOL     OW30841   3.150   1.299   3.898
 9981SOL    HW130842   3.083   1.289   3.824
 9981SOL    HW230843   3.209   1.218   3.900
 9982SOL     OW30844   6.688   6.300   3.903
 9982SOL    HW130845   6.725   6.377   3.956
 9982SOL    HW230846   6.747   6.284   3.824
 9983SOL     OW30847   6.693   1.106   2.486
 9983SOL    HW130848   6.652   1.129   2.574
 9983SOL    HW230849   6.785   1.069   2.501
 9984SOL     OW30850   2.963   1.944   6.550
 9984SOL    HW130851   2.879   1.908   6.509
 9984SOL    HW230852   2.944   1.972   6.644
 9985SOL     OW30853   1.702   1.032   1.596
 9985SOL    HW130854   1.791   1.005   1.632
 9985SOL    HW230855   1.630   0.995   1.655
 9986SOL     OW30856   5.583   4.054   4.933
 9986SOL    HW130857   5.543   3.977   4.884
 9986SOL    HW230858   5.538   4.064   5.022
 9987SOL     OW30859   6.324   3.860   6.141
 9987SOL    HW130860   6.236   3.862   6.093
 9987SOL    HW230861   6.319   3.918   6.222
 9988SOL     OW30862   6.658   6.641   5.140
 9988SOL    HW130863   6.744   6.589   5.139
 9988SOL    HW230864   6.592   6.596   5.200
 9989SOL     OW30865   6.915   3.579   4.953
 9989SOL    HW130866   6.886   3.610   5.044
 9989SOL    HW230867   6.967   3.494   4.962
 9990SOL     OW30868   1.053   4.677   2.987
 9990SOL    HW130869   1.027   4.587   2.952
 9990SOL    HW230870   0.979   4.742   2.969
 9991SOL     OW30871   2.969   2.224   4.161
 9991SOL    HW130872   3.059   2.214   4.118
 9991SOL    HW230873   2.974   2.193   4.256
 9992SOL     OW30874   5.627   5.636   6.245
 9992SOL    HW130875   5.599   5.719   6.196
 9992SOL    HW230876   5.614   5.649   6.343
 9993SOL     OW30877   1.579   1.667   1.308
 9993SOL    HW130878   1.497   1.620   1.340
 9993SOL    HW230879   1.556   1.761   1.281
 9994SOL     OW30880   6.219   4.830   3.766
 9994SOL    HW130881   6.137   4.852   3.714
 9994SOL    HW230882   6.263   4.915   3.796
 9995SOL     OW30883   5.749   0.905   4.190
 9995SOL    HW130884   5.704   0.948   4.112
 9995SOL    HW230885   5.823   0.845   4.159
 9996SOL     OW30886   3.617   4.328   6.873
 9996SOL    HW130887   3.649   4.410   6.825
 9996SOL    HW230888   3.634   4.338   6.971
 9997SOL     OW30889   2.623   0.352   5.361
 9997SOL    HW130890   2.592   0.369   5.455
 9997SOL    HW230891   2.722   0.359   5.357
 9998SOL     OW30892   5.972   5.380   5.723
 9998SOL    HW130893   6.017   5.469   5.733
 9998SOL    HW230894   6.003   5.319   5.795
 9999SOL     OW30895   6.419   2.476   5.722
 9999SOL    HW130896   6.379   2.525   5.645
 9999SOL    HW230897   6.347   2.426   5.771
10000SOL     OW30898   0.130   2.342   6.585
10000SOL    HW130899   0.039   2.318   6.619
10000SOL    HW230900   0.194   2.268   6.607
10001SOL     OW30901   4.885   0.742   2.568
10001SOL    HW130902   4.887   0.836   2.604
10001SOL    HW230903   4.896   0.678   2.644
10002SOL     OW30904   1.355   0.509   1.848
10002SOL    HW130905   1.292   0.437   1.878
10002SOL    HW230906   1.432   0.467   1.799
10003SOL     OW30907   3.685   1.954   3.302
10003SOL    HW130908   3.702   2.044   3.262
10003SOL    HW230909   3.588   1.946   3.327
10004SOL     OW30910   6.929   2.356   3.140
10004SOL    HW130911   6.904   2.449   3.168
10004SOL    HW230912   7.009   2.326   3.192
10005SOL     OW30913   4.814   0.155   3.813
10005SOL    HW130914   4.900   0.134   3.767
10005SOL    HW230915   4.809   0.253   3.830
10006SOL     OW30916   4.042   6.800   4.043
10006SOL    HW130917   3.954   6.788   3.999
10006SOL    HW230918   4.080   6.710   4.067
10007SOL     OW30919   0.202   3.432   4.141
10007SOL    HW130920   0.200   3.460   4.237
10007SOL    HW230921   0.189   3.513   4.083
10008SOL     OW30922   2.943   0.618   4.439
10008SOL    HW130923   2.944   0.623   4.339
10008SOL    HW230924   3.036   0.620   4.474
10009SOL     OW30925   2.171   4.064   2.201
10009SOL    HW130926   2.084   4.095   2.162
10009SOL    HW230927   2.247   4.113   2.158
10010SOL     OW30928   1.328   1.870   6.357
10010SOL    HW130929   1.316   1.781   6.314
10010SOL    HW230930   1.372   1.859   6.447
10011SOL     OW30931   6.371   6.934   5.885
10011SOL    HW130932   6.409   6.841   5.884
10011SOL    HW230933   6.329   6.952   5.975
10012SOL     OW30934   6.026   1.283   4.172
10012SOL    HW130935   6.072   1.203   4.134
10012SOL    HW230936   5.952   1.253   4.233
10013SOL     OW30937   0.414   0.737   2.997
10013SOL    HW130938   0.386   0.668   3.063
10013SOL    HW230939   0.511   0.726   2.976
10014SOL     OW30940   0.223   4.820   6.234
10014SOL    HW130941   0.306   4.853   6.190
10014SOL    HW230942   0.144   4.870   6.197
10015SOL     OW30943   1.941   4.617   7.012
10015SOL    HW130944   1.933   4.605   6.913
10015SOL    HW230945   2.029   4.658   0.009
10016SOL     OW30946   2.677   0.968   5.595
10016SOL    HW130947   2.661   1.009   5.685
10016SOL    HW230948   2.601   0.906   5.574
10017SOL     OW30949   2.030   2.433   4.531
10017SOL    HW130950   2.105   2.375   4.500
10017SOL    HW230951   1.943   2.390   4.509
10018SOL     OW30952   5.136   0.659   5.545
10018SOL    HW130953   5.205   0.716   5.590
10018SOL    HW230954   5.178   0.607   5.471
10019SOL     OW30955   1.289   0.814   3.261
10019SOL    HW130956   1.282   0.764   3.174
10019SOL    HW230957   1.201   0.811   3.308
10020SOL     OW30958   0.521   3.102   0.776
10020SOL    HW130959   0.435   3.091   0.826
10020SOL    HW230960   0.512   3.177   0.710
10021SOL     OW30961   0.265   3.618   1.200
10021SOL    HW130962   0.199   3.674   1.251
10021SOL    HW230963   0.241   3.620   1.103
10022SOL     OW30964   1.140   2.038   6.455
10022SOL    HW130965   1.140   1.980   6.536
10022SOL    HW230966   1.198   1.997   6.384
10023SOL     OW30967   6.861   3.434   1.043
10023SOL    HW130968   6.790   3.472   0.983
10023SOL    HW230969   6.914   3.367   0.992
10024SOL     OW30970   1.683   4.277   3.761
10024SOL    HW130971   1.683   4.243   3.855
10024SOL    HW230972   1.675   4.377   3.762
10025SOL     OW30973   1.819   1.175   0.968
10025SOL    HW130974   1.864   1.146   0.884
10025SOL    HW230975   1.755   1.105   0.999
10026SOL     OW30976   6.628   0.705   3.545
10026SOL    HW130977   6.656   0.681   3.452
10026SOL    HW230978   6.709   0.707   3.605
10027SOL     OW30979   4.911   3.312   5.092
10027SOL    HW130980   4.852   3.388   5.119
10027SOL    HW230981   4.865   3.254   5.025
10028SOL     OW30982   2.017   1.306   0.756
10028SOL    HW130983   1.942   1.372   0.755
10028SOL    HW230984   2.051   1.293   0.663
10029SOL     OW30985   5.834   1.139   3.747
10029SOL    HW130986   5.812   1.235   3.765
10029SOL    HW230987   5.878   1.099   3.827
10030SOL     OW30988   1.464   0.386   3.779
10030SOL    HW130989   1.496   0.301   3.736
10030SOL    HW230990   1.386   0.365   3.838
10031SOL     OW30991   6.463   4.349   4.135
10031SOL    HW130992   6.542   4.289   4.121
10031SOL    HW230993   6.416   4.363   4.048
10032SOL     OW30994   3.313   1.422   4.507
10032SOL    HW130995   3.242   1.441   4.574
10032SOL    HW230996   3.272   1.412   4.416
10033SOL     OW30997   5.890   3.380   5.448
10033SOL    HW130998   5.841   3.366   5.361
10033SOL    HW230999   5.962   3.448   5.434
10034SOL     OW31000   5.626   0.709   5.269
10034SOL    HW131001   5.557   0.680   5.202
10034SOL    HW231002   5.686   0.633   5.291
10035SOL     OW31003   0.544   5.611   1.351
10035SOL    HW131004   0.604   5.549   1.402
10035SOL    HW231005   0.557   5.596   1.253
10036SOL     OW31006   6.743   1.375   0.531
10036SOL    HW131007   6.680   1.298   0.535
10036SOL    HW231008   6.831   1.348   0.569
10037SOL     OW31009   0.691   6.902   6.845
10037SOL    HW131010   0.603   6.855   6.856
10037SOL    HW231011   0.763   6.835   6.829
10038SOL     OW31012   6.319   6.438   0.774
10038SOL    HW131013   6.397   6.494   0.746
10038SOL    HW231014   6.341   6.342   0.759
10039SOL     OW31015   3.490   0.004   3.827
10039SOL    HW131016   3.504   0.033   3.922
10039SOL    HW231017   3.558   0.047   3.768
10040SOL     OW31018   7.021   3.015   1.372
10040SOL    HW131019   6.937   3.017   1.427
10040SOL    HW231020   0.076   3.012   1.432
10041SOL     OW31021   2.089   6.195   0.160
10041SOL    HW131022   2.083   6.288   0.124
10041SOL    HW231023   2.017   6.181   0.228
10042SOL     OW31024   6.287   2.722   2.496
10042SOL    HW131025   6.187   2.713   2.492
10042SOL    HW231026   6.328   2.673   2.420
10043SOL     OW31027   6.999   1.510   5.707
10043SOL    HW131028   0.067   1.546   5.716
10043SOL    HW231029   6.988   1.470   5.616
10044SOL     OW31030   3.344   2.071   5.536
10044SOL    HW131031   3.409   1.997   5.522
10044SOL    HW231032   3.301   2.095   5.449
10045SOL     OW31033   3.793   1.018   0.674
10045SOL    HW131034   3.739   1.100   0.653
10045SOL    HW231035   3.734   0.946   0.710
10046SOL     OW31036   1.928   5.194   1.016
10046SOL    HW131037   1.982   5.138   1.079
10046SOL    HW231038   1.831   5.179   1.034
10047SOL     OW31039   0.671   3.360   0.841
10047SOL    HW131040   0.571   3.359   0.848
10047SOL    HW231041   0.698   3.356   0.745
10048SOL     OW31042   5.909   5.742   3.042
10048SOL    HW131043   5.918   5.729   2.943
10048SOL    HW231044   5.860   5.664   3.082
10049SOL     OW31045   0.147   0.766   5.758
10049SOL    HW131046   0.124   0.830   5.831
10049SOL    HW231047   0.101   0.795   5.673
10050SOL     OW31048   6.824   3.142   6.876
10050SOL    HW131049   6.812   3.188   6.789
10050SOL    HW231050   6.870   3.203   6.941
10051SOL     OW31051   2.077   3.421   3.710
10051SOL    HW131052   1.979   3.440   3.711
10051SOL    HW231053   2.102   3.379   3.623
10052SOL     OW31054   1.198   6.542   3.163
10052SOL    HW131055   1.264   6.559   3.090
10052SOL    HW231056   1.109   6.523   3.123
10053SOL     OW31057   5.753   5.397   4.983
10053SOL    HW131058   5.742   5.488   4.942
10053SOL    HW231059   5.700   5.391   5.067
10054SOL     OW31060   5.786   4.125   5.117
10054SOL    HW131061   5.776   4.120   5.018
10054SOL    HW231062   5.869   4.176   5.140
10055SOL     OW31063   0.578   2.039   6.520
10055SOL    HW131064   0.513   1.965   6.504
10055SOL    HW231065   0.594   2.089   6.435
10056SOL     OW31066   6.593   2.670   3.550
10056SOL    HW131067   6.560   2.581   3.582
10056SOL    HW231068   6.534   2.702   3.476
10057SOL     OW31069   6.297   4.698   5.338
10057SOL    HW131070   6.247   4.759   5.277
10057SOL    HW231071   6.379   4.664   5.291
10058SOL     OW31072   7.018   3.708   5.408
10058SOL    HW131073   6.944   3.752   5.459
10058SOL    HW231074   0.018   3.622   5.452
10059SOL     OW31075   6.311   0.683   6.866
10059SOL    HW131076   6.230   0.627   6.886
10059SOL    HW231077   6.288   0.780   6.877
10060SOL     OW31078   2.435   2.212   1.826
10060SOL    HW131079   2.353   2.262   1.857
10060SOL    HW231080   2.516   2.263   1.853
10061SOL     OW31081   3.557   0.205   3.201
10061SOL    HW131082   3.546   0.107   3.217
10061SOL    HW231083   3.608   0.245   3.278
10062SOL     OW31084   6.748   6.977   4.454
10062SOL    HW131085   6.830   0.010   4.444
10062SOL    HW231086   6.768   6.901   4.516
10063SOL     OW31087   2.069   2.537   5.470
10063SOL    HW131088   2.002   2.608   5.445
10063SOL    HW231089   2.139   2.577   5.529
10064SOL     OW31090   3.144   6.921   0.759
10064SOL    HW131091   3.065   6.862   0.774
10064SOL    HW231092   3.115   7.017   0.758
10065SOL     OW31093   0.608   1.437   1.867
10065SOL    HW131094   0.612   1.340   1.844
10065SOL    HW231095   0.664   1.489   1.802
10066SOL     OW31096   6.859   3.385   3.728
10066SOL    HW131097   6.763   3.410   3.719
10066SOL    HW231098   6.866   3.286   3.740
10067SOL     OW31099   0.004   3.162   5.906
10067SOL    HW131100   6.964   3.237   5.892
10067SOL    HW231101   6.981   3.075   5.894
10068SOL     OW31102   2.094   3.403   3.024
10068SOL    HW131103   2.134   3.419   2.934
10068SOL    HW231104   2.100   3.487   3.078
10069SOL     OW31105   3.201   5.110   0.588
10069SOL    HW131106   3.184   5.208   0.576
10069SOL    HW231107   3.148   5.076   0.666
10070SOL     OW31108   4.249   6.677   6.400
10070SOL    HW131109   4.253   6.752   6.467
10070SOL    HW231110   4.206   6.710   6.316
10071SOL     OW31111   6.125   6.994   4.032
10071SOL    HW131112   6.173   7.015   4.117
10071SOL    HW231113   6.126   6.895   4.017
10072SOL     OW31114   6.483   3.134   1.629
10072SOL    HW131115   6.445   3.226   1.638
10072SOL    HW231116   6.509   3.100   1.720
10073SOL     OW31117   6.519   4.729   4.641
10073SOL    HW131118   6.601   4.728   4.583
10073SOL    HW231119   6.482   4.636   4.646
10074SOL     OW31120   1.039   4.885   0.334
10074SOL    HW131121   1.087   4.922   0.254
10074SOL    HW231122   1.094   4.813   0.376
10075SOL     OW31123   1.668   3.652   1.914
10075SOL    HW131124   1.589   3.688   1.964
10075SOL    HW231125   1.735   3.618   1.980
10076SOL     OW31126   5.150   5.342   4.072
10076SOL    HW131127   5.214   5.317   4.145
10076SOL    HW231128   5.200   5.359   3.988
10077SOL     OW31129   4.793   3.326   6.920
10077SOL    HW131130   4.833   3.357   6.833
10077SOL    HW231131   4.865   3.325   6.990
10078SOL     OW31132   6.534   5.722   4.920
10078SOL    HW131133   6.446   5.706   4.965
10078SOL    HW231134   6.550   5.651   4.852
10079SOL     OW31135   4.818   2.941   3.912
10079SOL    HW131136   4.869   3.024   3.889
10079SOL    HW231137   4.845   2.911   4.004
10080SOL     OW31138   4.877   1.591   5.286
10080SOL    HW131139   4.804   1.625   5.344
10080SOL    HW231140   4.838   1.541   5.209
10081SOL     OW31141   1.437   4.278   0.568
10081SOL    HW131142   1.529   4.246   0.543
10081SOL    HW231143   1.369   4.217   0.528
10082SOL     OW31144   0.582   4.612   0.887
10082SOL    HW131145   0.637   4.695   0.891
10082SOL    HW231146   0.641   4.532   0.874
10083SOL     OW31147   3.258   5.139   2.785
10083SOL    HW131148   3.170   5.093   2.801
10083SOL    HW231149   3.261   5.224   2.839
10084SOL     OW31150   0.931   1.149   5.206
10084SOL    HW131151   0.920   1.182   5.113
10084SOL    HW231152   1.028   1.140   5.228
10085SOL     OW31153   5.300   0.171   0.515
10085SOL    HW131154   5.237   0.236   0.472
10085SOL    HW231155   5.331   0.104   0.447
10086SOL     OW31156   5.765   6.663   3.600
10086SOL    HW131157   5.754   6.668   3.500
10086SOL    HW231158   5.699   6.597   3.637
10087SOL     OW31159   1.093   6.373   5.679
10087SOL    HW131160   1.147   6.378   5.763
10087SOL    HW231161   1.042   6.286   5.677
10088SOL     OW31162   6.160   2.927   1.087
10088SOL    HW131163   6.242   2.975   1.117
10088SOL    HW231164   6.145   2.847   1.146
10089SOL     OW31165   3.632   1.222   1.703
10089SOL    HW131166   3.545   1.215   1.752
10089SOL    HW231167   3.684   1.300   1.738
10090SOL     OW31168   2.773   6.491   2.578
10090SOL    HW131169   2.788   6.426   2.652
10090SOL    HW231170   2.682   6.478   2.540
10091SOL     OW31171   6.566   4.369   5.595
10091SOL    HW131172   6.629   4.394   5.522
10091SOL    HW231173   6.617   4.333   5.673
10092SOL     OW31174   0.832   2.273   4.034
10092SOL    HW131175   0.853   2.245   4.128
10092SOL    HW231176   0.887   2.219   3.971
10093SOL     OW31177   4.924   4.827   6.556
10093SOL    HW131178   4.825   4.822   6.546
10093SOL    HW231179   4.963   4.876   6.478
10094SOL     OW31180   3.454   1.267   1.167
10094SOL    HW131181   3.494   1.280   1.258
10094SOL    HW231182   3.366   1.221   1.175
10095SOL     OW31183   4.512   2.699   5.583
10095SOL    HW131184   4.446   2.673   5.654
10095SOL    HW231185   4.463   2.723   5.499
10096SOL     OW31186   6.230   2.444   1.936
10096SOL    HW131187   6.177   2.522   1.967
10096SOL    HW231188   6.179   2.359   1.954
10097SOL     OW31189   0.487   1.301   0.227
10097SOL    HW131190   0.553   1.226   0.224
10097SOL    HW231191   0.412   1.276   0.288
10098SOL     OW31192   2.613   5.392   3.279
10098SOL    HW131193   2.577   5.318   3.335
10098SOL    HW231194   2.712   5.383   3.270
10099SOL     OW31195   0.384   5.131   2.026
10099SOL    HW131196   0.453   5.200   2.002
10099SOL    HW231197   0.349   5.089   1.942
10100SOL     OW31198   4.772   5.108   4.060
10100SOL    HW131199   4.717   5.036   4.019
10100SOL    HW231200   4.726   5.196   4.049
10101SOL     OW31201   0.201   3.278   1.134
10101SOL    HW131202   0.190   3.330   1.219
10101SOL    HW231203   0.115   3.279   1.083
10102SOL     OW31204   6.870   5.351   2.898
10102SOL    HW131205   6.891   5.444   2.869
10102SOL    HW231206   6.955   5.304   2.922
10103SOL     OW31207   6.923   6.009   6.355
10103SOL    HW131208   6.850   5.946   6.328
10103SOL    HW231209   6.979   5.966   6.426
10104SOL     OW31210   2.135   0.712   4.865
10104SOL    HW131211   2.078   0.794   4.854
10104SOL    HW231212   2.133   0.683   4.961
10105SOL     OW31213   3.156   0.982   4.963
10105SOL    HW131214   3.109   1.008   5.047
10105SOL    HW231215   3.090   0.957   4.893
10106SOL     OW31216   5.518   4.282   1.338
10106SOL    HW131217   5.566   4.203   1.377
10106SOL    HW231218   5.582   4.359   1.329
10107SOL     OW31219   5.383   5.048   0.159
10107SOL    HW131220   5.445   5.060   0.237
10107SOL    HW231221   5.435   5.056   0.074
10108SOL     OW31222   2.191   2.157   6.562
10108SOL    HW131223   2.266   2.095   6.537
10108SOL    HW231224   2.172   2.220   6.486
10109SOL     OW31225   1.027   2.377   1.392
10109SOL    HW131226   1.001   2.473   1.389
10109SOL    HW231227   0.966   2.328   1.455
10110SOL     OW31228   5.816   5.685   2.542
10110SOL    HW131229   5.786   5.780   2.542
10110SOL    HW231230   5.736   5.625   2.545
10111SOL     OW31231   0.762   2.264   1.515
10111SOL    HW131232   0.801   2.264   1.607
10111SOL    HW231233   0.694   2.337   1.508
10112SOL     OW31234   0.689   2.200   2.220
10112SOL    HW131235   0.711   2.199   2.122
10112SOL    HW231236   0.683   2.106   2.253
10113SOL     OW31237   6.973   0.717   6.414
10113SOL    HW131238   7.006   0.624   6.430
10113SOL    HW231239   6.945   0.727   6.319
10114SOL     OW31240   5.745   2.458   1.210
10114SOL    HW131241   5.839   2.430   1.227
10114SOL    HW231242   5.736   2.557   1.222
10115SOL     OW31243   3.369   2.853   5.897
10115SOL    HW131244   3.433   2.884   5.827
10115SOL    HW231245   3.396   2.762   5.929
10116SOL     OW31246   0.092   0.446   5.343
10116SOL    HW131247   7.017   0.437   5.351
10116SOL    HW231248   0.131   0.474   5.430
10117SOL     OW31249   6.244   5.113   3.851
10117SOL    HW131250   6.296   5.186   3.806
10117SOL    HW231251   6.147   5.132   3.843
10118SOL     OW31252   4.046   5.292   3.743
10118SOL    HW131253   4.033   5.302   3.645
10118SOL    HW231254   3.988   5.357   3.792
10119SOL     OW31255   6.634   6.046   6.015
10119SOL    HW131256   6.689   6.125   6.043
10119SOL    HW231257   6.653   6.024   5.920
10120SOL     OW31258   2.186   2.995   3.804
10120SOL    HW131259   2.164   3.076   3.859
10120SOL    HW231260   2.268   2.952   3.842
10121SOL     OW31261   6.560   4.882   0.639
10121SOL    HW131262   6.603   4.953   0.694
10121SOL    HW231263   6.611   4.869   0.554
10122SOL     OW31264   1.527   0.545   3.587
10122SOL    HW131265   1.520   0.493   3.672
10122SOL    HW231266   1.458   0.513   3.523
10123SOL     OW31267   6.939   5.009   6.521
10123SOL    HW131268   6.995   5.088   6.495
10123SOL    HW231269   6.970   4.975   6.610
10124SOL     OW31270   2.121   5.307   3.037
10124SOL    HW131271   2.207   5.343   3.073
10124SOL    HW231272   2.107   5.215   3.073
10125SOL     OW31273   1.731   0.590   4.904
10125SOL    HW131274   1.653   0.534   4.932
10125SOL    HW231275   1.816   0.545   4.930
10126SOL     OW31276   6.287   6.476   5.984
10126SOL    HW131277   6.287   6.510   6.078
10126SOL    HW231278   6.322   6.382   5.982
10127SOL     OW31279   2.908   6.804   5.289
10127SOL    HW131280   3.003   6.780   5.310
10127SOL    HW231281   2.892   6.900   5.309
10128SOL     OW31282   2.666   3.068   0.039
10128SOL    HW131283   2.575   3.038   0.010
10128SOL    HW231284   2.660   3.160   0.078
10129SOL     OW31285   6.069   1.648   4.384
10129SOL    HW131286   6.015   1.568   4.406
10129SOL    HW231287   6.164   1.621   4.367
10130SOL     OW31288   0.794   1.676   4.388
10130SOL    HW131289   0.775   1.708   4.296
10130SOL    HW231290   0.730   1.603   4.413
10131SOL     OW31291   2.177   6.697   4.289
10131SOL    HW131292   2.117   6.777   4.282
10131SOL    HW231293   2.130   6.617   4.252
10132SOL     OW31294   6.128   0.227   1.388
10132SOL    HW131295   6.058   0.294   1.364
10132SOL    HW231296   6.091   0.161   1.453
10133SOL     OW31297   5.181   6.318   0.876
10133SOL    HW131298   5.165   6.268   0.790
10133SOL    HW231299   5.242   6.395   0.859
10134SOL     OW31300   0.229   0.116   2.483
10134SOL    HW131301   0.294   0.192   2.488
10134SOL    HW231302   0.186   0.103   2.572
10135SOL     OW31303   5.970   0.948   3.205
10135SOL    HW131304   6.036   0.902   3.265
10135SOL    HW231305   5.935   1.030   3.250
10136SOL     OW31306   4.572   2.171   3.136
10136SOL    HW131307   4.668   2.145   3.132
10136SOL    HW231308   4.537   2.184   3.043
10137SOL     OW31309   6.626   4.946   5.181
10137SOL    HW131310   6.704   4.884   5.182
10137SOL    HW231311   6.544   4.897   5.151
10138SOL     OW31312   0.311   2.523   1.414
10138SOL    HW131313   0.244   2.596   1.427
10138SOL    HW231314   0.264   2.439   1.388
10139SOL     OW31315   2.717   2.929   6.665
10139SOL    HW131316   2.774   2.908   6.586
10139SOL    HW231317   2.624   2.950   6.635
10140SOL     OW31318   1.264   6.377   5.891
10140SOL    HW131319   1.346   6.428   5.865
10140SOL    HW231320   1.292   6.288   5.927
10141SOL     OW31321   1.837   2.349   4.255
10141SOL    HW131322   1.741   2.350   4.283
10141SOL    HW231323   1.861   2.439   4.217
10142SOL     OW31324   4.869   6.709   3.363
10142SOL    HW131325   4.859   6.735   3.459
10142SOL    HW231326   4.939   6.767   3.321
10143SOL     OW31327   5.388   3.159   6.413
10143SOL    HW131328   5.373   3.159   6.512
10143SOL    HW231329   5.330   3.228   6.370
10144SOL     OW31330   3.303   6.562   0.647
10144SOL    HW131331   3.211   6.568   0.608
10144SOL    HW231332   3.365   6.521   0.580
10145SOL     OW31333   5.578   0.126   6.172
10145SOL    HW131334   5.510   0.052   6.169
10145SOL    HW231335   5.555   0.195   6.104
10146SOL     OW31336   0.441   2.941   4.938
10146SOL    HW131337   0.482   2.991   4.861
10146SOL    HW231338   0.387   2.864   4.903
10147SOL     OW31339   4.156   5.975   5.487
10147SOL    HW131340   4.114   5.898   5.438
10147SOL    HW231341   4.255   5.963   5.488
10148SOL     OW31342   0.894   4.383   0.339
10148SOL    HW131343   0.935   4.292   0.334
10148SOL    HW231344   0.794   4.374   0.350
10149SOL     OW31345   4.263   3.376   1.059
10149SOL    HW131346   4.310   3.343   1.141
10149SOL    HW231347   4.197   3.307   1.028
10150SOL     OW31348   4.684   4.371   1.044
10150SOL    HW131349   4.650   4.437   1.110
10150SOL    HW231350   4.619   4.296   1.034
10151SOL     OW31351   6.221   0.500   6.102
10151SOL    HW131352   6.147   0.440   6.071
10151SOL    HW231353   6.187   0.563   6.172
10152SOL     OW31354   4.246   0.084   2.491
10152SOL    HW131355   4.199   0.054   2.573
10152SOL    HW231356   4.344   0.068   2.500
10153SOL     OW31357   4.823   4.506   2.217
10153SOL    HW131358   4.738   4.459   2.242
10153SOL    HW231359   4.803   4.577   2.150
10154SOL     OW31360   4.991   5.169   5.725
10154SOL    HW131361   4.911   5.180   5.666
10154SOL    HW231362   5.050   5.249   5.715
10155SOL     OW31363   4.503   1.905   4.487
10155SOL    HW131364   4.579   1.855   4.445
10155SOL    HW231365   4.422   1.846   4.489
10156SOL     OW31366   3.878   1.617   0.224
10156SOL    HW131367   3.805   1.644   0.161
10156SOL    HW231368   3.964   1.659   0.195
10157SOL     OW31369   0.482   4.360   1.765
10157SOL    HW131370   0.510   4.268   1.738
10157SOL    HW231371   0.470   4.416   1.683
10158SOL     OW31372   5.603   5.272   0.058
10158SOL    HW131373   5.562   5.309   6.999
10158SOL    HW231374   5.614   5.173   0.048
10159SOL     OW31375   3.275   3.045   2.151
10159SOL    HW131376   3.215   3.001   2.218
10159SOL    HW231377   3.221   3.075   2.073
10160SOL     OW31378   0.309   4.387   2.628
10160SOL    HW131379   0.290   4.441   2.710
10160SOL    HW231380   0.408   4.387   2.611
10161SOL     OW31381   5.408   3.261   5.115
10161SOL    HW131382   5.378   3.167   5.134
10161SOL    HW231383   5.499   3.276   5.155
10162SOL     OW31384   1.523   2.454   1.671
10162SOL    HW131385   1.510   2.493   1.762
10162SOL    HW231386   1.436   2.418   1.638
10163SOL     OW31387   2.870   5.432   4.849
10163SOL    HW131388   2.813   5.378   4.788
10163SOL    HW231389   2.819   5.451   4.934
10164SOL     OW31390   0.702   1.582   3.658
10164SOL    HW131391   0.616   1.582   3.607
10164SOL    HW231392   0.735   1.488   3.668
10165SOL     OW31393   0.566   3.608   4.084
10165SOL    HW131394   0.497   3.591   4.014
10165SOL    HW231395   0.608   3.521   4.113
10166SOL     OW31396   2.472   6.399   2.128
10166SOL    HW131397   2.544   6.348   2.082
10166SOL    HW231398   2.482   6.497   2.109
10167SOL     OW31399   2.072   1.704   6.855
10167SOL    HW131400   2.020   1.756   6.923
10167SOL    HW231401   2.113   1.624   6.898
10168SOL     OW31402   0.051   0.453   6.443
10168SOL    HW131403   0.085   0.475   6.534
10168SOL    HW231404   0.001   0.367   6.445
10169SOL     OW31405   5.188   4.465   3.878
10169SOL    HW131406   5.116   4.524   3.844
10169SOL    HW231407   5.245   4.514   3.944
10170SOL     OW31408   5.221   5.748   0.084
10170SOL    HW131409   5.260   5.679   0.146
10170SOL    HW231410   5.263   5.738   7.018
10171SOL     OW31411   2.108   4.948   5.096
10171SOL    HW131412   2.159   4.873   5.138
10171SOL    HW231413   2.013   4.945   5.126
10172SOL     OW31414   6.664   0.720   2.967
10172SOL    HW131415   6.734   0.765   2.911
10172SOL    HW231416   6.648   0.628   2.933
10173SOL     OW31417   3.491   3.342   4.529
10173SOL    HW131418   3.477   3.441   4.525
10173SOL    HW231419   3.484   3.303   4.438
10174SOL     OW31420   4.543   5.018   1.263
10174SOL    HW131421   4.482   5.034   1.341
10174SOL    HW231422   4.598   4.937   1.279
10175SOL     OW31423   0.223   0.236   4.369
10175SOL    HW131424   0.290   0.224   4.442
10175SOL    HW231425   0.259   0.299   4.300
10176SOL     OW31426   6.776   0.975   4.733
10176SOL    HW131427   6.801   1.070   4.715
10176SOL    HW231428   6.729   0.968   4.821
10177SOL     OW31429   2.763   1.083   3.648
10177SOL    HW131430   2.715   1.136   3.578
10177SOL    HW231431   2.717   1.095   3.736
10178SOL     OW31432   0.487   1.631   1.148
10178SOL    HW131433   0.543   1.583   1.081
10178SOL    HW231434   0.390   1.624   1.121
10179SOL     OW31435   1.253   4.332   6.984
10179SOL    HW131436   1.244   4.392   0.039
10179SOL    HW231437   1.349   4.330   6.954
10180SOL     OW31438   3.886   6.647   5.973
10180SOL    HW131439   3.815   6.580   5.952
10180SOL    HW231440   3.844   6.729   6.012
10181SOL     OW31441   5.849   3.252   2.871
10181SOL    HW131442   5.832   3.155   2.884
10181SOL    HW231443   5.880   3.268   2.777
10182SOL     OW31444   4.271   0.856   1.531
10182SOL    HW131445   4.328   0.869   1.612
10182SOL    HW231446   4.198   0.925   1.530
10183SOL     OW31447   5.545   0.957   5.346
10183SOL    HW131448   5.560   0.866   5.307
10183SOL    HW231449   5.572   0.956   5.443
10184SOL     OW31450   5.116   1.896   5.851
10184SOL    HW131451   5.215   1.882   5.852
10184SOL    HW231452   5.088   1.947   5.932
10185SOL     OW31453   3.577   5.548   1.112
10185SOL    HW131454   3.495   5.601   1.091
10185SOL    HW231455   3.624   5.525   1.026
10186SOL     OW31456   3.459   3.280   6.448
10186SOL    HW131457   3.419   3.199   6.490
10186SOL    HW231458   3.542   3.254   6.399
10187SOL     OW31459   2.155   4.761   5.351
10187SOL    HW131460   2.234   4.734   5.405
10187SOL    HW231461   2.120   4.849   5.384
10188SOL     OW31462   3.101   0.035   6.214
10188SOL    HW131463   3.119   7.020   6.124
10188SOL    HW231464   3.111   0.134   6.209
10189SOL     OW31465   1.894   1.898   5.524
10189SOL    HW131466   1.961   1.954   5.572
10189SOL    HW231467   1.941   1.836   5.461
10190SOL     OW31468   4.370   4.667   1.040
10190SOL    HW131469   4.430   4.731   0.993
10190SOL    HW231470   4.422   4.615   1.107
10191SOL     OW31471   5.198   6.849   6.904
10191SOL    HW131472   5.119   6.788   6.912
10191SOL    HW231473   5.171   6.942   6.929
10192SOL     OW31474   1.547   1.399   4.336
10192SOL    HW131475   1.460   1.350   4.350
10192SOL    HW231476   1.542   1.451   4.251
10193SOL     OW31477   3.709   3.207   3.947
10193SOL    HW131478   3.806   3.222   3.925
10193SOL    HW231479   3.663   3.164   3.870
10194SOL     OW31480   2.766   0.395   2.798
10194SOL    HW131481   2.860   0.426   2.783
10194SOL    HW231482   2.711   0.471   2.832
10195SOL     OW31483   5.110   6.701   2.807
10195SOL    HW131484   5.013   6.722   2.796
10195SOL    HW231485   5.134   6.701   2.904
10196SOL     OW31486   5.983   3.059   4.440
10196SOL    HW131487   5.893   3.047   4.398
10196SOL    HW231488   5.975   3.044   4.539
10197SOL     OW31489   5.431   1.327   2.493
10197SOL    HW131490   5.399   1.239   2.526
10197SOL    HW231491   5.522   1.346   2.531
10198SOL     OW31492   2.301   0.098   0.813
10198SOL    HW131493   2.377   0.151   0.774
10198SOL    HW231494   2.266   0.034   0.745
10199SOL     OW31495   0.969   1.650   0.665
10199SOL    HW131496   0.918   1.706   0.730
10199SOL    HW231497   1.066   1.657   0.685
10200SOL     OW31498   5.894   4.565   5.771
10200SOL    HW131499   5.830   4.587   5.845
10200SOL    HW231500   5.866   4.480   5.726
10201SOL     OW31501   1.829   5.256   2.982
10201SOL    HW131502   1.914   5.255   3.035
10201SOL    HW231503   1.850   5.236   2.886
10202SOL     OW31504   0.852   2.587   2.420
10202SOL    HW131505   0.941   2.631   2.434
10202SOL    HW231506   0.862   2.488   2.421
10203SOL     OW31507   0.853   3.274   1.959
10203SOL    HW131508   0.892   3.361   1.927
10203SOL    HW231509   0.819   3.222   1.880
10204SOL     OW31510   3.393   5.167   4.083
10204SOL    HW131511   3.492   5.159   4.067
10204SOL    HW231512   3.347   5.086   4.046
10205SOL     OW31513   4.402   1.336   2.680
10205SOL    HW131514   4.366   1.281   2.755
10205SOL    HW231515   4.500   1.320   2.671
10206SOL     OW31516   4.791   0.309   6.234
10206SOL    HW131517   4.835   0.279   6.150
10206SOL    HW231518   4.748   0.399   6.219
10207SOL     OW31519   4.159   1.220   2.839
10207SOL    HW131520   4.102   1.288   2.793
10207SOL    HW231521   4.103   1.165   2.900
10208SOL     OW31522   5.678   3.683   5.314
10208SOL    HW131523   5.647   3.765   5.266
10208SOL    HW231524   5.652   3.690   5.411
10209SOL     OW31525   5.448   6.962   6.907
10209SOL    HW131526   5.360   6.914   6.911
10209SOL    HW231527   5.490   6.948   6.817
10210SOL     OW31528   4.823   5.833   1.798
10210SOL    HW131529   4.846   5.748   1.750
10210SOL    HW231530   4.900   5.859   1.856
10211SOL     OW31531   3.473   6.133   5.184
10211SOL    HW131532   3.426   6.059   5.136
10211SOL    HW231533   3.459   6.123   5.282
10212SOL     OW31534   6.395   6.275   5.048
10212SOL    HW131535   6.301   6.310   5.049
10212SOL    HW231536   6.443   6.310   4.967
10213SOL     OW31537   5.452   0.519   3.616
10213SOL    HW131538   5.497   0.536   3.529
10213SOL    HW231539   5.489   0.580   3.686
10214SOL     OW31540   6.935   0.050   1.965
10214SOL    HW131541   6.849   0.001   1.949
10214SOL    HW231542   7.011   7.009   1.963
10215SOL     OW31543   3.609   2.591   0.125
10215SOL    HW131544   3.691   2.622   0.077
10215SOL    HW231545   3.625   2.593   0.224
10216SOL     OW31546   5.093   0.556   2.164
10216SOL    HW131547   5.076   0.461   2.138
10216SOL    HW231548   5.048   0.575   2.252
10217SOL     OW31549   3.027   1.716   5.563
10217SOL    HW131550   3.052   1.808   5.593
10217SOL    HW231551   2.979   1.722   5.475
10218SOL     OW31552   2.196   2.556   0.918
10218SOL    HW131553   2.232   2.558   0.824
10218SOL    HW231554   2.265   2.593   0.981
10219SOL     OW31555   1.069   3.972   0.688
10219SOL    HW131556   0.979   3.968   0.645
10219SOL    HW231557   1.081   3.894   0.749
10220SOL     OW31558   4.119   2.027   1.165
10220SOL    HW131559   4.155   1.936   1.145
10220SOL    HW231560   4.167   2.094   1.108
10221SOL     OW31561   3.265   0.689   5.143
10221SOL    HW131562   3.182   0.681   5.088
10221SOL    HW231563   3.285   0.786   5.160
10222SOL     OW31564   1.872   5.279   6.058
10222SOL    HW131565   1.903   5.200   6.005
10222SOL    HW231566   1.784   5.310   6.022
10223SOL     OW31567   6.511   4.582   0.147
10223SOL    HW131568   6.597   4.612   0.105
10223SOL    HW231569   6.436   4.641   0.116
10224SOL     OW31570   2.264   6.691   4.579
10224SOL    HW131571   2.211   6.772   4.605
10224SOL    HW231572   2.248   6.670   4.482
10225SOL     OW31573   5.617   5.977   4.598
10225SOL    HW131574   5.518   5.972   4.594
10225SOL    HW231575   5.651   6.041   4.529
10226SOL     OW31576   6.937   2.334   0.760
10226SOL    HW131577   6.946   2.328   0.661
10226SOL    HW231578   6.842   2.317   0.786
10227SOL     OW31579   5.442   5.942   6.501
10227SOL    HW131580   5.374   5.930   6.574
10227SOL    HW231581   5.499   5.860   6.496
10228SOL     OW31582   0.511   3.639   3.020
10228SOL    HW131583   0.586   3.685   2.972
10228SOL    HW231584   0.434   3.702   3.030
10229SOL     OW31585   1.948   0.746   2.017
10229SOL    HW131586   1.900   0.734   1.930
10229SOL    HW231587   2.041   0.777   1.999
10230SOL     OW31588   6.565   6.481   4.452
10230SOL    HW131589   6.557   6.403   4.513
10230SOL    HW231590   6.607   6.452   4.366
10231SOL     OW31591   4.559   6.480   4.288
10231SOL    HW131592   4.488   6.479   4.358
10231SOL    HW231593   4.523   6.441   4.203
10232SOL     OW31594   3.857   2.047   4.568
10232SOL    HW131595   3.861   1.948   4.575
10232SOL    HW231596   3.832   2.074   4.475
10233SOL     OW31597   4.545   1.030   5.557
10233SOL    HW131598   4.488   0.980   5.622
10233SOL    HW231599   4.620   0.972   5.527
10234SOL     OW31600   5.691   6.395   1.564
10234SOL    HW131601   5.649   6.409   1.474
10234SOL    HW231602   5.650   6.316   1.608
10235SOL     OW31603   5.223   1.621   6.279
10235SOL    HW131604   5.267   1.643   6.192
10235SOL    HW231605   5.125   1.610   6.265
10236SOL     OW31606   2.528   6.109   2.690
10236SOL    HW131607   2.592   6.035   2.671
10236SOL    HW231608   2.570   6.174   2.753
10237SOL     OW31609   0.247   2.620   3.377
10237SOL    HW131610   0.176   2.591   3.313
10237SOL    HW231611   0.319   2.551   3.380
10238SOL     OW31612   4.674   4.783   4.348
10238SOL    HW131613   4.768   4.758   4.327
10238SOL    HW231614   4.611   4.726   4.295
10239SOL     OW31615   0.010   4.038   3.907
10239SOL    HW131616   6.972   3.973   3.864
10239SOL    HW231617   7.000   4.131   3.895
10240SOL     OW31618   6.643   3.689   3.932
10240SOL    HW131619   6.549   3.669   3.902
10240SOL    HW231620   6.652   3.669   4.029
10241SOL     OW31621   2.167   1.196   3.382
10241SOL    HW131622   2.090   1.254   3.354
10241SOL    HW231623   2.141   1.100   3.372
10242SOL     OW31624   0.476   6.301   6.186
10242SOL    HW131625   0.433   6.381   6.146
10242SOL    HW231626   0.576   6.310   6.180
10243SOL     OW31627   0.757   5.695   2.495
10243SOL    HW131628   0.694   5.766   2.464
10243SOL    HW231629   0.850   5.731   2.497
10244SOL     OW31630   1.943   6.325   6.770
10244SOL    HW131631   1.894   6.244   6.739
10244SOL    HW231632   1.926   6.340   6.867
10245SOL     OW31633   1.969   2.469   6.812
10245SOL    HW131634   1.911   2.417   6.874
10245SOL    HW231635   2.052   2.416   6.793
10246SOL     OW31636   4.117   3.589   4.337
10246SOL    HW131637   4.130   3.559   4.242
10246SOL    HW231638   4.099   3.687   4.339
10247SOL     OW31639   1.428   5.713   5.507
10247SOL    HW131640   1.451   5.703   5.604
10247SOL    HW231641   1.373   5.634   5.478
10248SOL     OW31642   4.546   0.423   2.377
10248SOL    HW131643   4.547   0.503   2.318
10248SOL    HW231644   4.640   0.395   2.396
10249SOL     OW31645   3.611   1.258   0.145
10249SOL    HW131646   3.646   1.312   0.068
10249SOL    HW231647   3.513   1.241   0.132
10250SOL     OW31648   6.835   0.281   6.982
10250SOL    HW131649   6.872   0.222   0.029
10250SOL    HW231650   6.852   0.376   7.005
10251SOL     OW31651   3.716   4.553   6.739
10251SOL    HW131652   3.788   4.507   6.687
10251SOL    HW231653   3.757   4.614   6.806
10252SOL     OW31654   6.311   5.205   1.996
10252SOL    HW131655   6.229   5.193   2.051
10252SOL    HW231656   6.306   5.293   1.947
10253SOL     OW31657   3.533   4.840   6.565
10253SOL    HW131658   3.501   4.756   6.608
10253SOL    HW231659   3.531   4.829   6.465
10254SOL     OW31660   2.318   1.935   4.551
10254SOL    HW131661   2.347   1.845   4.584
10254SOL    HW231662   2.345   1.945   4.455
10255SOL     OW31663   2.947   5.748   3.269
10255SOL    HW131664   2.893   5.823   3.307
10255SOL    HW231665   2.986   5.695   3.344
10256SOL     OW31666   5.718   6.041   6.906
10256SOL    HW131667   5.787   5.980   6.944
10256SOL    HW231668   5.639   6.044   6.967
10257SOL     OW31669   1.682   6.442   6.244
10257SOL    HW131670   1.655   6.535   6.270
10257SOL    HW231671   1.611   6.401   6.188
10258SOL     OW31672   4.033   1.196   3.309
10258SOL    HW131673   4.055   1.099   3.315
10258SOL    HW231674   4.118   1.249   3.302
10259SOL     OW31675   0.743   3.469   3.317
10259SOL    HW131676   0.710   3.482   3.224
10259SOL    HW231677   0.843   3.473   3.318
10260SOL     OW31678   0.078   6.876   1.246
10260SOL    HW131679   0.076   6.838   1.339
10260SOL    HW231680   0.173   6.894   1.220
10261SOL     OW31681   2.033   6.654   1.347
10261SOL    HW131682   1.948   6.603   1.362
10261SOL    HW231683   2.076   6.673   1.435
10262SOL     OW31684   2.261   5.197   5.053
10262SOL    HW131685   2.279   5.256   4.975
10262SOL    HW231686   2.218   5.112   5.022
10263SOL     OW31687   5.851   1.950   6.166
10263SOL    HW131688   5.865   2.036   6.117
10263SOL    HW231689   5.756   1.946   6.197
10264SOL     OW31690   0.458   6.749   0.035
10264SOL    HW131691   0.368   6.779   0.068
10264SOL    HW231692   0.525   6.756   0.108
10265SOL     OW31693   4.442   1.741   2.565
10265SOL    HW131694   4.516   1.680   2.595
10265SOL    HW231695   4.481   1.830   2.541
10266SOL     OW31696   3.756   4.247   6.099
10266SOL    HW131697   3.766   4.190   6.181
10266SOL    HW231698   3.822   4.323   6.104
10267SOL     OW31699   6.059   1.895   6.343
10267SOL    HW131700   5.983   1.924   6.285
10267SOL    HW231701   6.141   1.881   6.288
10268SOL     OW31702   6.328   4.856   1.679
10268SOL    HW131703   6.317   4.905   1.593
10268SOL    HW231704   6.292   4.763   1.669
10269SOL     OW31705   2.718   2.837   6.078
10269SOL    HW131706   2.792   2.770   6.089
10269SOL    HW231707   2.706   2.888   6.163
10270SOL     OW31708   2.468   6.147   0.954
10270SOL    HW131709   2.485   6.075   0.886
10270SOL    HW231710   2.456   6.235   0.908
10271SOL     OW31711   4.048   5.245   0.868
10271SOL    HW131712   4.083   5.337   0.850
10271SOL    HW231713   3.957   5.252   0.911
10272SOL     OW31714   1.034   0.772   6.108
10272SOL    HW131715   1.055   0.793   6.204
10272SOL    HW231716   0.961   0.705   6.104
10273SOL     OW31717   4.357   5.807   4.808
10273SOL    HW131718   4.281   5.809   4.872
10273SOL    HW231719   4.324   5.829   4.716
10274SOL     OW31720   2.004   6.209   5.798
10274SOL    HW131721   2.028   6.306   5.794
10274SOL    HW231722   2.049   6.166   5.876
10275SOL     OW31723   0.889   6.235   2.068
10275SOL    HW131724   0.931   6.272   2.151
10275SOL    HW231725   0.895   6.303   1.994
10276SOL     OW31726   6.746   6.226   6.341
10276SOL    HW131727   6.773   6.307   6.392
10276SOL    HW231728   6.796   6.147   6.375
10277SOL     OW31729   1.807   5.560   3.390
10277SOL    HW131730   1.710   5.548   3.411
10277SOL    HW231731   1.833   5.496   3.318
10278SOL     OW31732   5.938   0.662   5.786
10278SOL    HW131733   5.910   0.734   5.850
10278SOL    HW231734   6.037   0.668   5.770
10279SOL     OW31735   3.397   6.432   3.544
10279SOL    HW131736   3.326   6.362   3.554
10279SOL    HW231737   3.439   6.424   3.453
10280SOL     OW31738   2.759   3.337   6.653
10280SOL    HW131739   2.769   3.436   6.639
10280SOL    HW231740   2.848   3.298   6.678
10281SOL     OW31741   4.212   6.746   3.618
10281SOL    HW131742   4.197   6.800   3.701
10281SOL    HW231743   4.287   6.786   3.565
10282SOL     OW31744   0.996   2.669   4.887
10282SOL    HW131745   1.095   2.652   4.884
10282SOL    HW231746   0.958   2.628   4.969
10283SOL     OW31747   0.896   3.383   6.026
10283SOL    HW131748   0.833   3.457   6.052
10283SOL    HW231749   0.847   3.296   6.024
10284SOL     OW31750   5.382   3.898   6.515
10284SOL    HW131751   5.404   3.814   6.566
10284SOL    HW231752   5.439   3.973   6.547
10285SOL     OW31753   5.777   0.222   0.598
10285SOL    HW131754   5.718   0.237   0.518
10285SOL    HW231755   5.722   0.223   0.681
10286SOL     OW31756   4.682   1.032   3.803
10286SOL    HW131757   4.730   1.006   3.886
10286SOL    HW231758   4.585   1.014   3.813
10287SOL     OW31759   2.657   5.792   1.823
10287SOL    HW131760   2.619   5.736   1.896
10287SOL    HW231761   2.746   5.754   1.795
10288SOL     OW31762   4.650   6.051   4.193
10288SOL    HW131763   4.594   6.048   4.276
10288SOL    HW231764   4.747   6.055   4.219
10289SOL     OW31765   3.068   1.506   1.681
10289SOL    HW131766   3.023   1.595   1.682
10289SOL    HW231767   3.161   1.515   1.645
10290SOL     OW31768   3.149   3.764   2.273
10290SOL    HW131769   3.075   3.698   2.286
10290SOL    HW231770   3.145   3.800   2.180
10291SOL     OW31771   3.440   0.153   6.173
10291SOL    HW131772   3.479   0.109   6.092
10291SOL    HW231773   3.433   0.087   6.247
10292SOL     OW31774   0.089   1.275   3.989
10292SOL    HW131775   0.008   1.271   4.047
10292SOL    HW231776   0.141   1.191   3.998
10293SOL     OW31777   2.692   5.941   3.080
10293SOL    HW131778   2.775   5.964   3.028
10293SOL    HW231779   2.648   6.025   3.111
10294SOL     OW31780   5.847   1.444   3.558
10294SOL    HW131781   5.903   1.523   3.530
10294SOL    HW231782   5.773   1.431   3.493
10295SOL     OW31783   1.030   5.152   5.532
10295SOL    HW131784   0.955   5.086   5.530
10295SOL    HW231785   1.112   5.111   5.492
10296SOL     OW31786   6.191   2.012   0.751
10296SOL    HW131787   6.139   1.930   0.771
10296SOL    HW231788   6.129   2.090   0.743
10297SOL     OW31789   2.032   5.305   4.176
10297SOL    HW131790   2.065   5.387   4.223
10297SOL    HW231791   1.971   5.333   4.102
10298SOL     OW31792   5.526   3.147   3.745
10298SOL    HW131793   5.545   3.062   3.794
10298SOL    HW231794   5.601   3.166   3.681
10299SOL     OW31795   4.833   4.923   2.297
10299SOL    HW131796   4.734   4.935   2.289
10299SOL    HW231797   4.876   5.011   2.319
10300SOL     OW31798   2.035   4.898   2.927
10300SOL    HW131799   2.065   4.970   2.865
10300SOL    HW231800   1.943   4.868   2.902
10301SOL     OW31801   5.747   1.641   1.673
10301SOL    HW131802   5.807   1.562   1.678
10301SOL    HW231803   5.798   1.721   1.640
10302SOL     OW31804   1.954   5.384   3.246
10302SOL    HW131805   2.029   5.380   3.180
10302SOL    HW231806   1.947   5.296   3.293
10303SOL     OW31807   3.516   2.988   0.846
10303SOL    HW131808   3.418   2.983   0.829
10303SOL    HW231809   3.537   2.948   0.935
10304SOL     OW31810   6.033   6.737   3.647
10304SOL    HW131811   6.038   6.834   3.671
10304SOL    HW231812   5.937   6.712   3.630
10305SOL     OW31813   1.845   5.943   1.211
10305SOL    HW131814   1.767   5.979   1.161
10305SOL    HW231815   1.869   6.006   1.285
10306SOL     OW31816   4.326   5.392   0.283
10306SOL    HW131817   4.256   5.322   0.275
10306SOL    HW231818   4.397   5.377   0.215
10307SOL     OW31819   2.527   1.159   5.252
10307SOL    HW131820   2.440   1.132   5.293
10307SOL    HW231821   2.556   1.247   5.291
10308SOL     OW31822   3.232   5.611   3.679
10308SOL    HW131823   3.224   5.702   3.720
10308SOL    HW231824   3.149   5.559   3.698
10309SOL     OW31825   0.563   6.449   3.427
10309SOL    HW131826   0.651   6.496   3.420
10309SOL    HW231827   0.575   6.363   3.477
10310SOL     OW31828   3.979   3.101   3.835
10310SOL    HW131829   3.998   3.092   3.932
10310SOL    HW231830   3.911   3.034   3.807
10311SOL     OW31831   6.899   6.228   0.400
10311SOL    HW131832   6.832   6.228   0.326
10311SOL    HW231833   6.984   6.186   0.367
10312SOL     OW31834   1.745   4.790   1.168
10312SOL    HW131835   1.747   4.818   1.072
10312SOL    HW231836   1.763   4.692   1.175
10313SOL     OW31837   5.624   5.959   3.259
10313SOL    HW131838   5.546   5.913   3.301
10313SOL    HW231839   5.608   6.058   3.256
10314SOL     OW31840   6.350   5.584   6.619
10314SOL    HW131841   6.426   5.648   6.625
10314SOL    HW231842   6.290   5.612   6.543
10315SOL     OW31843   6.271   5.918   4.612
10315SOL    HW131844   6.362   5.878   4.622
10315SOL    HW231845   6.271   6.011   4.647
10316SOL     OW31846   6.988   3.988   2.592
10316SOL    HW131847   6.974   4.073   2.643
10316SOL    HW231848   0.057   3.956   2.604
10317SOL     OW31849   3.493   4.780   1.187
10317SOL    HW131850   3.469   4.690   1.150
10317SOL    HW231851   3.410   4.831   1.210
10318SOL     OW31852   6.427   5.748   2.065
10318SOL    HW131853   6.497   5.717   2.001
10318SOL    HW231854   6.363   5.809   2.018
10319SOL     OW31855   4.979   6.599   4.519
10319SOL    HW131856   4.979   6.675   4.454
10319SOL    HW231857   4.924   6.524   4.482
10320SOL     OW31858   4.351   6.786   0.865
10320SOL    HW131859   4.299   6.852   0.918
10320SOL    HW231860   4.290   6.716   0.827
10321SOL     OW31861   4.120   6.468   4.323
10321SOL    HW131862   4.133   6.499   4.229
10321SOL    HW231863   4.023   6.467   4.346
10322SOL     OW31864   6.716   2.459   6.932
10322SOL    HW131865   6.643   2.391   6.934
10322SOL    HW231866   6.677   2.551   6.923
10323SOL     OW31867   5.940   2.374   5.066
10323SOL    HW131868   5.934   2.418   5.156
10323SOL    HW231869   5.850   2.342   5.039
10324SOL     OW31870   2.909   3.459   3.657
10324SOL    HW131871   3.004   3.489   3.659
10324SOL    HW231872   2.882   3.425   3.747
10325SOL     OW31873   0.999   3.791   3.665
10325SOL    HW131874   0.951   3.737   3.734
10325SOL    HW231875   0.949   3.877   3.649
10326SOL     OW31876   4.702   1.553   1.611
10326SOL    HW131877   4.763   1.475   1.597
10326SOL    HW231878   4.723   1.624   1.543
10327SOL     OW31879   0.446   1.007   3.806
10327SOL    HW131880   0.529   1.060   3.821
10327SOL    HW231881   0.466   0.927   3.749
10328SOL     OW31882   5.944   3.002   2.127
10328SOL    HW131883   5.860   3.013   2.181
10328SOL    HW231884   5.922   2.955   2.041
10329SOL     OW31885   4.049   6.156   2.041
10329SOL    HW131886   4.017   6.194   1.954
10329SOL    HW231887   3.970   6.141   2.101
10330SOL     OW31888   3.826   4.696   1.187
10330SOL    HW131889   3.901   4.713   1.250
10330SOL    HW231890   3.859   4.642   1.109
10331SOL     OW31891   5.578   0.638   4.564
10331SOL    HW131892   5.613   0.715   4.511
10331SOL    HW231893   5.507   0.670   4.627
10332SOL     OW31894   0.110   1.995   6.799
10332SOL    HW131895   0.137   1.900   6.815
10332SOL    HW231896   0.120   2.047   6.884
10333SOL     OW31897   4.860   4.079   4.660
10333SOL    HW131898   4.841   3.981   4.654
10333SOL    HW231899   4.793   4.122   4.721
10334SOL     OW31900   0.991   4.886   4.943
10334SOL    HW131901   0.911   4.946   4.950
10334SOL    HW231902   1.068   4.927   4.991
10335SOL     OW31903   1.854   5.330   1.937
10335SOL    HW131904   1.878   5.327   2.034
10335SOL    HW231905   1.792   5.406   1.921
10336SOL     OW31906   4.564   6.912   2.731
10336SOL    HW131907   4.625   6.991   2.744
10336SOL    HW231908   4.545   6.869   2.819
10337SOL     OW31909   0.766   5.061   4.962
10337SOL    HW131910   0.677   5.089   4.997
10337SOL    HW231911   0.837   5.122   4.998
10338SOL     OW31912   3.723   4.881   3.257
10338SOL    HW131913   3.785   4.868   3.179
10338SOL    HW231914   3.769   4.851   3.341
10339SOL     OW31915   3.128   5.470   0.801
10339SOL    HW131916   3.114   5.391   0.860
10339SOL    HW231917   3.208   5.521   0.832
10340SOL     OW31918   1.691   6.660   6.859
10340SOL    HW131919   1.763   6.601   6.824
10340SOL    HW231920   1.693   6.658   6.959
10341SOL     OW31921   1.472   1.337   2.671
10341SOL    HW131922   1.495   1.259   2.612
10341SOL    HW231923   1.540   1.409   2.660
10342SOL     OW31924   2.623   6.993   4.403
10342SOL    HW131925   2.642   0.037   4.474
10342SOL    HW231926   2.708   6.948   4.377
10343SOL     OW31927   2.105   2.633   4.044
10343SOL    HW131928   2.122   2.629   4.142
10343SOL    HW231929   2.183   2.674   3.998
10344SOL     OW31930   4.182   3.837   6.976
10344SOL    HW131931   4.100   3.819   0.006
10344SOL    HW231932   4.263   3.808   0.003
10345SOL     OW31933   1.366   1.755   5.986
10345SOL    HW131934   1.410   1.708   6.062
10345SOL    HW231935   1.435   1.804   5.932
10346SOL     OW31936   5.278   5.573   0.320
10346SOL    HW131937   5.180   5.578   0.340
10346SOL    HW231938   5.301   5.482   0.284
10347SOL     OW31939   4.939   1.864   1.712
10347SOL    HW131940   5.003   1.804   1.761
10347SOL    HW231941   4.870   1.899   1.776
10348SOL     OW31942   6.972   5.006   5.958
10348SOL    HW131943   6.900   4.954   5.913
10348SOL    HW231944   6.973   4.984   6.056
10349SOL     OW31945   6.898   1.526   0.814
10349SOL    HW131946   6.963   1.530   0.738
10349SOL    HW231947   6.932   1.461   0.883
10350SOL     OW31948   2.205   4.545   4.533
10350SOL    HW131949   2.280   4.595   4.490
10350SOL    HW231950   2.200   4.570   4.630
10351SOL     OW31951   4.567   4.597   4.826
10351SOL    HW131952   4.473   4.581   4.856
10351SOL    HW231953   4.569   4.608   4.727
10352SOL     OW31954   5.152   1.489   6.846
10352SOL    HW131955   5.080   1.558   6.861
10352SOL    HW231956   5.110   1.401   6.825
10353SOL     OW31957   6.616   3.151   3.424
10353SOL    HW131958   6.711   3.179   3.418
10353SOL    HW231959   6.579   3.134   3.333
10354SOL     OW31960   6.140   3.085   0.862
10354SOL    HW131961   6.153   3.034   0.946
10354SOL    HW231962   6.208   3.057   0.794
10355SOL     OW31963   0.275   1.528   1.021
10355SOL    HW131964   0.292   1.520   0.922
10355SOL    HW231965   0.181   1.499   1.041
10356SOL     OW31966   5.791   3.265   5.880
10356SOL    HW131967   5.797   3.359   5.912
10356SOL    HW231968   5.698   3.247   5.848
10357SOL     OW31969   0.727   1.126   5.878
10357SOL    HW131970   0.713   1.041   5.928
10357SOL    HW231971   0.638   1.160   5.845
10358SOL     OW31972   0.536   2.038   2.744
10358SOL    HW131973   0.595   2.028   2.664
10358SOL    HW231974   0.592   2.037   2.827
10359SOL     OW31975   6.057   2.243   1.983
10359SOL    HW131976   6.000   2.238   1.902
10359SOL    HW231977   6.003   2.276   2.061
10360SOL     OW31978   5.967   4.435   1.861
10360SOL    HW131979   5.877   4.455   1.823
10360SOL    HW231980   6.038   4.454   1.793
10361SOL     OW31981   7.001   1.461   2.588
10361SOL    HW131982   7.021   1.547   2.542
10361SOL    HW231983   0.011   1.465   2.682
10362SOL     OW31984   0.951   5.735   1.402
10362SOL    HW131985   0.869   5.698   1.444
10362SOL    HW231986   0.926   5.791   1.323
10363SOL     OW31987   5.357   4.489   6.601
10363SOL    HW131988   5.308   4.448   6.524
10363SOL    HW231989   5.368   4.587   6.586
10364SOL     OW31990   6.203   4.714   2.540
10364SOL    HW131991   6.174   4.618   2.544
10364SOL    HW231992   6.273   4.731   2.609
10365SOL     OW31993   5.548   5.334   0.589
10365SOL    HW131994   5.578   5.428   0.606
10365SOL    HW231995   5.489   5.332   0.509
10366SOL     OW31996   2.869   6.272   3.064
10366SOL    HW131997   2.872   6.210   2.986
10366SOL    HW231998   2.811   6.234   3.135
10367SOL     OW31999   6.104   6.547   1.854
10367SOL    HW132000   6.169   6.532   1.779
10367SOL    HW232001   6.016   6.576   1.816
10368SOL     OW32002   1.965   6.457   1.724
10368SOL    HW132003   1.928   6.549   1.715
10368SOL    HW232004   1.902   6.391   1.683
10369SOL     OW32005   3.041   6.760   5.969
10369SOL    HW132006   2.947   6.789   5.988
10369SOL    HW232007   3.093   6.755   6.054
10370SOL     OW32008   1.337   0.718   5.937
10370SOL    HW132009   1.250   0.765   5.953
10370SOL    HW232010   1.368   0.735   5.844
10371SOL     OW32011   4.694   5.135   3.065
10371SOL    HW132012   4.713   5.055   3.008
10371SOL    HW232013   4.649   5.205   3.010
10372SOL     OW32014   2.875   6.328   1.728
10372SOL    HW132015   2.920   6.239   1.721
10372SOL    HW232016   2.940   6.396   1.761
10373SOL     OW32017   7.016   1.297   6.125
10373SOL    HW132018   0.053   1.217   6.125
10373SOL    HW232019   6.991   1.319   6.219
10374SOL     OW32020   3.890   5.497   3.375
10374SOL    HW132021   3.821   5.518   3.444
10374SOL    HW232022   3.975   5.544   3.399
10375SOL     OW32023   2.359   4.724   0.259
10375SOL    HW132024   2.280   4.710   0.319
10375SOL    HW232025   2.443   4.707   0.311
10376SOL     OW32026   2.197   5.059   3.354
10376SOL    HW132027   2.279   5.004   3.371
10376SOL    HW232028   2.177   5.115   3.435
10377SOL     OW32029   1.863   1.042   2.186
10377SOL    HW132030   1.946   1.092   2.208
10377SOL    HW232031   1.887   0.957   2.138
10378SOL     OW32032   0.095   5.290   4.113
10378SOL    HW132033   0.033   5.284   4.192
10378SOL    HW232034   0.042   5.295   4.029
10379SOL     OW32035   2.119   6.327   4.203
10379SOL    HW132036   2.050   6.398   4.187
10379SOL    HW232037   2.087   6.262   4.271
10380SOL     OW32038   2.492   2.311   4.359
10380SOL    HW132039   2.553   2.237   4.329
10380SOL    HW232040   2.491   2.383   4.290
10381SOL     OW32041   4.301   6.098   2.095
10381SOL    HW132042   4.324   6.010   2.052
10381SOL    HW232043   4.205   6.119   2.079
10382SOL     OW32044   4.168   5.814   1.825
10382SOL    HW132045   4.125   5.896   1.788
10382SOL    HW232046   4.247   5.839   1.881
10383SOL     OW32047   1.500   4.534   0.226
10383SOL    HW132048   1.495   4.530   0.326
10383SOL    HW232049   1.527   4.626   0.197
10384SOL     OW32050   5.783   6.602   1.770
10384SOL    HW132051   5.761   6.537   1.697
10384SOL    HW232052   5.755   6.694   1.743
10385SOL     OW32053   4.639   4.656   6.852
10385SOL    HW132054   4.609   4.744   6.890
10385SOL    HW232055   4.738   4.647   6.865
10386SOL     OW32056   0.005   0.884   0.683
10386SOL    HW132057   6.956   0.884   0.750
10386SOL    HW232058   6.995   0.852   0.595
10387SOL     OW32059   5.063   3.439   1.981
10387SOL    HW132060   5.161   3.448   2.000
10387SOL    HW232061   5.035   3.345   2.000
10388SOL     OW32062   2.560   0.245   5.125
10388SOL    HW132063   2.480   0.190   5.146
10388SOL    HW232064   2.578   0.309   5.200
10389SOL     OW32065   0.551   3.758   0.614
10389SOL    HW132066   0.540   3.729   0.518
10389SOL    HW232067   0.475   3.817   0.640
10390SOL     OW32068   2.330   2.342   1.580
10390SOL    HW132069   2.237   2.317   1.608
10390SOL    HW232070   2.396   2.293   1.637
10391SOL     OW32071   5.426   0.017   4.262
10391SOL    HW132072   5.382   0.051   4.345
10391SOL    HW232073   5.514   0.064   4.249
10392SOL     OW32074   6.655   4.201   4.015
10392SOL    HW132075   6.661   4.178   3.917
10392SOL    HW232076   6.695   4.127   4.068
10393SOL     OW32077   1.472   3.723   3.754
10393SOL    HW132078   1.379   3.728   3.789
10393SOL    HW232079   1.518   3.643   3.793
10394SOL     OW32080   3.537   6.305   4.389
10394SOL    HW132081   3.470   6.337   4.321
10394SOL    HW232082   3.529   6.361   4.471
10395SOL     OW32083   0.904   0.878   0.877
10395SOL    HW132084   0.915   0.962   0.823
10395SOL    HW232085   0.982   0.817   0.860
10396SOL     OW32086   2.798   2.267   4.599
10396SOL    HW132087   2.830   2.233   4.510
10396SOL    HW232088   2.747   2.352   4.586
10397SOL     OW32089   3.370   2.120   2.755
10397SOL    HW132090   3.469   2.110   2.761
10397SOL    HW232091   3.332   2.138   2.846
10398SOL     OW32092   6.608   2.533   1.504
10398SOL    HW132093   6.636   2.615   1.454
10398SOL    HW232094   6.680   2.464   1.497
10399SOL     OW32095   6.211   3.573   1.907
10399SOL    HW132096   6.190   3.653   1.964
10399SOL    HW232097   6.166   3.492   1.944
10400SOL     OW32098   4.060   6.579   0.115
10400SOL    HW132099   4.144   6.631   0.132
10400SOL    HW232100   4.019   6.553   0.203
10401SOL     OW32101   0.148   1.134   5.445
10401SOL    HW132102   0.154   1.218   5.499
10401SOL    HW232103   0.216   1.137   5.372
10402SOL     OW32104   6.686   2.845   4.391
10402SOL    HW132105   6.605   2.903   4.393
10402SOL    HW232106   6.703   2.815   4.297
10403SOL     OW32107   2.545   0.567   2.876
10403SOL    HW132108   2.533   0.623   2.794
10403SOL    HW232109   2.540   0.625   2.957
10404SOL     OW32110   0.200   6.714   6.726
10404SOL    HW132111   0.246   6.779   6.666
10404SOL    HW232112   0.108   6.695   6.690
10405SOL     OW32113   0.071   0.939   5.952
10405SOL    HW132114   0.037   0.958   6.044
10405SOL    HW232115   0.064   1.021   5.896
10406SOL     OW32116   3.040   4.898   1.707
10406SOL    HW132117   3.131   4.861   1.723
10406SOL    HW232118   2.976   4.823   1.690
10407SOL     OW32119   3.153   0.004   0.325
10407SOL    HW132120   3.161   6.955   0.392
10407SOL    HW232121   3.226   0.071   0.339
10408SOL     OW32122   4.278   0.534   1.016
10408SOL    HW132123   4.267   0.450   0.962
10408SOL    HW232124   4.363   0.530   1.068
10409SOL     OW32125   5.726   5.054   1.346
10409SOL    HW132126   5.732   5.147   1.382
10409SOL    HW232127   5.780   5.047   1.262
10410SOL     OW32128   5.768   0.920   0.688
10410SOL    HW132129   5.732   0.985   0.622
10410SOL    HW232130   5.766   0.962   0.779
10411SOL     OW32131   2.822   5.168   3.317
10411SOL    HW132132   2.922   5.158   3.318
10411SOL    HW232133   2.781   5.084   3.281
10412SOL     OW32134   6.295   0.359   0.443
10412SOL    HW132135   6.282   0.285   0.376
10412SOL    HW232136   6.231   0.347   0.519
10413SOL     OW32137   5.566   2.404   0.713
10413SOL    HW132138   5.516   2.466   0.653
10413SOL    HW232139   5.550   2.309   0.684
10414SOL     OW32140   4.802   2.602   4.227
10414SOL    HW132141   4.740   2.612   4.305
10414SOL    HW232142   4.810   2.505   4.204
10415SOL     OW32143   0.780   6.189   6.443
10415SOL    HW132144   0.852   6.149   6.499
10415SOL    HW232145   0.698   6.133   6.449
10416SOL     OW32146   5.918   3.116   4.879
10416SOL    HW132147   5.860   3.128   4.798
10416SOL    HW232148   5.864   3.082   4.955
10417SOL     OW32149   2.412   4.999   4.104
10417SOL    HW132150   2.402   5.054   4.186
10417SOL    HW232151   2.324   4.993   4.056
10418SOL     OW32152   0.825   4.390   5.496
10418SOL    HW132153   0.908   4.339   5.476
10418SOL    HW232154   0.842   4.455   5.571
10419SOL     OW32155   1.216   1.279   0.734
10419SOL    HW132156   1.120   1.304   0.720
10419SOL    HW232157   1.246   1.310   0.824
10420SOL     OW32158   6.860   2.894   2.891
10420SOL    HW132159   6.892   2.989   2.893
10420SOL    HW232160   6.768   2.889   2.930
10421SOL     OW32161   1.085   0.755   3.415
10421SOL    HW132162   1.029   0.838   3.418
10421SOL    HW232163   1.036   0.684   3.364
10422SOL     OW32164   6.082   2.793   6.073
10422SOL    HW132165   6.042   2.763   6.160
10422SOL    HW232166   6.131   2.879   6.087
10423SOL     OW32167   4.542   4.422   3.779
10423SOL    HW132168   4.537   4.323   3.772
10423SOL    HW232169   4.571   4.461   3.692
10424SOL     OW32170   5.049   1.696   6.606
10424SOL    HW132171   5.054   1.680   6.704
10424SOL    HW232172   4.966   1.653   6.569
10425SOL     OW32173   1.294   5.811   2.507
10425SOL    HW132174   1.308   5.908   2.491
10425SOL    HW232175   1.271   5.795   2.603
10426SOL     OW32176   6.347   4.737   7.013
10426SOL    HW132177   6.402   4.804   6.962
10426SOL    HW232178   6.294   4.682   6.949
10427SOL     OW32179   5.270   2.226   0.383
10427SOL    HW132180   5.360   2.262   0.362
10427SOL    HW232181   5.200   2.295   0.363
10428SOL     OW32182   4.410   0.592   4.212
10428SOL    HW132183   4.493   0.599   4.156
10428SOL    HW232184   4.420   0.518   4.278
10429SOL     OW32185   7.015   5.906   1.730
10429SOL    HW132186   0.001   6.005   1.722
10429SOL    HW232187   0.080   5.862   1.717
10430SOL     OW32188   4.299   6.782   2.805
10430SOL    HW132189   4.383   6.754   2.852
10430SOL    HW232190   4.312   6.773   2.706
10431SOL     OW32191   2.720   0.502   4.537
10431SOL    HW132192   2.813   0.524   4.508
10431SOL    HW232193   2.715   0.502   4.637
10432SOL     OW32194   6.103   0.679   4.525
10432SOL    HW132195   6.030   0.612   4.538
10432SOL    HW232196   6.192   0.637   4.544
10433SOL     OW32197   1.784   6.840   1.428
10433SOL    HW132198   1.780   6.797   1.338
10433SOL    HW232199   1.843   6.921   1.424
10434SOL     OW32200   2.649   0.311   3.874
10434SOL    HW132201   2.676   0.294   3.969
10434SOL    HW232202   2.731   0.322   3.818
10435SOL     OW32203   5.685   6.487   6.085
10435SOL    HW132204   5.699   6.509   5.988
10435SOL    HW232205   5.773   6.465   6.128
10436SOL     OW32206   1.613   4.791   4.138
10436SOL    HW132207   1.584   4.849   4.062
10436SOL    HW232208   1.713   4.780   4.135
10437SOL     OW32209   6.531   5.190   5.642
10437SOL    HW132210   6.535   5.111   5.581
10437SOL    HW232211   6.569   5.165   5.731
10438SOL     OW32212   4.776   6.942   0.397
10438SOL    HW132213   4.700   6.992   0.355
10438SOL    HW232214   4.825   6.890   0.327
10439SOL     OW32215   3.561   7.015   5.941
10439SOL    HW132216   3.624   0.010   5.866
10439SOL    HW232217   3.479   6.970   5.905
10440SOL     OW32218   1.819   6.445   1.416
10440SOL    HW132219   1.889   6.392   1.368
10440SOL    HW232220   1.765   6.497   1.349
10441SOL     OW32221   5.378   2.377   6.559
10441SOL    HW132222   5.417   2.375   6.467
10441SOL    HW232223   5.448   2.347   6.625
10442SOL     OW32224   3.831   4.850   5.653
10442SOL    HW132225   3.794   4.762   5.681
10442SOL    HW232226   3.766   4.922   5.674
10443SOL     OW32227   5.816   3.604   5.096
10443SOL    HW132228   5.907   3.644   5.104
10443SOL    HW232229   5.766   3.617   5.182
10444SOL     OW32230   3.720   5.301   5.091
10444SOL    HW132231   3.750   5.367   5.160
10444SOL    HW232232   3.690   5.349   5.009
10445SOL     OW32233   6.839   6.425   4.659
10445SOL    HW132234   6.825   6.443   4.756
10445SOL    HW232235   6.769   6.361   4.627
10446SOL     OW32236   1.405   5.125   5.685
10446SOL    HW132237   1.393   5.065   5.764
10446SOL    HW232238   1.502   5.139   5.667
10447SOL     OW32239   5.982   2.144   0.862
10447SOL    HW132240   5.892   2.107   0.882
10447SOL    HW232241   5.974   2.216   0.792
10448SOL     OW32242   3.803   3.850   2.105
10448SOL    HW132243   3.850   3.914   2.045
10448SOL    HW232244   3.847   3.761   2.100
10449SOL     OW32245   2.721   5.290   4.331
10449SOL    HW132246   2.735   5.201   4.289
10449SOL    HW232247   2.809   5.336   4.344
10450SOL     OW32248   6.788   1.999   0.633
10450SOL    HW132249   6.860   1.965   0.572
10450SOL    HW232250   6.723   1.925   0.650
10451SOL     OW32251   2.542   4.617   3.186
10451SOL    HW132252   2.531   4.558   3.266
10451SOL    HW232253   2.512   4.568   3.104
10452SOL     OW32254   0.936   2.962   3.560
10452SOL    HW132255   0.956   2.897   3.634
10452SOL    HW232256   0.857   3.017   3.585
10453SOL     OW32257   4.918   6.110   1.718
10453SOL    HW132258   4.880   6.047   1.785
10453SOL    HW232259   4.843   6.157   1.670
10454SOL     OW32260   5.215   3.018   1.882
10454SOL    HW132261   5.196   2.930   1.837
10454SOL    HW232262   5.253   3.082   1.815
10455SOL     OW32263   6.942   5.033   3.802
10455SOL    HW132264   0.015   5.011   3.801
10455SOL    HW232265   6.913   5.046   3.897
10456SOL     OW32266   4.673   6.130   0.938
10456SOL    HW132267   4.712   6.171   0.855
10456SOL    HW232268   4.722   6.163   1.018
10457SOL     OW32269   4.120   3.749   3.455
10457SOL    HW132270   4.133   3.651   3.469
10457SOL    HW232271   4.050   3.783   3.518
10458SOL     OW32272   1.001   6.793   0.936
10458SOL    HW132273   0.967   6.709   0.894
10458SOL    HW232274   0.926   6.859   0.946
10459SOL     OW32275   6.334   5.215   2.964
10459SOL    HW132276   6.382   5.213   3.052
10459SOL    HW232277   6.349   5.304   2.921
10460SOL     OW32278   2.311   5.112   2.018
10460SOL    HW132279   2.313   5.142   1.923
10460SOL    HW232280   2.365   5.176   2.074
10461SOL     OW32281   2.874   0.820   6.853
10461SOL    HW132282   2.932   0.900   6.863
10461SOL    HW232283   2.849   0.809   6.757
10462SOL     OW32284   6.329   0.676   0.816
10462SOL    HW132285   6.240   0.631   0.823
10462SOL    HW232286   6.385   0.651   0.895
10463SOL     OW32287   2.957   5.068   0.400
10463SOL    HW132288   2.980   5.105   0.490
10463SOL    HW232289   3.005   5.120   0.329
10464SOL     OW32290   5.816   0.520   0.983
10464SOL    HW132291   5.728   0.546   0.943
10464SOL    HW232292   5.807   0.432   1.029
10465SOL     OW32293   6.585   5.113   5.976
10465SOL    HW132294   6.546   5.045   6.038
10465SOL    HW232295   6.638   5.180   6.029
10466SOL     OW32296   4.897   6.265   5.916
10466SOL    HW132297   4.926   6.178   5.956
10466SOL    HW232298   4.955   6.338   5.952
10467SOL     OW32299   2.810   1.050   5.339
10467SOL    HW132300   2.738   1.093   5.285
10467SOL    HW232301   2.768   0.994   5.411
10468SOL     OW32302   3.233   6.599   3.691
10468SOL    HW132303   3.254   6.544   3.772
10468SOL    HW232304   3.277   6.558   3.611
10469SOL     OW32305   1.320   4.918   0.531
10469SOL    HW132306   1.267   4.867   0.464
10469SOL    HW232307   1.280   4.907   0.621
10470SOL     OW32308   2.663   1.620   4.272
10470SOL    HW132309   2.593   1.687   4.295
10470SOL    HW232310   2.683   1.563   4.352
10471SOL     OW32311   3.084   3.473   0.769
10471SOL    HW132312   3.133   3.436   0.690
10471SOL    HW232313   3.069   3.401   0.836
10472SOL     OW32314   4.073   1.304   2.128
10472SOL    HW132315   4.133   1.304   2.048
10472SOL    HW232316   3.980   1.279   2.101
10473SOL     OW32317   4.885   6.000   0.303
10473SOL    HW132318   4.826   5.996   0.222
10473SOL    HW232319   4.840   6.053   0.375
10474SOL     OW32320   3.951   0.746   4.448
10474SOL    HW132321   3.988   0.750   4.540
10474SOL    HW232322   4.005   0.682   4.393
10475SOL     OW32323   4.069   0.087   1.588
10475SOL    HW132324   4.149   0.083   1.528
10475SOL    HW232325   4.087   0.152   1.662
10476SOL     OW32326   0.176   5.516   0.155
10476SOL    HW132327   0.264   5.535   0.110
10476SOL    HW232328   0.187   5.520   0.254
10477SOL     OW32329   5.084   4.160   5.213
10477SOL    HW132330   5.076   4.205   5.124
10477SOL    HW232331   5.001   4.108   5.231
10478SOL     OW32332   0.350   6.469   1.397
10478SOL    HW132333   0.356   6.439   1.302
10478SOL    HW232334   0.432   6.522   1.421
10479SOL     OW32335   1.326   3.904   3.243
10479SOL    HW132336   1.230   3.889   3.218
10479SOL    HW232337   1.356   3.831   3.304
10480SOL     OW32338   5.754   0.082   2.372
10480SOL    HW132339   5.755   0.182   2.377
10480SOL    HW232340   5.763   0.053   2.277
10481SOL     OW32341   2.132   0.651   5.123
10481SOL    HW132342   2.156   0.725   5.186
10481SOL    HW232343   2.071   0.586   5.168
10482SOL     OW32344   1.949   5.582   5.673
10482SOL    HW132345   1.897   5.507   5.633
10482SOL    HW232346   1.897   5.667   5.665
10483SOL     OW32347   0.205   5.095   0.001
10483SOL    HW132348   0.106   5.092   7.014
10483SOL    HW232349   0.228   5.114   0.096
10484SOL     OW32350   6.352   1.128   1.559
10484SOL    HW132351   6.359   1.051   1.495
10484SOL    HW232352   6.443   1.159   1.584
10485SOL     OW32353   3.708   4.054   2.902
10485SOL    HW132354   3.775   4.035   2.974
10485SOL    HW232355   3.745   4.027   2.814
10486SOL     OW32356   6.058   6.620   5.830
10486SOL    HW132357   6.108   6.581   5.907
10486SOL    HW232358   6.001   6.696   5.863
10487SOL     OW32359   4.643   2.623   1.810
10487SOL    HW132360   4.723   2.677   1.836
10487SOL    HW232361   4.659   2.582   1.720
10488SOL     OW32362   6.172   2.542   6.077
10488SOL    HW132363   6.145   2.500   6.164
10488SOL    HW232364   6.146   2.638   6.077
10489SOL     OW32365   6.169   4.531   5.097
10489SOL    HW132366   6.264   4.530   5.128
10489SOL    HW232367   6.112   4.574   5.166
10490SOL     OW32368   5.729   6.369   6.572
10490SOL    HW132369   5.814   6.341   6.527
10490SOL    HW232370   5.690   6.291   6.620
10491SOL     OW32371   2.062   2.575   6.133
10491SOL    HW132372   2.036   2.648   6.070
10491SOL    HW232373   2.050   2.487   6.087
10492SOL     OW32374   3.898   0.949   0.422
10492SOL    HW132375   3.970   0.880   0.437
10492SOL    HW232376   3.843   0.957   0.505
10493SOL     OW32377   4.747   6.148   0.520
10493SOL    HW132378   4.789   6.094   0.593
10493SOL    HW232379   4.770   6.244   0.532
10494SOL     OW32380   1.039   4.655   5.366
10494SOL    HW132381   1.035   4.586   5.438
10494SOL    HW232382   0.959   4.715   5.372
10495SOL     OW32383   0.189   6.338   0.648
10495SOL    HW132384   0.210   6.318   0.743
10495SOL    HW232385   0.108   6.396   0.643
10496SOL     OW32386   0.285   3.855   5.126
10496SOL    HW132387   0.312   3.889   5.036
10496SOL    HW232388   0.256   3.760   5.119
10497SOL     OW32389   2.022   0.111   1.326
10497SOL    HW132390   2.101   0.051   1.330
10497SOL    HW232391   2.050   0.206   1.341
10498SOL     OW32392   4.260   4.872   0.235
10498SOL    HW132393   4.321   4.822   0.175
10498SOL    HW232394   4.300   4.879   0.326
10499SOL     OW32395   6.050   4.964   2.524
10499SOL    HW132396   6.085   4.873   2.545
10499SOL    HW232397   5.969   4.983   2.580
10500SOL     OW32398   6.692   3.475   5.350
10500SOL    HW132399   6.607   3.474   5.297
10500SOL    HW232400   6.761   3.419   5.303
10501SOL     OW32401   3.367   4.992   2.550
10501SOL    HW132402   3.353   5.068   2.615
10501SOL    HW232403   3.298   4.921   2.567
10502SOL     OW32404   3.428   3.622   2.249
10502SOL    HW132405   3.392   3.706   2.291
10502SOL    HW232406   3.378   3.543   2.284
10503SOL     OW32407   6.441   2.413   6.284
10503SOL    HW132408   6.440   2.367   6.195
10503SOL    HW232409   6.350   2.449   6.304
10504SOL     OW32410   1.224   2.650   5.910
10504SOL    HW132411   1.316   2.619   5.933
10504SOL    HW232412   1.187   2.706   5.984
10505SOL     OW32413   5.831   6.521   0.984
10505SOL    HW132414   5.808   6.532   0.887
10505SOL    HW232415   5.816   6.607   1.032
10506SOL     OW32416   1.109   2.682   0.351
10506SOL    HW132417   1.046   2.739   0.403
10506SOL    HW232418   1.191   2.735   0.329
10507SOL     OW32419   1.101   5.261   6.342
10507SOL    HW132420   1.004   5.256   6.318
10507SOL    HW232421   1.154   5.212   6.273
10508SOL     OW32422   1.957   4.836   4.851
10508SOL    HW132423   1.898   4.818   4.930
10508SOL    HW232424   1.949   4.932   4.825
10509SOL     OW32425   4.669   2.754   3.728
10509SOL    HW132426   4.587   2.727   3.777
10509SOL    HW232427   4.711   2.832   3.775
10510SOL     OW32428   5.396   5.572   3.459
10510SOL    HW132429   5.436   5.654   3.500
10510SOL    HW232430   5.464   5.500   3.455
10511SOL     OW32431   4.563   2.406   1.950
10511SOL    HW132432   4.596   2.482   1.894
10511SOL    HW232433   4.586   2.423   2.046
10512SOL     OW32434   4.575   1.195   4.856
10512SOL    HW132435   4.665   1.209   4.898
10512SOL    HW232436   4.520   1.277   4.868
10513SOL     OW32437   4.940   3.626   0.871
10513SOL    HW132438   4.861   3.564   0.866
10513SOL    HW232439   5.024   3.574   0.857
10514SOL     OW32440   0.827   3.117   1.709
10514SOL    HW132441   0.749   3.170   1.677
10514SOL    HW232442   0.902   3.124   1.642
10515SOL     OW32443   2.281   2.887   4.876
10515SOL    HW132444   2.206   2.829   4.907
10515SOL    HW232445   2.297   2.960   4.943
10516SOL     OW32446   3.857   2.246   1.422
10516SOL    HW132447   3.897   2.155   1.429
10516SOL    HW232448   3.870   2.295   1.508
10517SOL     OW32449   1.326   2.459   2.981
10517SOL    HW132450   1.421   2.487   2.994
10517SOL    HW232451   1.323   2.361   2.959
10518SOL     OW32452   0.598   4.857   2.972
10518SOL    HW132453   0.523   4.807   3.015
10518SOL    HW232454   0.611   4.825   2.878
10519SOL     OW32455   3.743   6.532   1.263
10519SOL    HW132456   3.757   6.603   1.333
10519SOL    HW232457   3.759   6.442   1.304
10520SOL     OW32458   0.039   2.475   5.533
10520SOL    HW132459   7.007   2.527   5.597
10520SOL    HW232460   0.009   2.380   5.532
10521SOL     OW32461   6.974   3.076   1.987
10521SOL    HW132462   7.001   3.172   1.985
10521SOL    HW232463   6.941   3.053   2.079
10522SOL     OW32464   5.064   2.744   3.397
10522SOL    HW132465   5.137   2.770   3.459
10522SOL    HW232466   5.021   2.659   3.429
10523SOL     OW32467   0.249   4.486   3.237
10523SOL    HW132468   0.156   4.462   3.263
10523SOL    HW232469   0.311   4.469   3.313
10524SOL     OW32470   0.245   6.420   4.989
10524SOL    HW132471   0.343   6.399   4.989
10524SOL    HW232472   0.225   6.486   4.917
10525SOL     OW32473   4.912   1.561   4.032
10525SOL    HW132474   4.869   1.622   3.964
10525SOL    HW232475   4.993   1.519   3.992
10526SOL     OW32476   1.334   5.172   0.453
10526SOL    HW132477   1.344   5.077   0.484
10526SOL    HW232478   1.412   5.196   0.396
10527SOL     OW32479   0.900   0.013   4.647
10527SOL    HW132480   0.904   6.939   4.664
10527SOL    HW232481   0.949   0.061   4.720
10528SOL     OW32482   1.587   3.924   5.635
10528SOL    HW132483   1.517   3.878   5.580
10528SOL    HW232484   1.625   3.859   5.701
10529SOL     OW32485   0.714   5.967   0.972
10529SOL    HW132486   0.665   6.047   1.005
10529SOL    HW232487   0.784   5.995   0.906
10530SOL     OW32488   0.241   5.339   0.672
10530SOL    HW132489   0.306   5.410   0.700
10530SOL    HW232490   0.292   5.257   0.647
10531SOL     OW32491   2.879   3.307   5.229
10531SOL    HW132492   2.924   3.228   5.270
10531SOL    HW232493   2.784   3.310   5.257
10532SOL     OW32494   5.356   6.391   6.843
10532SOL    HW132495   5.382   6.487   6.856
10532SOL    HW232496   5.364   6.367   6.746
10533SOL     OW32497   3.857   6.252   3.105
10533SOL    HW132498   3.895   6.331   3.154
10533SOL    HW232499   3.884   6.255   3.009
10534SOL     OW32500   1.504   6.001   3.930
10534SOL    HW132501   1.549   5.986   3.842
10534SOL    HW232502   1.566   6.048   3.992
10535SOL     OW32503   3.475   2.077   2.478
10535SOL    HW132504   3.455   2.138   2.555
10535SOL    HW232505   3.409   2.093   2.405
10536SOL     OW32506   5.809   1.712   4.171
10536SOL    HW132507   5.861   1.789   4.207
10536SOL    HW232508   5.867   1.656   4.112
10537SOL     OW32509   3.861   0.004   3.953
10537SOL    HW132510   3.862   0.079   4.020
10537SOL    HW232511   3.826   0.038   3.866
10538SOL     OW32512   6.541   3.663   2.754
10538SOL    HW132513   6.627   3.615   2.769
10538SOL    HW232514   6.472   3.629   2.818
10539SOL     OW32515   6.761   0.295   2.942
10539SOL    HW132516   6.722   0.365   2.881
10539SOL    HW232517   6.727   0.310   3.035
10540SOL     OW32518   1.702   3.455   5.721
10540SOL    HW132519   1.732   3.481   5.813
10540SOL    HW232520   1.775   3.471   5.656
10541SOL     OW32521   3.492   3.124   5.415
10541SOL    HW132522   3.486   3.208   5.361
10541SOL    HW232523   3.404   3.109   5.461
10542SOL     OW32524   4.970   6.996   4.567
10542SOL    HW132525   4.947   6.966   4.659
10542SOL    HW232526   4.903   0.039   4.536
10543SOL     OW32527   0.758   3.543   4.941
10543SOL    HW132528   0.753   3.600   5.023
10543SOL    HW232529   0.713   3.455   4.959
10544SOL     OW32530   2.012   1.476   2.912
10544SOL    HW132531   2.089   1.530   2.877
10544SOL    HW232532   2.024   1.461   3.010
10545SOL     OW32533   2.073   2.709   2.573
10545SOL    HW132534   2.155   2.750   2.534
10545SOL    HW232535   2.056   2.620   2.530
10546SOL     OW32536   2.801   6.713   0.059
10546SOL    HW132537   2.881   6.773   0.049
10546SOL    HW232538   2.732   6.760   0.113
10547SOL     OW32539   4.455   0.372   4.376
10547SOL    HW132540   4.520   0.374   4.452
10547SOL    HW232541   4.416   0.280   4.367
10548SOL     OW32542   0.132   5.244   3.775
10548SOL    HW132543   0.184   5.257   3.691
10548SOL    HW232544   0.129   5.147   3.798
10549SOL     OW32545   6.495   0.672   1.036
10549SOL    HW132546   6.452   0.631   1.116
10549SOL    HW232547   6.499   0.772   1.047
10550SOL     OW32548   5.147   5.668   3.479
10550SOL    HW132549   5.142   5.661   3.579
10550SOL    HW232550   5.234   5.631   3.447
10551SOL     OW32551   2.308   2.063   6.009
10551SOL    HW132552   2.340   1.969   6.024
10551SOL    HW232553   2.332   2.119   6.088
10552SOL     OW32554   2.587   1.375   4.576
10552SOL    HW132555   2.571   1.283   4.613
10552SOL    HW232556   2.593   1.440   4.651
10553SOL     OW32557   0.067   5.041   0.667
10553SOL    HW132558   7.017   5.104   0.649
10553SOL    HW232559   0.032   4.962   0.717
10554SOL     OW32560   6.349   5.819   1.700
10554SOL    HW132561   6.394   5.876   1.769
10554SOL    HW232562   6.252   5.841   1.696
10555SOL     OW32563   3.886   2.884   0.826
10555SOL    HW132564   3.828   2.903   0.905
10555SOL    HW232565   3.856   2.939   0.748
10556SOL     OW32566   2.207   1.878   2.814
10556SOL    HW132567   2.237   1.947   2.880
10556SOL    HW232568   2.151   1.922   2.744
10557SOL     OW32569   2.407   4.524   3.722
10557SOL    HW132570   2.393   4.530   3.820
10557SOL    HW232571   2.334   4.470   3.681
10558SOL     OW32572   3.192   5.302   4.598
10558SOL    HW132573   3.114   5.247   4.626
10558SOL    HW232574   3.209   5.290   4.500
10559SOL     OW32575   4.256   6.665   0.310
10559SOL    HW132576   4.356   6.665   0.300
10559SOL    HW232577   4.232   6.705   0.398
10560SOL     OW32578   5.618   0.082   2.613
10560SOL    HW132579   5.678   0.092   2.534
10560SOL    HW232580   5.674   0.071   2.695
10561SOL     OW32581   6.124   4.721   0.163
10561SOL    HW132582   6.222   4.704   0.161
10561SOL    HW232583   6.095   4.756   0.074
10562SOL     OW32584   4.260   5.985   2.800
10562SOL    HW132585   4.346   5.992   2.850
10562SOL    HW232586   4.197   6.056   2.832
10563SOL     OW32587   0.400   0.416   1.622
10563SOL    HW132588   0.367   0.334   1.669
10563SOL    HW232589   0.428   0.392   1.529
10564SOL     OW32590   5.580   4.742   3.833
10564SOL    HW132591   5.534   4.678   3.771
10564SOL    HW232592   5.653   4.694   3.882
10565SOL     OW32593   0.998   0.280   5.898
10565SOL    HW132594   0.915   0.224   5.895
10565SOL    HW232595   1.041   0.280   5.808
10566SOL     OW32596   3.120   3.031   0.206
10566SOL    HW132597   3.088   3.000   0.296
10566SOL    HW232598   3.061   3.105   0.174
10567SOL     OW32599   1.481   2.364   6.616
10567SOL    HW132600   1.382   2.359   6.601
10567SOL    HW232601   1.520   2.272   6.610
10568SOL     OW32602   4.779   2.404   5.854
10568SOL    HW132603   4.757   2.481   5.794
10568SOL    HW232604   4.872   2.373   5.835
10569SOL     OW32605   5.738   6.644   0.418
10569SOL    HW132606   5.729   6.689   0.507
10569SOL    HW232607   5.648   6.618   0.384
10570SOL     OW32608   1.019   4.650   3.289
10570SOL    HW132609   0.978   4.563   3.316
10570SOL    HW232610   1.003   4.665   3.191
10571SOL     OW32611   6.518   4.430   6.080
10571SOL    HW132612   6.444   4.367   6.058
10571SOL    HW232613   6.503   4.517   6.034
10572SOL     OW32614   5.780   4.508   0.823
10572SOL    HW132615   5.807   4.419   0.788
10572SOL    HW232616   5.839   4.579   0.783
10573SOL     OW32617   5.615   1.827   3.479
10573SOL    HW132618   5.613   1.922   3.511
10573SOL    HW232619   5.632   1.766   3.557
10574SOL     OW32620   6.925   2.623   3.148
10574SOL    HW132621   7.011   2.674   3.151
10574SOL    HW232622   6.881   2.628   3.238
10575SOL     OW32623   6.470   0.408   1.596
10575SOL    HW132624   6.537   0.460   1.543
10575SOL    HW232625   6.459   0.317   1.554
10576SOL     OW32626   1.344   4.480   4.455
10576SOL    HW132627   1.436   4.505   4.425
10576SOL    HW232628   1.333   4.381   4.448
10577SOL     OW32629   4.358   4.827   0.486
10577SOL    HW132630   4.295   4.851   0.560
10577SOL    HW232631   4.391   4.733   0.499
10578SOL     OW32632   0.120   3.311   4.532
10578SOL    HW132633   0.034   3.305   4.582
10578SOL    HW232634   0.128   3.402   4.490
10579SOL     OW32635   1.107   3.658   6.803
10579SOL    HW132636   1.194   3.620   6.832
10579SOL    HW232637   1.063   3.596   6.739
10580SOL     OW32638   6.571   6.653   0.192
10580SOL    HW132639   6.528   6.683   0.277
10580SOL    HW232640   6.641   6.719   0.164
10581SOL     OW32641   5.476   0.003   3.174
10581SOL    HW132642   5.571   7.001   3.191
10581SOL    HW232643   5.449   6.996   3.083
10582SOL     OW32644   5.673   4.462   6.247
10582SOL    HW132645   5.685   4.381   6.191
10582SOL    HW232646   5.752   4.474   6.307
10583SOL     OW32647   3.043   1.067   5.185
10583SOL    HW132648   3.066   1.157   5.224
10583SOL    HW232649   2.959   1.033   5.226
10584SOL     OW32650   1.025   6.749   4.679
10584SOL    HW132651   1.089   6.719   4.750
10584SOL    HW232652   1.045   6.702   4.594
10585SOL     OW32653   0.690   6.872   5.212
10585SOL    HW132654   0.683   6.940   5.140
10585SOL    HW232655   0.670   6.914   5.300
10586SOL     OW32656   4.075   4.257   5.279
10586SOL    HW132657   4.074   4.264   5.379
10586SOL    HW232658   4.150   4.313   5.243
10587SOL     OW32659   2.431   5.229   5.302
10587SOL    HW132660   2.473   5.159   5.244
10587SOL    HW232661   2.407   5.308   5.247
10588SOL     OW32662   1.072   3.778   4.332
10588SOL    HW132663   1.029   3.766   4.242
10588SOL    HW232664   1.017   3.841   4.387
10589SOL     OW32665   5.270   6.237   3.990
10589SOL    HW132666   5.286   6.205   4.083
10589SOL    HW232667   5.171   6.239   3.972
10590SOL     OW32668   0.919   4.961   2.649
10590SOL    HW132669   1.018   4.957   2.666
10590SOL    HW232670   0.886   4.870   2.627
10591SOL     OW32671   6.721   2.239   1.489
10591SOL    HW132672   6.799   2.270   1.542
10591SOL    HW232673   6.653   2.197   1.550
10592SOL     OW32674   6.501   2.062   5.020
10592SOL    HW132675   6.461   1.990   4.963
10592SOL    HW232676   6.547   2.021   5.098
10593SOL     OW32677   3.263   5.357   2.958
10593SOL    HW132678   3.165   5.372   2.942
10593SOL    HW232679   3.305   5.441   2.991
10594SOL     OW32680   2.625   6.890   3.805
10594SOL    HW132681   2.657   6.967   3.750
10594SOL    HW232682   2.646   6.907   3.901
10595SOL     OW32683   5.900   6.837   0.035
10595SOL    HW132684   5.813   6.885   0.023
10595SOL    HW232685   5.932   6.850   0.129
10596SOL     OW32686   5.082   2.855   0.043
10596SOL    HW132687   5.116   2.761   0.046
10596SOL    HW232688   5.155   2.918   0.069
10597SOL     OW32689   2.354   0.880   5.403
10597SOL    HW132690   2.295   0.956   5.430
10597SOL    HW232691   2.344   0.805   5.468
10598SOL     OW32692   2.577   1.534   6.429
10598SOL    HW132693   2.589   1.444   6.470
10598SOL    HW232694   2.489   1.572   6.457
10599SOL     OW32695   6.933   2.568   6.717
10599SOL    HW132696   6.969   2.610   6.800
10599SOL    HW232697   6.862   2.502   6.741
10600SOL     OW32698   2.734   2.302   1.256
10600SOL    HW132699   2.775   2.254   1.334
10600SOL    HW232700   2.650   2.348   1.285
10601SOL     OW32701   1.316   0.162   6.032
10601SOL    HW132702   1.273   0.244   5.992
10601SOL    HW232703   1.276   0.144   6.122
10602SOL     OW32704   6.561   0.064   1.017
10602SOL    HW132705   6.462   0.051   1.021
10602SOL    HW232706   6.595   0.094   1.106
10603SOL     OW32707   5.183   0.606   2.979
10603SOL    HW132708   5.119   0.680   3.000
10603SOL    HW232709   5.189   0.544   3.057
10604SOL     OW32710   5.306   6.832   5.100
10604SOL    HW132711   5.345   6.740   5.094
10604SOL    HW232712   5.323   6.881   5.014
10605SOL     OW32713   2.334   1.986   1.134
10605SOL    HW132714   2.264   2.038   1.085
10605SOL    HW232715   2.422   2.033   1.127
10606SOL     OW32716   6.409   0.546   0.050
10606SOL    HW132717   6.438   0.599   6.994
10606SOL    HW232718   6.454   0.581   0.132
10607SOL     OW32719   2.627   4.648   6.808
10607SOL    HW132720   2.715   4.622   6.766
10607SOL    HW232721   2.640   4.659   6.906
10608SOL     OW32722   5.942   3.830   3.014
10608SOL    HW132723   5.869   3.767   2.985
10608SOL    HW232724   5.926   3.858   3.108
10609SOL     OW32725   4.173   1.421   6.700
10609SOL    HW132726   4.199   1.360   6.626
10609SOL    HW232727   4.135   1.505   6.663
10610SOL     OW32728   0.757   0.771   3.537
10610SOL    HW132729   0.717   0.734   3.453
10610SOL    HW232730   0.848   0.808   3.517
10611SOL     OW32731   3.447   5.530   4.424
10611SOL    HW132732   3.369   5.538   4.486
10611SOL    HW232733   3.532   5.528   4.478
10612SOL     OW32734   5.980   1.867   3.746
10612SOL    HW132735   6.040   1.840   3.822
10612SOL    HW232736   5.992   1.964   3.726
10613SOL     OW32737   4.452   6.089   4.643
10613SOL    HW132738   4.378   6.090   4.710
10613SOL    HW232739   4.446   6.170   4.585
10614SOL     OW32740   4.046   0.924   5.873
10614SOL    HW132741   3.949   0.934   5.892
10614SOL    HW232742   4.060   0.913   5.775
10615SOL     OW32743   1.517   1.308   5.875
10615SOL    HW132744   1.544   1.221   5.917
10615SOL    HW232745   1.538   1.307   5.778
10616SOL     OW32746   2.344   6.138   0.167
10616SOL    HW132747   2.385   6.208   0.108
10616SOL    HW232748   2.245   6.150   0.168
10617SOL     OW32749   2.430   3.316   1.411
10617SOL    HW132750   2.395   3.311   1.505
10617SOL    HW232751   2.358   3.290   1.347
10618SOL     OW32752   1.548   4.982   3.950
10618SOL    HW132753   1.448   4.980   3.946
10618SOL    HW232754   1.580   5.077   3.958
10619SOL     OW32755   1.625   2.376   2.809
10619SOL    HW132756   1.607   2.283   2.776
10619SOL    HW232757   1.712   2.378   2.858
10620SOL     OW32758   3.322   1.107   6.412
10620SOL    HW132759   3.283   1.027   6.458
10620SOL    HW232760   3.306   1.100   6.313
10621SOL     OW32761   0.359   3.551   3.259
10621SOL    HW132762   0.282   3.531   3.199
10621SOL    HW232763   0.428   3.602   3.208
10622SOL     OW32764   4.197   2.068   0.266
10622SOL    HW132765   4.132   2.048   0.193
10622SOL    HW232766   4.244   1.983   0.293
10623SOL     OW32767   5.135   6.411   6.009
10623SOL    HW132768   5.160   6.507   6.022
10623SOL    HW232769   5.172   6.378   5.923
10624SOL     OW32770   0.336   2.145   6.650
10624SOL    HW132771   0.427   2.105   6.651
10624SOL    HW232772   0.267   2.073   6.662
10625SOL     OW32773   5.686   4.637   0.127
10625SOL    HW132774   5.619   4.565   0.145
10625SOL    HW232775   5.702   4.689   0.211
10626SOL     OW32776   5.377   3.110   0.836
10626SOL    HW132777   5.465   3.101   0.883
10626SOL    HW232778   5.347   3.019   0.805
10627SOL     OW32779   5.855   5.502   6.046
10627SOL    HW132780   5.879   5.507   5.949
10627SOL    HW232781   5.765   5.544   6.060
10628SOL     OW32782   3.742   6.634   0.998
10628SOL    HW132783   3.746   6.594   1.089
10628SOL    HW232784   3.669   6.702   0.995
10629SOL     OW32785   3.165   5.358   4.037
10629SOL    HW132786   3.219   5.441   4.022
10629SOL    HW232787   3.221   5.290   4.085
10630SOL     OW32788   3.624   1.061   2.360
10630SOL    HW132789   3.616   1.135   2.426
10630SOL    HW232790   3.617   1.097   2.267
10631SOL     OW32791   4.354   6.162   6.800
10631SOL    HW132792   4.347   6.069   6.838
10631SOL    HW232793   4.307   6.226   6.860
10632SOL     OW32794   4.434   5.753   3.567
10632SOL    HW132795   4.420   5.812   3.487
10632SOL    HW232796   4.463   5.662   3.537
10633SOL     OW32797   1.055   3.196   1.593
10633SOL    HW132798   1.096   3.113   1.557
10633SOL    HW232799   1.108   3.229   1.671
10634SOL     OW32800   0.753   3.623   6.864
10634SOL    HW132801   0.829   3.596   6.804
10634SOL    HW232802   0.678   3.659   6.808
10635SOL     OW32803   2.324   4.365   5.930
10635SOL    HW132804   2.228   4.391   5.921
10635SOL    HW232805   2.382   4.435   5.889
10636SOL     OW32806   6.499   2.267   6.047
10636SOL    HW132807   6.479   2.312   5.960
10636SOL    HW232808   6.598   2.259   6.059
10637SOL     OW32809   3.142   0.995   0.196
10637SOL    HW132810   3.169   0.911   0.148
10637SOL    HW232811   3.059   1.031   0.154
10638SOL     OW32812   0.042   5.472   1.648
10638SOL    HW132813   0.011   5.522   1.728
10638SOL    HW232814   0.132   5.506   1.620
10639SOL     OW32815   1.639   4.279   1.657
10639SOL    HW132816   1.695   4.317   1.583
10639SOL    HW232817   1.555   4.333   1.665
10640SOL     OW32818   4.329   0.092   3.635
10640SOL    HW132819   4.285   0.141   3.711
10640SOL    HW232820   4.261   0.070   3.565
10641SOL     OW32821   1.648   1.343   3.727
10641SOL    HW132822   1.645   1.255   3.680
10641SOL    HW232823   1.555   1.374   3.747
10642SOL     OW32824   5.806   2.297   6.318
10642SOL    HW132825   5.804   2.384   6.269
10642SOL    HW232826   5.818   2.314   6.415
10643SOL     OW32827   1.710   5.051   5.280
10643SOL    HW132828   1.737   5.133   5.230
10643SOL    HW232829   1.707   5.072   5.378
10644SOL     OW32830   6.672   2.377   3.014
10644SOL    HW132831   6.670   2.461   2.960
10644SOL    HW232832   6.767   2.355   3.038
10645SOL     OW32833   2.618   2.405   3.611
10645SOL    HW132834   2.570   2.455   3.538
10645SOL    HW232835   2.594   2.445   3.700
10646SOL     OW32836   5.194   0.736   3.942
10646SOL    HW132837   5.137   0.779   4.012
10646SOL    HW232838   5.253   0.805   3.900
10647SOL     OW32839   3.601   5.008   4.854
10647SOL    HW132840   3.581   5.102   4.825
10647SOL    HW232841   3.534   4.979   4.922
10648SOL     OW32842   5.293   5.259   5.244
10648SOL    HW132843   5.259   5.204   5.320
10648SOL    HW232844   5.308   5.201   5.164
10649SOL     OW32845   6.393   3.015   3.288
10649SOL    HW132846   6.331   2.941   3.260
10649SOL    HW232847   6.416   3.004   3.384
10650SOL     OW32848   0.582   0.300   3.966
10650SOL    HW132849   0.613   0.215   3.924
10650SOL    HW232850   0.529   0.279   4.049
10651SOL     OW32851   4.135   6.259   6.037
10651SOL    HW132852   4.090   6.265   5.948
10651SOL    HW232853   4.207   6.190   6.034
10652SOL     OW32854   2.000   0.106   6.890
10652SOL    HW132855   2.026   0.061   6.976
10652SOL    HW232856   1.933   0.049   6.842
10653SOL     OW32857   4.061   5.606   4.210
10653SOL    HW132858   4.115   5.539   4.261
10653SOL    HW232859   3.993   5.647   4.270
10654SOL     OW32860   5.470   2.015   4.404
10654SOL    HW132861   5.454   1.969   4.491
10654SOL    HW232862   5.548   1.972   4.358
10655SOL     OW32863   0.603   4.918   1.242
10655SOL    HW132864   0.586   4.833   1.192
10655SOL    HW232865   0.592   4.901   1.340
10656SOL     OW32866   6.183   1.862   3.042
10656SOL    HW132867   6.222   1.855   2.950
10656SOL    HW232868   6.236   1.928   3.096
10657SOL     OW32869   5.249   6.585   4.483
10657SOL    HW132870   5.153   6.597   4.506
10657SOL    HW232871   5.282   6.498   4.520
10658SOL     OW32872   0.552   2.688   5.449
10658SOL    HW132873   0.461   2.691   5.490
10658SOL    HW232874   0.562   2.764   5.385
10659SOL     OW32875   0.968   5.366   0.565
10659SOL    HW132876   0.955   5.268   0.550
10659SOL    HW232877   0.985   5.411   0.478
10660SOL     OW32878   6.070   3.142   5.450
10660SOL    HW132879   6.159   3.185   5.468
10660SOL    HW232880   5.997   3.203   5.483
10661SOL     OW32881   1.814   4.526   5.732
10661SOL    HW132882   1.782   4.471   5.655
10661SOL    HW232883   1.748   4.599   5.750
10662SOL     OW32884   2.610   1.308   3.170
10662SOL    HW132885   2.538   1.356   3.120
10662SOL    HW232886   2.699   1.334   3.133
10663SOL     OW32887   1.795   1.729   4.207
10663SOL    HW132888   1.742   1.702   4.288
10663SOL    HW232889   1.878   1.777   4.236
10664SOL     OW32890   1.634   5.467   4.289
10664SOL    HW132891   1.559   5.401   4.294
10664SOL    HW232892   1.720   5.422   4.312
10665SOL     OW32893   1.914   2.747   5.941
10665SOL    HW132894   1.947   2.797   5.861
10665SOL    HW232895   1.831   2.697   5.918
10666SOL     OW32896   3.484   3.474   2.010
10666SOL    HW132897   3.455   3.530   1.932
10666SOL    HW232898   3.474   3.527   2.094
10667SOL     OW32899   5.625   2.083   3.546
10667SOL    HW132900   5.532   2.121   3.547
10667SOL    HW232901   5.660   2.077   3.639
10668SOL     OW32902   3.076   2.342   5.436
10668SOL    HW132903   2.983   2.307   5.424
10668SOL    HW232904   3.112   2.372   5.348
10669SOL     OW32905   6.178   1.625   1.252
10669SOL    HW132906   6.217   1.671   1.172
10669SOL    HW232907   6.248   1.569   1.295
10670SOL     OW32908   5.174   3.334   4.468
10670SOL    HW132909   5.166   3.428   4.437
10670SOL    HW232910   5.125   3.274   4.404
10671SOL     OW32911   1.186   3.200   3.966
10671SOL    HW132912   1.167   3.182   3.869
10671SOL    HW232913   1.284   3.196   3.982
10672SOL     OW32914   6.400   3.343   1.062
10672SOL    HW132915   6.343   3.424   1.045
10672SOL    HW232916   6.342   3.269   1.098
10673SOL     OW32917   2.308   0.809   0.963
10673SOL    HW132918   2.345   0.892   0.922
10673SOL    HW232919   2.282   0.827   1.058
10674SOL     OW32920   3.734   4.069   4.295
10674SOL    HW132921   3.715   4.029   4.385
10674SOL    HW232922   3.656   4.123   4.265
10675SOL     OW32923   3.857   6.956   5.634
10675SOL    HW132924   3.823   0.010   5.685
10675SOL    HW232925   3.956   6.952   5.639
10676SOL     OW32926   2.066   6.223   5.526
10676SOL    HW132927   2.043   6.217   5.623
10676SOL    HW232928   1.994   6.272   5.478
10677SOL     OW32929   0.221   1.130   0.921
10677SOL    HW132930   0.173   1.051   0.960
10677SOL    HW232931   0.196   1.140   0.824
10678SOL     OW32932   4.131   5.033   3.685
10678SOL    HW132933   4.108   5.125   3.717
10678SOL    HW232934   4.200   5.039   3.612
10679SOL     OW32935   3.999   3.592   6.818
10679SOL    HW132936   4.065   3.574   6.891
10679SOL    HW232937   3.994   3.512   6.757
10680SOL     OW32938   4.117   1.333   3.902
10680SOL    HW132939   4.200   1.307   3.852
10680SOL    HW232940   4.077   1.253   3.945
10681SOL     OW32941   0.977   3.092   6.143
10681SOL    HW132942   0.971   3.015   6.080
10681SOL    HW232943   0.892   3.144   6.141
10682SOL     OW32944   5.856   2.803   5.909
10682SOL    HW132945   5.938   2.776   5.959
10682SOL    HW232946   5.880   2.876   5.844
10683SOL     OW32947   3.756   0.157   3.722
10683SOL    HW132948   3.673   0.180   3.672
10683SOL    HW232949   3.824   0.228   3.709
10684SOL     OW32950   4.318   4.485   1.438
10684SOL    HW132951   4.299   4.514   1.532
10684SOL    HW232952   4.292   4.558   1.375
10685SOL     OW32953   0.968   6.296   1.728
10685SOL    HW132954   0.921   6.244   1.657
10685SOL    HW232955   0.902   6.353   1.777
10686SOL     OW32956   2.310   3.473   6.881
10686SOL    HW132957   2.240   3.474   6.809
10686SOL    HW232958   2.401   3.466   6.839
10687SOL     OW32959   0.710   4.527   3.077
10687SOL    HW132960   0.622   4.500   3.040
10687SOL    HW232961   0.769   4.447   3.085
10688SOL     OW32962   5.322   1.759   2.534
10688SOL    HW132963   5.351   1.800   2.621
10688SOL    HW232964   5.331   1.660   2.539
10689SOL     OW32965   0.240   6.752   2.358
10689SOL    HW132966   0.275   6.794   2.443
10689SOL    HW232967   0.202   6.823   2.299
10690SOL     OW32968   6.915   6.211   3.675
10690SOL    HW132969   6.933   6.221   3.577
10690SOL    HW232970   6.837   6.151   3.688
10691SOL     OW32971   3.178   1.433   2.902
10691SOL    HW132972   3.149   1.360   2.839
10691SOL    HW232973   3.274   1.420   2.926
10692SOL     OW32974   2.385   1.113   4.480
10692SOL    HW132975   2.309   1.049   4.491
10692SOL    HW232976   2.449   1.102   4.555
10693SOL     OW32977   1.696   5.934   0.669
10693SOL    HW132978   1.600   5.958   0.677
10693SOL    HW232979   1.707   5.867   0.595
10694SOL     OW32980   4.890   6.537   5.576
10694SOL    HW132981   4.872   6.454   5.629
10694SOL    HW232982   4.879   6.617   5.636
10695SOL     OW32983   6.993   3.636   1.434
10695SOL    HW132984   6.990   3.697   1.355
10695SOL    HW232985   6.995   3.541   1.401
10696SOL     OW32986   0.072   4.315   4.973
10696SOL    HW132987   0.089   4.274   4.884
10696SOL    HW232988   0.097   4.412   4.971
10697SOL     OW32989   1.389   5.337   4.767
10697SOL    HW132990   1.375   5.390   4.683
10697SOL    HW232991   1.463   5.378   4.820
10698SOL     OW32992   4.192   3.496   0.199
10698SOL    HW132993   4.202   3.504   0.299
10698SOL    HW232994   4.195   3.587   0.158
10699SOL     OW32995   3.441   4.079   0.936
10699SOL    HW132996   3.514   4.016   0.960
10699SOL    HW232997   3.355   4.029   0.927
10700SOL     OW32998   5.272   0.238   0.177
10700SOL    HW132999   5.197   0.172   0.171
10700SOL    HW233000   5.255   0.301   0.253
10701SOL     OW33001   2.968   0.313   6.403
10701SOL    HW133002   2.966   0.232   6.462
10701SOL    HW233003   3.049   0.310   6.344
10702SOL     OW33004   4.880   3.045   2.235
10702SOL    HW133005   4.839   3.055   2.144
10702SOL    HW233006   4.839   2.966   2.282
10703SOL     OW33007   1.892   2.361   6.043
10703SOL    HW133008   1.804   2.322   6.068
10703SOL    HW233009   1.878   2.443   5.987
10704SOL     OW33010   0.013   6.403   2.658
10704SOL    HW133011   0.031   6.318   2.607
10704SOL    HW233012   6.939   6.417   2.665
10705SOL     OW33013   5.629   5.118   0.874
10705SOL    HW133014   5.532   5.143   0.866
10705SOL    HW233015   5.653   5.052   0.803
10706SOL     OW33016   5.063   0.287   2.378
10706SOL    HW133017   5.129   0.218   2.407
10706SOL    HW233018   5.056   0.287   2.279
10707SOL     OW33019   6.368   7.023   4.200
10707SOL    HW133020   6.377   0.078   4.260
10707SOL    HW233021   6.421   6.947   4.238
10708SOL     OW33022   4.729   2.870   2.891
10708SOL    HW133023   4.774   2.930   2.958
10708SOL    HW233024   4.635   2.901   2.876
10709SOL     OW33025   5.856   5.401   3.822
10709SOL    HW133026   5.760   5.424   3.835
10709SOL    HW233027   5.908   5.485   3.804
10710SOL     OW33028   4.825   0.651   3.169
10710SOL    HW133029   4.837   0.576   3.104
10710SOL    HW233030   4.768   0.621   3.245
10711SOL     OW33031   3.823   6.644   2.470
10711SOL    HW133032   3.779   6.673   2.385
10711SOL    HW233033   3.857   6.724   2.519
10712SOL     OW33034   3.667   0.216   2.945
10712SOL    HW133035   3.696   0.311   2.956
10712SOL    HW233036   3.610   0.190   3.023
10713SOL     OW33037   1.047   3.407   0.785
10713SOL    HW133038   1.078   3.394   0.879
10713SOL    HW233039   1.102   3.350   0.724
10714SOL     OW33040   3.871   2.953   4.296
10714SOL    HW133041   3.862   2.862   4.255
10714SOL    HW233042   3.827   3.020   4.237
10715SOL     OW33043   5.737   0.363   2.433
10715SOL    HW133044   5.731   0.365   2.532
10715SOL    HW233045   5.647   0.381   2.393
10716SOL     OW33046   6.607   2.189   3.279
10716SOL    HW133047   6.536   2.124   3.250
10716SOL    HW233048   6.650   2.230   3.199
10717SOL     OW33049   1.211   2.873   0.762
10717SOL    HW133050   1.249   2.878   0.670
10717SOL    HW233051   1.123   2.920   0.765
10718SOL     OW33052   0.616   4.641   6.249
10718SOL    HW133053   0.592   4.732   6.217
10718SOL    HW233054   0.564   4.620   6.332
10719SOL     OW33055   5.971   5.979   3.557
10719SOL    HW133056   5.982   6.019   3.648
10719SOL    HW233057   5.994   6.047   3.487
10720SOL     OW33058   5.835   5.344   4.306
10720SOL    HW133059   5.887   5.390   4.234
10720SOL    HW233060   5.864   5.378   4.396
10721SOL     OW33061   4.923   4.024   5.404
10721SOL    HW133062   4.923   4.037   5.504
10721SOL    HW233063   5.008   3.979   5.377
10722SOL     OW33064   6.360   3.953   6.578
10722SOL    HW133065   6.453   3.924   6.602
10722SOL    HW233066   6.322   4.010   6.651
10723SOL     OW33067   0.087   1.195   6.842
10723SOL    HW133068   7.021   1.205   6.884
10723SOL    HW233069   0.154   1.171   6.912
10724SOL     OW33070   0.539   6.686   0.386
10724SOL    HW133071   0.511   6.776   0.353
10724SOL    HW233072   0.521   6.679   0.484
10725SOL     OW33073   2.612   5.404   5.056
10725SOL    HW133074   2.688   5.449   5.102
10725SOL    HW233075   2.525   5.432   5.098
10726SOL     OW33076   5.106   1.134   3.754
10726SOL    HW133077   5.119   1.206   3.685
10726SOL    HW233078   5.192   1.117   3.801
10727SOL     OW33079   1.303   5.268   6.007
10727SOL    HW133080   1.231   5.327   5.970
10727SOL    HW233081   1.304   5.181   5.957
10728SOL     OW33082   6.943   5.254   0.448
10728SOL    HW133083   6.913   5.224   0.358
10728SOL    HW233084   7.015   5.322   0.438
10729SOL     OW33085   5.833   2.151   1.520
10729SOL    HW133086   5.756   2.150   1.457
10729SOL    HW233087   5.918   2.137   1.469
10730SOL     OW33088   3.896   0.807   1.581
10730SOL    HW133089   3.946   0.792   1.496
10730SOL    HW233090   3.921   0.737   1.648
10731SOL     OW33091   3.983   1.230   1.140
10731SOL    HW133092   4.026   1.309   1.185
10731SOL    HW233093   3.933   1.177   1.208
10732SOL     OW33094   0.391   4.959   5.186
10732SOL    HW133095   0.446   5.038   5.214
10732SOL    HW233096   0.322   4.988   5.120
10733SOL     OW33097   5.476   1.489   6.410
10733SOL    HW133098   5.503   1.518   6.502
10733SOL    HW233099   5.394   1.539   6.382
10734SOL     OW33100   0.857   1.496   1.149
10734SOL    HW133101   0.877   1.585   1.189
10734SOL    HW233102   0.812   1.509   1.060
10735SOL     OW33103   0.394   2.393   1.724
10735SOL    HW133104   0.413   2.296   1.738
10735SOL    HW233105   0.297   2.405   1.703
10736SOL     OW33106   2.064   0.230   3.922
10736SOL    HW133107   2.013   0.263   3.843
10736SOL    HW233108   2.083   0.306   3.984
10737SOL     OW33109   0.630   1.820   1.510
10737SOL    HW133110   0.545   1.831   1.562
10737SOL    HW233111   0.617   1.752   1.438
10738SOL     OW33112   3.405   5.956   2.813
10738SOL    HW133113   3.387   5.950   2.911
10738SOL    HW233114   3.456   6.040   2.794
10739SOL     OW33115   1.543   2.670   1.311
10739SOL    HW133116   1.542   2.571   1.299
10739SOL    HW233117   1.519   2.715   1.226
10740SOL     OW33118   5.793   5.037   5.192
10740SOL    HW133119   5.769   4.984   5.111
10740SOL    HW233120   5.767   5.133   5.179
10741SOL     OW33121   4.429   0.981   2.241
10741SOL    HW133122   4.460   1.053   2.302
10741SOL    HW233123   4.329   0.978   2.242
10742SOL     OW33124   5.729   5.596   1.551
10742SOL    HW133125   5.710   5.510   1.599
10742SOL    HW233126   5.723   5.581   1.452
10743SOL     OW33127   1.863   2.161   4.062
10743SOL    HW133128   1.854   2.223   4.139
10743SOL    HW233129   1.956   2.124   4.060
10744SOL     OW33130   3.105   1.488   1.292
10744SOL    HW133131   3.173   1.499   1.365
10744SOL    HW233132   3.018   1.526   1.322
10745SOL     OW33133   0.081   5.077   5.550
10745SOL    HW133134   0.140   5.057   5.629
10745SOL    HW233135   0.126   5.047   5.466
10746SOL     OW33136   1.237   3.885   6.014
10746SOL    HW133137   1.302   3.814   5.985
10746SOL    HW233138   1.162   3.843   6.065
10747SOL     OW33139   2.989   1.272   4.509
10747SOL    HW133140   3.022   1.205   4.576
10747SOL    HW233141   3.066   1.310   4.459
10748SOL     OW33142   6.380   1.817   2.378
10748SOL    HW133143   6.419   1.816   2.286
10748SOL    HW233144   6.343   1.727   2.400
10749SOL     OW33145   1.024   6.265   5.309
10749SOL    HW133146   1.077   6.192   5.267
10749SOL    HW233147   1.004   6.241   5.404
10750SOL     OW33148   4.067   0.350   4.866
10750SOL    HW133149   4.095   0.290   4.791
10750SOL    HW233150   3.970   0.335   4.886
10751SOL     OW33151   2.082   4.442   4.299
10751SOL    HW133152   2.025   4.421   4.378
10751SOL    HW233153   2.162   4.495   4.328
10752SOL     OW33154   5.238   4.819   5.146
10752SOL    HW133155   5.261   4.722   5.160
10752SOL    HW233156   5.139   4.828   5.137
10753SOL     OW33157   0.386   3.951   4.062
10753SOL    HW133158   0.402   4.013   4.138
10753SOL    HW233159   0.301   3.900   4.076
10754SOL     OW33160   0.971   0.094   2.942
10754SOL    HW133161   1.034   0.158   2.985
10754SOL    HW233162   0.979   0.005   2.986
10755SOL     OW33163   6.814   6.573   1.820
10755SOL    HW133164   6.874   6.607   1.892
10755SOL    HW233165   6.735   6.634   1.811
10756SOL     OW33166   6.918   5.552   5.320
10756SOL    HW133167   6.909   5.463   5.365
10756SOL    HW233168   7.011   5.561   5.284
10757SOL     OW33169   2.232   2.848   0.079
10757SOL    HW133170   2.236   2.760   0.030
10757SOL    HW233171   2.138   2.866   0.108
10758SOL     OW33172   0.611   6.136   3.286
10758SOL    HW133173   0.591   6.130   3.188
10758SOL    HW233174   0.628   6.044   3.322
10759SOL     OW33175   1.004   3.053   0.733
10759SOL    HW133176   0.923   3.091   0.779
10759SOL    HW233177   1.064   3.128   0.705
10760SOL     OW33178   5.688   1.009   3.418
10760SOL    HW133179   5.777   1.039   3.452
10760SOL    HW233180   5.662   1.066   3.340
10761SOL     OW33181   2.076   5.394   6.184
10761SOL    HW133182   2.000   5.348   6.138
10761SOL    HW233183   2.148   5.415   6.118
10762SOL     OW33184   3.095   0.374   5.076
10762SOL    HW133185   3.006   0.336   5.102
10762SOL    HW233186   3.145   0.399   5.159
10763SOL     OW33187   3.650   0.371   3.418
10763SOL    HW133188   3.608   0.425   3.345
10763SOL    HW233189   3.733   0.417   3.450
10764SOL     OW33190   5.168   1.280   4.509
10764SOL    HW133191   5.085   1.289   4.454
10764SOL    HW233192   5.208   1.371   4.524
10765SOL     OW33193   5.217   3.210   1.040
10765SOL    HW133194   5.277   3.149   0.988
10765SOL    HW233195   5.122   3.191   1.017
10766SOL     OW33196   4.065   4.405   0.796
10766SOL    HW133197   4.058   4.468   0.719
10766SOL    HW233198   3.979   4.356   0.808
10767SOL     OW33199   2.625   0.487   0.721
10767SOL    HW133200   2.640   0.413   0.787
10767SOL    HW233201   2.673   0.570   0.752
10768SOL     OW33202   6.434   5.074   1.102
10768SOL    HW133203   6.430   5.146   1.172
10768SOL    HW233204   6.469   5.113   1.017
10769SOL     OW33205   1.619   3.194   5.691
10769SOL    HW133206   1.656   3.287   5.686
10769SOL    HW233207   1.642   3.145   5.606
10770SOL     OW33208   5.203   5.358   3.377
10770SOL    HW133209   5.287   5.410   3.360
10770SOL    HW233210   5.126   5.400   3.329
10771SOL     OW33211   4.182   6.918   3.846
10771SOL    HW133212   4.179   7.018   3.837
10771SOL    HW233213   4.113   6.889   3.913
10772SOL     OW33214   6.826   5.773   3.588
10772SOL    HW133215   6.848   5.731   3.500
10772SOL    HW233216   6.896   5.748   3.655
10773SOL     OW33217   5.634   4.483   5.351
10773SOL    HW133218   5.579   4.531   5.418
10773SOL    HW233219   5.575   4.445   5.280
10774SOL     OW33220   1.776   1.021   3.937
10774SOL    HW133221   1.690   1.031   3.985
10774SOL    HW233222   1.808   1.110   3.905
10775SOL     OW33223   1.157   4.224   1.852
10775SOL    HW133224   1.111   4.235   1.764
10775SOL    HW233225   1.206   4.308   1.875
10776SOL     OW33226   1.490   0.864   6.358
10776SOL    HW133227   1.458   0.797   6.291
10776SOL    HW233228   1.588   0.880   6.346
10777SOL     OW33229   3.697   5.024   1.064
10777SOL    HW133230   3.772   5.088   1.053
10777SOL    HW233231   3.610   5.070   1.046
10778SOL     OW33232   5.482   6.704   4.243
10778SOL    HW133233   5.393   6.744   4.265
10778SOL    HW233234   5.487   6.612   4.282
10779SOL     OW33235   6.185   2.845   3.212
10779SOL    HW133236   6.142   2.756   3.198
10779SOL    HW233237   6.196   2.890   3.123
10780SOL     OW33238   1.121   0.966   4.156
10780SOL    HW133239   1.174   0.884   4.177
10780SOL    HW233240   1.069   0.952   4.071
10781SOL     OW33241   3.962   0.368   3.911
10781SOL    HW133242   3.937   0.373   3.814
10781SOL    HW233243   3.883   0.393   3.967
10782SOL     OW33244   6.363   6.749   4.052
10782SOL    HW133245   6.347   6.830   4.108
10782SOL    HW233246   6.407   6.775   3.966
10783SOL     OW33247   0.267   2.476   2.426
10783SOL    HW133248   0.283   2.573   2.445
10783SOL    HW233249   0.330   2.445   2.355
10784SOL     OW33250   2.474   1.065   3.842
10784SOL    HW133251   2.541   0.994   3.821
10784SOL    HW233252   2.423   1.088   3.759
10785SOL     OW33253   1.026   3.967   0.183
10785SOL    HW133254   1.049   4.062   0.208
10785SOL    HW233255   1.080   3.940   0.103
10786SOL     OW33256   5.790   5.768   3.435
10786SOL    HW133257   5.853   5.832   3.479
10786SOL    HW233258   5.749   5.812   3.355
10787SOL     OW33259   0.438   0.454   5.389
10787SOL    HW133260   0.346   0.480   5.418
10787SOL    HW233261   0.482   0.400   5.461
10788SOL     OW33262   0.631   3.801   0.044
10788SOL    HW133263   0.555   3.857   0.012
10788SOL    HW233264   0.648   3.727   7.003
10789SOL     OW33265   6.793   2.815   0.157
10789SOL    HW133266   6.809   2.899   0.209
10789SOL    HW233267   6.802   2.834   0.060
10790SOL     OW33268   0.398   6.683   1.736
10790SOL    HW133269   0.440   6.604   1.780
10790SOL    HW233270   0.312   6.656   1.693
10791SOL     OW33271   6.329   6.467   2.300
10791SOL    HW133272   6.373   6.385   2.339
10791SOL    HW233273   6.399   6.529   2.264
10792SOL     OW33274   3.861   3.566   5.186
10792SOL    HW133275   3.880   3.609   5.274
10792SOL    HW233276   3.947   3.549   5.138
10793SOL     OW33277   5.430   3.541   5.336
10793SOL    HW133278   5.500   3.488   5.382
10793SOL    HW233279   5.473   3.616   5.285
10794SOL     OW33280   4.025   3.826   3.971
10794SOL    HW133281   3.943   3.881   3.986
10794SOL    HW233282   4.054   3.835   3.876
10795SOL     OW33283   0.983   4.429   2.864
10795SOL    HW133284   0.910   4.396   2.806
10795SOL    HW233285   0.976   4.387   2.955
10796SOL     OW33286   0.496   6.054   5.583
10796SOL    HW133287   0.425   6.027   5.648
10796SOL    HW233288   0.461   6.049   5.490
10797SOL     OW33289   3.827   3.067   0.623
10797SOL    HW133290   3.890   3.123   0.677
10797SOL    HW233291   3.768   3.127   0.568
10798SOL     OW33292   2.122   1.674   0.625
10798SOL    HW133293   2.138   1.681   0.527
10798SOL    HW233294   2.124   1.765   0.666
10799SOL     OW33295   3.861   0.694   3.002
10799SOL    HW133296   3.954   0.729   3.018
10799SOL    HW233297   3.851   0.605   3.046
10800SOL     OW33298   0.827   5.924   0.167
10800SOL    HW133299   0.814   5.967   0.078
10800SOL    HW233300   0.761   5.962   0.232
10801SOL     OW33301   1.666   0.873   0.534
10801SOL    HW133302   1.632   0.952   0.482
10801SOL    HW233303   1.629   0.877   0.627
10802SOL     OW33304   6.431   6.784   3.773
10802SOL    HW133305   6.359   6.842   3.736
10802SOL    HW233306   6.446   6.706   3.711
10803SOL     OW33307   1.545   5.645   6.695
10803SOL    HW133308   1.497   5.694   6.768
10803SOL    HW233309   1.638   5.623   6.724
10804SOL     OW33310   0.227   3.105   3.322
10804SOL    HW133311   0.275   3.186   3.357
10804SOL    HW233312   0.283   3.024   3.338
10805SOL     OW33313   5.717   1.156   4.901
10805SOL    HW133314   5.816   1.153   4.891
10805SOL    HW233315   5.693   1.159   4.998
10806SOL     OW33316   2.772   5.059   6.865
10806SOL    HW133317   2.752   5.156   6.879
10806SOL    HW233318   2.821   5.047   6.778
10807SOL     OW33319   2.537   6.057   3.856
10807SOL    HW133320   2.437   6.068   3.853
10807SOL    HW233321   2.577   6.140   3.896
10808SOL     OW33322   0.123   2.505   6.345
10808SOL    HW133323   0.035   2.532   6.307
10808SOL    HW233324   0.108   2.455   6.430
10809SOL     OW33325   2.563   4.560   4.340
10809SOL    HW133326   2.477   4.558   4.288
10809SOL    HW233327   2.640   4.567   4.277
10810SOL     OW33328   0.117   0.339   3.755
10810SOL    HW133329   0.077   0.306   3.841
10810SOL    HW233330   0.044   0.365   3.692
10811SOL     OW33331   4.623   5.340   4.595
10811SOL    HW133332   4.619   5.434   4.630
10811SOL    HW233333   4.671   5.339   4.508
10812SOL     OW33334   0.041   3.223   6.546
10812SOL    HW133335   7.009   3.144   6.522
10812SOL    HW233336   0.028   3.295   6.477
10813SOL     OW33337   0.573   3.623   5.733
10813SOL    HW133338   0.587   3.676   5.650
10813SOL    HW233339   0.647   3.555   5.742
10814SOL     OW33340   1.910   0.262   0.386
10814SOL    HW133341   1.956   0.211   0.459
10814SOL    HW233342   1.842   0.323   0.426
10815SOL     OW33343   5.110   1.635   3.858
10815SOL    HW133344   5.124   1.568   3.785
10815SOL    HW233345   5.090   1.724   3.817
10816SOL     OW33346   3.415   2.873   3.647
10816SOL    HW133347   3.337   2.882   3.709
10816SOL    HW233348   3.383   2.876   3.552
10817SOL     OW33349   2.833   0.205   3.318
10817SOL    HW133350   2.733   0.205   3.317
10817SOL    HW233351   2.867   0.248   3.235
10818SOL     OW33352   5.069   5.393   6.310
10818SOL    HW133353   4.991   5.443   6.272
10818SOL    HW233354   5.118   5.451   6.375
10819SOL     OW33355   6.959   5.451   6.332
10819SOL    HW133356   0.030   5.477   6.344
10819SOL    HW233357   6.924   5.488   6.246
10820SOL     OW33358   1.548   5.431   5.419
10820SOL    HW133359   1.474   5.395   5.361
10820SOL    HW233360   1.527   5.412   5.515
10821SOL     OW33361   4.404   5.408   2.251
10821SOL    HW133362   4.337   5.341   2.284
10821SOL    HW233363   4.381   5.499   2.286
10822SOL     OW33364   5.496   2.556   0.497
10822SOL    HW133365   5.515   2.628   0.430
10822SOL    HW233366   5.520   2.467   0.459
10823SOL     OW33367   0.133   6.952   2.798
10823SOL    HW133368   0.104   6.880   2.735
10823SOL    HW233369   0.227   6.934   2.828
10824SOL     OW33370   1.371   0.863   4.211
10824SOL    HW133371   1.338   0.796   4.278
10824SOL    HW233372   1.471   0.864   4.211
10825SOL     OW33373   1.242   1.971   0.394
10825SOL    HW133374   1.225   2.045   0.458
10825SOL    HW233375   1.280   2.007   0.309
10826SOL     OW33376   1.247   2.233   2.847
10826SOL    HW133377   1.316   2.162   2.831
10826SOL    HW233378   1.173   2.195   2.903
10827SOL     OW33379   6.341   3.743   5.079
10827SOL    HW133380   6.263   3.795   5.044
10827SOL    HW233381   6.425   3.775   5.034
10828SOL     OW33382   6.185   3.464   0.086
10828SOL    HW133383   6.158   3.534   0.020
10828SOL    HW233384   6.184   3.502   0.179
10829SOL     OW33385   4.580   3.385   0.024
10829SOL    HW133386   4.509   3.439   7.003
10829SOL    HW233387   4.662   3.384   6.992
10830SOL     OW33388   4.745   1.261   3.513
10830SOL    HW133389   4.699   1.173   3.507
10830SOL    HW233390   4.802   1.264   3.595
10831SOL     OW33391   4.328   1.059   2.733
10831SOL    HW133392   4.274   1.122   2.788
10831SOL    HW233393   4.268   1.010   2.670
10832SOL     OW33394   6.825   3.378   0.673
10832SOL    HW133395   6.793   3.283   0.669
10832SOL    HW233396   6.746   3.439   0.665
10833SOL     OW33397   0.696   1.616   0.936
10833SOL    HW133398   0.741   1.705   0.935
10833SOL    HW233399   0.653   1.599   0.848
10834SOL     OW33400   6.461   6.734   0.418
10834SOL    HW133401   6.467   6.820   0.469
10834SOL    HW233402   6.368   6.723   0.384
10835SOL     OW33403   5.752   3.585   6.548
10835SOL    HW133404   5.712   3.599   6.638
10835SOL    HW233405   5.783   3.491   6.539
10836SOL     OW33406   0.904   1.448   3.066
10836SOL    HW133407   0.969   1.438   3.141
10836SOL    HW233408   0.889   1.545   3.047
10837SOL     OW33409   6.584   4.662   2.041
10837SOL    HW133410   6.588   4.745   2.097
10837SOL    HW233411   6.577   4.688   1.944
10838SOL     OW33412   5.800   5.492   3.335
10838SOL    HW133413   5.802   5.523   3.240
10838SOL    HW233414   5.783   5.570   3.395
10839SOL     OW33415   4.611   3.652   0.606
10839SOL    HW133416   4.555   3.715   0.553
10839SOL    HW233417   4.708   3.672   0.592
10840SOL     OW33418   2.886   0.080   1.308
10840SOL    HW133419   2.974   0.069   1.261
10840SOL    HW233420   2.856   7.015   1.342
10841SOL     OW33421   1.174   5.171   4.818
10841SOL    HW133422   1.256   5.219   4.786
10841SOL    HW233423   1.092   5.216   4.782
10842SOL     OW33424   4.978   3.933   1.202
10842SOL    HW133425   4.926   3.987   1.268
10842SOL    HW233426   5.012   3.993   1.129
10843SOL     OW33427   2.002   1.673   1.082
10843SOL    HW133428   2.005   1.585   1.128
10843SOL    HW233429   2.039   1.744   1.143
10844SOL     OW33430   1.118   5.556   4.708
10844SOL    HW133431   1.197   5.560   4.647
10844SOL    HW233432   1.038   5.523   4.658
10845SOL     OW33433   4.730   6.076   5.169
10845SOL    HW133434   4.644   6.028   5.151
10845SOL    HW233435   4.783   6.081   5.084
10846SOL     OW33436   5.314   6.321   0.454
10846SOL    HW133437   5.249   6.262   0.406
10846SOL    HW233438   5.271   6.409   0.474
10847SOL     OW33439   1.817   1.557   0.072
10847SOL    HW133440   1.724   1.588   0.088
10847SOL    HW233441   1.825   1.460   0.092
10848SOL     OW33442   1.711   3.979   1.328
10848SOL    HW133443   1.712   3.888   1.286
10848SOL    HW233444   1.647   3.979   1.405
10849SOL     OW33445   3.166   5.239   3.777
10849SOL    HW133446   3.104   5.306   3.735
10849SOL    HW233447   3.169   5.254   3.876
10850SOL     OW33448   4.364   6.294   0.318
10850SOL    HW133449   4.273   6.265   0.286
10850SOL    HW233450   4.388   6.242   0.399
10851SOL     OW33451   2.519   4.494   1.848
10851SOL    HW133452   2.463   4.561   1.898
10851SOL    HW233453   2.612   4.497   1.882
10852SOL     OW33454   1.885   1.791   0.854
10852SOL    HW133455   1.944   1.756   0.926
10852SOL    HW233456   1.938   1.850   0.793
10853SOL     OW33457   2.085   1.951   6.275
10853SOL    HW133458   2.178   1.952   6.311
10853SOL    HW233459   2.056   2.045   6.255
10854SOL     OW33460   4.356   6.217   5.185
10854SOL    HW133461   4.355   6.120   5.208
10854SOL    HW233462   4.390   6.228   5.091
10855SOL     OW33463   3.029   1.350   0.528
10855SOL    HW133464   2.991   1.372   0.618
10855SOL    HW233465   3.128   1.356   0.531
10856SOL     OW33466   0.081   0.649   0.054
10856SOL    HW133467   0.120   0.692   6.997
10856SOL    HW233468   0.134   0.676   0.135
10857SOL     OW33469   6.491   1.431   2.379
10857SOL    HW133470   6.550   1.411   2.457
10857SOL    HW233471   6.410   1.480   2.412
10858SOL     OW33472   2.605   5.914   1.514
10858SOL    HW133473   2.640   5.821   1.529
10858SOL    HW233474   2.523   5.928   1.570
10859SOL     OW33475   0.453   5.129   4.157
10859SOL    HW133476   0.420   5.214   4.117
10859SOL    HW233477   0.515   5.083   4.093
10860SOL     OW33478   6.531   2.835   2.528
10860SOL    HW133479   6.441   2.797   2.549
10860SOL    HW233480   6.523   2.897   2.450
10861SOL     OW33481   3.282   2.950   4.275
10861SOL    HW133482   3.378   2.932   4.252
10861SOL    HW233483   3.257   2.896   4.355
10862SOL     OW33484   2.088   6.862   5.116
10862SOL    HW133485   2.089   6.893   5.211
10862SOL    HW233486   2.135   6.929   5.059
10863SOL     OW33487   3.189   6.201   4.980
10863SOL    HW133488   3.248   6.137   4.929
10863SOL    HW233489   3.135   6.150   5.047
10864SOL     OW33490   3.250   6.622   2.182
10864SOL    HW133491   3.330   6.563   2.167
10864SOL    HW233492   3.242   6.686   2.106
10865SOL     OW33493   5.814   1.463   6.670
10865SOL    HW133494   5.865   1.517   6.737
10865SOL    HW233495   5.722   1.502   6.659
10866SOL     OW33496   5.446   4.536   0.242
10866SOL    HW133497   5.393   4.463   0.199
10866SOL    HW233498   5.425   4.623   0.197
10867SOL     OW33499   3.578   3.982   0.677
10867SOL    HW133500   3.539   4.054   0.734
10867SOL    HW233501   3.547   3.893   0.709
10868SOL     OW33502   3.632   1.523   3.451
10868SOL    HW133503   3.622   1.494   3.546
10868SOL    HW233504   3.552   1.575   3.423
10869NA      NA33505   5.873   2.329   5.666
10870NA      NA33506   4.294   4.706   5.151
10871NA      NA33507   2.019   3.613   1.475
10872NA      NA33508   4.733   3.926   5.298
10873NA      NA33509   4.360   2.365   5.171
10874NA      NA33510   3.682   4.773   1.701
10875NA      NA33511   6.806   5.634   5.594
10876NA      NA33512   3.648   3.565   5.080
10877NA      NA33513   5.031   6.699   6.629
10878NA      NA33514   3.709   6.810   5.511
10879NA      NA33515   6.466   5.068   2.088
10880NA      NA33516   2.238   0.466   3.785
10881NA      NA33517   3.690   4.877   1.255
10882NA      NA33518   3.445   3.712   2.688
   7.02439   7.02439   7.02439
