Generated by trjconv : CNT in water t= 442.00000
33518
    1C        C    1   2.849   2.772   4.749
    1C        C    2   2.901   2.719   4.869
    1C        C    3   2.838   2.767   4.985
    1C        C    4   2.854   2.779   4.263
    1C        C    5   2.905   2.729   4.386
    1C        C    6   2.845   2.771   4.507
    1C        C    7   3.015   2.640   4.628
    1C        C    8   2.900   2.722   4.627
    1C        C    9   3.078   2.597   4.747
    1C        C   10   3.010   2.630   4.866
    1C        C   11   3.185   2.493   4.975
    1C        C   12   3.067   2.567   4.978
    1C        C   13   2.854   2.775   3.773
    1C        C   14   2.906   2.728   3.895
    1C        C   15   2.858   2.780   4.017
    1C        C   16   3.023   2.652   4.141
    1C        C   17   2.906   2.730   4.141
    1C        C   18   3.080   2.609   4.263
    1C        C   19   3.020   2.647   4.385
    1C        C   20   3.210   2.552   4.506
    1C        C   21   3.079   2.607   4.506
    1C        C   22   3.280   2.531   4.626
    1C        C   23   3.211   2.547   4.748
    1C        C   24   3.418   2.482   4.869
    1C        C   25   3.276   2.499   4.865
    1C        C   26   3.494   2.482   4.986
    1C        C   27   2.853   2.771   3.283
    1C        C   28   2.913   2.733   3.405
    1C        C   29   2.858   2.777   3.528
    1C        C   30   3.020   2.642   3.651
    1C        C   31   2.907   2.727   3.651
    1C        C   32   3.080   2.604   3.773
    1C        C   33   3.020   2.644   3.894
    1C        C   34   3.209   2.554   4.018
    1C        C   35   3.084   2.620   4.018
    1C        C   36   3.276   2.529   4.140
    1C        C   37   3.209   2.551   4.262
    1C        C   38   3.417   2.505   4.384
    1C        C   39   3.279   2.533   4.384
    1C        C   40   3.489   2.499   4.505
    1C        C   41   3.418   2.498   4.627
    1C        C   42   3.633   2.485   4.743
    1C        C   43   3.491   2.481   4.746
    1C        C   44   3.706   2.488   4.864
    1C        C   45   3.633   2.475   4.982
    1C        C   46   2.847   2.762   2.793
    1C        C   47   2.901   2.714   2.915
    1C        C   48   2.850   2.764   3.037
    1C        C   49   3.019   2.640   3.161
    1C        C   50   2.905   2.724   3.161
    1C        C   51   3.083   2.610   3.284
    1C        C   52   3.025   2.647   3.408
    1C        C   53   3.209   2.543   3.530
    1C        C   54   3.082   2.604   3.530
    1C        C   55   3.277   2.523   3.652
    1C        C   56   3.210   2.548   3.774
    1C        C   57   3.416   2.502   3.894
    1C        C   58   3.277   2.529   3.897
    1C        C   59   3.485   2.501   4.017
    1C        C   60   3.415   2.505   4.140
    1C        C   61   3.628   2.498   4.258
    1C        C   62   3.487   2.500   4.261
    1C        C   63   3.701   2.508   4.378
    1C        C   64   3.630   2.495   4.500
    1C        C   65   3.838   2.541   4.622
    1C        C   66   3.703   2.501   4.621
    1C        C   67   3.906   2.567   4.743
    1C        C   68   3.842   2.528   4.863
    1C        C   69   4.052   2.588   4.980
    1C        C   70   3.920   2.539   4.978
    1C        C   71   2.830   2.737   2.307
    1C        C   72   2.890   2.695   2.429
    1C        C   73   2.841   2.751   2.549
    1C        C   74   3.006   2.620   2.673
    1C        C   75   2.895   2.707   2.672
    1C        C   76   3.073   2.590   2.794
    1C        C   77   3.013   2.629   2.916
    1C        C   78   3.206   2.544   3.040
    1C        C   79   3.076   2.598   3.039
    1C        C   80   3.277   2.525   3.162
    1C        C   81   3.211   2.550   3.284
    1C        C   82   3.415   2.500   3.402
    1C        C   83   3.276   2.524   3.407
    1C        C   84   3.485   2.494   3.525
    1C        C   85   3.416   2.500   3.649
    1C        C   86   3.627   2.501   3.769
    1C        C   87   3.486   2.494   3.771
    1C        C   88   3.697   2.513   3.892
    1C        C   89   3.626   2.512   4.014
    1C        C   90   3.833   2.554   4.137
    1C        C   91   3.698   2.513   4.136
    1C        C   92   3.900   2.582   4.259
    1C        C   93   3.836   2.551   4.381
    1C        C   94   4.031   2.636   4.502
    1C        C   95   3.904   2.573   4.502
    1C        C   96   4.092   2.675   4.624
    1C        C   97   4.031   2.636   4.745
    1C        C   98   4.192   2.771   4.868
    1C        C   99   4.099   2.662   4.866
    1C        C  100   4.217   2.844   4.984
    1C        C  101   2.825   2.731   2.067
    1C        C  102   2.994   2.595   2.189
    1C        C  103   2.879   2.681   2.186
    1C        C  104   3.063   2.571   2.310
    1C        C  105   3.006   2.614   2.432
    1C        C  106   3.201   2.528   2.556
    1C        C  107   3.070   2.581   2.553
    1C        C  108   3.273   2.515   2.676
    1C        C  109   3.204   2.537   2.797
    1C        C  110   3.412   2.491   2.916
    1C        C  111   3.272   2.515   2.919
    1C        C  112   3.484   2.487   3.038
    1C        C  113   3.413   2.491   3.161
    1C        C  114   3.628   2.506   3.281
    1C        C  115   3.487   2.493   3.281
    1C        C  116   3.696   2.519   3.404
    1C        C  117   3.626   2.504   3.525
    1C        C  118   3.832   2.554   3.648
    1C        C  119   3.697   2.514   3.647
    1C        C  120   3.895   2.584   3.771
    1C        C  121   3.831   2.557   3.894
    1C        C  122   4.024   2.646   4.015
    1C        C  123   3.900   2.579   4.015
    1C        C  124   4.087   2.681   4.136
    1C        C  125   4.027   2.644   4.258
    1C        C  126   4.197   2.770   4.381
    1C        C  127   4.088   2.679   4.381
    1C        C  128   4.246   2.821   4.503
    1C        C  129   4.199   2.767   4.625
    1C        C  130   4.328   2.938   4.743
    1C        C  131   4.243   2.824   4.746
    1C        C  132   4.356   3.007   4.863
    1C        C  133   4.288   2.964   4.978
    1C        C  134   3.177   2.470   2.084
    1C        C  135   3.043   2.513   2.082
    1C        C  136   3.263   2.482   2.193
    1C        C  137   3.196   2.520   2.312
    1C        C  138   3.406   2.479   2.429
    1C        C  139   3.267   2.504   2.433
    1C        C  140   3.481   2.481   2.548
    1C        C  141   3.414   2.498   2.671
    1C        C  142   3.623   2.490   2.793
    1C        C  143   3.482   2.483   2.794
    1C        C  144   3.693   2.506   2.914
    1C        C  145   3.625   2.497   3.037
    1C        C  146   3.833   2.547   3.155
    1C        C  147   3.697   2.509   3.158
    1C        C  148   3.900   2.572   3.277
    1C        C  149   3.835   2.547   3.400
    1C        C  150   4.025   2.633   3.525
    1C        C  151   3.897   2.573   3.524
    1C        C  152   4.085   2.671   3.647
    1C        C  153   4.024   2.642   3.771
    1C        C  154   4.192   2.772   3.891
    1C        C  155   4.084   2.682   3.892
    1C        C  156   4.246   2.819   4.014
    1C        C  157   4.199   2.768   4.137
    1C        C  158   4.342   2.924   4.256
    1C        C  159   4.250   2.817   4.259
    1C        C  160   4.380   2.985   4.378
    1C        C  161   4.333   2.932   4.500
    1C        C  162   4.441   3.118   4.621
    1C        C  163   4.373   2.994   4.621
    1C        C  164   4.473   3.188   4.740
    1C        C  165   4.434   3.125   4.860
    1C        C  166   4.515   3.321   4.973
    1C        C  167   4.478   3.187   4.977
    1C        C  168   3.480   2.440   2.074
    1C        C  169   3.403   2.464   2.188
    1C        C  170   3.620   2.467   2.306
    1C        C  171   3.478   2.464   2.308
    1C        C  172   3.693   2.485   2.426
    1C        C  173   3.622   2.487   2.548
    1C        C  174   3.827   2.544   2.668
    1C        C  175   3.692   2.503   2.670
    1C        C  176   3.895   2.569   2.789
    1C        C  177   3.829   2.543   2.911
    1C        C  178   4.025   2.631   3.032
    1C        C  179   3.900   2.565   3.032
    1C        C  180   4.088   2.665   3.153
    1C        C  181   4.028   2.632   3.277
    1C        C  182   4.194   2.757   3.400
    1C        C  183   4.085   2.668   3.402
    1C        C  184   4.247   2.806   3.521
    1C        C  185   4.195   2.760   3.645
    1C        C  186   4.337   2.919   3.768
    1C        C  187   4.243   2.814   3.766
    1C        C  188   4.377   2.981   3.888
    1C        C  189   4.339   2.925   4.012
    1C        C  190   4.447   3.107   4.131
    1C        C  191   4.384   2.981   4.134
    1C        C  192   4.471   3.175   4.253
    1C        C  193   4.445   3.110   4.376
    1C        C  194   4.514   3.313   4.494
    1C        C  195   4.470   3.179   4.497
    1C        C  196   4.527   3.389   4.612
    1C        C  197   4.511   3.325   4.736
    1C        C  198   4.548   3.538   4.853
    1C        C  199   4.536   3.396   4.857
    1C        C  200   4.583   3.621   4.964
    1C        C  201   3.619   2.419   2.071
    1C        C  202   3.829   2.511   2.182
    1C        C  203   3.694   2.465   2.184
    1C        C  204   3.898   2.540   2.303
    1C        C  205   3.829   2.521   2.425
    1C        C  206   4.019   2.626   2.543
    1C        C  207   3.893   2.560   2.544
    1C        C  208   4.081   2.665   2.663
    1C        C  209   4.024   2.628   2.787
    1C        C  210   4.199   2.749   2.910
    1C        C  211   4.086   2.666   2.909
    1C        C  212   4.248   2.801   3.033
    1C        C  213   4.196   2.756   3.156
    1C        C  214   4.338   2.914   3.276
    1C        C  215   4.246   2.807   3.278
    1C        C  216   4.378   2.971   3.399
    1C        C  217   4.337   2.915   3.522
    1C        C  218   4.438   3.102   3.640
    1C        C  219   4.378   2.974   3.644
    1C        C  220   4.468   3.168   3.762
    1C        C  221   4.445   3.106   3.886
    1C        C  222   4.510   3.307   4.003
    1C        C  223   4.475   3.170   4.008
    1C        C  224   4.519   3.379   4.125
    1C        C  225   4.505   3.312   4.248
    1C        C  226   4.525   3.522   4.368
    1C        C  227   4.522   3.381   4.370
    1C        C  228   4.526   3.599   4.486
    1C        C  229   4.537   3.530   4.609
    1C        C  230   4.501   3.743   4.729
    1C        C  231   4.540   3.606   4.728
    1C        C  232   4.499   3.821   4.846
    1C        C  233   4.547   3.756   4.961
    1C        C  234   4.019   2.614   2.065
    1C        C  235   3.896   2.549   2.065
    1C        C  236   4.088   2.646   2.183
    1C        C  237   4.025   2.605   2.302
    1C        C  238   4.201   2.735   2.423
    1C        C  239   4.084   2.654   2.421
    1C        C  240   4.254   2.786   2.544
    1C        C  241   4.195   2.749   2.667
    1C        C  242   4.343   2.904   2.784
    1C        C  243   4.252   2.796   2.788
    1C        C  244   4.382   2.962   2.906
    1C        C  245   4.341   2.908   3.030
    1C        C  246   4.443   3.094   3.151
    1C        C  247   4.375   2.970   3.152
    1C        C  248   4.465   3.162   3.273
    1C        C  249   4.437   3.099   3.396
    1C        C  250   4.505   3.302   3.518
    1C        C  251   4.466   3.166   3.517
    1C        C  252   4.519   3.375   3.638
    1C        C  253   4.508   3.304   3.759
    1C        C  254   4.526   3.517   3.880
    1C        C  255   4.521   3.375   3.880
    1C        C  256   4.520   3.589   4.001
    1C        C  257   4.523   3.520   4.125
    1C        C  258   4.492   3.731   4.242
    1C        C  259   4.520   3.593   4.246
    1C        C  260   4.470   3.802   4.362
    1C        C  261   4.493   3.737   4.485
    1C        C  262   4.427   3.940   4.606
    1C        C  263   4.473   3.807   4.606
    1C        C  264   4.398   4.013   4.724
    1C        C  265   4.436   3.948   4.844
    1C        C  266   4.320   4.133   4.959
    1C        C  267   4.391   4.014   4.959
    1C        C  268   4.269   2.774   2.069
    1C        C  269   4.198   2.734   2.183
    1C        C  270   4.352   2.888   2.302
    1C        C  271   4.257   2.782   2.302
    1C        C  272   4.390   2.953   2.421
    1C        C  273   4.346   2.893   2.540
    1C        C  274   4.448   3.083   2.661
    1C        C  275   4.388   2.955   2.660
    1C        C  276   4.476   3.149   2.783
    1C        C  277   4.449   3.086   2.907
    1C        C  278   4.509   3.293   3.026
    1C        C  279   4.474   3.156   3.028
    1C        C  280   4.517   3.365   3.147
    1C        C  281   4.502   3.298   3.271
    1C        C  282   4.518   3.509   3.391
    1C        C  283   4.512   3.368   3.393
    1C        C  284   4.519   3.584   3.511
    1C        C  285   4.523   3.516   3.635
    1C        C  286   4.485   3.723   3.755
    1C        C  287   4.520   3.586   3.757
    1C        C  288   4.469   3.792   3.877
    1C        C  289   4.491   3.727   4.000
    1C        C  290   4.417   3.930   4.117
    1C        C  291   4.474   3.800   4.120
    1C        C  292   4.386   3.993   4.239
    1C        C  293   4.415   3.932   4.364
    1C        C  294   4.325   4.126   4.482
    1C        C  295   4.395   4.003   4.484
    1C        C  296   4.282   4.188   4.601
    1C        C  297   4.326   4.135   4.724
    1C        C  298   4.198   4.316   4.839
    1C        C  299   4.281   4.200   4.843
    1C        C  300   4.167   4.400   4.950
    1C        C  301   4.353   2.885   2.064
    1C        C  302   4.479   3.065   2.177
    1C        C  303   4.404   2.943   2.181
    1C        C  304   4.493   3.141   2.297
    1C        C  305   4.451   3.081   2.417
    1C        C  306   4.509   3.285   2.539
    1C        C  307   4.477   3.147   2.539
    1C        C  308   4.517   3.358   2.660
    1C        C  309   4.508   3.286   2.781
    1C        C  310   4.522   3.500   2.902
    1C        C  311   4.518   3.359   2.901
    1C        C  312   4.523   3.574   3.022
    1C        C  313   4.525   3.506   3.146
    1C        C  314   4.483   3.716   3.266
    1C        C  315   4.512   3.577   3.267
    1C        C  316   4.470   3.789   3.386
    1C        C  317   4.488   3.722   3.509
    1C        C  318   4.416   3.921   3.630
    1C        C  319   4.464   3.788   3.631
    1C        C  320   4.380   3.985   3.751
    1C        C  321   4.414   3.922   3.873
    1C        C  322   4.316   4.113   3.991
    1C        C  323   4.384   3.990   3.993
    1C        C  324   4.276   4.172   4.114
    1C        C  325   4.319   4.117   4.237
    1C        C  326   4.185   4.280   4.355
    1C        C  327   4.286   4.181   4.358
    1C        C  328   4.135   4.337   4.474
    1C        C  329   4.190   4.296   4.597
    1C        C  330   4.030   4.444   4.715
    1C        C  331   4.143   4.358   4.714
    1C        C  332   3.971   4.497   4.832
    1C        C  333   4.054   4.483   4.944
    1C        C  334   4.552   3.269   2.063
    1C        C  335   4.536   3.129   2.063
    1C        C  336   4.542   3.350   2.177
    1C        C  337   4.526   3.279   2.298
    1C        C  338   4.531   3.495   2.415
    1C        C  339   4.530   3.354   2.418
    1C        C  340   4.522   3.569   2.534
    1C        C  341   4.528   3.499   2.657
    1C        C  342   4.491   3.708   2.776
    1C        C  343   4.519   3.570   2.779
    1C        C  344   4.472   3.779   2.896
    1C        C  345   4.495   3.712   3.019
    1C        C  346   4.416   3.910   3.141
    1C        C  347   4.467   3.778   3.141
    1C        C  348   4.389   3.981   3.260
    1C        C  349   4.424   3.923   3.384
    1C        C  350   4.316   4.104   3.504
    1C        C  351   4.396   3.987   3.507
    1C        C  352   4.270   4.163   3.623
    1C        C  353   4.308   4.107   3.747
    1C        C  354   4.172   4.268   3.868
    1C        C  355   4.270   4.166   3.869
    1C        C  356   4.121   4.318   3.990
    1C        C  357   4.177   4.272   4.112
    1C        C  358   4.009   4.402   4.233
    1C        C  359   4.124   4.320   4.233
    1C        C  360   3.952   4.447   4.354
    1C        C  361   4.020   4.419   4.475
    1C        C  362   3.829   4.516   4.594
    1C        C  363   3.963   4.470   4.593
    1C        C  364   3.762   4.548   4.714
    1C        C  365   3.839   4.546   4.833
    1C        C  366   3.631   4.595   4.953
    1C        C  367   3.768   4.568   4.951
    1C        C  368   4.509   3.560   2.053
    1C        C  369   4.527   3.490   2.173
    1C        C  370   4.500   3.705   2.290
    1C        C  371   4.523   3.566   2.292
    1C        C  372   4.484   3.778   2.410
    1C        C  373   4.501   3.709   2.532
    1C        C  374   4.417   3.906   2.650
    1C        C  375   4.475   3.777   2.653
    1C        C  376   4.385   3.970   2.772
    1C        C  377   4.415   3.909   2.895
    1C        C  378   4.311   4.093   3.016
    1C        C  379   4.385   3.972   3.018
    1C        C  380   4.269   4.156   3.135
    1C        C  381   4.313   4.100   3.257
    1C        C  382   4.179   4.262   3.377
    1C        C  383   4.271   4.156   3.380
    1C        C  384   4.128   4.315   3.498
    1C        C  385   4.174   4.267   3.622
    1C        C  386   4.006   4.396   3.743
    1C        C  387   4.120   4.312   3.745
    1C        C  388   3.946   4.437   3.864
    1C        C  389   4.006   4.401   3.987
    1C        C  390   3.820   4.495   4.110
    1C        C  391   3.950   4.438   4.111
    1C        C  392   3.749   4.514   4.231
    1C        C  393   3.822   4.502   4.352
    1C        C  394   3.618   4.558   4.476
    1C        C  395   3.758   4.534   4.473
    1C        C  396   3.550   4.573   4.598
    1C        C  397   3.623   4.572   4.719
    1C        C  398   3.411   4.557   4.841
    1C        C  399   3.551   4.577   4.840
    1C        C  400   3.347   4.516   4.958
    1C        C  401   4.505   3.699   2.053
    1C        C  402   4.446   3.912   2.167
    1C        C  403   4.486   3.777   2.169
    1C        C  404   4.406   3.975   2.287
    1C        C  405   4.428   3.907   2.408
    1C        C  406   4.319   4.094   2.526
    1C        C  407   4.391   3.973   2.528
    1C        C  408   4.273   4.149   2.648
    1C        C  409   4.311   4.090   2.772
    1C        C  410   4.171   4.251   2.890
    1C        C  411   4.269   4.148   2.893
    1C        C  412   4.119   4.300   3.011
    1C        C  413   4.168   4.255   3.136
    1C        C  414   4.001   4.386   3.255
    1C        C  415   4.118   4.306   3.257
    1C        C  416   3.945   4.425   3.378
    1C        C  417   4.009   4.391   3.500
    1C        C  418   3.815   4.484   3.618
    1C        C  419   3.944   4.428   3.620
    1C        C  420   3.751   4.514   3.741
    1C        C  421   3.816   4.492   3.864
    1C        C  422   3.615   4.547   3.987
    1C        C  423   3.753   4.517   3.988
    1C        C  424   3.543   4.551   4.109
    1C        C  425   3.611   4.543   4.232
    1C        C  426   3.403   4.552   4.359
    1C        C  427   3.544   4.557   4.356
    1C        C  428   3.333   4.546   4.481
    1C        C  429   3.409   4.556   4.600
    1C        C  430   3.196   4.525   4.724
    1C        C  431   3.337   4.547   4.721
    1C        C  432   3.127   4.499   4.846
    1C        C  433   3.209   4.498   4.960
    1C        C  434   4.384   4.125   2.054
    1C        C  435   4.451   4.002   2.060
    1C        C  436   4.304   4.166   2.166
    1C        C  437   4.334   4.098   2.288
    1C        C  438   4.181   4.255   2.401
    1C        C  439   4.282   4.157   2.405
    1C        C  440   4.124   4.298   2.523
    1C        C  441   4.176   4.251   2.646
    1C        C  442   4.006   4.380   2.767
    1C        C  443   4.121   4.299   2.767
    1C        C  444   3.946   4.423   2.888
    1C        C  445   4.005   4.383   3.010
    1C        C  446   3.815   4.482   3.131
    1C        C  447   3.941   4.419   3.131
    1C        C  448   3.751   4.511   3.254
    1C        C  449   3.817   4.486   3.376
    1C        C  450   3.610   4.543   3.499
    1C        C  451   3.748   4.510   3.496
    1C        C  452   3.545   4.554   3.623
    1C        C  453   3.614   4.545   3.746
    1C        C  454   3.400   4.550   3.867
    1C        C  455   3.541   4.554   3.867
    1C        C  456   3.331   4.539   3.990
    1C        C  457   3.402   4.540   4.112
    1C        C  458   3.196   4.508   4.239
    1C        C  459   3.335   4.537   4.236
    1C        C  460   3.128   4.484   4.360
    1C        C  461   3.197   4.510   4.481
    1C        C  462   2.999   4.440   4.606
    1C        C  463   3.128   4.498   4.604
    1C        C  464   2.933   4.404   4.726
    1C        C  465   2.995   4.444   4.847
    1C        C  466   2.804   4.336   4.959
    1C        C  467   2.912   4.425   4.962
    1C        C  468   4.122   4.286   2.041
    1C        C  469   4.190   4.252   2.159
    1C        C  470   4.012   4.379   2.278
    1C        C  471   4.132   4.303   2.278
    1C        C  472   3.945   4.409   2.399
    1C        C  473   4.007   4.377   2.521
    1C        C  474   3.817   4.471   2.645
    1C        C  475   3.946   4.412   2.643
    1C        C  476   3.751   4.504   2.765
    1C        C  477   3.820   4.486   2.887
    1C        C  478   3.610   4.528   3.009
    1C        C  479   3.749   4.501   3.008
    1C        C  480   3.540   4.533   3.131
    1C        C  481   3.611   4.531   3.254
    1C        C  482   3.400   4.534   3.378
    1C        C  483   3.541   4.541   3.376
    1C        C  484   3.332   4.531   3.502
    1C        C  485   3.403   4.551   3.622
    1C        C  486   3.195   4.509   3.746
    1C        C  487   3.332   4.545   3.744
    1C        C  488   3.130   4.483   3.869
    1C        C  489   3.193   4.506   3.993
    1C        C  490   3.006   4.414   4.117
    1C        C  491   3.130   4.482   4.117
    1C        C  492   2.945   4.381   4.239
    1C        C  493   3.000   4.426   4.361
    1C        C  494   2.833   4.304   4.484
    1C        C  495   2.939   4.397   4.485
    1C        C  496   2.779   4.257   4.606
    1C        C  497   2.822   4.314   4.727
    1C        C  498   2.668   4.162   4.844
    1C        C  499   2.753   4.275   4.844
    1C        C  500   2.599   4.117   4.958
    1C        C  501   4.007   4.365   2.040
    1C        C  502   3.821   4.477   2.157
    1C        C  503   3.945   4.410   2.157
    1C        C  504   3.748   4.489   2.278
    1C        C  505   3.814   4.462   2.400
    1C        C  506   3.612   4.522   2.521
    1C        C  507   3.751   4.493   2.522
    1C        C  508   3.541   4.528   2.642
    1C        C  509   3.611   4.525   2.765
    1C        C  510   3.398   4.533   2.888
    1C        C  511   3.540   4.534   2.886
    1C        C  512   3.327   4.529   3.010
    1C        C  513   3.399   4.535   3.131
    1C        C  514   3.195   4.495   3.257
    1C        C  515   3.331   4.532   3.255
    1C        C  516   3.130   4.468   3.380
    1C        C  517   3.194   4.498   3.503
    1C        C  518   3.004   4.409   3.628
    1C        C  519   3.128   4.478   3.626
    1C        C  520   2.947   4.371   3.751
    1C        C  521   3.009   4.411   3.872
    1C        C  522   2.843   4.279   3.999
    1C        C  523   2.951   4.370   3.994
    1C        C  524   2.795   4.229   4.122
    1C        C  525   2.840   4.286   4.243
    1C        C  526   2.698   4.132   4.367
    1C        C  527   2.784   4.244   4.366
    1C        C  528   2.658   4.076   4.490
    1C        C  529   2.697   4.141   4.609
    1C        C  530   2.588   3.955   4.733
    1C        C  531   2.647   4.084   4.728
    1C        C  532   2.545   3.900   4.856
    1C        C  533   2.533   3.994   4.963
    1C        C  534   3.618   4.554   2.039
    1C        C  535   3.752   4.513   2.041
    1C        C  536   3.540   4.544   2.158
    1C        C  537   3.610   4.522   2.280
    1C        C  538   3.396   4.519   2.402
    1C        C  539   3.537   4.526   2.401
    1C        C  540   3.327   4.509   2.525
    1C        C  541   3.400   4.520   2.646
    1C        C  542   3.190   4.485   2.768
    1C        C  543   3.327   4.517   2.767
    1C        C  544   3.125   4.464   2.892
    1C        C  545   3.191   4.488   3.014
    1C        C  546   3.000   4.402   3.138
    1C        C  547   3.127   4.464   3.137
    1C        C  548   2.943   4.365   3.262
    1C        C  549   3.005   4.402   3.383
    1C        C  550   2.835   4.282   3.506
    1C        C  551   2.944   4.371   3.506
    1C        C  552   2.787   4.233   3.630
    1C        C  553   2.838   4.281   3.753
    1C        C  554   2.703   4.120   3.877
    1C        C  555   2.792   4.230   3.877
    1C        C  556   2.662   4.063   3.999
    1C        C  557   2.703   4.122   4.121
    1C        C  558   2.596   3.944   4.247
    1C        C  559   2.663   4.069   4.245
    1C        C  560   2.568   3.881   4.370
    1C        C  561   2.597   3.949   4.490
    1C        C  562   2.530   3.749   4.616
    1C        C  563   2.564   3.886   4.612
    1C        C  564   2.519   3.681   4.739
    1C        C  565   2.521   3.758   4.859
    1C        C  566   2.528   3.546   4.982
    1C        C  567   2.514   3.684   4.977
    1C        C  568   3.332   4.475   2.046
    1C        C  569   3.400   4.519   2.160
    1C        C  570   3.188   4.473   2.283
    1C        C  571   3.325   4.509   2.281
    1C        C  572   3.117   4.459   2.404
    1C        C  573   3.189   4.479   2.524
    1C        C  574   2.996   4.398   2.651
    1C        C  575   3.121   4.463   2.646
    1C        C  576   2.935   4.361   2.773
    1C        C  577   2.998   4.401   2.893
    1C        C  578   2.829   4.275   3.018
    1C        C  579   2.942   4.361   3.016
    1C        C  580   2.781   4.227   3.141
    1C        C  581   2.834   4.275   3.263
    1C        C  582   2.700   4.115   3.387
    1C        C  583   2.783   4.229   3.386
    1C        C  584   2.666   4.056   3.511
    1C        C  585   2.702   4.120   3.632
    1C        C  586   2.600   3.935   3.757
    1C        C  587   2.664   4.061   3.755
    1C        C  588   2.572   3.873   3.882
    1C        C  589   2.599   3.936   4.005
    1C        C  590   2.533   3.736   4.127
    1C        C  591   2.569   3.873   4.128
    1C        C  592   2.519   3.671   4.252
    1C        C  593   2.530   3.744   4.372
    1C        C  594   2.511   3.535   4.500
    1C        C  595   2.518   3.676   4.495
    1C        C  596   2.520   3.465   4.622
    1C        C  597   2.517   3.539   4.743
    1C        C  598   2.537   3.328   4.866
    1C        C  599   2.528   3.469   4.865
    1C        C  600   2.536   3.250   4.982
    1C        C  601   3.198   4.442   2.045
    1C        C  602   2.986   4.392   2.162
    1C        C  603   3.121   4.440   2.162
    1C        C  604   2.930   4.351   2.286
    1C        C  605   2.991   4.394   2.406
    1C        C  606   2.829   4.265   2.531
    1C        C  607   2.936   4.357   2.530
    1C        C  608   2.780   4.213   2.653
    1C        C  609   2.829   4.267   2.773
    1C        C  610   2.689   4.112   2.898
    1C        C  611   2.778   4.222   2.897
    1C        C  612   2.656   4.053   3.022
    1C        C  613   2.700   4.111   3.143
    1C        C  614   2.593   3.929   3.267
    1C        C  615   2.660   4.053   3.266
    1C        C  616   2.570   3.865   3.391
    1C        C  617   2.604   3.930   3.512
    1C        C  618   2.527   3.735   3.640
    1C        C  619   2.574   3.869   3.635
    1C        C  620   2.514   3.666   3.762
    1C        C  621   2.532   3.738   3.882
    1C        C  622   2.512   3.527   4.007
    1C        C  623   2.519   3.668   4.004
    1C        C  624   2.517   3.461   4.132
    1C        C  625   2.508   3.530   4.255
    1C        C  626   2.542   3.324   4.380
    1C        C  627   2.515   3.463   4.378
    1C        C  628   2.560   3.256   4.502
    1C        C  629   2.543   3.326   4.624
    1C        C  630   2.599   3.121   4.747
    1C        C  631   2.551   3.255   4.746
    1C        C  632   2.622   3.051   4.868
    1C        C  633   2.562   3.112   4.983
    1C        C  634   2.779   4.305   2.057
    1C        C  635   2.896   4.381   2.051
    1C        C  636   2.746   4.233   2.173
    1C        C  637   2.813   4.270   2.291
    1C        C  638   2.678   4.107   2.412
    1C        C  639   2.767   4.217   2.413
    1C        C  640   2.641   4.048   2.535
    1C        C  641   2.688   4.106   2.655
    1C        C  642   2.586   3.923   2.779
    1C        C  643   2.645   4.051   2.778
    1C        C  644   2.566   3.858   2.903
    1C        C  645   2.593   3.927   3.023
    1C        C  646   2.525   3.727   3.149
    1C        C  647   2.563   3.863   3.146
    1C        C  648   2.510   3.659   3.272
    1C        C  649   2.524   3.731   3.393
    1C        C  650   2.511   3.524   3.517
    1C        C  651   2.518   3.665   3.518
    1C        C  652   2.509   3.455   3.640
    1C        C  653   2.504   3.525   3.763
    1C        C  654   2.536   3.316   3.889
    1C        C  655   2.511   3.455   3.886
    1C        C  656   2.554   3.252   4.013
    1C        C  657   2.538   3.321   4.135
    1C        C  658   2.611   3.124   4.260
    1C        C  659   2.556   3.254   4.258
    1C        C  660   2.637   3.059   4.383
    1C        C  661   2.602   3.121   4.505
    1C        C  662   2.714   2.940   4.626
    1C        C  663   2.635   3.056   4.626
    1C        C  664   2.757   2.881   4.747
    1C        C  665   2.701   2.932   4.867
    1C        C  666   2.739   2.864   4.984
    1C        C  667   2.675   4.024   2.057
    1C        C  668   2.687   4.105   2.171
    1C        C  669   2.591   3.912   2.293
    1C        C  670   2.644   4.044   2.290
    1C        C  671   2.562   3.849   2.416
    1C        C  672   2.579   3.921   2.536
    1C        C  673   2.519   3.719   2.662
    1C        C  674   2.556   3.855   2.659
    1C        C  675   2.510   3.650   2.785
    1C        C  676   2.527   3.723   2.904
    1C        C  677   2.500   3.515   3.031
    1C        C  678   2.510   3.656   3.028
    1C        C  679   2.507   3.445   3.154
    1C        C  680   2.506   3.518   3.275
    1C        C  681   2.534   3.310   3.401
    1C        C  682   2.505   3.448   3.398
    1C        C  683   2.555   3.246   3.525
    1C        C  684   2.535   3.316   3.646
    1C        C  685   2.606   3.115   3.771
    1C        C  686   2.552   3.245   3.768
    1C        C  687   2.640   3.056   3.895
    1C        C  688   2.606   3.120   4.016
    1C        C  689   2.716   2.940   4.140
    1C        C  690   2.637   3.057   4.138
    1C        C  691   2.762   2.886   4.262
    1C        C  692   2.718   2.943   4.383
    1C        C  693   2.755   2.880   4.504
    1C        C  694   2.630   3.891   2.056
    1C        C  695   2.528   3.705   2.178
    1C        C  696   2.573   3.839   2.173
    1C        C  697   2.509   3.639   2.301
    1C        C  698   2.523   3.714   2.420
    1C        C  699   2.489   3.505   2.543
    1C        C  700   2.507   3.645   2.542
    1C        C  701   2.501   3.438   2.667
    1C        C  702   2.508   3.509   2.789
    1C        C  703   2.527   3.299   2.912
    1C        C  704   2.507   3.439   2.912
    1C        C  705   2.546   3.235   3.037
    1C        C  706   2.529   3.306   3.158
    1C        C  707   2.604   3.108   3.278
    1C        C  708   2.549   3.239   3.280
    1C        C  709   2.638   3.052   3.403
    1C        C  710   2.610   3.115   3.526
    1C        C  711   2.722   2.937   3.649
    1C        C  712   2.645   3.055   3.649
    1C        C  713   2.764   2.884   3.773
    1C        C  714   2.721   2.940   3.896
    1C        C  715   2.766   2.887   4.019
    1C        C  716   2.444   3.504   2.068
    1C        C  717   2.488   3.636   2.062
    1C        C  718   2.466   3.422   2.183
    1C        C  719   2.483   3.499   2.301
    1C        C  720   2.513   3.291   2.427
    1C        C  721   2.481   3.429   2.424
    1C        C  722   2.540   3.225   2.548
    1C        C  723   2.523   3.298   2.668
    1C        C  724   2.601   3.101   2.790
    1C        C  725   2.546   3.232   2.790
    1C        C  726   2.632   3.040   2.913
    1C        C  727   2.597   3.103   3.035
    1C        C  728   2.714   2.925   3.159
    1C        C  729   2.636   3.043   3.157
    1C        C  730   2.752   2.870   3.283
    1C        C  731   2.714   2.933   3.403
    1C        C  732   2.762   2.881   3.526
    1C        C  733   2.497   3.199   2.072
    1C        C  734   2.488   3.280   2.186
    1C        C  735   2.587   3.088   2.306
    1C        C  736   2.527   3.217   2.307
    1C        C  737   2.617   3.021   2.428
    1C        C  738   2.592   3.093   2.547
    1C        C  739   2.702   2.913   2.668
    1C        C  740   2.624   3.031   2.669
    1C        C  741   2.753   2.867   2.792
    1C        C  742   2.704   2.919   2.914
    1C        C  743   2.752   2.866   3.036
    1C        C  744   2.543   3.068   2.074
    1C        C  745   2.688   2.900   2.185
    1C        C  746   2.609   3.016   2.187
    1C        C  747   2.737   2.844   2.305
    1C        C  748   2.690   2.901   2.426
    1C        C  749   2.742   2.852   2.548
    1C        C  750   2.738   2.839   2.069
    1C        C  751   3.670   2.315   1.979
    1C        O  752   3.709   2.206   2.030
    1C        O  753   3.619   2.289   1.851
    1C        C  754   4.639   3.057   1.985
    1C        O  755   4.629   3.007   1.870
    1C        O  756   4.767   3.059   2.041
    1C        C  757   4.444   4.219   1.957
    1C        O  758   4.524   4.312   1.984
    1C        O  759   4.413   4.215   1.820
    1C        C  760   3.594   4.659   1.937
    1C        O  761   3.631   4.777   1.958
    1C        O  762   3.626   4.631   1.804
    1C        C  763   2.907   4.464   1.929
    1C        O  764   2.976   4.433   1.828
    1C        O  765   2.826   4.576   1.909
    1C        C  766   2.323   3.477   1.988
    1C        O  767   2.322   3.484   1.862
    1C        O  768   2.197   3.518   2.032
    1C        C  769   4.714   3.590   5.027
    1C        O  770   4.709   3.543   5.143
    1C        O  771   4.842   3.627   4.984
    1C        C  772   4.277   4.450   5.037
    1C        O  773   4.253   4.468   5.159
    1C        O  774   4.379   4.532   4.987
    1C        C  775   4.148   2.512   5.062
    1C        O  776   4.170   2.390   5.041
    1C        O  777   4.137   2.516   5.202
    1C        C  778   2.903   4.514   5.080
    1C        O  779   2.832   4.617   5.068
    1C        O  780   2.943   4.489   5.212
    1C        C  781   2.446   3.038   5.037
    1C        O  782   2.351   2.991   4.969
    1C        O  783   2.438   3.014   5.174
    1C        C  784   2.432   3.990   5.071
    1C        O  785   2.310   3.969   5.047
    1C        O  786   2.448   4.028   5.205
    1C        C  787   2.942   2.433   2.009
    1C        O  788   2.919   2.456   1.887
    1C        O  789   2.916   2.299   2.035
    1C        C  790   3.188   2.391   5.083
    1C        O  791   3.164   2.269   5.058
    1C        O  792   3.250   2.405   5.207
    1C        H  793   4.282   3.030   5.062
    1C        H  794   4.162   2.815   5.071
    1C        H  795   4.506   3.131   5.063
    1C        H  796   4.509   3.377   5.064
    1C        H  797   4.571   3.814   5.048
    1C        H  798   4.421   3.975   5.054
    1C        H  799   4.263   4.142   5.049
    1C        H  800   4.042   4.546   5.030
    1C        H  801   3.819   4.571   5.045
    1C        H  802   3.585   4.628   5.044
    1C        H  803   3.395   4.447   5.024
    1C        H  804   3.164   4.520   5.054
    1C        H  805   3.890   2.484   5.065
    1C        H  806   3.681   2.441   5.072
    1C        H  807   3.047   2.607   5.076
    1C        H  808   3.446   2.456   5.079
    1C        H  809   2.855   2.715   5.077
    1C        H  810   2.665   2.853   5.060
    1C        H  811   2.480   3.284   5.067
    1C        H  812   2.515   3.493   5.074
    1C        H  813   2.458   3.725   5.059
    1C        H  814   2.596   4.179   5.045
    1C        H  815   2.800   4.273   5.045
    1C        H  816   2.706   2.874   1.973
    1C        H  817   2.870   2.696   1.976
    1C        H  818   3.215   2.430   1.993
    1C        H  819   3.435   2.462   1.979
    1C        H  820   3.841   2.548   1.974
    1C        H  821   4.054   2.655   1.972
    1C        H  822   4.296   2.696   2.000
    1C        H  823   4.402   2.907   1.972
    1C        H  824   4.591   3.316   1.975
    1C        H  825   4.457   3.509   1.975
    1C        H  826   4.537   3.745   1.962
    1C        H  827   3.795   4.500   1.943
    1C        H  828   3.993   4.419   1.949
    1C        H  829   4.151   4.242   1.948
    1C        H  830   4.482   3.969   1.963
    1C        H  831   2.677   3.826   1.986
    1C        H  832   2.716   4.056   1.964
    1C        H  833   2.715   4.300   1.971
    1C        H  834   3.386   4.422   1.970
    1C        H  835   3.156   4.396   1.958
    1C        H  836   2.476   2.997   2.031
    1C        H  837   2.510   3.250   1.978
    1C        H  838   2.489   3.685   1.967
    2V3OU   H29  839   2.797   3.553   5.127
    2V3OU   C27  840   2.784   3.501   5.226
    2V3OU   H27  841   2.731   3.570   5.297
    2V3OU   H28  842   2.730   3.404   5.215
    2V3OU   O11  843   2.913   3.473   5.280
    2V3OU   C15  844   2.920   3.402   5.399
    2V3OU   C13  845   3.052   3.382   5.445
    2V3OU   C14  846   3.078   3.268   5.523
    2V3OU   C16  847   2.974   3.185   5.564
    2V3OU    H6  848   2.992   3.107   5.639
    2V3OU   C12  849   3.215   3.231   5.563
    2V3OU    O2  850   3.246   3.132   5.632
    2V3OU   C10  851   3.326   3.313   5.511
    2V3OU    C8  852   3.459   3.277   5.531
    2V3OU   O10  853   3.494   3.157   5.584
    2V3OU   H26  854   3.406   3.123   5.610
    2V3OU    C6  855   3.567   3.352   5.476
    2V3OU    C5  856   3.539   3.465   5.399
    2V3OU    C4  857   3.705   3.296   5.483
    2V3OU    H4  858   3.719   3.228   5.573
    2V3OU    H5  859   3.721   3.226   5.396
    2V3OU    C2  860   3.814   3.402   5.470
    2V3OU    O6  861   3.811   3.473   5.594
    2V3OU   H21  862   3.765   3.554   5.565
    2V3OU    C3  863   3.779   3.501   5.359
    2V3OU    H2  864   3.867   3.570   5.352
    2V3OU    H3  865   3.780   3.441   5.264
    2V3OU   C25  866   3.950   3.332   5.464
    2V3OU    O7  867   3.997   3.290   5.357
    2V3OU   C26  868   4.030   3.296   5.588
    2V3OU   H22  869   4.067   3.384   5.646
    2V3OU   H23  870   4.123   3.240   5.559
    2V3OU    O8  871   3.964   3.212   5.680
    2V3OU   H24  872   3.933   3.264   5.755
    2V3OU    C1  873   3.644   3.569   5.374
    2V3OU    H1  874   3.619   3.627   5.281
    2V3OU    O3  875   3.666   3.658   5.484
    2V3OU   C19  876   3.619   3.792   5.470
    2V3OU    H9  877   3.516   3.799   5.424
    2V3OU    O4  878   3.715   3.849   5.384
    2V3OU   C20  879   3.845   3.881   5.436
    2V3OU   H10  880   3.892   3.779   5.443
    2V3OU   C24  881   3.610   3.856   5.609
    2V3OU   H16  882   3.537   3.797   5.670
    2V3OU   H17  883   3.565   3.958   5.597
    2V3OU   C23  884   3.751   3.877   5.663
    2V3OU   H15  885   3.790   3.771   5.677
    2V3OU    N1  886   3.733   3.953   5.785
    2V3OU   H19  887   3.808   3.928   5.846
    2V3OU   H20  888   3.647   3.930   5.831
    2V3OU   C21  889   3.852   3.952   5.571
    2V3OU   H11  890   3.956   3.928   5.609
    2V3OU    O5  891   3.835   4.092   5.582
    2V3OU   H18  892   3.783   4.099   5.664
    2V3OU   C22  893   3.917   3.953   5.323
    2V3OU   H12  894   3.864   4.049   5.300
    2V3OU   H13  895   3.912   3.892   5.230
    2V3OU   H14  896   4.024   3.966   5.356
    2V3OU   C11  897   3.161   3.469   5.401
    2V3OU    O1  898   3.141   3.587   5.365
    2V3OU    C9  899   3.300   3.425   5.427
    2V3OU    C7  900   3.403   3.502   5.375
    2V3OU    O9  901   3.383   3.613   5.294
    2V3OU   H25  902   3.289   3.633   5.300
    2V3OU   C17  903   2.818   3.317   5.447
    2V3OU    H7  904   2.712   3.341   5.438
    2V3OU   C18  905   2.842   3.206   5.528
    2V3OU    H8  906   2.753   3.151   5.560
    3SOL     OW  907   4.010   3.853   4.102
    3SOL    HW1  908   3.964   3.839   4.189
    3SOL    HW2  909   3.977   3.938   4.060
    4SOL     OW  910   6.535   0.294   0.505
    4SOL    HW1  911   6.508   0.223   0.570
    4SOL    HW2  912   6.531   0.257   0.412
    5SOL     OW  913   4.550   1.642   1.438
    5SOL    HW1  914   4.568   1.546   1.457
    5SOL    HW2  915   4.637   1.688   1.415
    6SOL     OW  916   5.968   0.528   2.597
    6SOL    HW1  917   5.955   0.433   2.626
    6SOL    HW2  918   6.008   0.581   2.672
    7SOL     OW  919   2.125   4.390   3.924
    7SOL    HW1  920   2.068   4.320   3.881
    7SOL    HW2  921   2.216   4.388   3.884
    8SOL     OW  922   1.931   3.443   5.524
    8SOL    HW1  923   1.833   3.432   5.542
    8SOL    HW2  924   1.982   3.436   5.610
    9SOL     OW  925   6.521   1.179   6.543
    9SOL    HW1  926   6.473   1.177   6.455
    9SOL    HW2  927   6.564   1.268   6.555
   10SOL     OW  928   5.011   4.320   2.857
   10SOL    HW1  929   4.987   4.225   2.841
   10SOL    HW2  930   5.107   4.327   2.882
   11SOL     OW  931   2.900   1.234   0.488
   11SOL    HW1  932   2.870   1.176   0.412
   11SOL    HW2  933   2.877   1.190   0.575
   12SOL     OW  934   2.951   4.959   3.058
   12SOL    HW1  935   2.996   4.892   3.116
   12SOL    HW2  936   2.859   4.926   3.034
   13SOL     OW  937   4.899   6.389   1.162
   13SOL    HW1  938   4.980   6.439   1.195
   13SOL    HW2  939   4.877   6.420   1.069
   14SOL     OW  940   4.358   5.279   5.051
   14SOL    HW1  941   4.340   5.350   5.118
   14SOL    HW2  942   4.281   5.215   5.049
   15SOL     OW  943   6.564   6.006   6.007
   15SOL    HW1  944   6.537   5.912   5.986
   15SOL    HW2  945   6.653   6.005   6.052
   16SOL     OW  946   1.097   4.116   5.104
   16SOL    HW1  947   1.075   4.106   5.201
   16SOL    HW2  948   1.125   4.028   5.066
   17SOL     OW  949   6.107   1.764   4.974
   17SOL    HW1  950   6.092   1.794   5.068
   17SOL    HW2  951   6.074   1.671   4.962
   18SOL     OW  952   2.877   1.130   5.867
   18SOL    HW1  953   2.888   1.040   5.824
   18SOL    HW2  954   2.960   1.153   5.917
   19SOL     OW  955   2.080   1.128   2.615
   19SOL    HW1  956   2.147   1.199   2.636
   19SOL    HW2  957   2.127   1.047   2.579
   20SOL     OW  958   6.351   1.834   5.422
   20SOL    HW1  959   6.291   1.754   5.428
   20SOL    HW2  960   6.298   1.912   5.388
   21SOL     OW  961   2.601   4.553   2.980
   21SOL    HW1  962   2.622   4.596   2.892
   21SOL    HW2  963   2.628   4.457   2.978
   22SOL     OW  964   1.771   6.384   6.405
   22SOL    HW1  965   1.821   6.451   6.461
   22SOL    HW2  966   1.762   6.420   6.312
   23SOL     OW  967   5.386   4.474   1.207
   23SOL    HW1  968   5.374   4.441   1.301
   23SOL    HW2  969   5.452   4.549   1.206
   24SOL     OW  970   4.428   0.999   1.245
   24SOL    HW1  971   4.447   1.071   1.312
   24SOL    HW2  972   4.514   0.970   1.203
   25SOL     OW  973   1.819   1.231   4.702
   25SOL    HW1  974   1.752   1.273   4.762
   25SOL    HW2  975   1.802   1.132   4.698
   26SOL     OW  976   1.341   2.738   0.075
   26SOL    HW1  977   1.389   2.667   0.127
   26SOL    HW2  978   1.249   2.706   0.053
   27SOL     OW  979   6.223   0.740   1.151
   27SOL    HW1  980   6.192   0.831   1.125
   27SOL    HW2  981   6.149   0.674   1.134
   28SOL     OW  982   2.593   0.891   5.160
   28SOL    HW1  983   2.494   0.902   5.171
   28SOL    HW2  984   2.612   0.853   5.069
   29SOL     OW  985   0.490   0.691   1.273
   29SOL    HW1  986   0.540   0.762   1.223
   29SOL    HW2  987   0.518   0.601   1.240
   30SOL     OW  988   4.229   0.659   5.061
   30SOL    HW1  989   4.262   0.707   5.143
   30SOL    HW2  990   4.302   0.599   5.027
   31SOL     OW  991   1.026   4.017   5.375
   31SOL    HW1  992   1.074   3.999   5.461
   31SOL    HW2  993   0.942   3.963   5.372
   32SOL     OW  994   2.988   0.812   0.877
   32SOL    HW1  995   3.037   0.737   0.922
   32SOL    HW2  996   2.900   0.779   0.844
   33SOL     OW  997   0.878   5.318   5.619
   33SOL    HW1  998   0.964   5.267   5.614
   33SOL    HW2  999   0.842   5.313   5.712
   34SOL     OW 1000   2.037   5.417   5.227
   34SOL    HW1 1001   2.053   5.443   5.322
   34SOL    HW2 1002   2.112   5.359   5.195
   35SOL     OW 1003   3.045   3.162   0.104
   35SOL    HW1 1004   3.062   3.193   0.011
   35SOL    HW2 1005   3.040   3.062   0.106
   36SOL     OW 1006   4.499   0.859   4.842
   36SOL    HW1 1007   4.499   0.859   4.742
   36SOL    HW2 1008   4.413   0.896   4.876
   37SOL     OW 1009   2.874   0.735   4.380
   37SOL    HW1 1010   2.951   0.709   4.438
   37SOL    HW2 1011   2.904   0.736   4.284
   38SOL     OW 1012   6.955   4.325   2.670
   38SOL    HW1 1013   7.009   4.245   2.640
   38SOL    HW2 1014   6.873   4.332   2.613
   39SOL     OW 1015   0.033   5.597   6.834
   39SOL    HW1 1016   0.112   5.649   6.802
   39SOL    HW2 1017   0.045   5.501   6.812
   40SOL     OW 1018   4.051   0.690   6.323
   40SOL    HW1 1019   3.956   0.691   6.356
   40SOL    HW2 1020   4.053   0.714   6.226
   41SOL     OW 1021   5.682   4.404   1.484
   41SOL    HW1 1022   5.717   4.330   1.426
   41SOL    HW2 1023   5.583   4.394   1.495
   42SOL     OW 1024   2.552   5.379   6.233
   42SOL    HW1 1025   2.489   5.304   6.211
   42SOL    HW2 1026   2.570   5.381   6.331
   43SOL     OW 1027   3.857   0.025   4.529
   43SOL    HW1 1028   3.850   6.952   4.530
   43SOL    HW2 1029   3.914   0.056   4.605
   44SOL     OW 1030   7.014   1.527   6.199
   44SOL    HW1 1031   6.920   1.541   6.170
   44SOL    HW2 1032   7.018   1.521   6.299
   45SOL     OW 1033   2.981   5.367   0.188
   45SOL    HW1 1034   3.013   5.293   0.130
   45SOL    HW2 1035   3.038   5.448   0.174
   46SOL     OW 1036   0.450   2.765   4.196
   46SOL    HW1 1037   0.362   2.804   4.170
   46SOL    HW2 1038   0.439   2.710   4.279
   47SOL     OW 1039   5.578   3.096   1.073
   47SOL    HW1 1040   5.646   3.071   1.142
   47SOL    HW2 1041   5.487   3.089   1.112
   48SOL     OW 1042   6.834   3.610   0.942
   48SOL    HW1 1043   6.919   3.613   0.994
   48SOL    HW2 1044   6.771   3.545   0.984
   49SOL     OW 1045   4.289   3.870   6.956
   49SOL    HW1 1046   4.338   3.955   6.974
   49SOL    HW2 1047   4.306   3.805   0.004
   50SOL     OW 1048   6.183   3.252   6.919
   50SOL    HW1 1049   6.221   3.195   6.847
   50SOL    HW2 1050   6.216   3.346   6.908
   51SOL     OW 1051   2.343   6.166   2.827
   51SOL    HW1 1052   2.368   6.074   2.859
   51SOL    HW2 1053   2.334   6.165   2.728
   52SOL     OW 1054   5.612   2.537   1.075
   52SOL    HW1 1055   5.549   2.480   1.021
   52SOL    HW2 1056   5.699   2.545   1.027
   53SOL     OW 1057   4.203   0.342   2.458
   53SOL    HW1 1058   4.293   0.379   2.481
   53SOL    HW2 1059   4.200   0.245   2.483
   54SOL     OW 1060   5.683   6.668   6.703
   54SOL    HW1 1061   5.742   6.629   6.774
   54SOL    HW2 1062   5.716   6.759   6.679
   55SOL     OW 1063   0.697   3.538   6.761
   55SOL    HW1 1064   0.711   3.446   6.798
   55SOL    HW2 1065   0.635   3.533   6.682
   56SOL     OW 1066   0.915   2.857   0.092
   56SOL    HW1 1067   0.827   2.904   0.103
   56SOL    HW2 1068   0.989   2.923   0.104
   57SOL     OW 1069   4.730   0.030   6.590
   57SOL    HW1 1070   4.712   6.998   6.510
   57SOL    HW2 1071   4.796   7.011   6.650
   58SOL     OW 1072   1.004   0.146   6.333
   58SOL    HW1 1073   1.089   0.107   6.370
   58SOL    HW2 1074   0.937   0.155   6.407
   59SOL     OW 1075   5.002   3.027   5.532
   59SOL    HW1 1076   5.016   3.026   5.433
   59SOL    HW2 1077   4.904   3.030   5.552
   60SOL     OW 1078   5.651   1.038   2.948
   60SOL    HW1 1079   5.566   1.084   2.919
   60SOL    HW2 1080   5.719   1.048   2.875
   61SOL     OW 1081   6.239   5.721   4.974
   61SOL    HW1 1082   6.336   5.730   4.955
   61SOL    HW2 1083   6.206   5.804   5.020
   62SOL     OW 1084   6.118   2.350   1.935
   62SOL    HW1 1085   6.130   2.400   1.849
   62SOL    HW2 1086   6.167   2.263   1.931
   63SOL     OW 1087   4.566   6.213   5.120
   63SOL    HW1 1088   4.553   6.285   5.188
   63SOL    HW2 1089   4.482   6.202   5.067
   64SOL     OW 1090   0.130   4.485   6.446
   64SOL    HW1 1091   0.187   4.481   6.364
   64SOL    HW2 1092   0.184   4.519   6.523
   65SOL     OW 1093   0.838   0.109   5.569
   65SOL    HW1 1094   0.851   0.064   5.657
   65SOL    HW2 1095   0.801   0.201   5.584
   66SOL     OW 1096   4.222   0.965   2.349
   66SOL    HW1 1097   4.150   1.027   2.319
   66SOL    HW2 1098   4.307   0.986   2.300
   67SOL     OW 1099   0.803   2.747   1.338
   67SOL    HW1 1100   0.830   2.811   1.409
   67SOL    HW2 1101   0.884   2.707   1.296
   68SOL     OW 1102   6.981   1.980   5.053
   68SOL    HW1 1103   6.949   2.059   5.107
   68SOL    HW2 1104   6.905   1.946   4.997
   69SOL     OW 1105   1.030   6.083   6.159
   69SOL    HW1 1106   0.961   6.140   6.115
   69SOL    HW2 1107   0.990   6.037   6.239
   70SOL     OW 1108   4.919   3.501   4.055
   70SOL    HW1 1109   4.963   3.484   4.143
   70SOL    HW2 1110   4.989   3.523   3.987
   71SOL     OW 1111   4.489   1.484   4.964
   71SOL    HW1 1112   4.563   1.430   5.001
   71SOL    HW2 1113   4.409   1.478   5.024
   72SOL     OW 1114   0.353   1.022   3.603
   72SOL    HW1 1115   0.269   0.991   3.559
   72SOL    HW2 1116   0.427   1.023   3.536
   73SOL     OW 1117   2.904   1.047   1.043
   73SOL    HW1 1118   2.963   1.001   1.109
   73SOL    HW2 1119   2.825   0.989   1.023
   74SOL     OW 1120   1.828   2.410   0.445
   74SOL    HW1 1121   1.914   2.455   0.469
   74SOL    HW2 1122   1.843   2.349   0.368
   75SOL     OW 1123   3.580   3.875   0.439
   75SOL    HW1 1124   3.656   3.914   0.492
   75SOL    HW2 1125   3.535   3.804   0.494
   76SOL     OW 1126   3.411   4.864   5.180
   76SOL    HW1 1127   3.340   4.934   5.183
   76SOL    HW2 1128   3.372   4.775   5.206
   77SOL     OW 1129   1.254   4.335   4.678
   77SOL    HW1 1130   1.182   4.404   4.670
   77SOL    HW2 1131   1.252   4.294   4.769
   78SOL     OW 1132   4.858   1.684   1.105
   78SOL    HW1 1133   4.789   1.753   1.129
   78SOL    HW2 1134   4.831   1.595   1.141
   79SOL     OW 1135   1.548   4.781   2.973
   79SOL    HW1 1136   1.612   4.704   2.973
   79SOL    HW2 1137   1.575   4.846   3.043
   80SOL     OW 1138   4.470   1.187   5.200
   80SOL    HW1 1139   4.374   1.159   5.199
   80SOL    HW2 1140   4.498   1.205   5.295
   81SOL     OW 1141   4.262   5.910   1.363
   81SOL    HW1 1142   4.268   5.930   1.461
   81SOL    HW2 1143   4.192   5.968   1.322
   82SOL     OW 1144   2.371   6.309   1.701
   82SOL    HW1 1145   2.328   6.400   1.706
   82SOL    HW2 1146   2.305   6.240   1.731
   83SOL     OW 1147   5.421   0.974   5.056
   83SOL    HW1 1148   5.470   1.010   5.135
   83SOL    HW2 1149   5.485   0.928   4.994
   84SOL     OW 1150   5.354   2.176   2.234
   84SOL    HW1 1151   5.270   2.122   2.231
   84SOL    HW2 1152   5.433   2.115   2.239
   85SOL     OW 1153   1.872   0.474   3.968
   85SOL    HW1 1154   1.902   0.505   4.058
   85SOL    HW2 1155   1.940   0.498   3.899
   86SOL     OW 1156   5.796   0.367   6.577
   86SOL    HW1 1157   5.840   0.457   6.573
   86SOL    HW2 1158   5.803   0.330   6.670
   87SOL     OW 1159   2.693   4.678   6.994
   87SOL    HW1 1160   2.627   4.620   0.014
   87SOL    HW2 1161   2.768   4.622   6.958
   88SOL     OW 1162   3.304   4.069   6.976
   88SOL    HW1 1163   3.331   3.973   6.989
   88SOL    HW2 1164   3.328   4.122   0.031
   89SOL     OW 1165   3.128   4.050   3.850
   89SOL    HW1 1166   3.089   3.963   3.822
   89SOL    HW2 1167   3.147   4.048   3.948
   90SOL     OW 1168   5.122   4.043   2.843
   90SOL    HW1 1169   5.182   3.964   2.843
   90SOL    HW2 1170   5.164   4.118   2.791
   91SOL     OW 1171   4.337   5.104   5.742
   91SOL    HW1 1172   4.341   5.174   5.814
   91SOL    HW2 1173   4.429   5.073   5.721
   92SOL     OW 1174   6.008   3.915   6.272
   92SOL    HW1 1175   6.076   3.932   6.344
   92SOL    HW2 1176   6.050   3.861   6.199
   93SOL     OW 1177   2.822   3.601   1.960
   93SOL    HW1 1178   2.815   3.502   1.975
   93SOL    HW2 1179   2.859   3.645   2.042
   94SOL     OW 1180   2.647   1.813   5.281
   94SOL    HW1 1181   2.673   1.786   5.189
   94SOL    HW2 1182   2.562   1.766   5.307
   95SOL     OW 1183   0.722   0.742   4.099
   95SOL    HW1 1184   0.820   0.757   4.090
   95SOL    HW2 1185   0.700   0.647   4.079
   96SOL     OW 1186   6.009   4.902   0.603
   96SOL    HW1 1187   5.953   4.823   0.578
   96SOL    HW2 1188   6.032   4.897   0.700
   97SOL     OW 1189   2.463   4.991   5.966
   97SOL    HW1 1190   2.483   5.030   5.876
   97SOL    HW2 1191   2.372   4.950   5.966
   98SOL     OW 1192   1.618   2.513   3.423
   98SOL    HW1 1193   1.684   2.588   3.412
   98SOL    HW2 1194   1.561   2.506   3.341
   99SOL     OW 1195   3.913   3.379   5.082
   99SOL    HW1 1196   3.868   3.467   5.065
   99SOL    HW2 1197   3.974   3.388   5.161
  100SOL     OW 1198   6.909   0.957   4.045
  100SOL    HW1 1199   6.941   0.893   3.976
  100SOL    HW2 1200   6.821   0.997   4.016
  101SOL     OW 1201   6.633   3.832   2.748
  101SOL    HW1 1202   6.620   3.929   2.772
  101SOL    HW2 1203   6.560   3.778   2.788
  102SOL     OW 1204   3.680   0.489   0.037
  102SOL    HW1 1205   3.745   0.560   0.063
  102SOL    HW2 1206   3.725   0.423   7.003
  103SOL     OW 1207   2.951   1.117   1.935
  103SOL    HW1 1208   2.999   1.171   2.005
  103SOL    HW2 1209   2.938   1.024   1.968
  104SOL     OW 1210   6.963   4.385   1.650
  104SOL    HW1 1211   6.926   4.295   1.673
  104SOL    HW2 1212   6.891   4.454   1.659
  105SOL     OW 1213   6.050   1.055   5.525
  105SOL    HW1 1214   5.990   1.134   5.512
  105SOL    HW2 1215   6.001   0.971   5.504
  106SOL     OW 1216   5.448   4.775   1.802
  106SOL    HW1 1217   5.367   4.832   1.793
  106SOL    HW2 1218   5.472   4.767   1.899
  107SOL     OW 1219   5.615   7.024   1.458
  107SOL    HW1 1220   5.523   6.984   1.464
  107SOL    HW2 1221   5.678   6.955   1.421
  108SOL     OW 1222   1.901   1.200   5.256
  108SOL    HW1 1223   1.903   1.147   5.341
  108SOL    HW2 1224   1.995   1.222   5.229
  109SOL     OW 1225   1.686   1.013   4.018
  109SOL    HW1 1226   1.749   1.039   4.092
  109SOL    HW2 1227   1.671   1.092   3.959
  110SOL     OW 1228   3.387   4.270   5.291
  110SOL    HW1 1229   3.431   4.354   5.321
  110SOL    HW2 1230   3.289   4.284   5.283
  111SOL     OW 1231   6.719   1.830   1.481
  111SOL    HW1 1232   6.632   1.876   1.464
  111SOL    HW2 1233   6.724   1.801   1.576
  112SOL     OW 1234   4.855   6.283   6.748
  112SOL    HW1 1235   4.895   6.341   6.819
  112SOL    HW2 1236   4.922   6.269   6.674
  113SOL     OW 1237   0.271   6.166   2.343
  113SOL    HW1 1238   0.293   6.113   2.425
  113SOL    HW2 1239   0.202   6.235   2.365
  114SOL     OW 1240   0.257   3.830   3.134
  114SOL    HW1 1241   0.211   3.895   3.074
  114SOL    HW2 1242   0.200   3.812   3.214
  115SOL     OW 1243   5.780   0.469   4.102
  115SOL    HW1 1244   5.751   0.528   4.027
  115SOL    HW2 1245   5.795   0.376   4.067
  116SOL     OW 1246   0.452   4.866   0.258
  116SOL    HW1 1247   0.354   4.877   0.276
  116SOL    HW2 1248   0.493   4.810   0.329
  117SOL     OW 1249   2.605   2.157   7.021
  117SOL    HW1 1250   2.560   2.238   0.031
  117SOL    HW2 1251   2.624   2.170   6.924
  118SOL     OW 1252   1.373   1.959   3.859
  118SOL    HW1 1253   1.324   2.045   3.846
  118SOL    HW2 1254   1.459   1.961   3.809
  119SOL     OW 1255   6.405   6.490   6.654
  119SOL    HW1 1256   6.317   6.453   6.623
  119SOL    HW2 1257   6.478   6.457   6.594
  120SOL     OW 1258   4.710   2.012   4.840
  120SOL    HW1 1259   4.702   2.037   4.744
  120SOL    HW2 1260   4.630   2.045   4.890
  121SOL     OW 1261   1.651   4.850   6.828
  121SOL    HW1 1262   1.678   4.933   6.875
  121SOL    HW2 1263   1.566   4.815   6.868
  122SOL     OW 1264   0.221   4.059   6.520
  122SOL    HW1 1265   0.313   4.067   6.558
  122SOL    HW2 1266   0.165   4.002   6.582
  123SOL     OW 1267   1.323   1.628   1.446
  123SOL    HW1 1268   1.320   1.570   1.365
  123SOL    HW2 1269   1.362   1.577   1.523
  124SOL     OW 1270   2.103   2.638   0.769
  124SOL    HW1 1271   2.181   2.589   0.807
  124SOL    HW2 1272   2.127   2.734   0.754
  125SOL     OW 1273   3.936   3.734   0.026
  125SOL    HW1 1274   3.947   3.708   0.122
  125SOL    HW2 1275   3.996   3.678   6.995
  126SOL     OW 1276   4.034   3.577   4.310
  126SOL    HW1 1277   4.093   3.607   4.235
  126SOL    HW2 1278   4.084   3.513   4.368
  127SOL     OW 1279   0.497   5.717   5.725
  127SOL    HW1 1280   0.424   5.781   5.745
  127SOL    HW2 1281   0.583   5.752   5.761
  128SOL     OW 1282   4.459   3.426   0.365
  128SOL    HW1 1283   4.382   3.489   0.374
  128SOL    HW2 1284   4.427   3.332   0.376
  129SOL     OW 1285   1.074   5.607   1.216
  129SOL    HW1 1286   1.062   5.537   1.146
  129SOL    HW2 1287   1.169   5.636   1.220
  130SOL     OW 1288   5.776   2.630   4.997
  130SOL    HW1 1289   5.748   2.707   5.055
  130SOL    HW2 1290   5.875   2.633   4.983
  131SOL     OW 1291   0.201   2.311   3.931
  131SOL    HW1 1292   0.115   2.350   3.962
  131SOL    HW2 1293   0.254   2.380   3.881
  132SOL     OW 1294   4.092   3.732   2.251
  132SOL    HW1 1295   4.044   3.810   2.210
  132SOL    HW2 1296   4.109   3.751   2.348
  133SOL     OW 1297   5.644   6.015   6.156
  133SOL    HW1 1298   5.728   5.980   6.117
  133SOL    HW2 1299   5.666   6.080   6.230
  134SOL     OW 1300   5.020   1.202   1.691
  134SOL    HW1 1301   4.942   1.141   1.703
  134SOL    HW2 1302   5.018   1.274   1.761
  135SOL     OW 1303   4.900   3.378   3.339
  135SOL    HW1 1304   4.845   3.294   3.338
  135SOL    HW2 1305   4.983   3.363   3.393
  136SOL     OW 1306   3.595   6.951   5.870
  136SOL    HW1 1307   3.625   6.931   5.963
  136SOL    HW2 1308   3.517   7.014   5.872
  137SOL     OW 1309   3.565   2.776   5.748
  137SOL    HW1 1310   3.507   2.787   5.829
  137SOL    HW2 1311   3.508   2.759   5.668
  138SOL     OW 1312   0.776   5.507   6.330
  138SOL    HW1 1313   0.778   5.427   6.270
  138SOL    HW2 1314   0.788   5.590   6.276
  139SOL     OW 1315   2.300   6.011   0.569
  139SOL    HW1 1316   2.390   6.027   0.609
  139SOL    HW2 1317   2.262   6.098   0.538
  140SOL     OW 1318   2.830   0.351   1.376
  140SOL    HW1 1319   2.784   0.267   1.405
  140SOL    HW2 1320   2.863   0.401   1.456
  141SOL     OW 1321   6.587   3.309   0.477
  141SOL    HW1 1322   6.541   3.226   0.508
  141SOL    HW2 1323   6.627   3.356   0.556
  142SOL     OW 1324   1.421   3.947   2.571
  142SOL    HW1 1325   1.490   4.020   2.565
  142SOL    HW2 1326   1.467   3.858   2.570
  143SOL     OW 1327   4.707   6.572   2.276
  143SOL    HW1 1328   4.706   6.501   2.346
  143SOL    HW2 1329   4.725   6.661   2.319
  144SOL     OW 1330   3.689   5.390   3.689
  144SOL    HW1 1331   3.693   5.310   3.748
  144SOL    HW2 1332   3.594   5.421   3.681
  145SOL     OW 1333   6.686   4.808   3.053
  145SOL    HW1 1334   6.709   4.896   3.011
  145SOL    HW2 1335   6.761   4.778   3.112
  146SOL     OW 1336   5.761   1.261   6.515
  146SOL    HW1 1337   5.838   1.323   6.499
  146SOL    HW2 1338   5.721   1.234   6.428
  147SOL     OW 1339   5.095   0.835   5.435
  147SOL    HW1 1340   5.123   0.919   5.389
  147SOL    HW2 1341   5.145   0.758   5.397
  148SOL     OW 1342   0.902   5.416   0.601
  148SOL    HW1 1343   0.814   5.429   0.646
  148SOL    HW2 1344   0.888   5.405   0.503
  149SOL     OW 1345   2.275   2.733   5.688
  149SOL    HW1 1346   2.196   2.691   5.643
  149SOL    HW2 1347   2.312   2.806   5.631
  150SOL     OW 1348   4.188   1.705   4.975
  150SOL    HW1 1349   4.254   1.770   4.937
  150SOL    HW2 1350   4.238   1.632   5.022
  151SOL     OW 1351   3.661   2.860   0.701
  151SOL    HW1 1352   3.650   2.954   0.732
  151SOL    HW2 1353   3.581   2.806   0.729
  152SOL     OW 1354   1.039   2.083   0.584
  152SOL    HW1 1355   1.075   2.139   0.510
  152SOL    HW2 1356   1.104   2.009   0.605
  153SOL     OW 1357   3.127   1.249   3.524
  153SOL    HW1 1358   3.091   1.157   3.508
  153SOL    HW2 1359   3.171   1.252   3.614
  154SOL     OW 1360   6.339   1.607   1.744
  154SOL    HW1 1361   6.343   1.516   1.786
  154SOL    HW2 1362   6.358   1.676   1.813
  155SOL     OW 1363   1.463   6.587   2.090
  155SOL    HW1 1364   1.372   6.627   2.092
  155SOL    HW2 1365   1.506   6.597   2.180
  156SOL     OW 1366   4.950   2.143   0.316
  156SOL    HW1 1367   4.959   2.094   0.403
  156SOL    HW2 1368   5.020   2.213   0.311
  157SOL     OW 1369   3.997   5.214   6.922
  157SOL    HW1 1370   3.906   5.175   6.939
  157SOL    HW2 1371   4.049   5.152   6.863
  158SOL     OW 1372   6.765   2.879   2.741
  158SOL    HW1 1373   6.787   2.964   2.693
  158SOL    HW2 1374   6.847   2.822   2.746
  159SOL     OW 1375   5.859   5.321   0.506
  159SOL    HW1 1376   5.905   5.407   0.527
  159SOL    HW2 1377   5.928   5.248   0.498
  160SOL     OW 1378   6.475   0.006   1.698
  160SOL    HW1 1379   6.467   6.933   1.698
  160SOL    HW2 1380   6.563   0.033   1.737
  161SOL     OW 1381   6.943   6.587   0.231
  161SOL    HW1 1382   6.934   6.590   0.330
  161SOL    HW2 1383   6.977   6.675   0.198
  162SOL     OW 1384   4.521   0.230   0.247
  162SOL    HW1 1385   4.435   0.187   0.274
  162SOL    HW2 1386   4.526   0.236   0.147
  163SOL     OW 1387   6.882   3.859   3.029
  163SOL    HW1 1388   6.953   3.841   2.961
  163SOL    HW2 1389   6.923   3.862   3.120
  164SOL     OW 1390   2.206   2.245   3.775
  164SOL    HW1 1391   2.289   2.268   3.724
  164SOL    HW2 1392   2.184   2.148   3.760
  165SOL     OW 1393   0.364   6.204   3.420
  165SOL    HW1 1394   0.415   6.121   3.443
  165SOL    HW2 1395   0.274   6.179   3.385
  166SOL     OW 1396   6.968   3.906   3.279
  166SOL    HW1 1397   0.012   3.843   3.312
  166SOL    HW2 1398   6.929   3.957   3.356
  167SOL     OW 1399   4.089   2.106   0.104
  167SOL    HW1 1400   4.002   2.155   0.100
  167SOL    HW2 1401   4.087   2.028   0.041
  168SOL     OW 1402   5.285   4.220   1.853
  168SOL    HW1 1403   5.359   4.156   1.833
  168SOL    HW2 1404   5.300   4.305   1.802
  169SOL     OW 1405   5.309   2.594   1.062
  169SOL    HW1 1406   5.349   2.519   1.010
  169SOL    HW2 1407   5.318   2.576   1.160
  170SOL     OW 1408   0.608   5.985   2.749
  170SOL    HW1 1409   0.563   6.053   2.691
  170SOL    HW2 1410   0.571   5.991   2.842
  171SOL     OW 1411   3.156   4.059   0.701
  171SOL    HW1 1412   3.179   4.031   0.608
  171SOL    HW2 1413   3.064   4.097   0.703
  172SOL     OW 1414   6.902   2.191   6.809
  172SOL    HW1 1415   6.845   2.266   6.774
  172SOL    HW2 1416   6.956   2.224   6.886
  173SOL     OW 1417   0.158   1.700   4.225
  173SOL    HW1 1418   0.143   1.798   4.218
  173SOL    HW2 1419   0.087   1.659   4.281
  174SOL     OW 1420   5.719   5.292   5.282
  174SOL    HW1 1421   5.766   5.353   5.219
  174SOL    HW2 1422   5.633   5.261   5.241
  175SOL     OW 1423   0.819   0.291   1.087
  175SOL    HW1 1424   0.805   0.351   1.008
  175SOL    HW2 1425   0.858   0.343   1.163
  176SOL     OW 1426   5.552   4.435   1.920
  176SOL    HW1 1427   5.623   4.503   1.906
  176SOL    HW2 1428   5.470   4.459   1.868
  177SOL     OW 1429   5.769   2.609   4.485
  177SOL    HW1 1430   5.741   2.635   4.577
  177SOL    HW2 1431   5.744   2.513   4.469
  178SOL     OW 1432   2.039   6.181   4.901
  178SOL    HW1 1433   2.101   6.105   4.882
  178SOL    HW2 1434   2.093   6.263   4.922
  179SOL     OW 1435   3.570   4.902   1.388
  179SOL    HW1 1436   3.566   4.825   1.451
  179SOL    HW2 1437   3.510   4.975   1.422
  180SOL     OW 1438   3.942   1.473   0.733
  180SOL    HW1 1439   3.969   1.421   0.652
  180SOL    HW2 1440   4.011   1.461   0.805
  181SOL     OW 1441   3.241   2.349   5.720
  181SOL    HW1 1442   3.217   2.256   5.747
  181SOL    HW2 1443   3.224   2.360   5.622
  182SOL     OW 1444   4.508   2.284   0.245
  182SOL    HW1 1445   4.470   2.371   0.278
  182SOL    HW2 1446   4.444   2.241   0.181
  183SOL     OW 1447   3.636   1.613   3.326
  183SOL    HW1 1448   3.588   1.687   3.372
  183SOL    HW2 1449   3.573   1.537   3.310
  184SOL     OW 1450   5.521   6.238   3.671
  184SOL    HW1 1451   5.520   6.320   3.615
  184SOL    HW2 1452   5.485   6.161   3.619
  185SOL     OW 1453   6.548   1.287   4.049
  185SOL    HW1 1454   6.613   1.330   3.987
  185SOL    HW2 1455   6.476   1.353   4.073
  186SOL     OW 1456   4.638   6.111   4.030
  186SOL    HW1 1457   4.612   6.206   4.042
  186SOL    HW2 1458   4.700   6.103   3.952
  187SOL     OW 1459   4.734   6.389   1.830
  187SOL    HW1 1460   4.712   6.436   1.915
  187SOL    HW2 1461   4.783   6.451   1.769
  188SOL     OW 1462   1.434   3.372   3.454
  188SOL    HW1 1463   1.415   3.356   3.358
  188SOL    HW2 1464   1.532   3.363   3.471
  189SOL     OW 1465   6.177   4.982   6.517
  189SOL    HW1 1466   6.099   5.036   6.549
  189SOL    HW2 1467   6.151   4.886   6.515
  190SOL     OW 1468   6.091   0.315   0.328
  190SOL    HW1 1469   6.180   0.360   0.338
  190SOL    HW2 1470   6.029   0.348   0.399
  191SOL     OW 1471   6.984   1.446   5.486
  191SOL    HW1 1472   0.027   1.466   5.555
  191SOL    HW2 1473   6.935   1.529   5.463
  192SOL     OW 1474   0.635   5.504   0.988
  192SOL    HW1 1475   0.617   5.469   1.080
  192SOL    HW2 1476   0.616   5.433   0.920
  193SOL     OW 1477   2.330   6.063   6.764
  193SOL    HW1 1478   2.249   6.030   6.812
  193SOL    HW2 1479   2.363   5.993   6.701
  194SOL     OW 1480   4.178   6.713   2.545
  194SOL    HW1 1481   4.122   6.795   2.532
  194SOL    HW2 1482   4.240   6.727   2.622
  195SOL     OW 1483   3.729   0.687   1.281
  195SOL    HW1 1484   3.748   0.641   1.368
  195SOL    HW2 1485   3.798   0.659   1.214
  196SOL     OW 1486   2.603   1.540   0.579
  196SOL    HW1 1487   2.552   1.619   0.614
  196SOL    HW2 1488   2.538   1.476   0.537
  197SOL     OW 1489   1.969   6.615   0.545
  197SOL    HW1 1490   1.997   6.536   0.600
  197SOL    HW2 1491   1.966   6.696   0.604
  198SOL     OW 1492   4.545   0.226   6.478
  198SOL    HW1 1493   4.481   0.152   6.498
  198SOL    HW2 1494   4.639   0.193   6.491
  199SOL     OW 1495   6.931   6.870   3.336
  199SOL    HW1 1496   6.863   6.805   3.301
  199SOL    HW2 1497   7.014   6.821   3.362
  200SOL     OW 1498   0.493   3.964   3.600
  200SOL    HW1 1499   0.434   3.886   3.621
  200SOL    HW2 1500   0.558   3.938   3.529
  201SOL     OW 1501   3.585   1.108   6.249
  201SOL    HW1 1502   3.645   1.051   6.306
  201SOL    HW2 1503   3.593   1.079   6.153
  202SOL     OW 1504   3.288   0.548   2.911
  202SOL    HW1 1505   3.294   0.470   2.972
  202SOL    HW2 1506   3.267   0.517   2.818
  203SOL     OW 1507   5.605   3.425   6.383
  203SOL    HW1 1508   5.574   3.470   6.466
  203SOL    HW2 1509   5.670   3.353   6.406
  204SOL     OW 1510   2.216   6.773   1.242
  204SOL    HW1 1511   2.119   6.793   1.226
  204SOL    HW2 1512   2.234   6.677   1.219
  205SOL     OW 1513   6.349   1.656   0.425
  205SOL    HW1 1514   6.395   1.666   0.337
  205SOL    HW2 1515   6.273   1.591   0.416
  206SOL     OW 1516   0.986   4.179   2.073
  206SOL    HW1 1517   0.911   4.173   2.008
  206SOL    HW2 1518   1.064   4.126   2.038
  207SOL     OW 1519   4.687   0.586   5.492
  207SOL    HW1 1520   4.657   0.491   5.498
  207SOL    HW2 1521   4.784   0.590   5.468
  208SOL     OW 1522   4.096   5.384   6.468
  208SOL    HW1 1523   4.008   5.349   6.501
  208SOL    HW2 1524   4.090   5.483   6.455
  209SOL     OW 1525   6.755   5.791   5.699
  209SOL    HW1 1526   6.746   5.692   5.694
  209SOL    HW2 1527   6.849   5.816   5.724
  210SOL     OW 1528   3.883   3.594   0.829
  210SOL    HW1 1529   3.972   3.613   0.788
  210SOL    HW2 1530   3.811   3.637   0.774
  211SOL     OW 1531   1.656   1.579   0.993
  211SOL    HW1 1532   1.641   1.676   1.012
  211SOL    HW2 1533   1.576   1.542   0.945
  212SOL     OW 1534   0.146   5.224   3.796
  212SOL    HW1 1535   0.105   5.315   3.786
  212SOL    HW2 1536   0.122   5.186   3.885
  213SOL     OW 1537   4.929   2.019   0.066
  213SOL    HW1 1538   4.844   1.971   0.044
  213SOL    HW2 1539   4.925   2.053   0.160
  214SOL     OW 1540   1.146   0.626   2.810
  214SOL    HW1 1541   1.062   0.619   2.862
  214SOL    HW2 1542   1.176   0.534   2.782
  215SOL     OW 1543   3.715   3.589   2.778
  215SOL    HW1 1544   3.764   3.505   2.801
  215SOL    HW2 1545   3.650   3.610   2.851
  216SOL     OW 1546   0.802   6.990   5.806
  216SOL    HW1 1547   0.806   0.012   5.894
  216SOL    HW2 1548   0.881   6.929   5.799
  217SOL     OW 1549   0.749   2.722   2.940
  217SOL    HW1 1550   0.740   2.679   3.030
  217SOL    HW2 1551   0.732   2.821   2.949
  218SOL     OW 1552   1.173   3.982   5.625
  218SOL    HW1 1553   1.108   4.014   5.695
  218SOL    HW2 1554   1.252   4.043   5.624
  219SOL     OW 1555   4.259   5.257   0.018
  219SOL    HW1 1556   4.172   5.233   7.001
  219SOL    HW2 1557   4.283   5.186   0.085
  220SOL     OW 1558   3.039   5.212   0.570
  220SOL    HW1 1559   2.973   5.191   0.497
  220SOL    HW2 1560   2.991   5.254   0.647
  221SOL     OW 1561   5.476   2.191   4.555
  221SOL    HW1 1562   5.433   2.234   4.476
  221SOL    HW2 1563   5.405   2.152   4.614
  222SOL     OW 1564   1.111   6.470   5.433
  222SOL    HW1 1565   1.088   6.385   5.386
  222SOL    HW2 1566   1.032   6.531   5.434
  223SOL     OW 1567   6.814   3.680   1.658
  223SOL    HW1 1568   6.785   3.767   1.620
  223SOL    HW2 1569   6.855   3.694   1.748
  224SOL     OW 1570   3.111   2.273   1.783
  224SOL    HW1 1571   3.052   2.339   1.830
  224SOL    HW2 1572   3.055   2.198   1.747
  225SOL     OW 1573   6.194   0.127   6.707
  225SOL    HW1 1574   6.289   0.100   6.690
  225SOL    HW2 1575   6.178   0.217   6.666
  226SOL     OW 1576   0.081   5.989   0.819
  226SOL    HW1 1577   0.140   6.034   0.886
  226SOL    HW2 1578   0.010   5.938   0.867
  227SOL     OW 1579   1.174   3.332   3.751
  227SOL    HW1 1580   1.129   3.275   3.682
  227SOL    HW2 1581   1.197   3.421   3.711
  228SOL     OW 1582   4.326   6.722   3.829
  228SOL    HW1 1583   4.368   6.660   3.763
  228SOL    HW2 1584   4.374   6.810   3.827
  229SOL     OW 1585   5.837   5.724   2.444
  229SOL    HW1 1586   5.841   5.747   2.541
  229SOL    HW2 1587   5.742   5.709   2.417
  230SOL     OW 1588   2.181   4.037   4.804
  230SOL    HW1 1589   2.173   3.957   4.744
  230SOL    HW2 1590   2.235   4.012   4.885
  231SOL     OW 1591   0.409   2.126   6.058
  231SOL    HW1 1592   0.446   2.097   6.147
  231SOL    HW2 1593   0.316   2.161   6.070
  232SOL     OW 1594   1.964   4.954   6.217
  232SOL    HW1 1595   1.901   5.020   6.177
  232SOL    HW2 1596   1.940   4.862   6.186
  233SOL     OW 1597   1.863   0.715   6.351
  233SOL    HW1 1598   1.824   0.656   6.422
  233SOL    HW2 1599   1.811   0.704   6.267
  234SOL     OW 1600   2.426   5.647   0.175
  234SOL    HW1 1601   2.413   5.725   0.236
  234SOL    HW2 1602   2.454   5.681   0.085
  235SOL     OW 1603   2.923   3.432   4.953
  235SOL    HW1 1604   2.975   3.504   5.000
  235SOL    HW2 1605   2.937   3.345   5.001
  236SOL     OW 1606   6.893   2.192   5.218
  236SOL    HW1 1607   6.829   2.140   5.275
  236SOL    HW2 1608   6.933   2.265   5.272
  237SOL     OW 1609   0.576   0.544   1.578
  237SOL    HW1 1610   0.596   0.530   1.480
  237SOL    HW2 1611   0.502   0.610   1.588
  238SOL     OW 1612   6.112   2.482   2.549
  238SOL    HW1 1613   6.032   2.499   2.608
  238SOL    HW2 1614   6.086   2.500   2.454
  239SOL     OW 1615   0.066   6.014   0.565
  239SOL    HW1 1616   0.118   6.092   0.531
  239SOL    HW2 1617   0.077   6.007   0.664
  240SOL     OW 1618   0.350   3.626   5.860
  240SOL    HW1 1619   0.331   3.530   5.838
  240SOL    HW2 1620   0.271   3.682   5.835
  241SOL     OW 1621   0.755   0.552   3.196
  241SOL    HW1 1622   0.828   0.557   3.264
  241SOL    HW2 1623   0.677   0.502   3.233
  242SOL     OW 1624   1.854   3.696   4.111
  242SOL    HW1 1625   1.755   3.691   4.097
  242SOL    HW2 1626   1.884   3.791   4.103
  243SOL     OW 1627   4.951   6.894   5.353
  243SOL    HW1 1628   4.934   6.942   5.267
  243SOL    HW2 1629   4.864   6.876   5.399
  244SOL     OW 1630   6.297   2.028   5.765
  244SOL    HW1 1631   6.371   1.971   5.731
  244SOL    HW2 1632   6.239   2.057   5.689
  245SOL     OW 1633   6.005   1.645   4.040
  245SOL    HW1 1634   6.090   1.604   4.009
  245SOL    HW2 1635   5.972   1.710   3.973
  246SOL     OW 1636   5.277   2.957   3.390
  246SOL    HW1 1637   5.304   3.045   3.428
  246SOL    HW2 1638   5.213   2.912   3.453
  247SOL     OW 1639   2.337   1.603   3.468
  247SOL    HW1 1640   2.246   1.601   3.511
  247SOL    HW2 1641   2.404   1.634   3.536
  248SOL     OW 1642   6.413   1.327   3.331
  248SOL    HW1 1643   6.407   1.239   3.283
  248SOL    HW2 1644   6.482   1.384   3.286
  249SOL     OW 1645   2.926   0.071   4.028
  249SOL    HW1 1646   2.860   0.116   3.967
  249SOL    HW2 1647   3.019   0.089   3.994
  250SOL     OW 1648   5.064   2.592   6.084
  250SOL    HW1 1649   4.985   2.632   6.038
  250SOL    HW2 1650   5.140   2.583   6.020
  251SOL     OW 1651   3.309   2.435   0.853
  251SOL    HW1 1652   3.225   2.447   0.799
  251SOL    HW2 1653   3.286   2.435   0.950
  252SOL     OW 1654   0.387   0.933   5.908
  252SOL    HW1 1655   0.294   0.962   5.928
  252SOL    HW2 1656   0.385   0.848   5.855
  253SOL     OW 1657   3.147   3.454   6.149
  253SOL    HW1 1658   3.092   3.492   6.223
  253SOL    HW2 1659   3.163   3.357   6.165
  254SOL     OW 1660   5.827   3.287   5.041
  254SOL    HW1 1661   5.794   3.212   4.984
  254SOL    HW2 1662   5.750   3.329   5.089
  255SOL     OW 1663   2.738   1.856   4.043
  255SOL    HW1 1664   2.660   1.918   4.050
  255SOL    HW2 1665   2.819   1.902   4.079
  256SOL     OW 1666   6.109   4.769   6.904
  256SOL    HW1 1667   6.085   4.672   6.913
  256SOL    HW2 1668   6.027   4.824   6.919
  257SOL     OW 1669   3.307   6.447   6.179
  257SOL    HW1 1670   3.357   6.363   6.200
  257SOL    HW2 1671   3.268   6.441   6.088
  258SOL     OW 1672   5.376   4.412   4.122
  258SOL    HW1 1673   5.445   4.458   4.178
  258SOL    HW2 1674   5.330   4.343   4.178
  259SOL     OW 1675   1.416   2.503   2.483
  259SOL    HW1 1676   1.347   2.431   2.492
  259SOL    HW2 1677   1.445   2.533   2.574
  260SOL     OW 1678   5.647   0.369   5.949
  260SOL    HW1 1679   5.569   0.417   5.910
  260SOL    HW2 1680   5.616   0.308   6.022
  261SOL     OW 1681   0.607   3.436   2.273
  261SOL    HW1 1682   0.614   3.536   2.270
  261SOL    HW2 1683   0.693   3.397   2.307
  262SOL     OW 1684   0.331   4.981   2.103
  262SOL    HW1 1685   0.331   5.078   2.079
  262SOL    HW2 1686   0.368   4.969   2.195
  263SOL     OW 1687   1.138   2.304   3.980
  263SOL    HW1 1688   1.041   2.317   4.003
  263SOL    HW2 1689   1.145   2.246   3.898
  264SOL     OW 1690   2.806   4.646   6.301
  264SOL    HW1 1691   2.750   4.635   6.383
  264SOL    HW2 1692   2.887   4.702   6.322
  265SOL     OW 1693   5.761   3.908   4.895
  265SOL    HW1 1694   5.720   3.857   4.971
  265SOL    HW2 1695   5.688   3.940   4.835
  266SOL     OW 1696   3.742   1.635   0.516
  266SOL    HW1 1697   3.693   1.716   0.484
  266SOL    HW2 1698   3.815   1.664   0.579
  267SOL     OW 1699   0.995   2.656   5.731
  267SOL    HW1 1700   1.090   2.672   5.703
  267SOL    HW2 1701   0.974   2.713   5.810
  268SOL     OW 1702   3.657   5.066   4.341
  268SOL    HW1 1703   3.571   5.092   4.296
  268SOL    HW2 1704   3.637   5.025   4.430
  269SOL     OW 1705   0.782   1.422   5.223
  269SOL    HW1 1706   0.735   1.433   5.311
  269SOL    HW2 1707   0.715   1.410   5.150
  270SOL     OW 1708   5.001   1.047   4.051
  270SOL    HW1 1709   5.068   0.976   4.074
  270SOL    HW2 1710   4.935   1.009   3.985
  271SOL     OW 1711   1.517   1.040   0.253
  271SOL    HW1 1712   1.497   1.107   0.324
  271SOL    HW2 1713   1.481   0.950   0.280
  272SOL     OW 1714   3.217   5.107   3.434
  272SOL    HW1 1715   3.154   5.184   3.428
  272SOL    HW2 1716   3.265   5.095   3.347
  273SOL     OW 1717   2.807   6.371   5.369
  273SOL    HW1 1718   2.770   6.409   5.284
  273SOL    HW2 1719   2.732   6.351   5.432
  274SOL     OW 1720   6.142   2.088   1.295
  274SOL    HW1 1721   6.155   2.126   1.386
  274SOL    HW2 1722   6.064   2.025   1.295
  275SOL     OW 1723   5.824   5.871   5.318
  275SOL    HW1 1724   5.901   5.807   5.313
  275SOL    HW2 1725   5.739   5.820   5.311
  276SOL     OW 1726   6.588   6.055   3.518
  276SOL    HW1 1727   6.501   6.021   3.553
  276SOL    HW2 1728   6.663   6.003   3.559
  277SOL     OW 1729   4.804   1.010   5.508
  277SOL    HW1 1730   4.847   1.099   5.491
  277SOL    HW2 1731   4.831   0.946   5.436
  278SOL     OW 1732   5.867   3.222   2.714
  278SOL    HW1 1733   5.918   3.225   2.801
  278SOL    HW2 1734   5.838   3.128   2.696
  279SOL     OW 1735   6.970   3.004   4.178
  279SOL    HW1 1736   6.928   3.084   4.135
  279SOL    HW2 1737   6.940   2.998   4.273
  280SOL     OW 1738   3.239   0.826   4.031
  280SOL    HW1 1739   3.306   0.758   4.000
  280SOL    HW2 1740   3.286   0.900   4.078
  281SOL     OW 1741   5.193   6.264   3.944
  281SOL    HW1 1742   5.269   6.324   3.968
  281SOL    HW2 1743   5.183   6.192   4.013
  282SOL     OW 1744   3.331   1.707   0.617
  282SOL    HW1 1745   3.314   1.608   0.616
  282SOL    HW2 1746   3.416   1.725   0.667
  283SOL     OW 1747   6.595   1.643   4.889
  283SOL    HW1 1748   6.591   1.551   4.850
  283SOL    HW2 1749   6.541   1.646   4.973
  284SOL     OW 1750   5.498   5.978   3.501
  284SOL    HW1 1751   5.535   5.994   3.410
  284SOL    HW2 1752   5.567   5.934   3.558
  285SOL     OW 1753   4.628   0.207   5.852
  285SOL    HW1 1754   4.679   0.287   5.819
  285SOL    HW2 1755   4.531   0.229   5.856
  286SOL     OW 1756   2.357   4.943   4.780
  286SOL    HW1 1757   2.426   4.882   4.740
  286SOL    HW2 1758   2.299   4.891   4.842
  287SOL     OW 1759   3.196   0.226   6.087
  287SOL    HW1 1760   3.153   0.277   6.162
  287SOL    HW2 1761   3.140   0.232   6.005
  288SOL     OW 1762   4.007   1.172   1.010
  288SOL    HW1 1763   3.910   1.149   1.000
  288SOL    HW2 1764   4.051   1.105   1.070
  289SOL     OW 1765   5.932   6.110   3.930
  289SOL    HW1 1766   5.929   6.190   3.871
  289SOL    HW2 1767   6.023   6.102   3.971
  290SOL     OW 1768   3.678   1.076   5.175
  290SOL    HW1 1769   3.745   1.002   5.167
  290SOL    HW2 1770   3.715   1.149   5.231
  291SOL     OW 1771   3.677   6.793   5.175
  291SOL    HW1 1772   3.671   6.872   5.236
  291SOL    HW2 1773   3.677   6.709   5.230
  292SOL     OW 1774   4.912   6.735   3.578
  292SOL    HW1 1775   4.897   6.808   3.644
  292SOL    HW2 1776   4.825   6.709   3.536
  293SOL     OW 1777   5.784   6.592   2.559
  293SOL    HW1 1778   5.844   6.597   2.479
  293SOL    HW2 1779   5.775   6.683   2.599
  294SOL     OW 1780   6.342   0.781   5.538
  294SOL    HW1 1781   6.358   0.745   5.629
  294SOL    HW2 1782   6.357   0.880   5.538
  295SOL     OW 1783   1.783   1.634   4.986
  295SOL    HW1 1784   1.799   1.554   5.045
  295SOL    HW2 1785   1.808   1.611   4.892
  296SOL     OW 1786   6.879   2.445   1.163
  296SOL    HW1 1787   6.935   2.368   1.132
  296SOL    HW2 1788   6.785   2.414   1.179
  297SOL     OW 1789   5.272   3.340   4.056
  297SOL    HW1 1790   5.207   3.267   4.074
  297SOL    HW2 1791   5.362   3.302   4.034
  298SOL     OW 1792   3.815   0.667   6.801
  298SOL    HW1 1793   3.748   0.622   6.742
  298SOL    HW2 1794   3.876   0.599   6.840
  299SOL     OW 1795   1.862   1.010   6.571
  299SOL    HW1 1796   1.952   0.969   6.559
  299SOL    HW2 1797   1.806   0.952   6.631
  300SOL     OW 1798   4.265   6.954   3.464
  300SOL    HW1 1799   4.194   6.900   3.510
  300SOL    HW2 1800   4.240   0.025   3.468
  301SOL     OW 1801   6.502   5.443   0.922
  301SOL    HW1 1802   6.483   5.523   0.979
  301SOL    HW2 1803   6.425   5.380   0.925
  302SOL     OW 1804   6.595   5.682   1.760
  302SOL    HW1 1805   6.596   5.584   1.740
  302SOL    HW2 1806   6.642   5.698   1.847
  303SOL     OW 1807   5.234   5.511   2.349
  303SOL    HW1 1808   5.206   5.517   2.254
  303SOL    HW2 1809   5.328   5.546   2.359
  304SOL     OW 1810   2.676   5.871   4.706
  304SOL    HW1 1811   2.687   5.969   4.691
  304SOL    HW2 1812   2.735   5.842   4.781
  305SOL     OW 1813   0.935   3.087   2.021
  305SOL    HW1 1814   0.849   3.074   2.070
  305SOL    HW2 1815   1.006   3.032   2.065
  306SOL     OW 1816   6.792   0.046   2.748
  306SOL    HW1 1817   6.819   0.020   2.655
  306SOL    HW2 1818   6.711   0.104   2.743
  307SOL     OW 1819   3.047   3.061   3.237
  307SOL    HW1 1820   2.998   3.050   3.150
  307SOL    HW2 1821   3.077   2.971   3.270
  308SOL     OW 1822   5.505   1.952   3.915
  308SOL    HW1 1823   5.569   1.881   3.887
  308SOL    HW2 1824   5.466   1.996   3.834
  309SOL     OW 1825   1.298   6.071   6.082
  309SOL    HW1 1826   1.206   6.082   6.120
  309SOL    HW2 1827   1.343   6.160   6.078
  310SOL     OW 1828   5.221   6.253   5.050
  310SOL    HW1 1829   5.242   6.204   5.135
  310SOL    HW2 1830   5.284   6.331   5.041
  311SOL     OW 1831   1.909   5.284   2.530
  311SOL    HW1 1832   1.875   5.193   2.508
  311SOL    HW2 1833   1.955   5.281   2.619
  312SOL     OW 1834   4.501   2.232   3.041
  312SOL    HW1 1835   4.543   2.309   3.089
  312SOL    HW2 1836   4.538   2.146   3.078
  313SOL     OW 1837   4.112   3.598   3.002
  313SOL    HW1 1838   4.096   3.617   3.099
  313SOL    HW2 1839   4.073   3.672   2.947
  314SOL     OW 1840   2.736   6.321   5.883
  314SOL    HW1 1841   2.789   6.237   5.892
  314SOL    HW2 1842   2.768   6.388   5.950
  315SOL     OW 1843   6.452   1.650   3.419
  315SOL    HW1 1844   6.440   1.638   3.517
  315SOL    HW2 1845   6.528   1.593   3.387
  316SOL     OW 1846   3.712   1.280   5.357
  316SOL    HW1 1847   3.623   1.318   5.382
  316SOL    HW2 1848   3.777   1.354   5.340
  317SOL     OW 1849   1.534   1.579   1.679
  317SOL    HW1 1850   1.610   1.592   1.616
  317SOL    HW2 1851   1.535   1.485   1.713
  318SOL     OW 1852   0.690   0.827   5.284
  318SOL    HW1 1853   0.667   0.731   5.265
  318SOL    HW2 1854   0.664   0.850   5.377
  319SOL     OW 1855   1.635   1.900   2.550
  319SOL    HW1 1856   1.715   1.951   2.583
  319SOL    HW2 1857   1.637   1.895   2.451
  320SOL     OW 1858   5.844   2.049   6.177
  320SOL    HW1 1859   5.799   2.097   6.252
  320SOL    HW2 1860   5.918   2.106   6.141
  321SOL     OW 1861   4.434   3.117   0.626
  321SOL    HW1 1862   4.366   3.045   0.639
  321SOL    HW2 1863   4.477   3.138   0.714
  322SOL     OW 1864   3.561   3.235   5.894
  322SOL    HW1 1865   3.594   3.244   5.988
  322SOL    HW2 1866   3.464   3.212   5.895
  323SOL     OW 1867   0.260   3.308   2.684
  323SOL    HW1 1868   0.188   3.368   2.719
  323SOL    HW2 1869   0.326   3.363   2.632
  324SOL     OW 1870   0.173   6.625   4.090
  324SOL    HW1 1871   0.148   6.578   4.174
  324SOL    HW2 1872   0.249   6.578   4.046
  325SOL     OW 1873   0.322   4.089   2.774
  325SOL    HW1 1874   0.390   4.035   2.725
  325SOL    HW2 1875   0.368   4.164   2.822
  326SOL     OW 1876   0.631   6.291   6.480
  326SOL    HW1 1877   0.708   6.228   6.478
  326SOL    HW2 1878   0.665   6.384   6.497
  327SOL     OW 1879   4.406   5.110   3.827
  327SOL    HW1 1880   4.415   5.110   3.926
  327SOL    HW2 1881   4.475   5.049   3.787
  328SOL     OW 1882   2.123   3.571   2.995
  328SOL    HW1 1883   2.156   3.480   2.967
  328SOL    HW2 1884   2.081   3.565   3.086
  329SOL     OW 1885   3.225   3.815   2.166
  329SOL    HW1 1886   3.291   3.747   2.197
  329SOL    HW2 1887   3.269   3.877   2.100
  330SOL     OW 1888   3.674   5.231   0.887
  330SOL    HW1 1889   3.650   5.139   0.854
  330SOL    HW2 1890   3.591   5.278   0.917
  331SOL     OW 1891   5.168   4.984   6.952
  331SOL    HW1 1892   5.221   4.921   7.009
  331SOL    HW2 1893   5.127   5.055   7.009
  332SOL     OW 1894   5.272   2.132   3.003
  332SOL    HW1 1895   5.197   2.193   2.979
  332SOL    HW2 1896   5.330   2.176   3.071
  333SOL     OW 1897   3.478   1.064   5.706
  333SOL    HW1 1898   3.425   1.105   5.632
  333SOL    HW2 1899   3.554   1.012   5.668
  334SOL     OW 1900   3.493   3.389   2.971
  334SOL    HW1 1901   3.420   3.334   3.011
  334SOL    HW2 1902   3.563   3.407   3.040
  335SOL     OW 1903   3.419   0.428   6.181
  335SOL    HW1 1904   3.343   0.413   6.118
  335SOL    HW2 1905   3.384   0.436   6.275
  336SOL     OW 1906   2.803   1.996   3.451
  336SOL    HW1 1907   2.818   2.088   3.413
  336SOL    HW2 1908   2.827   1.928   3.383
  337SOL     OW 1909   2.468   6.946   5.869
  337SOL    HW1 1910   2.496   6.920   5.777
  337SOL    HW2 1911   2.443   0.017   5.869
  338SOL     OW 1912   4.557   2.113   1.192
  338SOL    HW1 1913   4.564   2.175   1.271
  338SOL    HW2 1914   4.460   2.098   1.171
  339SOL     OW 1915   4.124   5.111   5.048
  339SOL    HW1 1916   4.108   5.014   5.031
  339SOL    HW2 1917   4.090   5.165   4.971
  340SOL     OW 1918   4.779   2.113   3.587
  340SOL    HW1 1919   4.770   2.021   3.549
  340SOL    HW2 1920   4.838   2.110   3.668
  341SOL     OW 1921   5.581   6.998   3.542
  341SOL    HW1 1922   5.556   6.950   3.458
  341SOL    HW2 1923   5.497   7.025   3.590
  342SOL     OW 1924   4.577   2.253   1.894
  342SOL    HW1 1925   4.553   2.349   1.878
  342SOL    HW2 1926   4.613   2.213   1.810
  343SOL     OW 1927   0.423   5.660   3.108
  343SOL    HW1 1928   0.520   5.668   3.085
  343SOL    HW2 1929   0.406   5.706   3.195
  344SOL     OW 1930   2.312   1.417   1.525
  344SOL    HW1 1931   2.383   1.440   1.458
  344SOL    HW2 1932   2.316   1.481   1.601
  345SOL     OW 1933   6.205   3.666   4.320
  345SOL    HW1 1934   6.266   3.668   4.399
  345SOL    HW2 1935   6.206   3.574   4.279
  346SOL     OW 1936   1.966   6.918   3.175
  346SOL    HW1 1937   2.022   6.835   3.180
  346SOL    HW2 1938   1.898   6.908   3.103
  347SOL     OW 1939   2.876   5.262   0.794
  347SOL    HW1 1940   2.960   5.315   0.812
  347SOL    HW2 1941   2.828   5.302   0.716
  348SOL     OW 1942   4.824   5.543   1.992
  348SOL    HW1 1943   4.732   5.561   2.027
  348SOL    HW2 1944   4.891   5.586   2.053
  349SOL     OW 1945   6.069   4.419   1.003
  349SOL    HW1 1946   6.043   4.355   0.930
  349SOL    HW2 1947   6.168   4.415   1.016
  350SOL     OW 1948   3.283   3.224   0.317
  350SOL    HW1 1949   3.370   3.179   0.338
  350SOL    HW2 1950   3.299   3.321   0.299
  351SOL     OW 1951   2.969   4.401   1.172
  351SOL    HW1 1952   3.002   4.438   1.259
  351SOL    HW2 1953   2.973   4.302   1.175
  352SOL     OW 1954   3.663   6.746   3.484
  352SOL    HW1 1955   3.727   6.750   3.407
  352SOL    HW2 1956   3.647   6.651   3.509
  353SOL     OW 1957   1.963   6.070   0.058
  353SOL    HW1 1958   2.008   6.109   0.138
  353SOL    HW2 1959   1.936   6.144   7.022
  354SOL     OW 1960   6.890   2.670   0.352
  354SOL    HW1 1961   6.985   2.687   0.328
  354SOL    HW2 1962   6.881   2.579   0.392
  355SOL     OW 1963   2.153   1.975   2.357
  355SOL    HW1 1964   2.069   1.923   2.376
  355SOL    HW2 1965   2.150   2.062   2.406
  356SOL     OW 1966   0.971   6.635   5.952
  356SOL    HW1 1967   0.929   6.567   5.891
  356SOL    HW2 1968   0.961   6.605   6.047
  357SOL     OW 1969   5.952   6.459   4.454
  357SOL    HW1 1970   5.983   6.405   4.375
  357SOL    HW2 1971   5.871   6.510   4.429
  358SOL     OW 1972   4.648   5.899   0.487
  358SOL    HW1 1973   4.565   5.946   0.458
  358SOL    HW2 1974   4.635   5.800   0.480
  359SOL     OW 1975   3.033   2.168   2.226
  359SOL    HW1 1976   3.122   2.134   2.195
  359SOL    HW2 1977   2.993   2.227   2.155
  360SOL     OW 1978   1.496   4.497   4.076
  360SOL    HW1 1979   1.505   4.548   4.162
  360SOL    HW2 1980   1.463   4.557   4.004
  361SOL     OW 1981   6.590   6.654   2.840
  361SOL    HW1 1982   6.665   6.690   2.896
  361SOL    HW2 1983   6.503   6.670   2.887
  362SOL     OW 1984   3.720   4.591   1.205
  362SOL    HW1 1985   3.807   4.564   1.164
  362SOL    HW2 1986   3.678   4.512   1.249
  363SOL     OW 1987   5.552   5.323   2.199
  363SOL    HW1 1988   5.456   5.299   2.216
  363SOL    HW2 1989   5.563   5.345   2.102
  364SOL     OW 1990   0.547   5.927   6.524
  364SOL    HW1 1991   0.591   5.957   6.609
  364SOL    HW2 1992   0.453   5.900   6.542
  365SOL     OW 1993   4.043   1.868   2.764
  365SOL    HW1 1994   4.024   1.963   2.789
  365SOL    HW2 1995   4.135   1.863   2.724
  366SOL     OW 1996   5.995   2.365   0.537
  366SOL    HW1 1997   6.036   2.332   0.452
  366SOL    HW2 1998   6.047   2.444   0.570
  367SOL     OW 1999   4.180   1.917   5.493
  367SOL    HW1 2000   4.131   1.997   5.459
  367SOL    HW2 2001   4.204   1.857   5.416
  368SOL     OW 2002   6.393   2.386   6.050
  368SOL    HW1 2003   6.359   2.413   5.960
  368SOL    HW2 2004   6.490   2.411   6.058
  369SOL     OW 2005   5.525   3.241   2.318
  369SOL    HW1 2006   5.609   3.286   2.348
  369SOL    HW2 2007   5.532   3.220   2.220
  370SOL     OW 2008   2.088   3.171   4.372
  370SOL    HW1 2009   2.082   3.188   4.470
  370SOL    HW2 2010   2.003   3.129   4.339
  371SOL     OW 2011   1.656   4.415   6.404
  371SOL    HW1 2012   1.668   4.491   6.468
  371SOL    HW2 2013   1.622   4.450   6.317
  372SOL     OW 2014   2.921   6.509   6.772
  372SOL    HW1 2015   2.897   6.421   6.814
  372SOL    HW2 2016   2.840   6.547   6.727
  373SOL     OW 2017   6.123   6.203   4.277
  373SOL    HW1 2018   6.157   6.109   4.269
  373SOL    HW2 2019   6.201   6.265   4.289
  374SOL     OW 2020   2.687   1.725   2.861
  374SOL    HW1 2021   2.727   1.774   2.937
  374SOL    HW2 2022   2.593   1.698   2.884
  375SOL     OW 2023   1.099   4.392   5.265
  375SOL    HW1 2024   1.076   4.488   5.285
  375SOL    HW2 2025   1.198   4.384   5.253
  376SOL     OW 2026   2.193   0.710   4.491
  376SOL    HW1 2027   2.193   0.710   4.391
  376SOL    HW2 2028   2.133   0.637   4.524
  377SOL     OW 2029   1.224   2.697   6.527
  377SOL    HW1 2030   1.257   2.666   6.438
  377SOL    HW2 2031   1.260   2.637   6.599
  378SOL     OW 2032   3.394   1.743   1.710
  378SOL    HW1 2033   3.372   1.828   1.663
  378SOL    HW2 2034   3.330   1.672   1.681
  379SOL     OW 2035   6.056   2.050   5.856
  379SOL    HW1 2036   6.147   2.015   5.838
  379SOL    HW2 2037   6.061   2.120   5.928
  380SOL     OW 2038   3.856   1.542   1.221
  380SOL    HW1 2039   3.946   1.580   1.241
  380SOL    HW2 2040   3.825   1.575   1.132
  381SOL     OW 2041   1.429   4.303   3.521
  381SOL    HW1 2042   1.510   4.256   3.486
  381SOL    HW2 2043   1.447   4.401   3.527
  382SOL     OW 2044   5.960   0.639   0.501
  382SOL    HW1 2045   6.023   0.665   0.428
  382SOL    HW2 2046   5.973   0.699   0.580
  383SOL     OW 2047   4.222   2.945   0.975
  383SOL    HW1 2048   4.164   2.863   0.967
  383SOL    HW2 2049   4.315   2.922   0.947
  384SOL     OW 2050   6.356   4.062   4.452
  384SOL    HW1 2051   6.355   3.996   4.376
  384SOL    HW2 2052   6.364   4.155   4.416
  385SOL     OW 2053   4.687   4.732   6.878
  385SOL    HW1 2054   4.674   4.776   6.967
  385SOL    HW2 2055   4.680   4.633   6.889
  386SOL     OW 2056   3.169   0.002   3.890
  386SOL    HW1 2057   3.187   0.094   3.853
  386SOL    HW2 2058   3.252   6.994   3.934
  387SOL     OW 2059   2.166   5.861   4.015
  387SOL    HW1 2060   2.227   5.812   4.076
  387SOL    HW2 2061   2.090   5.802   3.988
  388SOL     OW 2062   2.551   2.775   6.716
  388SOL    HW1 2063   2.539   2.817   6.626
  388SOL    HW2 2064   2.469   2.792   6.771
  389SOL     OW 2065   2.886   3.634   3.598
  389SOL    HW1 2066   2.911   3.658   3.504
  389SOL    HW2 2067   2.889   3.535   3.609
  390SOL     OW 2068   1.988   1.699   4.293
  390SOL    HW1 2069   2.012   1.793   4.320
  390SOL    HW2 2070   2.031   1.678   4.206
  391SOL     OW 2071   0.849   2.831   6.788
  391SOL    HW1 2072   0.918   2.857   6.721
  391SOL    HW2 2073   0.884   2.849   6.880
  392SOL     OW 2074   2.487   5.528   2.110
  392SOL    HW1 2075   2.478   5.467   2.032
  392SOL    HW2 2076   2.433   5.493   2.186
  393SOL     OW 2077   5.985   4.239   5.408
  393SOL    HW1 2078   5.942   4.189   5.332
  393SOL    HW2 2079   5.997   4.177   5.486
  394SOL     OW 2080   0.207   6.495   0.208
  394SOL    HW1 2081   0.175   6.452   0.124
  394SOL    HW2 2082   0.261   6.429   0.261
  395SOL     OW 2083   5.465   4.015   1.804
  395SOL    HW1 2084   5.449   3.935   1.862
  395SOL    HW2 2085   5.410   4.008   1.721
  396SOL     OW 2086   3.365   3.930   3.751
  396SOL    HW1 2087   3.381   3.832   3.738
  396SOL    HW2 2088   3.289   3.942   3.815
  397SOL     OW 2089   4.045   2.157   5.466
  397SOL    HW1 2090   3.982   2.178   5.541
  397SOL    HW2 2091   4.049   2.235   5.403
  398SOL     OW 2092   0.771   4.913   2.388
  398SOL    HW1 2093   0.836   4.843   2.358
  398SOL    HW2 2094   0.799   5.001   2.350
  399SOL     OW 2095   5.175   5.834   1.435
  399SOL    HW1 2096   5.102   5.864   1.374
  399SOL    HW2 2097   5.141   5.763   1.496
  400SOL     OW 2098   0.141   6.361   5.248
  400SOL    HW1 2099   0.193   6.443   5.223
  400SOL    HW2 2100   0.203   6.292   5.283
  401SOL     OW 2101   4.842   1.357   6.423
  401SOL    HW1 2102   4.907   1.403   6.362
  401SOL    HW2 2103   4.755   1.344   6.375
  402SOL     OW 2104   6.406   5.826   2.426
  402SOL    HW1 2105   6.479   5.881   2.385
  402SOL    HW2 2106   6.447   5.754   2.482
  403SOL     OW 2107   4.819   2.286   5.807
  403SOL    HW1 2108   4.899   2.324   5.762
  403SOL    HW2 2109   4.788   2.348   5.879
  404SOL     OW 2110   0.861   6.971   4.286
  404SOL    HW1 2111   0.765   6.977   4.259
  404SOL    HW2 2112   0.870   6.910   4.365
  405SOL     OW 2113   1.758   2.070   0.413
  405SOL    HW1 2114   1.811   2.003   0.465
  405SOL    HW2 2115   1.663   2.069   0.445
  406SOL     OW 2116   1.694   2.092   4.438
  406SOL    HW1 2117   1.678   2.161   4.367
  406SOL    HW2 2118   1.744   2.133   4.514
  407SOL     OW 2119   3.252   0.174   5.158
  407SOL    HW1 2120   3.349   0.194   5.174
  407SOL    HW2 2121   3.217   0.117   5.232
  408SOL     OW 2122   1.764   0.163   3.810
  408SOL    HW1 2123   1.743   0.156   3.713
  408SOL    HW2 2124   1.710   0.237   3.850
  409SOL     OW 2125   6.403   2.665   3.122
  409SOL    HW1 2126   6.427   2.568   3.120
  409SOL    HW2 2127   6.325   2.681   3.062
  410SOL     OW 2128   2.020   0.065   7.005
  410SOL    HW1 2129   2.097   0.055   0.042
  410SOL    HW2 2130   1.938   0.029   0.022
  411SOL     OW 2131   5.905   4.947   6.092
  411SOL    HW1 2132   5.921   4.944   6.191
  411SOL    HW2 2133   5.918   4.855   6.054
  412SOL     OW 2134   3.423   6.464   2.677
  412SOL    HW1 2135   3.501   6.403   2.690
  412SOL    HW2 2136   3.419   6.492   2.581
  413SOL     OW 2137   3.515   5.628   0.843
  413SOL    HW1 2138   3.599   5.666   0.805
  413SOL    HW2 2139   3.483   5.686   0.918
  414SOL     OW 2140   4.440   5.094   1.498
  414SOL    HW1 2141   4.532   5.101   1.537
  414SOL    HW2 2142   4.420   4.998   1.477
  415SOL     OW 2143   1.362   5.754   1.064
  415SOL    HW1 2144   1.427   5.789   1.132
  415SOL    HW2 2145   1.324   5.830   1.012
  416SOL     OW 2146   3.583   6.170   4.756
  416SOL    HW1 2147   3.581   6.083   4.706
  416SOL    HW2 2148   3.564   6.245   4.693
  417SOL     OW 2149   3.244   6.255   2.685
  417SOL    HW1 2150   3.171   6.282   2.748
  417SOL    HW2 2151   3.288   6.336   2.648
  418SOL     OW 2152   5.015   6.252   0.442
  418SOL    HW1 2153   4.999   6.158   0.474
  418SOL    HW2 2154   5.084   6.296   0.499
  419SOL     OW 2155   0.275   0.390   1.150
  419SOL    HW1 2156   0.317   0.321   1.091
  419SOL    HW2 2157   0.290   0.481   1.111
  420SOL     OW 2158   5.393   3.742   0.726
  420SOL    HW1 2159   5.479   3.711   0.768
  420SOL    HW2 2160   5.346   3.665   0.684
  421SOL     OW 2161   2.126   5.514   6.402
  421SOL    HW1 2162   2.209   5.547   6.357
  421SOL    HW2 2163   2.098   5.427   6.361
  422SOL     OW 2164   6.262   4.762   0.103
  422SOL    HW1 2165   6.220   4.756   0.012
  422SOL    HW2 2166   6.191   4.776   0.172
  423SOL     OW 2167   5.882   3.233   6.817
  423SOL    HW1 2168   5.876   3.148   6.764
  423SOL    HW2 2169   5.968   3.279   6.797
  424SOL     OW 2170   2.901   4.290   0.152
  424SOL    HW1 2171   2.874   4.355   0.223
  424SOL    HW2 2172   2.935   4.339   0.072
  425SOL     OW 2173   5.103   1.822   1.079
  425SOL    HW1 2174   5.047   1.740   1.089
  425SOL    HW2 2175   5.056   1.888   1.022
  426SOL     OW 2176   4.997   2.428   5.621
  426SOL    HW1 2177   4.991   2.375   5.536
  426SOL    HW2 2178   4.993   2.526   5.599
  427SOL     OW 2179   5.296   4.092   1.510
  427SOL    HW1 2180   5.204   4.123   1.532
  427SOL    HW2 2181   5.291   4.018   1.443
  428SOL     OW 2182   3.736   0.732   5.365
  428SOL    HW1 2183   3.666   0.664   5.347
  428SOL    HW2 2184   3.758   0.733   5.462
  429SOL     OW 2185   1.553   5.345   0.767
  429SOL    HW1 2186   1.574   5.297   0.682
  429SOL    HW2 2187   1.516   5.436   0.746
  430SOL     OW 2188   1.478   6.807   4.357
  430SOL    HW1 2189   1.404   6.789   4.422
  430SOL    HW2 2190   1.557   6.750   4.380
  431SOL     OW 2191   3.708   1.316   0.030
  431SOL    HW1 2192   3.644   1.392   0.016
  431SOL    HW2 2193   3.662   1.243   0.081
  432SOL     OW 2194   6.527   1.667   0.240
  432SOL    HW1 2195   6.514   1.692   0.144
  432SOL    HW2 2196   6.620   1.634   0.253
  433SOL     OW 2197   2.771   6.750   4.592
  433SOL    HW1 2198   2.769   6.741   4.493
  433SOL    HW2 2199   2.865   6.756   4.624
  434SOL     OW 2200   5.932   3.722   0.880
  434SOL    HW1 2201   6.014   3.676   0.846
  434SOL    HW2 2202   5.942   3.821   0.870
  435SOL     OW 2203   3.278   3.485   5.814
  435SOL    HW1 2204   3.179   3.485   5.800
  435SOL    HW2 2205   3.309   3.392   5.831
  436SOL     OW 2206   1.428   0.204   1.483
  436SOL    HW1 2207   1.518   0.168   1.507
  436SOL    HW2 2208   1.429   0.304   1.488
  437SOL     OW 2209   0.201   0.152   6.274
  437SOL    HW1 2210   0.199   0.060   6.313
  437SOL    HW2 2211   0.293   0.173   6.242
  438SOL     OW 2212   1.808   2.835   1.899
  438SOL    HW1 2213   1.790   2.806   1.993
  438SOL    HW2 2214   1.784   2.931   1.888
  439SOL     OW 2215   6.436   4.642   2.525
  439SOL    HW1 2216   6.391   4.574   2.583
  439SOL    HW2 2217   6.396   4.639   2.433
  440SOL     OW 2218   1.042   2.425   4.418
  440SOL    HW1 2219   1.036   2.462   4.510
  440SOL    HW2 2220   1.003   2.333   4.416
  441SOL     OW 2221   1.819   1.530   3.367
  441SOL    HW1 2222   1.898   1.470   3.358
  441SOL    HW2 2223   1.772   1.536   3.279
  442SOL     OW 2224   0.426   4.225   7.013
  442SOL    HW1 2225   0.498   4.157   0.002
  442SOL    HW2 2226   0.347   4.180   6.973
  443SOL     OW 2227   1.339   4.561   4.861
  443SOL    HW1 2228   1.324   4.473   4.818
  443SOL    HW2 2229   1.251   4.608   4.875
  444SOL     OW 2230   4.393   2.735   6.179
  444SOL    HW1 2231   4.377   2.797   6.102
  444SOL    HW2 2232   4.308   2.720   6.229
  445SOL     OW 2233   2.017   5.565   3.259
  445SOL    HW1 2234   1.985   5.654   3.292
  445SOL    HW2 2235   2.052   5.575   3.166
  446SOL     OW 2236   3.736   4.904   3.927
  446SOL    HW1 2237   3.643   4.918   3.961
  446SOL    HW2 2238   3.734   4.871   3.833
  447SOL     OW 2239   6.910   4.160   6.759
  447SOL    HW1 2240   6.832   4.198   6.808
  447SOL    HW2 2241   6.925   4.211   6.674
  448SOL     OW 2242   3.735   0.795   4.916
  448SOL    HW1 2243   3.703   0.878   4.869
  448SOL    HW2 2244   3.828   0.809   4.947
  449SOL     OW 2245   5.600   1.227   4.960
  449SOL    HW1 2246   5.630   1.133   4.952
  449SOL    HW2 2247   5.577   1.247   5.056
  450SOL     OW 2248   6.924   6.052   3.422
  450SOL    HW1 2249   6.856   5.988   3.457
  450SOL    HW2 2250   6.919   6.137   3.474
  451SOL     OW 2251   0.637   2.403   2.252
  451SOL    HW1 2252   0.695   2.445   2.321
  451SOL    HW2 2253   0.544   2.393   2.287
  452SOL     OW 2254   6.735   5.459   0.269
  452SOL    HW1 2255   6.638   5.482   0.268
  452SOL    HW2 2256   6.790   5.542   0.274
  453SOL     OW 2257   3.380   1.118   6.689
  453SOL    HW1 2258   3.283   1.097   6.671
  453SOL    HW2 2259   3.393   1.136   6.786
  454SOL     OW 2260   0.263   6.260   6.018
  454SOL    HW1 2261   0.326   6.311   6.077
  454SOL    HW2 2262   0.230   6.179   6.066
  455SOL     OW 2263   5.572   6.948   4.387
  455SOL    HW1 2264   5.609   7.010   4.456
  455SOL    HW2 2265   5.474   6.968   4.374
  456SOL     OW 2266   3.730   5.978   5.935
  456SOL    HW1 2267   3.709   5.906   6.001
  456SOL    HW2 2268   3.714   5.944   5.843
  457SOL     OW 2269   1.963   4.188   3.093
  457SOL    HW1 2270   2.038   4.127   3.067
  457SOL    HW2 2271   1.933   4.165   3.186
  458SOL     OW 2272   5.229   5.485   5.548
  458SOL    HW1 2273   5.214   5.387   5.541
  458SOL    HW2 2274   5.164   5.534   5.489
  459SOL     OW 2275   1.416   0.140   2.973
  459SOL    HW1 2276   1.318   0.149   2.991
  459SOL    HW2 2277   1.464   0.128   3.060
  460SOL     OW 2278   0.672   1.528   1.902
  460SOL    HW1 2279   0.696   1.458   1.835
  460SOL    HW2 2280   0.755   1.558   1.949
  461SOL     OW 2281   4.505   6.821   4.535
  461SOL    HW1 2282   4.485   6.775   4.622
  461SOL    HW2 2283   4.471   6.765   4.459
  462SOL     OW 2284   4.007   2.512   5.949
  462SOL    HW1 2285   4.018   2.597   6.001
  462SOL    HW2 2286   3.933   2.523   5.882
  463SOL     OW 2287   6.360   5.453   2.764
  463SOL    HW1 2288   6.396   5.504   2.843
  463SOL    HW2 2289   6.320   5.517   2.699
  464SOL     OW 2290   2.521   1.333   6.516
  464SOL    HW1 2291   2.433   1.368   6.483
  464SOL    HW2 2292   2.522   1.336   6.616
  465SOL     OW 2293   1.264   1.746   4.619
  465SOL    HW1 2294   1.229   1.838   4.634
  465SOL    HW2 2295   1.361   1.750   4.595
  466SOL     OW 2296   6.802   6.555   3.402
  466SOL    HW1 2297   6.778   6.592   3.312
  466SOL    HW2 2298   6.794   6.455   3.400
  467SOL     OW 2299   1.264   6.817   6.246
  467SOL    HW1 2300   1.268   6.717   6.249
  467SOL    HW2 2301   1.232   6.846   6.156
  468SOL     OW 2302   3.968   6.081   0.601
  468SOL    HW1 2303   4.041   6.084   0.533
  468SOL    HW2 2304   3.915   5.998   0.589
  469SOL     OW 2305   2.392   5.211   0.152
  469SOL    HW1 2306   2.381   5.214   0.251
  469SOL    HW2 2307   2.486   5.184   0.129
  470SOL     OW 2308   4.117   0.477   2.227
  470SOL    HW1 2309   4.148   0.409   2.293
  470SOL    HW2 2310   4.124   0.439   2.134
  471SOL     OW 2311   1.520   2.701   4.066
  471SOL    HW1 2312   1.599   2.740   4.114
  471SOL    HW2 2313   1.485   2.623   4.119
  472SOL     OW 2314   4.718   4.005   6.260
  472SOL    HW1 2315   4.784   3.942   6.218
  472SOL    HW2 2316   4.670   4.056   6.188
  473SOL     OW 2317   0.358   2.628   1.542
  473SOL    HW1 2318   0.395   2.720   1.539
  473SOL    HW2 2319   0.307   2.609   1.457
  474SOL     OW 2320   4.296   4.959   4.245
  474SOL    HW1 2321   4.232   4.893   4.207
  474SOL    HW2 2322   4.257   5.002   4.326
  475SOL     OW 2323   6.945   0.219   6.621
  475SOL    HW1 2324   0.015   0.212   6.596
  475SOL    HW2 2325   6.889   0.220   6.538
  476SOL     OW 2326   6.956   3.870   2.404
  476SOL    HW1 2327   6.860   3.867   2.431
  476SOL    HW2 2328   6.969   3.938   2.332
  477SOL     OW 2329   2.067   4.983   4.304
  477SOL    HW1 2330   2.113   4.950   4.387
  477SOL    HW2 2331   2.107   5.071   4.277
  478SOL     OW 2332   2.942   6.335   2.315
  478SOL    HW1 2333   3.026   6.387   2.303
  478SOL    HW2 2334   2.908   6.305   2.226
  479SOL     OW 2335   3.382   1.977   0.538
  479SOL    HW1 2336   3.362   1.885   0.571
  479SOL    HW2 2337   3.473   2.005   0.571
  480SOL     OW 2338   1.497   6.901   1.216
  480SOL    HW1 2339   1.463   6.889   1.309
  480SOL    HW2 2340   1.430   6.953   1.163
  481SOL     OW 2341   2.445   0.646   0.930
  481SOL    HW1 2342   2.443   0.679   1.024
  481SOL    HW2 2343   2.439   0.546   0.930
  482SOL     OW 2344   4.626   4.835   2.435
  482SOL    HW1 2345   4.534   4.816   2.400
  482SOL    HW2 2346   4.688   4.762   2.406
  483SOL     OW 2347   5.425   2.308   1.444
  483SOL    HW1 2348   5.456   2.303   1.539
  483SOL    HW2 2349   5.444   2.221   1.399
  484SOL     OW 2350   1.038   3.086   5.187
  484SOL    HW1 2351   1.114   3.148   5.202
  484SOL    HW2 2352   1.063   3.018   5.118
  485SOL     OW 2353   3.861   5.076   2.245
  485SOL    HW1 2354   3.805   5.001   2.279
  485SOL    HW2 2355   3.871   5.145   2.316
  486SOL     OW 2356   0.828   1.532   1.135
  486SOL    HW1 2357   0.753   1.490   1.187
  486SOL    HW2 2358   0.847   1.623   1.172
  487SOL     OW 2359   0.862   1.738   6.866
  487SOL    HW1 2360   0.846   1.748   6.965
  487SOL    HW2 2361   0.786   1.688   6.826
  488SOL     OW 2362   1.008   0.968   1.391
  488SOL    HW1 2363   0.976   1.054   1.351
  488SOL    HW2 2364   1.108   0.964   1.387
  489SOL     OW 2365   3.691   5.930   0.310
  489SOL    HW1 2366   3.627   5.856   0.332
  489SOL    HW2 2367   3.643   6.000   0.258
  490SOL     OW 2368   6.563   6.107   4.089
  490SOL    HW1 2369   6.595   6.023   4.132
  490SOL    HW2 2370   6.520   6.166   4.157
  491SOL     OW 2371   0.119   2.422   2.884
  491SOL    HW1 2372   0.134   2.422   2.786
  491SOL    HW2 2373   0.141   2.513   2.921
  492SOL     OW 2374   3.043   0.509   5.468
  492SOL    HW1 2375   3.014   0.416   5.448
  492SOL    HW2 2376   3.143   0.513   5.474
  493SOL     OW 2377   5.917   4.780   6.660
  493SOL    HW1 2378   5.971   4.751   6.740
  493SOL    HW2 2379   5.820   4.763   6.678
  494SOL     OW 2380   0.284   6.075   6.780
  494SOL    HW1 2381   0.225   6.034   6.711
  494SOL    HW2 2382   0.233   6.143   6.833
  495SOL     OW 2383   4.908   5.271   2.746
  495SOL    HW1 2384   4.962   5.331   2.688
  495SOL    HW2 2385   4.824   5.246   2.698
  496SOL     OW 2386   5.390   2.471   2.870
  496SOL    HW1 2387   5.403   2.501   2.776
  496SOL    HW2 2388   5.299   2.432   2.881
  497SOL     OW 2389   3.380   1.598   5.035
  497SOL    HW1 2390   3.349   1.539   4.961
  497SOL    HW2 2391   3.480   1.591   5.044
  498SOL     OW 2392   1.467   3.799   1.804
  498SOL    HW1 2393   1.406   3.751   1.867
  498SOL    HW2 2394   1.554   3.818   1.850
  499SOL     OW 2395   3.014   0.658   4.109
  499SOL    HW1 2396   3.081   0.709   4.056
  499SOL    HW2 2397   2.972   0.589   4.051
  500SOL     OW 2398   0.940   4.196   3.647
  500SOL    HW1 2399   0.930   4.285   3.604
  500SOL    HW2 2400   0.851   4.164   3.680
  501SOL     OW 2401   3.165   1.319   0.409
  501SOL    HW1 2402   3.165   1.406   0.458
  501SOL    HW2 2403   3.075   1.276   0.416
  502SOL     OW 2404   5.452   3.984   6.114
  502SOL    HW1 2405   5.352   3.975   6.116
  502SOL    HW2 2406   5.493   3.895   6.091
  503SOL     OW 2407   6.242   4.588   5.739
  503SOL    HW1 2408   6.213   4.494   5.720
  503SOL    HW2 2409   6.306   4.588   5.815
  504SOL     OW 2410   2.432   6.423   3.699
  504SOL    HW1 2411   2.476   6.472   3.623
  504SOL    HW2 2412   2.443   6.476   3.783
  505SOL     OW 2413   3.698   0.416   5.476
  505SOL    HW1 2414   3.697   0.327   5.432
  505SOL    HW2 2415   3.613   0.465   5.455
  506SOL     OW 2416   1.914   5.259   4.595
  506SOL    HW1 2417   1.963   5.333   4.547
  506SOL    HW2 2418   1.909   5.179   4.535
  507SOL     OW 2419   2.957   0.337   4.253
  507SOL    HW1 2420   3.052   0.361   4.275
  507SOL    HW2 2421   2.955   0.251   4.203
  508SOL     OW 2422   6.105   3.553   2.445
  508SOL    HW1 2423   6.205   3.551   2.453
  508SOL    HW2 2424   6.068   3.462   2.466
  509SOL     OW 2425   3.822   0.889   1.786
  509SOL    HW1 2426   3.761   0.951   1.835
  509SOL    HW2 2427   3.840   0.925   1.695
  510SOL     OW 2428   6.685   4.567   5.786
  510SOL    HW1 2429   6.623   4.583   5.709
  510SOL    HW2 2430   6.688   4.648   5.844
  511SOL     OW 2431   0.047   6.794   6.703
  511SOL    HW1 2432   0.040   6.855   6.624
  511SOL    HW2 2433   7.011   6.824   6.775
  512SOL     OW 2434   6.666   3.167   0.008
  512SOL    HW1 2435   6.615   3.253   0.020
  512SOL    HW2 2436   6.606   3.090   0.029
  513SOL     OW 2437   5.786   6.353   2.689
  513SOL    HW1 2438   5.743   6.365   2.779
  513SOL    HW2 2439   5.776   6.438   2.637
  514SOL     OW 2440   6.719   2.133   4.221
  514SOL    HW1 2441   6.793   2.158   4.284
  514SOL    HW2 2442   6.644   2.198   4.232
  515SOL     OW 2443   2.244   6.482   6.014
  515SOL    HW1 2444   2.217   6.463   6.109
  515SOL    HW2 2445   2.162   6.489   5.957
  516SOL     OW 2446   2.862   4.441   1.594
  516SOL    HW1 2447   2.912   4.452   1.680
  516SOL    HW2 2448   2.785   4.378   1.609
  517SOL     OW 2449   4.918   5.770   2.432
  517SOL    HW1 2450   4.937   5.751   2.528
  517SOL    HW2 2451   4.860   5.852   2.425
  518SOL     OW 2452   2.945   2.177   1.580
  518SOL    HW1 2453   2.943   2.275   1.564
  518SOL    HW2 2454   2.852   2.145   1.599
  519SOL     OW 2455   7.012   0.615   4.779
  519SOL    HW1 2456   0.003   0.635   4.875
  519SOL    HW2 2457   0.072   0.619   4.728
  520SOL     OW 2458   5.463   4.549   6.537
  520SOL    HW1 2459   5.462   4.568   6.635
  520SOL    HW2 2460   5.545   4.496   6.514
  521SOL     OW 2461   6.308   2.062   6.294
  521SOL    HW1 2462   6.228   2.003   6.282
  521SOL    HW2 2463   6.348   2.046   6.384
  522SOL     OW 2464   4.120   3.026   5.343
  522SOL    HW1 2465   4.080   3.118   5.339
  522SOL    HW2 2466   4.217   3.033   5.367
  523SOL     OW 2467   6.777   5.414   3.693
  523SOL    HW1 2468   6.875   5.428   3.709
  523SOL    HW2 2469   6.725   5.484   3.741
  524SOL     OW 2470   2.588   0.907   6.914
  524SOL    HW1 2471   2.619   0.971   6.843
  524SOL    HW2 2472   2.534   0.957   6.981
  525SOL     OW 2473   2.631   3.677   6.093
  525SOL    HW1 2474   2.634   3.771   6.127
  525SOL    HW2 2475   2.644   3.614   6.169
  526SOL     OW 2476   2.198   5.987   4.792
  526SOL    HW1 2477   2.221   5.938   4.708
  526SOL    HW2 2478   2.243   5.942   4.869
  527SOL     OW 2479   6.226   2.390   6.271
  527SOL    HW1 2480   6.253   2.472   6.321
  527SOL    HW2 2481   6.284   2.379   6.190
  528SOL     OW 2482   1.498   1.255   4.149
  528SOL    HW1 2483   1.459   1.220   4.064
  528SOL    HW2 2484   1.505   1.355   4.143
  529SOL     OW 2485   1.156   4.939   4.755
  529SOL    HW1 2486   1.062   4.970   4.772
  529SOL    HW2 2487   1.219   5.017   4.762
  530SOL     OW 2488   2.673   2.941   5.314
  530SOL    HW1 2489   2.645   2.859   5.362
  530SOL    HW2 2490   2.597   2.977   5.260
  531SOL     OW 2491   0.393   1.016   1.464
  531SOL    HW1 2492   0.419   1.059   1.378
  531SOL    HW2 2493   0.472   1.012   1.525
  532SOL     OW 2494   0.766   2.538   6.240
  532SOL    HW1 2495   0.713   2.621   6.257
  532SOL    HW2 2496   0.708   2.469   6.197
  533SOL     OW 2497   4.738   6.123   4.399
  533SOL    HW1 2498   4.787   6.079   4.324
  533SOL    HW2 2499   4.652   6.162   4.365
  534SOL     OW 2500   5.015   5.528   3.782
  534SOL    HW1 2501   4.993   5.559   3.874
  534SOL    HW2 2502   5.110   5.549   3.761
  535SOL     OW 2503   0.695   4.532   4.426
  535SOL    HW1 2504   0.771   4.595   4.444
  535SOL    HW2 2505   0.714   4.480   4.343
  536SOL     OW 2506   6.946   5.600   1.483
  536SOL    HW1 2507   6.867   5.661   1.475
  536SOL    HW2 2508   6.994   5.598   1.395
  537SOL     OW 2509   2.265   6.356   3.485
  537SOL    HW1 2510   2.242   6.357   3.582
  537SOL    HW2 2511   2.356   6.396   3.472
  538SOL     OW 2512   1.269   5.806   3.062
  538SOL    HW1 2513   1.334   5.809   2.987
  538SOL    HW2 2514   1.177   5.792   3.026
  539SOL     OW 2515   0.774   5.064   1.105
  539SOL    HW1 2516   0.728   5.042   1.018
  539SOL    HW2 2517   0.828   5.147   1.094
  540SOL     OW 2518   0.457   2.166   2.060
  540SOL    HW1 2519   0.395   2.218   2.118
  540SOL    HW2 2520   0.458   2.206   1.968
  541SOL     OW 2521   3.145   6.755   4.844
  541SOL    HW1 2522   3.124   6.710   4.931
  541SOL    HW2 2523   3.068   6.813   4.817
  542SOL     OW 2524   6.708   6.766   0.144
  542SOL    HW1 2525   6.690   6.841   0.207
  542SOL    HW2 2526   6.755   6.692   0.193
  543SOL     OW 2527   0.772   5.026   6.458
  543SOL    HW1 2528   0.747   5.017   6.362
  543SOL    HW2 2529   0.827   5.108   6.470
  544SOL     OW 2530   0.935   4.548   1.350
  544SOL    HW1 2531   0.948   4.552   1.251
  544SOL    HW2 2532   0.930   4.640   1.387
  545SOL     OW 2533   3.580   1.794   3.548
  545SOL    HW1 2534   3.504   1.766   3.606
  545SOL    HW2 2535   3.654   1.829   3.605
  546SOL     OW 2536   1.577   3.550   1.761
  546SOL    HW1 2537   1.526   3.493   1.696
  546SOL    HW2 2538   1.544   3.645   1.754
  547SOL     OW 2539   2.421   1.884   6.883
  547SOL    HW1 2540   2.518   1.903   6.869
  547SOL    HW2 2541   2.403   1.787   6.868
  548SOL     OW 2542   4.165   3.363   3.184
  548SOL    HW1 2543   4.198   3.341   3.092
  548SOL    HW2 2544   4.189   3.457   3.207
  549SOL     OW 2545   4.718   3.706   1.388
  549SOL    HW1 2546   4.735   3.607   1.391
  549SOL    HW2 2547   4.622   3.723   1.370
  550SOL     OW 2548   6.695   3.144   2.578
  550SOL    HW1 2549   6.630   3.221   2.580
  550SOL    HW2 2550   6.733   3.136   2.486
  551SOL     OW 2551   6.762   1.785   0.688
  551SOL    HW1 2552   6.785   1.856   0.622
  551SOL    HW2 2553   6.722   1.706   0.641
  552SOL     OW 2554   4.194   5.354   0.804
  552SOL    HW1 2555   4.275   5.390   0.850
  552SOL    HW2 2556   4.183   5.257   0.826
  553SOL     OW 2557   1.815   0.088   2.492
  553SOL    HW1 2558   1.835   7.019   2.516
  553SOL    HW2 2559   1.801   0.095   2.393
  554SOL     OW 2560   5.295   6.405   6.348
  554SOL    HW1 2561   5.261   6.499   6.362
  554SOL    HW2 2562   5.388   6.409   6.310
  555SOL     OW 2563   2.120   5.254   4.183
  555SOL    HW1 2564   2.214   5.247   4.150
  555SOL    HW2 2565   2.119   5.253   4.283
  556SOL     OW 2566   6.077   1.991   4.287
  556SOL    HW1 2567   6.062   1.898   4.320
  556SOL    HW2 2568   6.013   2.053   4.333
  557SOL     OW 2569   6.379   5.891   6.443
  557SOL    HW1 2570   6.361   5.973   6.388
  557SOL    HW2 2571   6.351   5.908   6.537
  558SOL     OW 2572   4.109   3.734   5.035
  558SOL    HW1 2573   4.013   3.725   5.062
  558SOL    HW2 2574   4.115   3.759   4.938
  559SOL     OW 2575   7.013   5.939   0.020
  559SOL    HW1 2576   0.030   5.949   6.957
  559SOL    HW2 2577   0.046   5.979   0.090
  560SOL     OW 2578   4.170   6.417   0.511
  560SOL    HW1 2579   4.093   6.466   0.469
  560SOL    HW2 2580   4.255   6.440   0.464
  561SOL     OW 2581   5.877   6.903   0.548
  561SOL    HW1 2582   5.939   6.909   0.470
  561SOL    HW2 2583   5.846   6.808   0.559
  562SOL     OW 2584   4.999   1.085   6.084
  562SOL    HW1 2585   5.061   1.047   6.152
  562SOL    HW2 2586   4.933   1.015   6.056
  563SOL     OW 2587   2.786   6.374   3.517
  563SOL    HW1 2588   2.831   6.430   3.586
  563SOL    HW2 2589   2.854   6.331   3.458
  564SOL     OW 2590   2.516   2.151   5.950
  564SOL    HW1 2591   2.572   2.220   5.997
  564SOL    HW2 2592   2.424   2.188   5.935
  565SOL     OW 2593   4.383   3.559   5.752
  565SOL    HW1 2594   4.337   3.590   5.668
  565SOL    HW2 2595   4.480   3.582   5.745
  566SOL     OW 2596   4.562   4.554   3.147
  566SOL    HW1 2597   4.565   4.535   3.245
  566SOL    HW2 2598   4.469   4.539   3.114
  567SOL     OW 2599   3.580   3.660   4.280
  567SOL    HW1 2600   3.532   3.744   4.305
  567SOL    HW2 2601   3.639   3.632   4.356
  568SOL     OW 2602   3.251   2.334   0.255
  568SOL    HW1 2603   3.311   2.366   0.182
  568SOL    HW2 2604   3.168   2.389   0.256
  569SOL     OW 2605   1.504   2.925   0.519
  569SOL    HW1 2606   1.550   2.839   0.496
  569SOL    HW2 2607   1.412   2.924   0.480
  570SOL     OW 2608   1.134   6.523   0.637
  570SOL    HW1 2609   1.212   6.546   0.579
  570SOL    HW2 2610   1.117   6.425   0.632
  571SOL     OW 2611   3.755   5.241   2.935
  571SOL    HW1 2612   3.762   5.242   2.835
  571SOL    HW2 2613   3.847   5.237   2.974
  572SOL     OW 2614   2.376   4.345   5.666
  572SOL    HW1 2615   2.342   4.371   5.576
  572SOL    HW2 2616   2.429   4.260   5.659
  573SOL     OW 2617   3.951   1.152   6.029
  573SOL    HW1 2618   4.005   1.229   5.995
  573SOL    HW2 2619   3.856   1.180   6.041
  574SOL     OW 2620   2.226   1.870   4.388
  574SOL    HW1 2621   2.209   1.895   4.483
  574SOL    HW2 2622   2.283   1.788   4.384
  575SOL     OW 2623   6.334   3.437   0.669
  575SOL    HW1 2624   6.348   3.348   0.714
  575SOL    HW2 2625   6.289   3.423   0.581
  576SOL     OW 2626   1.334   2.604   1.709
  576SOL    HW1 2627   1.394   2.656   1.770
  576SOL    HW2 2628   1.298   2.525   1.758
  577SOL     OW 2629   2.326   1.757   3.977
  577SOL    HW1 2630   2.315   1.848   4.018
  577SOL    HW2 2631   2.262   1.694   4.020
  578SOL     OW 2632   0.512   3.392   3.000
  578SOL    HW1 2633   0.508   3.420   2.904
  578SOL    HW2 2634   0.464   3.460   3.056
  579SOL     OW 2635   4.034   1.890   1.149
  579SOL    HW1 2636   4.092   1.810   1.167
  579SOL    HW2 2637   3.940   1.859   1.134
  580SOL     OW 2638   1.084   5.003   6.704
  580SOL    HW1 2639   1.121   5.020   6.612
  580SOL    HW2 2640   1.003   5.061   6.718
  581SOL     OW 2641   3.872   2.977   3.110
  581SOL    HW1 2642   3.777   2.982   3.080
  581SOL    HW2 2643   3.875   2.953   3.207
  582SOL     OW 2644   5.764   4.053   2.541
  582SOL    HW1 2645   5.687   4.117   2.536
  582SOL    HW2 2646   5.738   3.967   2.497
  583SOL     OW 2647   2.571   4.745   0.266
  583SOL    HW1 2648   2.551   4.733   0.363
  583SOL    HW2 2649   2.669   4.734   0.250
  584SOL     OW 2650   0.370   4.955   5.136
  584SOL    HW1 2651   0.300   4.952   5.206
  584SOL    HW2 2652   0.372   4.868   5.086
  585SOL     OW 2653   0.266   2.508   5.640
  585SOL    HW1 2654   0.304   2.495   5.732
  585SOL    HW2 2655   0.339   2.536   5.578
  586SOL     OW 2656   2.495   6.861   0.697
  586SOL    HW1 2657   2.457   6.876   0.788
  586SOL    HW2 2658   2.424   6.822   0.637
  587SOL     OW 2659   1.639   2.826   5.681
  587SOL    HW1 2660   1.574   2.898   5.704
  587SOL    HW2 2661   1.611   2.740   5.724
  588SOL     OW 2662   3.849   0.037   1.588
  588SOL    HW1 2663   3.856   0.028   1.687
  588SOL    HW2 2664   3.818   0.129   1.565
  589SOL     OW 2665   3.481   5.134   2.192
  589SOL    HW1 2666   3.518   5.049   2.229
  589SOL    HW2 2667   3.445   5.117   2.100
  590SOL     OW 2668   6.951   2.725   2.361
  590SOL    HW1 2669   6.874   2.667   2.388
  590SOL    HW2 2670   6.981   2.779   2.439
  591SOL     OW 2671   4.021   0.337   3.942
  591SOL    HW1 2672   3.997   0.283   3.862
  591SOL    HW2 2673   4.096   0.292   3.990
  592SOL     OW 2674   4.868   0.604   0.459
  592SOL    HW1 2675   4.927   0.632   0.383
  592SOL    HW2 2676   4.919   0.542   0.519
  593SOL     OW 2677   4.461   2.444   4.135
  593SOL    HW1 2678   4.389   2.374   4.135
  593SOL    HW2 2679   4.472   2.481   4.043
  594SOL     OW 2680   4.043   3.902   0.366
  594SOL    HW1 2681   3.950   3.879   0.340
  594SOL    HW2 2682   4.098   3.819   0.372
  595SOL     OW 2683   3.914   6.467   4.290
  595SOL    HW1 2684   3.886   6.437   4.381
  595SOL    HW2 2685   3.833   6.474   4.231
  596SOL     OW 2686   0.773   4.179   2.665
  596SOL    HW1 2687   0.694   4.209   2.613
  596SOL    HW2 2688   0.752   4.183   2.763
  597SOL     OW 2689   3.901   0.027   6.790
  597SOL    HW1 2690   3.846   0.084   6.851
  597SOL    HW2 2691   3.981   0.079   6.760
  598SOL     OW 2692   4.081   4.695   0.352
  598SOL    HW1 2693   4.014   4.727   0.285
  598SOL    HW2 2694   4.078   4.753   0.434
  599SOL     OW 2695   6.857   0.437   2.971
  599SOL    HW1 2696   6.791   0.466   2.902
  599SOL    HW2 2697   6.831   0.477   3.060
  600SOL     OW 2698   1.154   0.020   0.788
  600SOL    HW1 2699   1.111   0.089   0.730
  600SOL    HW2 2700   1.129   6.955   0.757
  601SOL     OW 2701   2.508   5.663   3.090
  601SOL    HW1 2702   2.602   5.696   3.093
  601SOL    HW2 2703   2.483   5.622   3.178
  602SOL     OW 2704   1.304   0.047   1.038
  602SOL    HW1 2705   1.247   0.128   1.025
  602SOL    HW2 2706   1.263   6.995   0.992
  603SOL     OW 2707   4.147   1.836   3.657
  603SOL    HW1 2708   4.156   1.930   3.626
  603SOL    HW2 2709   4.068   1.828   3.718
  604SOL     OW 2710   1.199   3.037   6.315
  604SOL    HW1 2711   1.227   3.133   6.322
  604SOL    HW2 2712   1.099   3.032   6.318
  605SOL     OW 2713   6.830   6.123   3.125
  605SOL    HW1 2714   6.763   6.144   3.054
  605SOL    HW2 2715   6.919   6.160   3.098
  606SOL     OW 2716   4.026   0.319   4.648
  606SOL    HW1 2717   3.989   0.383   4.716
  606SOL    HW2 2718   4.041   0.368   4.562
  607SOL     OW 2719   5.087   1.280   4.500
  607SOL    HW1 2720   5.107   1.249   4.407
  607SOL    HW2 2721   5.153   1.351   4.526
  608SOL     OW 2722   3.406   0.656   0.402
  608SOL    HW1 2723   3.463   0.714   0.344
  608SOL    HW2 2724   3.392   0.568   0.357
  609SOL     OW 2725   3.548   3.071   3.685
  609SOL    HW1 2726   3.590   3.155   3.651
  609SOL    HW2 2727   3.454   3.064   3.649
  610SOL     OW 2728   5.297   1.870   4.059
  610SOL    HW1 2729   5.372   1.910   4.007
  610SOL    HW2 2730   5.319   1.775   4.082
  611SOL     OW 2731   0.617   0.663   0.196
  611SOL    HW1 2732   0.639   0.725   0.271
  611SOL    HW2 2733   0.544   0.702   0.140
  612SOL     OW 2734   3.298   5.575   6.271
  612SOL    HW1 2735   3.239   5.540   6.199
  612SOL    HW2 2736   3.391   5.585   6.237
  613SOL     OW 2737   4.247   1.374   6.182
  613SOL    HW1 2738   4.284   1.399   6.271
  613SOL    HW2 2739   4.196   1.452   6.144
  614SOL     OW 2740   6.446   4.687   0.417
  614SOL    HW1 2741   6.498   4.709   0.335
  614SOL    HW2 2742   6.394   4.767   0.447
  615SOL     OW 2743   0.674   0.085   0.338
  615SOL    HW1 2744   0.725   7.026   0.325
  615SOL    HW2 2745   0.724   0.160   0.296
  616SOL     OW 2746   5.669   1.650   4.519
  616SOL    HW1 2747   5.571   1.667   4.528
  616SOL    HW2 2748   5.717   1.736   4.505
  617SOL     OW 2749   0.031   4.783   5.241
  617SOL    HW1 2750   0.007   4.714   5.310
  617SOL    HW2 2751   0.096   4.848   5.280
  618SOL     OW 2752   5.709   3.994   0.792
  618SOL    HW1 2753   5.808   3.986   0.779
  618SOL    HW2 2754   5.670   3.902   0.803
  619SOL     OW 2755   3.342   0.470   0.608
  619SOL    HW1 2756   3.333   0.555   0.554
  619SOL    HW2 2757   3.431   0.468   0.652
  620SOL     OW 2758   5.328   3.241   2.031
  620SOL    HW1 2759   5.280   3.217   2.115
  620SOL    HW2 2760   5.282   3.318   1.987
  621SOL     OW 2761   2.484   0.588   6.796
  621SOL    HW1 2762   2.466   0.685   6.785
  621SOL    HW2 2763   2.544   0.557   6.722
  622SOL     OW 2764   1.063   2.174   5.455
  622SOL    HW1 2765   1.067   2.093   5.514
  622SOL    HW2 2766   1.016   2.151   5.370
  623SOL     OW 2767   6.192   6.928   3.982
  623SOL    HW1 2768   6.116   6.864   3.969
  623SOL    HW2 2769   6.190   6.997   3.910
  624SOL     OW 2770   6.510   1.264   7.021
  624SOL    HW1 2771   6.499   1.164   7.021
  624SOL    HW2 2772   6.576   1.290   6.950
  625SOL     OW 2773   2.766   1.035   0.311
  625SOL    HW1 2774   2.732   1.058   0.220
  625SOL    HW2 2775   2.835   0.964   0.304
  626SOL     OW 2776   0.968   5.500   3.383
  626SOL    HW1 2777   1.009   5.441   3.452
  626SOL    HW2 2778   0.928   5.444   3.310
  627SOL     OW 2779   6.140   0.270   6.931
  627SOL    HW1 2780   6.153   0.195   6.867
  627SOL    HW2 2781   6.201   0.345   6.908
  628SOL     OW 2782   5.130   4.350   5.694
  628SOL    HW1 2783   5.219   4.330   5.653
  628SOL    HW2 2784   5.140   4.425   5.760
  629SOL     OW 2785   6.903   0.676   6.982
  629SOL    HW1 2786   6.928   0.773   6.984
  629SOL    HW2 2787   6.860   0.654   6.894
  630SOL     OW 2788   7.025   1.826   1.354
  630SOL    HW1 2789   6.962   1.890   1.310
  630SOL    HW2 2790   0.003   1.847   1.452
  631SOL     OW 2791   2.327   2.704   4.983
  631SOL    HW1 2792   2.278   2.694   4.897
  631SOL    HW2 2793   2.351   2.800   4.997
  632SOL     OW 2794   4.081   3.213   0.263
  632SOL    HW1 2795   4.082   3.273   0.183
  632SOL    HW2 2796   4.175   3.195   0.292
  633SOL     OW 2797   1.373   5.659   1.325
  633SOL    HW1 2798   1.431   5.579   1.308
  633SOL    HW2 2799   1.426   5.742   1.310
  634SOL     OW 2800   2.989   3.450   4.036
  634SOL    HW1 2801   2.930   3.514   3.987
  634SOL    HW2 2802   3.081   3.489   4.044
  635SOL     OW 2803   5.730   1.238   6.801
  635SOL    HW1 2804   5.730   1.223   6.703
  635SOL    HW2 2805   5.824   1.255   6.832
  636SOL     OW 2806   3.327   0.127   6.319
  636SOL    HW1 2807   3.306   0.186   6.396
  636SOL    HW2 2808   3.281   0.160   6.237
  637SOL     OW 2809   6.761   1.362   1.626
  637SOL    HW1 2810   6.770   1.274   1.579
  637SOL    HW2 2811   6.733   1.432   1.561
  638SOL     OW 2812   6.119   3.412   4.149
  638SOL    HW1 2813   6.058   3.383   4.223
  638SOL    HW2 2814   6.200   3.354   4.149
  639SOL     OW 2815   5.133   5.335   3.463
  639SOL    HW1 2816   5.039   5.304   3.473
  639SOL    HW2 2817   5.195   5.266   3.502
  640SOL     OW 2818   0.274   2.871   2.758
  640SOL    HW1 2819   0.265   2.855   2.660
  640SOL    HW2 2820   0.301   2.966   2.774
  641SOL     OW 2821   2.051   4.500   5.125
  641SOL    HW1 2822   2.098   4.493   5.036
  641SOL    HW2 2823   2.118   4.516   5.197
  642SOL     OW 2824   0.950   3.595   4.796
  642SOL    HW1 2825   0.891   3.519   4.768
  642SOL    HW2 2826   0.997   3.571   4.881
  643SOL     OW 2827   4.652   5.820   6.528
  643SOL    HW1 2828   4.701   5.737   6.552
  643SOL    HW2 2829   4.608   5.808   6.439
  644SOL     OW 2830   6.879   6.998   4.901
  644SOL    HW1 2831   6.862   7.012   4.999
  644SOL    HW2 2832   6.922   0.053   4.863
  645SOL     OW 2833   3.540   4.893   2.640
  645SOL    HW1 2834   3.567   4.830   2.568
  645SOL    HW2 2835   3.445   4.920   2.629
  646SOL     OW 2836   3.900   0.902   5.209
  646SOL    HW1 2837   3.978   0.941   5.257
  646SOL    HW2 2838   3.845   0.848   5.273
  647SOL     OW 2839   4.925   1.839   4.906
  647SOL    HW1 2840   4.908   1.747   4.871
  647SOL    HW2 2841   4.841   1.894   4.899
  648SOL     OW 2842   6.155   1.942   2.859
  648SOL    HW1 2843   6.129   2.036   2.839
  648SOL    HW2 2844   6.096   1.880   2.807
  649SOL     OW 2845   2.750   4.948   0.608
  649SOL    HW1 2846   2.737   5.008   0.529
  649SOL    HW2 2847   2.680   4.968   0.676
  650SOL     OW 2848   6.827   5.687   0.675
  650SOL    HW1 2849   6.893   5.664   0.604
  650SOL    HW2 2850   6.780   5.604   0.705
  651SOL     OW 2851   1.411   0.301   5.560
  651SOL    HW1 2852   1.325   0.258   5.590
  651SOL    HW2 2853   1.398   0.400   5.554
  652SOL     OW 2854   4.493   0.415   2.001
  652SOL    HW1 2855   4.500   0.365   1.915
  652SOL    HW2 2856   4.552   0.495   1.998
  653SOL     OW 2857   0.094   6.763   1.323
  653SOL    HW1 2858   0.172   6.714   1.362
  653SOL    HW2 2859   0.082   6.850   1.371
  654SOL     OW 2860   6.697   6.976   5.741
  654SOL    HW1 2861   6.718   6.883   5.771
  654SOL    HW2 2862   6.771   7.011   5.685
  655SOL     OW 2863   0.031   5.084   1.505
  655SOL    HW1 2864   0.032   5.116   1.599
  655SOL    HW2 2865   0.118   5.105   1.461
  656SOL     OW 2866   3.206   6.441   0.937
  656SOL    HW1 2867   3.262   6.464   0.858
  656SOL    HW2 2868   3.215   6.344   0.957
  657SOL     OW 2869   3.497   2.857   1.945
  657SOL    HW1 2870   3.407   2.814   1.953
  657SOL    HW2 2871   3.542   2.824   1.862
  658SOL     OW 2872   1.781   4.549   4.369
  658SOL    HW1 2873   1.764   4.639   4.329
  658SOL    HW2 2874   1.875   4.546   4.405
  659SOL     OW 2875   3.268   6.479   5.909
  659SOL    HW1 2876   3.184   6.427   5.892
  659SOL    HW2 2877   3.343   6.440   5.855
  660SOL     OW 2878   4.781   4.637   2.356
  660SOL    HW1 2879   4.832   4.562   2.399
  660SOL    HW2 2880   4.778   4.623   2.257
  661SOL     OW 2881   4.769   4.708   4.165
  661SOL    HW1 2882   4.834   4.725   4.091
  661SOL    HW2 2883   4.818   4.694   4.250
  662SOL     OW 2884   4.864   3.169   0.193
  662SOL    HW1 2885   4.796   3.095   0.187
  662SOL    HW2 2886   4.881   3.189   0.290
  663SOL     OW 2887   6.959   4.273   0.064
  663SOL    HW1 2888   6.990   4.339   7.022
  663SOL    HW2 2889   6.864   4.249   0.045
  664SOL     OW 2890   1.664   6.096   6.211
  664SOL    HW1 2891   1.607   6.030   6.162
  664SOL    HW2 2892   1.759   6.067   6.209
  665SOL     OW 2893   4.031   5.597   1.039
  665SOL    HW1 2894   3.942   5.639   1.056
  665SOL    HW2 2895   4.019   5.519   0.977
  666SOL     OW 2896   3.887   1.459   0.398
  666SOL    HW1 2897   3.894   1.486   0.302
  666SOL    HW2 2898   3.830   1.525   0.447
  667SOL     OW 2899   0.407   3.716   2.908
  667SOL    HW1 2900   0.331   3.752   2.962
  667SOL    HW2 2901   0.491   3.719   2.964
  668SOL     OW 2902   5.088   6.868   0.070
  668SOL    HW1 2903   5.067   6.818   0.154
  668SOL    HW2 2904   5.121   6.804   0.001
  669SOL     OW 2905   0.823   6.622   3.818
  669SOL    HW1 2906   0.878   6.687   3.870
  669SOL    HW2 2907   0.823   6.648   3.721
  670SOL     OW 2908   3.217   3.478   3.336
  670SOL    HW1 2909   3.305   3.476   3.382
  670SOL    HW2 2910   3.165   3.559   3.365
  671SOL     OW 2911   2.159   6.701   6.194
  671SOL    HW1 2912   2.145   6.620   6.252
  671SOL    HW2 2913   2.072   6.749   6.183
  672SOL     OW 2914   1.680   3.346   4.194
  672SOL    HW1 2915   1.731   3.260   4.201
  672SOL    HW2 2916   1.665   3.367   4.097
  673SOL     OW 2917   5.070   0.610   0.245
  673SOL    HW1 2918   5.050   0.622   0.148
  673SOL    HW2 2919   5.075   0.512   0.265
  674SOL     OW 2920   0.739   2.335   3.318
  674SOL    HW1 2921   0.737   2.261   3.385
  674SOL    HW2 2922   0.655   2.333   3.264
  675SOL     OW 2923   0.460   2.071   4.647
  675SOL    HW1 2924   0.452   2.039   4.741
  675SOL    HW2 2925   0.487   1.995   4.588
  676SOL     OW 2926   2.453   4.589   4.243
  676SOL    HW1 2927   2.447   4.608   4.341
  676SOL    HW2 2928   2.386   4.517   4.219
  677SOL     OW 2929   6.303   0.715   0.712
  677SOL    HW1 2930   6.331   0.808   0.687
  677SOL    HW2 2931   6.312   0.655   0.633
  678SOL     OW 2932   2.216   0.523   6.204
  678SOL    HW1 2933   2.300   0.530   6.258
  678SOL    HW2 2934   2.200   0.609   6.156
  679SOL     OW 2935   3.934   0.345   2.827
  679SOL    HW1 2936   3.852   0.400   2.843
  679SOL    HW2 2937   4.008   0.403   2.794
  680SOL     OW 2938   5.031   3.829   5.719
  680SOL    HW1 2939   5.040   3.923   5.752
  680SOL    HW2 2940   5.042   3.828   5.620
  681SOL     OW 2941   0.529   6.359   1.234
  681SOL    HW1 2942   0.512   6.452   1.202
  681SOL    HW2 2943   0.480   6.344   1.320
  682SOL     OW 2944   1.556   5.749   0.033
  682SOL    HW1 2945   1.542   5.678   0.102
  682SOL    HW2 2946   1.654   5.762   0.017
  683SOL     OW 2947   3.888   1.189   6.476
  683SOL    HW1 2948   3.831   1.107   6.474
  683SOL    HW2 2949   3.877   1.235   6.564
  684SOL     OW 2950   0.533   6.307   5.703
  684SOL    HW1 2951   0.441   6.337   5.680
  684SOL    HW2 2952   0.577   6.269   5.621
  685SOL     OW 2953   4.881   0.241   6.319
  685SOL    HW1 2954   4.953   0.299   6.282
  685SOL    HW2 2955   4.877   0.155   6.267
  686SOL     OW 2956   5.432   3.348   3.139
  686SOL    HW1 2957   5.365   3.417   3.164
  686SOL    HW2 2958   5.402   3.258   3.172
  687SOL     OW 2959   6.792   3.180   5.649
  687SOL    HW1 2960   6.844   3.219   5.572
  687SOL    HW2 2961   6.851   3.118   5.701
  688SOL     OW 2962   1.576   4.158   6.482
  688SOL    HW1 2963   1.487   4.129   6.517
  688SOL    HW2 2964   1.573   4.257   6.464
  689SOL     OW 2965   6.939   3.942   6.239
  689SOL    HW1 2966   7.026   3.988   6.254
  689SOL    HW2 2967   6.953   3.862   6.181
  690SOL     OW 2968   1.823   2.201   3.713
  690SOL    HW1 2969   1.856   2.172   3.623
  690SOL    HW2 2970   1.885   2.166   3.783
  691SOL     OW 2971   0.666   2.390   6.554
  691SOL    HW1 2972   0.697   2.454   6.625
  691SOL    HW2 2973   0.743   2.365   6.496
  692SOL     OW 2974   2.464   0.256   2.765
  692SOL    HW1 2975   2.511   0.260   2.677
  692SOL    HW2 2976   2.448   0.349   2.798
  693SOL     OW 2977   6.681   2.632   2.446
  693SOL    HW1 2978   6.684   2.536   2.475
  693SOL    HW2 2979   6.586   2.662   2.438
  694SOL     OW 2980   2.488   5.773   1.169
  694SOL    HW1 2981   2.471   5.736   1.078
  694SOL    HW2 2982   2.401   5.797   1.211
  695SOL     OW 2983   4.897   5.211   5.268
  695SOL    HW1 2984   4.844   5.200   5.352
  695SOL    HW2 2985   4.843   5.180   5.190
  696SOL     OW 2986   4.278   4.971   2.686
  696SOL    HW1 2987   4.235   4.899   2.740
  696SOL    HW2 2988   4.215   5.048   2.676
  697SOL     OW 2989   0.843   3.361   4.710
  697SOL    HW1 2990   0.821   3.281   4.766
  697SOL    HW2 2991   0.772   3.372   4.640
  698SOL     OW 2992   4.444   0.483   3.832
  698SOL    HW1 2993   4.346   0.499   3.844
  698SOL    HW2 2994   4.458   0.405   3.772
  699SOL     OW 2995   1.224   4.157   1.046
  699SOL    HW1 2996   1.163   4.112   0.980
  699SOL    HW2 2997   1.217   4.256   1.036
  700SOL     OW 2998   2.543   2.531   4.338
  700SOL    HW1 2999   2.551   2.493   4.246
  700SOL    HW2 3000   2.558   2.630   4.334
  701SOL     OW 3001   0.454   4.425   6.827
  701SOL    HW1 3002   0.368   4.469   6.802
  701SOL    HW2 3003   0.439   4.364   6.905
  702SOL     OW 3004   5.172   7.011   4.893
  702SOL    HW1 3005   5.232   7.006   4.973
  702SOL    HW2 3006   5.147   6.919   4.864
  703SOL     OW 3007   4.505   3.547   6.232
  703SOL    HW1 3008   4.564   3.550   6.151
  703SOL    HW2 3009   4.463   3.456   6.238
  704SOL     OW 3010   1.516   0.498   6.815
  704SOL    HW1 3011   1.452   0.463   6.747
  704SOL    HW2 3012   1.513   0.598   6.816
  705SOL     OW 3013   5.286   1.186   3.265
  705SOL    HW1 3014   5.352   1.156   3.334
  705SOL    HW2 3015   5.257   1.108   3.210
  706SOL     OW 3016   3.573   2.078   4.039
  706SOL    HW1 3017   3.513   2.095   3.961
  706SOL    HW2 3018   3.668   2.079   4.008
  707SOL     OW 3019   5.057   0.958   1.538
  707SOL    HW1 3020   5.057   1.047   1.583
  707SOL    HW2 3021   5.010   0.891   1.596
  708SOL     OW 3022   4.271   0.593   1.130
  708SOL    HW1 3023   4.212   0.513   1.136
  708SOL    HW2 3024   4.235   0.655   1.060
  709SOL     OW 3025   1.418   4.775   1.100
  709SOL    HW1 3026   1.352   4.789   1.027
  709SOL    HW2 3027   1.509   4.802   1.069
  710SOL     OW 3028   2.965   3.869   2.626
  710SOL    HW1 3029   2.868   3.890   2.613
  710SOL    HW2 3030   3.013   3.882   2.539
  711SOL     OW 3031   6.372   1.662   4.663
  711SOL    HW1 3032   6.394   1.592   4.595
  711SOL    HW2 3033   6.272   1.671   4.671
  712SOL     OW 3034   1.071   3.888   1.835
  712SOL    HW1 3035   1.122   3.971   1.859
  712SOL    HW2 3036   1.124   3.835   1.769
  713SOL     OW 3037   3.737   3.076   2.370
  713SOL    HW1 3038   3.729   3.057   2.272
  713SOL    HW2 3039   3.758   3.173   2.384
  714SOL     OW 3040   5.822   4.643   5.277
  714SOL    HW1 3041   5.898   4.614   5.336
  714SOL    HW2 3042   5.803   4.570   5.211
  715SOL     OW 3043   3.946   5.951   6.225
  715SOL    HW1 3044   3.924   6.039   6.268
  715SOL    HW2 3045   3.863   5.898   6.212
  716SOL     OW 3046   0.298   5.391   1.598
  716SOL    HW1 3047   0.339   5.465   1.546
  716SOL    HW2 3048   0.364   5.358   1.666
  717SOL     OW 3049   6.140   3.934   6.888
  717SOL    HW1 3050   6.201   3.856   6.906
  717SOL    HW2 3051   6.055   3.923   6.939
  718SOL     OW 3052   3.283   3.231   5.919
  718SOL    HW1 3053   3.214   3.242   5.990
  718SOL    HW2 3054   3.278   3.139   5.881
  719SOL     OW 3055   7.011   3.558   1.305
  719SOL    HW1 3056   6.914   3.579   1.295
  719SOL    HW2 3057   0.027   3.624   1.367
  720SOL     OW 3058   2.581   2.161   5.663
  720SOL    HW1 3059   2.561   2.151   5.760
  720SOL    HW2 3060   2.659   2.221   5.651
  721SOL     OW 3061   1.631   0.025   5.839
  721SOL    HW1 3062   1.639   0.018   5.739
  721SOL    HW2 3063   1.590   6.968   5.875
  722SOL     OW 3064   4.008   0.084   4.761
  722SOL    HW1 3065   4.040   0.165   4.713
  722SOL    HW2 3066   4.085   0.038   4.805
  723SOL     OW 3067   1.824   2.355   2.305
  723SOL    HW1 3068   1.865   2.413   2.234
  723SOL    HW2 3069   1.750   2.301   2.265
  724SOL     OW 3070   0.937   1.644   4.724
  724SOL    HW1 3071   0.953   1.568   4.788
  724SOL    HW2 3072   0.911   1.726   4.775
  725SOL     OW 3073   2.548   5.132   2.389
  725SOL    HW1 3074   2.623   5.183   2.346
  725SOL    HW2 3075   2.527   5.051   2.335
  726SOL     OW 3076   3.147   5.884   0.083
  726SOL    HW1 3077   3.196   5.885   0.170
  726SOL    HW2 3078   3.210   5.859   0.010
  727SOL     OW 3079   3.171   5.224   4.225
  727SOL    HW1 3080   3.127   5.258   4.143
  727SOL    HW2 3081   3.103   5.177   4.282
  728SOL     OW 3082   0.162   3.800   5.169
  728SOL    HW1 3083   0.217   3.743   5.229
  728SOL    HW2 3084   0.135   3.883   5.217
  729SOL     OW 3085   2.285   0.814   0.424
  729SOL    HW1 3086   2.370   0.769   0.397
  729SOL    HW2 3087   2.281   0.820   0.524
  730SOL     OW 3088   6.299   0.639   4.145
  730SOL    HW1 3089   6.253   0.675   4.226
  730SOL    HW2 3090   6.398   0.642   4.159
  731SOL     OW 3091   5.171   2.839   4.653
  731SOL    HW1 3092   5.075   2.867   4.647
  731SOL    HW2 3093   5.224   2.887   4.583
  732SOL     OW 3094   0.580   2.671   1.024
  732SOL    HW1 3095   0.612   2.580   1.052
  732SOL    HW2 3096   0.493   2.662   0.976
  733SOL     OW 3097   4.711   4.124   3.592
  733SOL    HW1 3098   4.697   4.206   3.647
  733SOL    HW2 3099   4.760   4.147   3.508
  734SOL     OW 3100   6.583   4.319   1.174
  734SOL    HW1 3101   6.596   4.412   1.141
  734SOL    HW2 3102   6.657   4.261   1.140
  735SOL     OW 3103   1.469   3.637   0.066
  735SOL    HW1 3104   1.395   3.646   0.133
  735SOL    HW2 3105   1.504   3.543   0.068
  736SOL     OW 3106   6.598   0.427   3.447
  736SOL    HW1 3107   6.618   0.343   3.498
  736SOL    HW2 3108   6.664   0.498   3.471
  737SOL     OW 3109   4.830   3.400   1.335
  737SOL    HW1 3110   4.913   3.391   1.391
  737SOL    HW2 3111   4.856   3.411   1.239
  738SOL     OW 3112   0.207   4.140   4.236
  738SOL    HW1 3113   0.119   4.171   4.272
  738SOL    HW2 3114   0.280   4.168   4.298
  739SOL     OW 3115   4.609   6.516   5.827
  739SOL    HW1 3116   4.602   6.590   5.894
  739SOL    HW2 3117   4.561   6.435   5.861
  740SOL     OW 3118   5.695   0.178   1.265
  740SOL    HW1 3119   5.646   0.263   1.250
  740SOL    HW2 3120   5.661   0.133   1.348
  741SOL     OW 3121   1.390   6.729   3.248
  741SOL    HW1 3122   1.303   6.683   3.232
  741SOL    HW2 3123   1.452   6.668   3.297
  742SOL     OW 3124   1.480   6.503   3.783
  742SOL    HW1 3125   1.540   6.569   3.737
  742SOL    HW2 3126   1.443   6.544   3.866
  743SOL     OW 3127   1.391   4.283   4.183
  743SOL    HW1 3128   1.419   4.353   4.117
  743SOL    HW2 3129   1.457   4.280   4.258
  744SOL     OW 3130   6.882   6.232   7.025
  744SOL    HW1 3131   6.817   6.265   6.957
  744SOL    HW2 3132   6.883   6.132   7.026
  745SOL     OW 3133   1.019   5.310   3.006
  745SOL    HW1 3134   0.987   5.250   3.079
  745SOL    HW2 3135   1.030   5.403   3.041
  746SOL     OW 3136   0.700   6.908   4.957
  746SOL    HW1 3137   0.789   6.924   4.914
  746SOL    HW2 3138   0.636   6.870   4.890
  747SOL     OW 3139   4.619   5.045   3.185
  747SOL    HW1 3140   4.651   4.992   3.264
  747SOL    HW2 3141   4.674   5.128   3.176
  748SOL     OW 3142   4.649   4.231   0.681
  748SOL    HW1 3143   4.710   4.294   0.632
  748SOL    HW2 3144   4.578   4.198   0.619
  749SOL     OW 3145   0.264   2.386   5.016
  749SOL    HW1 3146   0.228   2.297   4.988
  749SOL    HW2 3147   0.350   2.404   4.967
  750SOL     OW 3148   2.626   3.029   0.665
  750SOL    HW1 3149   2.576   2.958   0.714
  750SOL    HW2 3150   2.610   3.117   0.710
  751SOL     OW 3151   4.567   1.134   0.477
  751SOL    HW1 3152   4.535   1.205   0.539
  751SOL    HW2 3153   4.490   1.079   0.445
  752SOL     OW 3154   4.178   2.352   1.624
  752SOL    HW1 3155   4.080   2.355   1.645
  752SOL    HW2 3156   4.229   2.344   1.710
  753SOL     OW 3157   1.708   3.305   4.991
  753SOL    HW1 3158   1.796   3.311   4.943
  753SOL    HW2 3159   1.679   3.397   5.018
  754SOL     OW 3160   4.745   4.173   6.855
  754SOL    HW1 3161   4.805   4.151   6.931
  754SOL    HW2 3162   4.799   4.200   6.775
  755SOL     OW 3163   0.654   5.855   6.988
  755SOL    HW1 3164   0.615   5.891   6.903
  755SOL    HW2 3165   0.593   5.785   7.025
  756SOL     OW 3166   5.478   0.699   2.183
  756SOL    HW1 3167   5.425   0.784   2.186
  756SOL    HW2 3168   5.454   0.642   2.262
  757SOL     OW 3169   0.289   6.376   4.005
  757SOL    HW1 3170   0.353   6.385   3.929
  757SOL    HW2 3171   0.295   6.283   4.043
  758SOL     OW 3172   3.621   2.331   1.474
  758SOL    HW1 3173   3.522   2.344   1.477
  758SOL    HW2 3174   3.664   2.383   1.548
  759SOL     OW 3175   1.170   1.652   0.045
  759SOL    HW1 3176   1.253   1.602   0.019
  759SOL    HW2 3177   1.142   1.711   6.996
  760SOL     OW 3178   4.926   1.569   6.843
  760SOL    HW1 3179   4.836   1.543   6.808
  760SOL    HW2 3180   4.933   1.668   6.849
  761SOL     OW 3181   6.094   2.968   0.362
  761SOL    HW1 3182   6.165   3.007   0.303
  761SOL    HW2 3183   6.041   2.901   0.310
  762SOL     OW 3184   2.532   5.948   3.646
  762SOL    HW1 3185   2.492   5.930   3.556
  762SOL    HW2 3186   2.555   6.045   3.653
  763SOL     OW 3187   4.116   5.880   0.086
  763SOL    HW1 3188   4.192   5.828   0.047
  763SOL    HW2 3189   4.096   5.846   0.178
  764SOL     OW 3190   2.971   1.368   2.725
  764SOL    HW1 3191   3.006   1.456   2.691
  764SOL    HW2 3192   2.926   1.382   2.814
  765SOL     OW 3193   0.986   6.548   1.967
  765SOL    HW1 3194   0.970   6.467   1.910
  765SOL    HW2 3195   0.935   6.626   1.929
  766SOL     OW 3196   6.966   0.498   6.581
  766SOL    HW1 3197   6.968   0.409   6.625
  766SOL    HW2 3198   0.033   0.525   6.557
  767SOL     OW 3199   0.461   6.596   2.318
  767SOL    HW1 3200   0.473   6.513   2.263
  767SOL    HW2 3201   0.397   6.578   2.392
  768SOL     OW 3202   2.650   0.324   2.534
  768SOL    HW1 3203   2.723   0.256   2.522
  768SOL    HW2 3204   2.630   0.365   2.445
  769SOL     OW 3205   4.260   0.125   5.192
  769SOL    HW1 3206   4.190   0.110   5.262
  769SOL    HW2 3207   4.220   0.176   5.116
  770SOL     OW 3208   3.014   5.307   3.462
  770SOL    HW1 3209   3.003   5.360   3.546
  770SOL    HW2 3210   3.014   5.369   3.383
  771SOL     OW 3211   2.088   5.567   2.980
  771SOL    HW1 3212   2.102   5.664   3.001
  771SOL    HW2 3213   2.170   5.529   2.937
  772SOL     OW 3214   0.071   4.114   0.503
  772SOL    HW1 3215   0.034   4.027   0.469
  772SOL    HW2 3216   0.018   4.189   0.466
  773SOL     OW 3217   6.782   3.060   3.227
  773SOL    HW1 3218   6.841   3.009   3.164
  773SOL    HW2 3219   6.715   3.112   3.175
  774SOL     OW 3220   1.994   2.034   1.738
  774SOL    HW1 3221   1.923   1.969   1.712
  774SOL    HW2 3222   2.005   2.035   1.837
  775SOL     OW 3223   1.178   2.169   3.732
  775SOL    HW1 3224   1.106   2.100   3.725
  775SOL    HW2 3225   1.228   2.175   3.646
  776SOL     OW 3226   1.769   6.522   6.181
  776SOL    HW1 3227   1.794   6.615   6.153
  776SOL    HW2 3228   1.772   6.462   6.101
  777SOL     OW 3229   4.132   0.980   1.139
  777SOL    HW1 3230   4.224   1.003   1.109
  777SOL    HW2 3231   4.134   0.897   1.195
  778SOL     OW 3232   4.150   0.829   3.848
  778SOL    HW1 3233   4.144   0.921   3.888
  778SOL    HW2 3234   4.242   0.814   3.812
  779SOL     OW 3235   1.108   2.230   2.162
  779SOL    HW1 3236   1.071   2.298   2.226
  779SOL    HW2 3237   1.063   2.241   2.073
  780SOL     OW 3238   6.324   2.548   4.301
  780SOL    HW1 3239   6.248   2.611   4.280
  780SOL    HW2 3240   6.294   2.482   4.370
  781SOL     OW 3241   6.302   1.424   6.264
  781SOL    HW1 3242   6.222   1.405   6.207
  781SOL    HW2 3243   6.345   1.510   6.234
  782SOL     OW 3244   0.787   3.254   0.914
  782SOL    HW1 3245   0.840   3.331   0.878
  782SOL    HW2 3246   0.770   3.189   0.840
  783SOL     OW 3247   2.779   5.392   0.583
  783SOL    HW1 3248   2.744   5.426   0.495
  783SOL    HW2 3249   2.719   5.422   0.656
  784SOL     OW 3250   4.205   0.547   5.432
  784SOL    HW1 3251   4.126   0.533   5.491
  784SOL    HW2 3252   4.177   0.593   5.347
  785SOL     OW 3253   6.209   1.880   2.357
  785SOL    HW1 3254   6.167   1.963   2.397
  785SOL    HW2 3255   6.308   1.892   2.353
  786SOL     OW 3256   0.044   0.419   0.470
  786SOL    HW1 3257   0.092   0.475   0.537
  786SOL    HW2 3258   6.974   0.443   0.469
  787SOL     OW 3259   2.521   1.214   6.122
  787SOL    HW1 3260   2.491   1.154   6.048
  787SOL    HW2 3261   2.574   1.160   6.188
  788SOL     OW 3262   1.993   3.440   4.623
  788SOL    HW1 3263   1.976   3.494   4.706
  788SOL    HW2 3264   2.060   3.488   4.566
  789SOL     OW 3265   5.696   4.040   1.602
  789SOL    HW1 3266   5.682   3.958   1.657
  789SOL    HW2 3267   5.698   4.120   1.661
  790SOL     OW 3268   2.239   1.338   4.297
  790SOL    HW1 3269   2.242   1.313   4.393
  790SOL    HW2 3270   2.160   1.295   4.253
  791SOL     OW 3271   3.665   0.388   4.059
  791SOL    HW1 3272   3.574   0.430   4.050
  791SOL    HW2 3273   3.723   0.446   4.117
  792SOL     OW 3274   6.382   0.531   2.324
  792SOL    HW1 3275   6.452   0.470   2.287
  792SOL    HW2 3276   6.407   0.559   2.416
  793SOL     OW 3277   5.116   6.505   1.272
  793SOL    HW1 3278   5.188   6.563   1.233
  793SOL    HW2 3279   5.131   6.495   1.370
  794SOL     OW 3280   2.563   4.924   5.280
  794SOL    HW1 3281   2.495   4.921   5.353
  794SOL    HW2 3282   2.573   4.833   5.240
  795SOL     OW 3283   3.884   5.052   6.070
  795SOL    HW1 3284   3.786   5.049   6.047
  795SOL    HW2 3285   3.929   4.972   6.032
  796SOL     OW 3286   0.278   2.012   5.585
  796SOL    HW1 3287   0.242   2.106   5.585
  796SOL    HW2 3288   0.364   2.009   5.533
  797SOL     OW 3289   5.638   1.988   3.434
  797SOL    HW1 3290   5.597   1.991   3.343
  797SOL    HW2 3291   5.647   2.081   3.470
  798SOL     OW 3292   5.051   0.160   0.515
  798SOL    HW1 3293   4.952   0.151   0.507
  798SOL    HW2 3294   5.085   0.097   0.584
  799SOL     OW 3295   6.517   1.887   3.254
  799SOL    HW1 3296   6.456   1.914   3.179
  799SOL    HW2 3297   6.466   1.834   3.322
  800SOL     OW 3298   5.307   0.949   2.147
  800SOL    HW1 3299   5.277   0.923   2.055
  800SOL    HW2 3300   5.364   1.031   2.142
  801SOL     OW 3301   1.157   2.766   3.149
  801SOL    HW1 3302   1.078   2.725   3.195
  801SOL    HW2 3303   1.133   2.785   3.054
  802SOL     OW 3304   5.331   1.711   0.243
  802SOL    HW1 3305   5.248   1.758   0.274
  802SOL    HW2 3306   5.397   1.778   0.209
  803SOL     OW 3307   6.011   5.721   4.141
  803SOL    HW1 3308   5.935   5.656   4.142
  803SOL    HW2 3309   6.082   5.688   4.079
  804SOL     OW 3310   7.026   6.822   0.152
  804SOL    HW1 3311   0.072   6.838   0.084
  804SOL    HW2 3312   7.006   6.907   0.200
  805SOL     OW 3313   4.168   2.751   5.860
  805SOL    HW1 3314   4.166   2.652   5.854
  805SOL    HW2 3315   4.075   2.786   5.868
  806SOL     OW 3316   4.568   1.365   6.283
  806SOL    HW1 3317   4.522   1.277   6.271
  806SOL    HW2 3318   4.540   1.406   6.370
  807SOL     OW 3319   0.884   0.585   3.640
  807SOL    HW1 3320   0.786   0.606   3.635
  807SOL    HW2 3321   0.916   0.559   3.549
  808SOL     OW 3322   5.476   2.691   5.904
  808SOL    HW1 3323   5.432   2.779   5.922
  808SOL    HW2 3324   5.422   2.618   5.946
  809SOL     OW 3325   1.147   4.988   1.617
  809SOL    HW1 3326   1.197   4.962   1.699
  809SOL    HW2 3327   1.207   5.043   1.558
  810SOL     OW 3328   4.720   3.734   1.079
  810SOL    HW1 3329   4.694   3.647   1.120
  810SOL    HW2 3330   4.763   3.792   1.148
  811SOL     OW 3331   5.218   5.783   3.362
  811SOL    HW1 3332   5.257   5.793   3.454
  811SOL    HW2 3333   5.120   5.768   3.369
  812SOL     OW 3334   0.026   0.573   1.465
  812SOL    HW1 3335   0.087   0.617   1.398
  812SOL    HW2 3336   0.022   0.475   1.446
  813SOL     OW 3337   4.334   6.065   3.292
  813SOL    HW1 3338   4.381   5.979   3.314
  813SOL    HW2 3339   4.238   6.046   3.274
  814SOL     OW 3340   5.209   6.662   2.549
  814SOL    HW1 3341   5.188   6.722   2.626
  814SOL    HW2 3342   5.306   6.637   2.552
  815SOL     OW 3343   6.101   2.487   1.667
  815SOL    HW1 3344   6.005   2.471   1.692
  815SOL    HW2 3345   6.125   2.582   1.690
  816SOL     OW 3346   6.821   6.784   0.762
  816SOL    HW1 3347   6.900   6.792   0.823
  816SOL    HW2 3348   6.845   6.724   0.686
  817SOL     OW 3349   1.717   3.872   1.925
  817SOL    HW1 3350   1.736   3.943   1.858
  817SOL    HW2 3351   1.802   3.848   1.973
  818SOL     OW 3352   5.883   2.183   1.140
  818SOL    HW1 3353   5.928   2.172   1.229
  818SOL    HW2 3354   5.892   2.278   1.110
  819SOL     OW 3355   6.778   2.498   4.401
  819SOL    HW1 3356   6.818   2.410   4.426
  819SOL    HW2 3357   6.827   2.571   4.449
  820SOL     OW 3358   1.071   3.041   4.772
  820SOL    HW1 3359   1.005   3.012   4.703
  820SOL    HW2 3360   1.162   3.005   4.750
  821SOL     OW 3361   1.675   4.242   0.639
  821SOL    HW1 3362   1.769   4.276   0.645
  821SOL    HW2 3363   1.612   4.320   0.632
  822SOL     OW 3364   0.438   3.886   4.879
  822SOL    HW1 3365   0.382   3.826   4.822
  822SOL    HW2 3366   0.522   3.838   4.905
  823SOL     OW 3367   5.323   4.070   5.818
  823SOL    HW1 3368   5.224   4.077   5.831
  823SOL    HW2 3369   5.367   4.054   5.906
  824SOL     OW 3370   4.560   1.733   5.180
  824SOL    HW1 3371   4.540   1.683   5.096
  824SOL    HW2 3372   4.515   1.822   5.178
  825SOL     OW 3373   2.096   3.380   2.227
  825SOL    HW1 3374   2.150   3.421   2.153
  825SOL    HW2 3375   2.090   3.282   2.212
  826SOL     OW 3376   5.828   3.328   0.304
  826SOL    HW1 3377   5.909   3.345   0.247
  826SOL    HW2 3378   5.835   3.238   0.346
  827SOL     OW 3379   2.998   5.443   6.723
  827SOL    HW1 3380   2.981   5.345   6.739
  827SOL    HW2 3381   2.926   5.497   6.765
  828SOL     OW 3382   6.304   0.796   5.224
  828SOL    HW1 3383   6.209   0.807   5.191
  828SOL    HW2 3384   6.332   0.880   5.271
  829SOL     OW 3385   2.954   3.178   3.997
  829SOL    HW1 3386   3.008   3.126   4.064
  829SOL    HW2 3387   2.963   3.275   4.016
  830SOL     OW 3388   4.633   4.532   5.997
  830SOL    HW1 3389   4.670   4.569   5.912
  830SOL    HW2 3390   4.572   4.599   6.039
  831SOL     OW 3391   6.241   0.265   4.783
  831SOL    HW1 3392   6.249   0.165   4.778
  831SOL    HW2 3393   6.294   0.306   4.709
  832SOL     OW 3394   2.522   1.677   0.127
  832SOL    HW1 3395   2.525   1.579   0.108
  832SOL    HW2 3396   2.568   1.726   0.053
  833SOL     OW 3397   6.384   6.778   6.320
  833SOL    HW1 3398   6.316   6.709   6.293
  833SOL    HW2 3399   6.476   6.742   6.304
  834SOL     OW 3400   3.293   3.320   3.842
  834SOL    HW1 3401   3.233   3.396   3.869
  834SOL    HW2 3402   3.242   3.235   3.844
  835SOL     OW 3403   3.796   6.716   4.085
  835SOL    HW1 3404   3.788   6.812   4.112
  835SOL    HW2 3405   3.891   6.696   4.060
  836SOL     OW 3406   3.295   6.792   6.981
  836SOL    HW1 3407   3.284   6.844   0.039
  836SOL    HW2 3408   3.207   6.749   6.958
  837SOL     OW 3409   5.496   0.117   6.935
  837SOL    HW1 3410   5.506   0.215   6.919
  837SOL    HW2 3411   5.416   0.100   6.993
  838SOL     OW 3412   1.317   6.236   4.876
  838SOL    HW1 3413   1.304   6.151   4.824
  838SOL    HW2 3414   1.295   6.314   4.818
  839SOL     OW 3415   2.786   1.192   3.888
  839SOL    HW1 3416   2.695   1.202   3.848
  839SOL    HW2 3417   2.778   1.173   3.985
  840SOL     OW 3418   1.167   1.182   6.888
  840SOL    HW1 3419   1.211   1.260   6.844
  840SOL    HW2 3420   1.147   1.112   6.819
  841SOL     OW 3421   6.620   3.678   0.246
  841SOL    HW1 3422   6.676   3.601   0.217
  841SOL    HW2 3423   6.662   3.764   0.217
  842SOL     OW 3424   3.395   5.577   3.192
  842SOL    HW1 3425   3.344   5.649   3.146
  842SOL    HW2 3426   3.442   5.614   3.272
  843SOL     OW 3427   6.195   2.230   1.537
  843SOL    HW1 3428   6.158   2.155   1.592
  843SOL    HW2 3429   6.146   2.314   1.559
  844SOL     OW 3430   5.219   6.404   0.607
  844SOL    HW1 3431   5.200   6.493   0.564
  844SOL    HW2 3432   5.315   6.381   0.596
  845SOL     OW 3433   6.417   3.415   4.871
  845SOL    HW1 3434   6.383   3.502   4.833
  845SOL    HW2 3435   6.517   3.412   4.860
  846SOL     OW 3436   5.788   1.100   0.102
  846SOL    HW1 3437   5.743   1.142   0.181
  846SOL    HW2 3438   5.742   1.015   0.079
  847SOL     OW 3439   6.360   3.392   1.078
  847SOL    HW1 3440   6.268   3.355   1.084
  847SOL    HW2 3441   6.358   3.491   1.092
  848SOL     OW 3442   6.447   0.458   5.828
  848SOL    HW1 3443   6.371   0.463   5.763
  848SOL    HW2 3444   6.439   0.531   5.895
  849SOL     OW 3445   0.153   5.538   5.008
  849SOL    HW1 3446   0.150   5.638   5.001
  849SOL    HW2 3447   0.157   5.498   4.917
  850SOL     OW 3448   4.629   1.069   3.491
  850SOL    HW1 3449   4.711   1.122   3.511
  850SOL    HW2 3450   4.571   1.120   3.427
  851SOL     OW 3451   0.307   1.203   0.291
  851SOL    HW1 3452   0.350   1.284   0.251
  851SOL    HW2 3453   0.242   1.231   0.361
  852SOL     OW 3454   2.246   3.178   6.888
  852SOL    HW1 3455   2.289   3.232   6.960
  852SOL    HW2 3456   2.154   3.212   6.871
  853SOL     OW 3457   1.010   2.747   2.058
  853SOL    HW1 3458   1.091   2.792   2.021
  853SOL    HW2 3459   1.027   2.649   2.066
  854SOL     OW 3460   5.457   5.817   2.778
  854SOL    HW1 3461   5.473   5.806   2.876
  854SOL    HW2 3462   5.538   5.856   2.735
  855SOL     OW 3463   5.946   6.915   1.645
  855SOL    HW1 3464   6.026   6.858   1.627
  855SOL    HW2 3465   5.897   6.879   1.725
  856SOL     OW 3466   2.182   6.412   4.935
  856SOL    HW1 3467   2.268   6.427   4.887
  856SOL    HW2 3468   2.196   6.423   5.033
  857SOL     OW 3469   6.278   3.675   1.046
  857SOL    HW1 3470   6.215   3.679   1.124
  857SOL    HW2 3471   6.364   3.720   1.070
  858SOL     OW 3472   3.238   4.800   1.896
  858SOL    HW1 3473   3.161   4.750   1.934
  858SOL    HW2 3474   3.287   4.742   1.831
  859SOL     OW 3475   0.060   4.781   6.670
  859SOL    HW1 3476   0.024   4.847   6.735
  859SOL    HW2 3477   7.021   4.706   6.659
  860SOL     OW 3478   3.108   4.528   0.431
  860SOL    HW1 3479   3.164   4.490   0.504
  860SOL    HW2 3480   3.037   4.586   0.470
  861SOL     OW 3481   3.071   6.337   5.446
  861SOL    HW1 3482   2.971   6.338   5.438
  861SOL    HW2 3483   3.099   6.404   5.515
  862SOL     OW 3484   5.225   4.641   4.842
  862SOL    HW1 3485   5.140   4.687   4.816
  862SOL    HW2 3486   5.203   4.553   4.886
  863SOL     OW 3487   0.385   1.003   0.980
  863SOL    HW1 3488   0.459   1.060   0.945
  863SOL    HW2 3489   0.336   0.960   0.903
  864SOL     OW 3490   5.528   4.658   2.658
  864SOL    HW1 3491   5.593   4.673   2.584
  864SOL    HW2 3492   5.569   4.686   2.745
  865SOL     OW 3493   1.461   6.936   3.747
  865SOL    HW1 3494   1.517   6.997   3.803
  865SOL    HW2 3495   1.488   6.945   3.651
  866SOL     OW 3496   3.111   1.976   1.925
  866SOL    HW1 3497   3.150   2.040   1.992
  866SOL    HW2 3498   3.014   1.995   1.912
  867SOL     OW 3499   2.854   3.255   6.476
  867SOL    HW1 3500   2.853   3.167   6.429
  867SOL    HW2 3501   2.947   3.277   6.503
  868SOL     OW 3502   6.008   0.425   2.906
  868SOL    HW1 3503   6.075   0.352   2.894
  868SOL    HW2 3504   6.050   0.513   2.880
  869SOL     OW 3505   6.268   5.867   2.203
  869SOL    HW1 3506   6.319   5.836   2.283
  869SOL    HW2 3507   6.204   5.795   2.174
  870SOL     OW 3508   0.011   2.612   1.638
  870SOL    HW1 3509   6.992   2.604   1.549
  870SOL    HW2 3510   0.089   2.550   1.641
  871SOL     OW 3511   5.804   2.465   2.154
  871SOL    HW1 3512   5.827   2.550   2.106
  871SOL    HW2 3513   5.717   2.476   2.202
  872SOL     OW 3514   6.433   2.527   4.696
  872SOL    HW1 3515   6.466   2.593   4.628
  872SOL    HW2 3516   6.413   2.440   4.651
  873SOL     OW 3517   3.494   0.002   3.690
  873SOL    HW1 3518   3.474   0.097   3.666
  873SOL    HW2 3519   3.453   7.006   3.778
  874SOL     OW 3520   1.630   4.402   5.115
  874SOL    HW1 3521   1.714   4.361   5.150
  874SOL    HW2 3522   1.638   4.416   5.017
  875SOL     OW 3523   5.399   3.779   0.214
  875SOL    HW1 3524   5.370   3.863   0.169
  875SOL    HW2 3525   5.367   3.779   0.308
  876SOL     OW 3526   6.656   3.448   2.525
  876SOL    HW1 3527   6.671   3.436   2.427
  876SOL    HW2 3528   6.743   3.472   2.569
  877SOL     OW 3529   4.785   5.252   7.008
  877SOL    HW1 3530   4.804   5.248   0.079
  877SOL    HW2 3531   4.866   5.224   6.956
  878SOL     OW 3532   2.767   5.062   0.953
  878SOL    HW1 3533   2.676   5.102   0.962
  878SOL    HW2 3534   2.818   5.111   0.882
  879SOL     OW 3535   4.108   2.173   2.583
  879SOL    HW1 3536   4.063   2.188   2.494
  879SOL    HW2 3537   4.196   2.220   2.585
  880SOL     OW 3538   3.578   5.035   0.714
  880SOL    HW1 3539   3.588   5.037   0.615
  880SOL    HW2 3540   3.620   4.952   0.750
  881SOL     OW 3541   4.165   4.800   4.474
  881SOL    HW1 3542   4.193   4.730   4.408
  881SOL    HW2 3543   4.242   4.823   4.533
  882SOL     OW 3544   1.209   0.690   4.503
  882SOL    HW1 3545   1.118   0.648   4.498
  882SOL    HW2 3546   1.213   0.750   4.583
  883SOL     OW 3547   3.277   5.360   6.582
  883SOL    HW1 3548   3.224   5.327   6.504
  883SOL    HW2 3549   3.218   5.411   6.644
  884SOL     OW 3550   5.819   3.207   1.544
  884SOL    HW1 3551   5.762   3.182   1.622
  884SOL    HW2 3552   5.777   3.283   1.495
  885SOL     OW 3553   5.735   5.940   0.391
  885SOL    HW1 3554   5.782   6.026   0.374
  885SOL    HW2 3555   5.637   5.951   0.373
  886SOL     OW 3556   4.091   1.238   6.839
  886SOL    HW1 3557   4.160   1.174   6.805
  886SOL    HW2 3558   4.046   1.199   6.919
  887SOL     OW 3559   3.964   6.988   6.058
  887SOL    HW1 3560   4.047   7.018   6.010
  887SOL    HW2 3561   3.980   6.993   6.157
  888SOL     OW 3562   6.483   6.193   3.276
  888SOL    HW1 3563   6.481   6.144   3.189
  888SOL    HW2 3564   6.493   6.128   3.352
  889SOL     OW 3565   0.341   6.547   5.154
  889SOL    HW1 3566   0.336   6.610   5.077
  889SOL    HW2 3567   0.390   6.590   5.230
  890SOL     OW 3568   2.727   4.749   2.102
  890SOL    HW1 3569   2.684   4.693   2.173
  890SOL    HW2 3570   2.774   4.690   2.036
  891SOL     OW 3571   5.223   2.782   0.472
  891SOL    HW1 3572   5.133   2.751   0.504
  891SOL    HW2 3573   5.294   2.749   0.534
  892SOL     OW 3574   2.738   3.759   1.261
  892SOL    HW1 3575   2.796   3.839   1.277
  892SOL    HW2 3576   2.756   3.690   1.332
  893SOL     OW 3577   1.383   0.832   0.377
  893SOL    HW1 3578   1.418   0.824   0.471
  893SOL    HW2 3579   1.376   0.741   0.337
  894SOL     OW 3580   1.088   5.647   4.309
  894SOL    HW1 3581   1.032   5.703   4.371
  894SOL    HW2 3582   1.183   5.678   4.312
  895SOL     OW 3583   1.979   0.208   4.233
  895SOL    HW1 3584   1.963   0.167   4.323
  895SOL    HW2 3585   1.910   0.175   4.168
  896SOL     OW 3586   5.872   6.764   3.051
  896SOL    HW1 3587   5.920   6.688   3.006
  896SOL    HW2 3588   5.934   6.841   3.061
  897SOL     OW 3589   4.746   2.883   6.667
  897SOL    HW1 3590   4.672   2.888   6.601
  897SOL    HW2 3591   4.709   2.891   6.760
  898SOL     OW 3592   5.661   6.670   3.211
  898SOL    HW1 3593   5.731   6.697   3.145
  898SOL    HW2 3594   5.604   6.597   3.172
  899SOL     OW 3595   0.323   4.499   6.200
  899SOL    HW1 3596   0.335   4.561   6.122
  899SOL    HW2 3597   0.412   4.479   6.241
  900SOL     OW 3598   0.214   5.974   3.663
  900SOL    HW1 3599   0.137   6.011   3.715
  900SOL    HW2 3600   0.281   5.935   3.726
  901SOL     OW 3601   5.951   1.272   4.103
  901SOL    HW1 3602   6.040   1.251   4.142
  901SOL    HW2 3603   5.924   1.365   4.130
  902SOL     OW 3604   0.185   6.899   7.002
  902SOL    HW1 3605   0.199   6.918   6.905
  902SOL    HW2 3606   0.269   6.864   0.015
  903SOL     OW 3607   0.957   5.094   0.767
  903SOL    HW1 3608   0.921   5.167   0.824
  903SOL    HW2 3609   1.026   5.131   0.705
  904SOL     OW 3610   2.014   1.785   3.660
  904SOL    HW1 3611   1.964   1.801   3.575
  904SOL    HW2 3612   2.058   1.695   3.656
  905SOL     OW 3613   5.437   1.466   5.691
  905SOL    HW1 3614   5.452   1.538   5.759
  905SOL    HW2 3615   5.346   1.427   5.704
  906SOL     OW 3616   0.132   3.736   5.715
  906SOL    HW1 3617   0.186   3.795   5.655
  906SOL    HW2 3618   0.099   3.656   5.664
  907SOL     OW 3619   5.863   2.126   2.245
  907SOL    HW1 3620   5.898   2.171   2.163
  907SOL    HW2 3621   5.855   2.028   2.228
  908SOL     OW 3622   2.083   0.523   3.777
  908SOL    HW1 3623   2.163   0.529   3.836
  908SOL    HW2 3624   2.083   0.436   3.728
  909SOL     OW 3625   3.830   1.171   1.400
  909SOL    HW1 3626   3.929   1.170   1.415
  909SOL    HW2 3627   3.788   1.238   1.461
  910SOL     OW 3628   2.228   1.142   0.708
  910SOL    HW1 3629   2.275   1.193   0.637
  910SOL    HW2 3630   2.149   1.095   0.669
  911SOL     OW 3631   0.282   4.797   1.418
  911SOL    HW1 3632   0.331   4.732   1.360
  911SOL    HW2 3633   0.186   4.799   1.393
  912SOL     OW 3634   0.110   0.415   5.691
  912SOL    HW1 3635   0.165   0.441   5.613
  912SOL    HW2 3636   0.169   0.386   5.766
  913SOL     OW 3637   2.792   0.853   2.542
  913SOL    HW1 3638   2.881   0.883   2.506
  913SOL    HW2 3639   2.744   0.801   2.471
  914SOL     OW 3640   2.776   5.786   3.113
  914SOL    HW1 3641   2.752   5.864   3.055
  914SOL    HW2 3642   2.864   5.749   3.084
  915SOL     OW 3643   0.625   2.586   0.504
  915SOL    HW1 3644   0.592   2.622   0.591
  915SOL    HW2 3645   0.607   2.652   0.431
  916SOL     OW 3646   2.399   2.506   2.724
  916SOL    HW1 3647   2.469   2.495   2.654
  916SOL    HW2 3648   2.383   2.603   2.741
  917SOL     OW 3649   4.121   1.640   1.205
  917SOL    HW1 3650   4.206   1.655   1.256
  917SOL    HW2 3651   4.143   1.599   1.116
  918SOL     OW 3652   2.483   6.270   6.424
  918SOL    HW1 3653   2.547   6.235   6.493
  918SOL    HW2 3654   2.533   6.329   6.360
  919SOL     OW 3655   1.697   5.999   1.742
  919SOL    HW1 3656   1.606   5.993   1.702
  919SOL    HW2 3657   1.751   6.065   1.690
  920SOL     OW 3658   2.668   0.852   3.998
  920SOL    HW1 3659   2.692   0.757   4.013
  920SOL    HW2 3660   2.751   0.905   3.978
  921SOL     OW 3661   5.706   5.290   4.254
  921SOL    HW1 3662   5.780   5.274   4.319
  921SOL    HW2 3663   5.619   5.268   4.297
  922SOL     OW 3664   3.143   3.565   0.063
  922SOL    HW1 3665   3.227   3.548   0.115
  922SOL    HW2 3666   3.143   3.508   7.007
  923SOL     OW 3667   3.062   0.023   6.448
  923SOL    HW1 3668   3.110   7.016   6.367
  923SOL    HW2 3669   3.118   0.091   6.494
  924SOL     OW 3670   5.949   3.675   2.682
  924SOL    HW1 3671   6.005   3.757   2.684
  924SOL    HW2 3672   5.991   3.607   2.621
  925SOL     OW 3673   0.552   1.496   4.359
  925SOL    HW1 3674   0.556   1.401   4.388
  925SOL    HW2 3675   0.619   1.512   4.287
  926SOL     OW 3676   5.449   6.016   0.319
  926SOL    HW1 3677   5.398   6.013   0.234
  926SOL    HW2 3678   5.415   5.945   0.381
  927SOL     OW 3679   4.391   4.672   4.286
  927SOL    HW1 3680   4.445   4.755   4.295
  927SOL    HW2 3681   4.423   4.620   4.207
  928SOL     OW 3682   2.473   1.070   1.049
  928SOL    HW1 3683   2.389   1.101   1.004
  928SOL    HW2 3684   2.461   1.076   1.148
  929SOL     OW 3685   6.533   2.978   2.874
  929SOL    HW1 3686   6.473   2.950   2.799
  929SOL    HW2 3687   6.628   2.963   2.849
  930SOL     OW 3688   4.862   5.064   4.287
  930SOL    HW1 3689   4.798   5.050   4.211
  930SOL    HW2 3690   4.953   5.084   4.250
  931SOL     OW 3691   1.633   2.222   2.591
  931SOL    HW1 3692   1.579   2.239   2.673
  931SOL    HW2 3693   1.727   2.201   2.616
  932SOL     OW 3694   4.486   6.399   1.074
  932SOL    HW1 3695   4.503   6.462   0.998
  932SOL    HW2 3696   4.494   6.448   1.160
  933SOL     OW 3697   1.832   5.454   2.871
  933SOL    HW1 3698   1.849   5.451   2.773
  933SOL    HW2 3699   1.913   5.422   2.920
  934SOL     OW 3700   3.127   1.402   5.352
  934SOL    HW1 3701   3.125   1.457   5.435
  934SOL    HW2 3702   3.142   1.306   5.375
  935SOL     OW 3703   3.931   3.191   6.195
  935SOL    HW1 3704   3.846   3.137   6.195
  935SOL    HW2 3705   3.911   3.284   6.225
  936SOL     OW 3706   0.387   0.617   1.001
  936SOL    HW1 3707   0.447   0.681   1.050
  936SOL    HW2 3708   0.307   0.666   0.967
  937SOL     OW 3709   4.096   1.629   4.649
  937SOL    HW1 3710   4.023   1.607   4.585
  937SOL    HW2 3711   4.100   1.560   4.721
  938SOL     OW 3712   0.439   2.735   6.502
  938SOL    HW1 3713   0.506   2.735   6.576
  938SOL    HW2 3714   0.347   2.747   6.540
  939SOL     OW 3715   5.876   1.505   5.817
  939SOL    HW1 3716   5.810   1.499   5.743
  939SOL    HW2 3717   5.913   1.598   5.821
  940SOL     OW 3718   6.957   1.614   3.689
  940SOL    HW1 3719   0.005   1.550   3.707
  940SOL    HW2 3720   6.966   1.694   3.748
  941SOL     OW 3721   5.349   1.979   4.334
  941SOL    HW1 3722   5.307   2.069   4.344
  941SOL    HW2 3723   5.313   1.935   4.252
  942SOL     OW 3724   4.997   6.445   5.482
  942SOL    HW1 3725   4.937   6.520   5.509
  942SOL    HW2 3726   4.943   6.374   5.437
  943SOL     OW 3727   5.758   1.979   1.569
  943SOL    HW1 3728   5.660   1.982   1.589
  943SOL    HW2 3729   5.772   1.962   1.472
  944SOL     OW 3730   5.516   4.148   4.425
  944SOL    HW1 3731   5.583   4.126   4.354
  944SOL    HW2 3732   5.427   4.166   4.382
  945SOL     OW 3733   5.116   4.537   4.539
  945SOL    HW1 3734   5.156   4.626   4.516
  945SOL    HW2 3735   5.036   4.550   4.598
  946SOL     OW 3736   5.937   2.487   5.664
  946SOL    HW1 3737   5.957   2.510   5.569
  946SOL    HW2 3738   5.884   2.402   5.667
  947SOL     OW 3739   2.686   2.479   6.466
  947SOL    HW1 3740   2.725   2.571   6.465
  947SOL    HW2 3741   2.642   2.460   6.378
  948SOL     OW 3742   4.030   1.836   0.396
  948SOL    HW1 3743   4.019   1.803   0.490
  948SOL    HW2 3744   3.976   1.919   0.383
  949SOL     OW 3745   6.072   5.494   6.243
  949SOL    HW1 3746   6.159   5.535   6.271
  949SOL    HW2 3747   6.077   5.466   6.147
  950SOL     OW 3748   4.642   5.827   0.853
  950SOL    HW1 3749   4.618   5.738   0.892
  950SOL    HW2 3750   4.685   5.813   0.764
  951SOL     OW 3751   1.405   1.147   2.249
  951SOL    HW1 3752   1.322   1.174   2.297
  951SOL    HW2 3753   1.443   1.226   2.200
  952SOL     OW 3754   5.388   0.751   3.084
  952SOL    HW1 3755   5.380   0.654   3.107
  952SOL    HW2 3756   5.480   0.784   3.106
  953SOL     OW 3757   4.163   6.118   6.083
  953SOL    HW1 3758   4.102   6.193   6.110
  953SOL    HW2 3759   4.115   6.059   6.018
  954SOL     OW 3760   6.162   0.170   1.381
  954SOL    HW1 3761   6.088   0.144   1.442
  954SOL    HW2 3762   6.185   0.266   1.395
  955SOL     OW 3763   0.893   5.955   2.804
  955SOL    HW1 3764   0.795   5.949   2.788
  955SOL    HW2 3765   0.913   6.032   2.863
  956SOL     OW 3766   2.040   2.216   0.986
  956SOL    HW1 3767   2.079   2.123   0.987
  956SOL    HW2 3768   2.037   2.250   0.892
  957SOL     OW 3769   1.504   4.998   4.392
  957SOL    HW1 3770   1.453   4.965   4.471
  957SOL    HW2 3771   1.445   5.054   4.334
  958SOL     OW 3772   5.122   2.197   1.682
  958SOL    HW1 3773   5.039   2.150   1.712
  958SOL    HW2 3774   5.158   2.251   1.758
  959SOL     OW 3775   2.694   4.861   3.034
  959SOL    HW1 3776   2.657   4.815   3.115
  959SOL    HW2 3777   2.676   4.804   2.953
  960SOL     OW 3778   1.944   5.812   4.672
  960SOL    HW1 3779   2.028   5.849   4.712
  960SOL    HW2 3780   1.883   5.887   4.647
  961SOL     OW 3781   4.271   6.575   1.806
  961SOL    HW1 3782   4.205   6.628   1.859
  961SOL    HW2 3783   4.241   6.570   1.710
  962SOL     OW 3784   1.688   0.941   3.394
  962SOL    HW1 3785   1.654   0.861   3.442
  962SOL    HW2 3786   1.614   0.983   3.342
  963SOL     OW 3787   6.542   0.536   1.492
  963SOL    HW1 3788   6.472   0.477   1.531
  963SOL    HW2 3789   6.601   0.482   1.432
  964SOL     OW 3790   5.130   3.657   1.230
  964SOL    HW1 3791   5.200   3.595   1.195
  964SOL    HW2 3792   5.093   3.712   1.155
  965SOL     OW 3793   0.427   2.094   0.324
  965SOL    HW1 3794   0.497   2.160   0.299
  965SOL    HW2 3795   0.354   2.140   0.375
  966SOL     OW 3796   6.741   1.762   2.442
  966SOL    HW1 3797   6.839   1.782   2.436
  966SOL    HW2 3798   6.707   1.789   2.531
  967SOL     OW 3799   0.851   5.305   0.920
  967SOL    HW1 3800   0.855   5.388   0.977
  967SOL    HW2 3801   0.763   5.301   0.873
  968SOL     OW 3802   4.878   2.751   2.358
  968SOL    HW1 3803   4.889   2.851   2.359
  968SOL    HW2 3804   4.841   2.723   2.270
  969SOL     OW 3805   4.563   6.160   5.974
  969SOL    HW1 3806   4.547   6.061   5.969
  969SOL    HW2 3807   4.627   6.187   5.902
  970SOL     OW 3808   4.301   2.164   5.135
  970SOL    HW1 3809   4.240   2.099   5.090
  970SOL    HW2 3810   4.262   2.256   5.131
  971SOL     OW 3811   6.928   1.785   1.801
  971SOL    HW1 3812   6.880   1.867   1.835
  971SOL    HW2 3813   7.001   1.812   1.739
  972SOL     OW 3814   6.477   5.437   0.497
  972SOL    HW1 3815   6.402   5.371   0.500
  972SOL    HW2 3816   6.465   5.497   0.418
  973SOL     OW 3817   6.622   4.831   5.863
  973SOL    HW1 3818   6.598   4.857   5.769
  973SOL    HW2 3819   6.538   4.825   5.917
  974SOL     OW 3820   2.893   1.076   3.587
  974SOL    HW1 3821   2.987   1.041   3.588
  974SOL    HW2 3822   2.875   1.124   3.673
  975SOL     OW 3823   2.884   5.907   6.077
  975SOL    HW1 3824   2.891   5.812   6.044
  975SOL    HW2 3825   2.957   5.925   6.142
  976SOL     OW 3826   6.347   3.203   3.148
  976SOL    HW1 3827   6.329   3.213   3.246
  976SOL    HW2 3828   6.378   3.110   3.129
  977SOL     OW 3829   1.664   1.275   3.824
  977SOL    HW1 3830   1.566   1.265   3.838
  977SOL    HW2 3831   1.680   1.323   3.738
  978SOL     OW 3832   5.570   4.031   4.661
  978SOL    HW1 3833   5.527   4.082   4.586
  978SOL    HW2 3834   5.620   4.095   4.719
  979SOL     OW 3835   6.034   0.780   3.119
  979SOL    HW1 3836   6.035   0.878   3.099
  979SOL    HW2 3837   6.103   0.760   3.189
  980SOL     OW 3838   5.409   1.789   4.528
  980SOL    HW1 3839   5.396   1.843   4.445
  980SOL    HW2 3840   5.382   1.843   4.608
  981SOL     OW 3841   1.732   1.630   4.296
  981SOL    HW1 3842   1.829   1.652   4.302
  981SOL    HW2 3843   1.706   1.573   4.374
  982SOL     OW 3844   1.144   2.503   1.883
  982SOL    HW1 3845   1.144   2.578   1.818
  982SOL    HW2 3846   1.062   2.448   1.871
  983SOL     OW 3847   6.090   1.962   3.130
  983SOL    HW1 3848   6.151   2.024   3.180
  983SOL    HW2 3849   6.125   1.947   3.038
  984SOL     OW 3850   5.097   1.372   5.055
  984SOL    HW1 3851   5.138   1.360   4.965
  984SOL    HW2 3852   5.046   1.289   5.080
  985SOL     OW 3853   3.109   5.394   0.897
  985SOL    HW1 3854   3.118   5.462   0.825
  985SOL    HW2 3855   3.195   5.343   0.907
  986SOL     OW 3856   4.554   5.224   6.537
  986SOL    HW1 3857   4.541   5.182   6.627
  986SOL    HW2 3858   4.643   5.268   6.533
  987SOL     OW 3859   3.391   6.460   1.837
  987SOL    HW1 3860   3.357   6.539   1.888
  987SOL    HW2 3861   3.340   6.379   1.864
  988SOL     OW 3862   4.176   3.278   0.713
  988SOL    HW1 3863   4.167   3.282   0.812
  988SOL    HW2 3864   4.207   3.187   0.686
  989SOL     OW 3865   0.765   0.469   5.415
  989SOL    HW1 3866   0.667   0.452   5.406
  989SOL    HW2 3867   0.789   0.475   5.512
  990SOL     OW 3868   4.240   0.207   4.382
  990SOL    HW1 3869   4.314   0.252   4.430
  990SOL    HW2 3870   4.198   0.139   4.441
  991SOL     OW 3871   0.877   2.222   4.539
  991SOL    HW1 3872   0.921   2.247   4.626
  991SOL    HW2 3873   0.880   2.122   4.529
  992SOL     OW 3874   0.561   3.268   0.160
  992SOL    HW1 3875   0.610   3.346   0.121
  992SOL    HW2 3876   0.512   3.220   0.087
  993SOL     OW 3877   2.896   4.765   2.574
  993SOL    HW1 3878   2.984   4.787   2.616
  993SOL    HW2 3879   2.878   4.828   2.499
  994SOL     OW 3880   3.610   3.389   2.236
  994SOL    HW1 3881   3.554   3.444   2.299
  994SOL    HW2 3882   3.559   3.374   2.151
  995SOL     OW 3883   1.790   2.417   6.220
  995SOL    HW1 3884   1.775   2.366   6.305
  995SOL    HW2 3885   1.813   2.354   6.146
  996SOL     OW 3886   2.108   3.302   2.903
  996SOL    HW1 3887   2.057   3.259   2.828
  996SOL    HW2 3888   2.066   3.277   2.990
  997SOL     OW 3889   0.410   0.737   1.554
  997SOL    HW1 3890   0.322   0.719   1.599
  997SOL    HW2 3891   0.395   0.792   1.472
  998SOL     OW 3892   4.302   6.949   2.106
  998SOL    HW1 3893   4.381   6.976   2.051
  998SOL    HW2 3894   4.331   6.927   2.199
  999SOL     OW 3895   6.389   5.269   1.351
  999SOL    HW1 3896   6.334   5.248   1.432
  999SOL    HW2 3897   6.486   5.255   1.372
 1000SOL     OW 3898   2.459   2.330   3.675
 1000SOL    HW1 3899   2.531   2.281   3.725
 1000SOL    HW2 3900   2.499   2.377   3.596
 1001SOL     OW 3901   4.754   6.496   6.553
 1001SOL    HW1 3902   4.797   6.444   6.626
 1001SOL    HW2 3903   4.776   6.455   6.465
 1002SOL     OW 3904   5.917   1.578   0.256
 1002SOL    HW1 3905   5.826   1.565   0.296
 1002SOL    HW2 3906   5.981   1.516   0.301
 1003SOL     OW 3907   2.843   6.424   2.555
 1003SOL    HW1 3908   2.884   6.380   2.475
 1003SOL    HW2 3909   2.779   6.361   2.599
 1004SOL     OW 3910   0.321   0.126   6.733
 1004SOL    HW1 3911   0.261   0.147   6.811
 1004SOL    HW2 3912   0.296   0.185   6.656
 1005SOL     OW 3913   1.076   6.840   2.855
 1005SOL    HW1 3914   0.997   6.834   2.915
 1005SOL    HW2 3915   1.156   6.869   2.907
 1006SOL     OW 3916   2.397   4.927   1.270
 1006SOL    HW1 3917   2.372   4.858   1.339
 1006SOL    HW2 3918   2.435   4.881   1.190
 1007SOL     OW 3919   6.644   1.493   3.263
 1007SOL    HW1 3920   6.712   1.525   3.329
 1007SOL    HW2 3921   6.688   1.476   3.175
 1008SOL     OW 3922   1.121   3.159   4.221
 1008SOL    HW1 3923   1.094   3.252   4.196
 1008SOL    HW2 3924   1.157   3.159   4.315
 1009SOL     OW 3925   0.229   5.740   4.210
 1009SOL    HW1 3926   0.167   5.807   4.170
 1009SOL    HW2 3927   0.311   5.786   4.243
 1010SOL     OW 3928   4.194   1.620   0.558
 1010SOL    HW1 3929   4.277   1.628   0.613
 1010SOL    HW2 3930   4.204   1.673   0.474
 1011SOL     OW 3931   2.449   5.211   3.613
 1011SOL    HW1 3932   2.436   5.176   3.705
 1011SOL    HW2 3933   2.546   5.230   3.597
 1012SOL     OW 3934   6.087   5.154   0.512
 1012SOL    HW1 3935   6.043   5.084   0.568
 1012SOL    HW2 3936   6.176   5.120   0.480
 1013SOL     OW 3937   0.933   0.783   0.364
 1013SOL    HW1 3938   0.839   0.794   0.394
 1013SOL    HW2 3939   0.935   0.744   0.272
 1014SOL     OW 3940   4.040   5.933   5.955
 1014SOL    HW1 3941   4.024   5.916   6.052
 1014SOL    HW2 3942   3.975   6.003   5.923
 1015SOL     OW 3943   3.550   6.431   4.948
 1015SOL    HW1 3944   3.566   6.487   4.866
 1015SOL    HW2 3945   3.629   6.373   4.965
 1016SOL     OW 3946   3.649   2.962   1.089
 1016SOL    HW1 3947   3.637   2.965   1.188
 1016SOL    HW2 3948   3.702   2.881   1.064
 1017SOL     OW 3949   4.475   2.684   0.675
 1017SOL    HW1 3950   4.379   2.659   0.659
 1017SOL    HW2 3951   4.531   2.649   0.599
 1018SOL     OW 3952   1.315   3.114   3.852
 1018SOL    HW1 3953   1.252   3.037   3.866
 1018SOL    HW2 3954   1.262   3.198   3.840
 1019SOL     OW 3955   0.092   1.252   0.483
 1019SOL    HW1 3956   0.006   1.208   0.511
 1019SOL    HW2 3957   0.157   1.250   0.559
 1020SOL     OW 3958   2.975   0.850   0.364
 1020SOL    HW1 3959   2.933   0.803   0.442
 1020SOL    HW2 3960   3.074   0.843   0.371
 1021SOL     OW 3961   0.024   1.331   1.138
 1021SOL    HW1 3962   0.071   1.344   1.050
 1021SOL    HW2 3963   6.963   1.286   1.122
 1022SOL     OW 3964   4.663   3.207   6.037
 1022SOL    HW1 3965   4.740   3.194   5.974
 1022SOL    HW2 3966   4.577   3.188   5.990
 1023SOL     OW 3967   5.598   0.607   2.492
 1023SOL    HW1 3968   5.602   0.561   2.581
 1023SOL    HW2 3969   5.528   0.563   2.435
 1024SOL     OW 3970   6.495   1.709   4.229
 1024SOL    HW1 3971   6.594   1.702   4.231
 1024SOL    HW2 3972   6.467   1.799   4.262
 1025SOL     OW 3973   3.202   4.620   0.833
 1025SOL    HW1 3974   3.113   4.600   0.874
 1025SOL    HW2 3975   3.213   4.719   0.823
 1026SOL     OW 3976   2.145   1.933   6.824
 1026SOL    HW1 3977   2.077   1.930   6.898
 1026SOL    HW2 3978   2.237   1.932   6.863
 1027SOL     OW 3979   2.818   5.007   1.668
 1027SOL    HW1 3980   2.722   5.023   1.691
 1027SOL    HW2 3981   2.853   4.930   1.722
 1028SOL     OW 3982   1.632   5.974   0.644
 1028SOL    HW1 3983   1.577   5.992   0.563
 1028SOL    HW2 3984   1.603   6.033   0.719
 1029SOL     OW 3985   1.687   0.527   0.114
 1029SOL    HW1 3986   1.695   0.605   0.052
 1029SOL    HW2 3987   1.632   0.456   0.070
 1030SOL     OW 3988   3.925   3.613   4.787
 1030SOL    HW1 3989   3.978   3.528   4.792
 1030SOL    HW2 3990   3.891   3.626   4.694
 1031SOL     OW 3991   3.028   5.224   1.675
 1031SOL    HW1 3992   2.938   5.180   1.668
 1031SOL    HW2 3993   3.066   5.237   1.584
 1032SOL     OW 3994   1.886   1.872   5.099
 1032SOL    HW1 3995   1.859   1.878   5.195
 1032SOL    HW2 3996   1.878   1.777   5.069
 1033SOL     OW 3997   2.353   5.457   1.649
 1033SOL    HW1 3998   2.403   5.441   1.564
 1033SOL    HW2 3999   2.269   5.403   1.649
 1034SOL     OW 4000   2.422   5.633   3.932
 1034SOL    HW1 4001   2.440   5.729   3.912
 1034SOL    HW2 4002   2.507   5.588   3.959
 1035SOL     OW 4003   2.994   1.492   4.469
 1035SOL    HW1 4004   2.978   1.430   4.546
 1035SOL    HW2 4005   3.054   1.567   4.498
 1036SOL     OW 4006   4.249   2.108   1.072
 1036SOL    HW1 4007   4.200   2.085   0.988
 1036SOL    HW2 4008   4.200   2.070   1.150
 1037SOL     OW 4009   2.047   1.042   0.492
 1037SOL    HW1 4010   1.955   1.078   0.508
 1037SOL    HW2 4011   2.065   0.967   0.556
 1038SOL     OW 4012   1.421   0.941   5.597
 1038SOL    HW1 4013   1.337   0.977   5.638
 1038SOL    HW2 4014   1.401   0.856   5.549
 1039SOL     OW 4015   3.880   1.560   4.482
 1039SOL    HW1 4016   3.871   1.621   4.403
 1039SOL    HW2 4017   3.794   1.559   4.533
 1040SOL     OW 4018   5.925   3.755   2.254
 1040SOL    HW1 4019   5.852   3.797   2.306
 1040SOL    HW2 4020   5.971   3.686   2.310
 1041SOL     OW 4021   6.762   0.536   4.127
 1041SOL    HW1 4022   6.767   0.524   4.027
 1041SOL    HW2 4023   6.696   0.607   4.149
 1042SOL     OW 4024   5.255   5.194   0.350
 1042SOL    HW1 4025   5.203   5.111   0.369
 1042SOL    HW2 4026   5.306   5.183   0.264
 1043SOL     OW 4027   3.480   1.773   6.574
 1043SOL    HW1 4028   3.530   1.842   6.627
 1043SOL    HW2 4029   3.538   1.692   6.563
 1044SOL     OW 4030   3.623   2.724   1.388
 1044SOL    HW1 4031   3.525   2.737   1.374
 1044SOL    HW2 4032   3.640   2.704   1.485
 1045SOL     OW 4033   2.868   1.100   2.983
 1045SOL    HW1 4034   2.864   1.098   3.083
 1045SOL    HW2 4035   2.856   1.193   2.950
 1046SOL     OW 4036   3.018   6.928   0.502
 1046SOL    HW1 4037   3.109   6.908   0.538
 1046SOL    HW2 4038   2.978   7.004   0.553
 1047SOL     OW 4039   0.799   5.133   2.844
 1047SOL    HW1 4040   0.840   5.114   2.933
 1047SOL    HW2 4041   0.746   5.218   2.849
 1048SOL     OW 4042   5.240   5.027   4.913
 1048SOL    HW1 4043   5.277   5.120   4.911
 1048SOL    HW2 4044   5.198   5.006   4.825
 1049SOL     OW 4045   6.948   3.613   4.844
 1049SOL    HW1 4046   7.022   3.669   4.882
 1049SOL    HW2 4047   6.905   3.662   4.769
 1050SOL     OW 4048   3.921   0.351   6.668
 1050SOL    HW1 4049   3.952   0.446   6.667
 1050SOL    HW2 4050   4.000   0.290   6.673
 1051SOL     OW 4051   5.012   4.607   0.696
 1051SOL    HW1 4052   5.004   4.676   0.625
 1051SOL    HW2 4053   4.920   4.580   0.727
 1052SOL     OW 4054   4.031   0.299   5.075
 1052SOL    HW1 4055   4.029   0.373   5.007
 1052SOL    HW2 4056   3.976   0.223   5.043
 1053SOL     OW 4057   4.622   4.940   3.662
 1053SOL    HW1 4058   4.716   4.915   3.684
 1053SOL    HW2 4059   4.619   5.035   3.630
 1054SOL     OW 4060   3.291   5.151   5.171
 1054SOL    HW1 4061   3.358   5.183   5.238
 1054SOL    HW2 4062   3.198   5.171   5.204
 1055SOL     OW 4063   4.617   5.899   5.041
 1055SOL    HW1 4064   4.611   5.981   5.098
 1055SOL    HW2 4065   4.696   5.844   5.069
 1056SOL     OW 4066   1.860   6.137   5.124
 1056SOL    HW1 4067   1.899   6.081   5.196
 1056SOL    HW2 4068   1.923   6.141   5.047
 1057SOL     OW 4069   3.170   3.571   2.886
 1057SOL    HW1 4070   3.074   3.577   2.915
 1057SOL    HW2 4071   3.176   3.582   2.787
 1058SOL     OW 4072   3.365   1.162   2.288
 1058SOL    HW1 4073   3.386   1.161   2.190
 1058SOL    HW2 4074   3.419   1.232   2.333
 1059SOL     OW 4075   4.251   0.845   1.984
 1059SOL    HW1 4076   4.190   0.814   2.057
 1059SOL    HW2 4077   4.200   0.855   1.899
 1060SOL     OW 4078   0.805   3.029   5.612
 1060SOL    HW1 4079   0.869   3.003   5.539
 1060SOL    HW2 4080   0.855   3.069   5.688
 1061SOL     OW 4081   3.304   5.204   1.765
 1061SOL    HW1 4082   3.338   5.122   1.811
 1061SOL    HW2 4083   3.228   5.180   1.705
 1062SOL     OW 4084   6.480   5.542   5.731
 1062SOL    HW1 4085   6.447   5.450   5.711
 1062SOL    HW2 4086   6.539   5.574   5.656
 1063SOL     OW 4087   1.640   3.573   0.728
 1063SOL    HW1 4088   1.604   3.533   0.644
 1063SOL    HW2 4089   1.587   3.541   0.806
 1064SOL     OW 4090   0.996   3.345   2.103
 1064SOL    HW1 4091   0.952   3.331   2.192
 1064SOL    HW2 4092   1.001   3.258   2.055
 1065SOL     OW 4093   5.660   0.043   4.089
 1065SOL    HW1 4094   5.577   0.091   4.116
 1065SOL    HW2 4095   5.647   0.003   3.999
 1066SOL     OW 4096   4.940   0.052   3.579
 1066SOL    HW1 4097   4.885   0.128   3.613
 1066SOL    HW2 4098   4.915   0.032   3.484
 1067SOL     OW 4099   2.019   2.783   1.729
 1067SOL    HW1 4100   2.103   2.824   1.764
 1067SOL    HW2 4101   1.943   2.803   1.791
 1068SOL     OW 4102   0.406   3.334   2.411
 1068SOL    HW1 4103   0.364   3.421   2.438
 1068SOL    HW2 4104   0.477   3.351   2.343
 1069SOL     OW 4105   4.215   4.715   0.657
 1069SOL    HW1 4106   4.269   4.658   0.720
 1069SOL    HW2 4107   4.277   4.776   0.607
 1070SOL     OW 4108   1.984   0.976   0.209
 1070SOL    HW1 4109   2.030   0.893   0.177
 1070SOL    HW2 4110   1.994   0.983   0.308
 1071SOL     OW 4111   3.830   6.696   2.901
 1071SOL    HW1 4112   3.857   6.626   2.835
 1071SOL    HW2 4113   3.749   6.745   2.866
 1072SOL     OW 4114   3.043   6.604   2.678
 1072SOL    HW1 4115   2.968   6.557   2.631
 1072SOL    HW2 4116   3.100   6.537   2.726
 1073SOL     OW 4117   2.480   4.813   2.568
 1073SOL    HW1 4118   2.521   4.866   2.494
 1073SOL    HW2 4119   2.462   4.720   2.537
 1074SOL     OW 4120   0.744   4.851   1.741
 1074SOL    HW1 4121   0.702   4.895   1.821
 1074SOL    HW2 4122   0.677   4.789   1.698
 1075SOL     OW 4123   5.118   4.197   3.752
 1075SOL    HW1 4124   5.197   4.172   3.807
 1075SOL    HW2 4125   5.091   4.291   3.773
 1076SOL     OW 4126   0.413   4.239   4.358
 1076SOL    HW1 4127   0.483   4.195   4.303
 1076SOL    HW2 4128   0.415   4.338   4.343
 1077SOL     OW 4129   5.114   0.014   1.034
 1077SOL    HW1 4130   5.205   6.999   1.021
 1077SOL    HW2 4131   5.059   6.983   1.094
 1078SOL     OW 4132   1.627   2.112   1.010
 1078SOL    HW1 4133   1.569   2.044   1.055
 1078SOL    HW2 4134   1.570   2.188   0.977
 1079SOL     OW 4135   2.597   5.554   3.605
 1079SOL    HW1 4136   2.653   5.634   3.629
 1079SOL    HW2 4137   2.500   5.577   3.614
 1080SOL     OW 4138   2.180   5.590   3.726
 1080SOL    HW1 4139   2.268   5.597   3.772
 1080SOL    HW2 4140   2.107   5.613   3.790
 1081SOL     OW 4141   1.697   0.784   7.007
 1081SOL    HW1 4142   1.742   0.731   6.935
 1081SOL    HW2 4143   1.758   0.858   0.010
 1082SOL     OW 4144   1.633   0.271   5.972
 1082SOL    HW1 4145   1.646   0.186   5.921
 1082SOL    HW2 4146   1.536   0.297   5.969
 1083SOL     OW 4147   3.873   3.443   1.876
 1083SOL    HW1 4148   3.812   3.374   1.837
 1083SOL    HW2 4149   3.951   3.398   1.918
 1084SOL     OW 4150   5.903   4.620   0.781
 1084SOL    HW1 4151   5.894   4.699   0.841
 1084SOL    HW2 4152   5.832   4.623   0.711
 1085SOL     OW 4153   1.742   4.828   3.688
 1085SOL    HW1 4154   1.648   4.830   3.720
 1085SOL    HW2 4155   1.799   4.885   3.747
 1086SOL     OW 4156   4.753   5.508   2.578
 1086SOL    HW1 4157   4.830   5.504   2.515
 1086SOL    HW2 4158   4.698   5.425   2.568
 1087SOL     OW 4159   4.626   3.048   5.279
 1087SOL    HW1 4160   4.533   3.031   5.311
 1087SOL    HW2 4161   4.665   3.126   5.329
 1088SOL     OW 4162   4.946   4.628   3.930
 1088SOL    HW1 4163   5.005   4.677   3.866
 1088SOL    HW2 4164   5.001   4.593   4.006
 1089SOL     OW 4165   0.100   0.135   4.815
 1089SOL    HW1 4166   0.053   0.220   4.790
 1089SOL    HW2 4167   0.170   0.155   4.883
 1090SOL     OW 4168   1.907   1.398   6.223
 1090SOL    HW1 4169   1.971   1.351   6.163
 1090SOL    HW2 4170   1.905   1.351   6.312
 1091SOL     OW 4171   1.563   1.776   5.026
 1091SOL    HW1 4172   1.542   1.814   5.116
 1091SOL    HW2 4173   1.642   1.715   5.033
 1092SOL     OW 4174   1.889   4.174   1.380
 1092SOL    HW1 4175   1.857   4.085   1.350
 1092SOL    HW2 4176   1.822   4.244   1.355
 1093SOL     OW 4177   1.122   2.606   2.427
 1093SOL    HW1 4178   1.055   2.536   2.401
 1093SOL    HW2 4179   1.214   2.575   2.404
 1094SOL     OW 4180   0.486   6.567   1.818
 1094SOL    HW1 4181   0.429   6.649   1.828
 1094SOL    HW2 4182   0.580   6.589   1.843
 1095SOL     OW 4183   6.111   2.996   6.477
 1095SOL    HW1 4184   6.022   2.957   6.501
 1095SOL    HW2 4185   6.098   3.085   6.433
 1096SOL     OW 4186   3.327   4.679   1.642
 1096SOL    HW1 4187   3.282   4.591   1.658
 1096SOL    HW2 4188   3.408   4.666   1.585
 1097SOL     OW 4189   1.342   4.826   5.080
 1097SOL    HW1 4190   1.249   4.862   5.085
 1097SOL    HW2 4191   1.349   4.743   5.135
 1098SOL     OW 4192   4.636   2.386   2.256
 1098SOL    HW1 4193   4.711   2.416   2.196
 1098SOL    HW2 4194   4.643   2.288   2.272
 1099SOL     OW 4195   4.127   2.130   4.381
 1099SOL    HW1 4196   4.217   2.145   4.421
 1099SOL    HW2 4197   4.110   2.032   4.373
 1100SOL     OW 4198   1.186   0.763   6.599
 1100SOL    HW1 4199   1.131   0.682   6.618
 1100SOL    HW2 4200   1.184   0.782   6.501
 1101SOL     OW 4201   5.001   3.403   0.665
 1101SOL    HW1 4202   4.928   3.397   0.596
 1101SOL    HW2 4203   4.972   3.356   0.748
 1102SOL     OW 4204   0.284   4.253   4.624
 1102SOL    HW1 4205   0.254   4.346   4.644
 1102SOL    HW2 4206   0.342   4.254   4.543
 1103SOL     OW 4207   1.990   1.965   1.406
 1103SOL    HW1 4208   1.953   2.056   1.389
 1103SOL    HW2 4209   1.944   1.899   1.347
 1104SOL     OW 4210   3.276   4.886   6.282
 1104SOL    HW1 4211   3.182   4.852   6.287
 1104SOL    HW2 4212   3.278   4.981   6.314
 1105SOL     OW 4213   5.098   4.278   6.576
 1105SOL    HW1 4214   5.137   4.370   6.564
 1105SOL    HW2 4215   5.129   4.219   6.502
 1106SOL     OW 4216   7.024   2.365   5.416
 1106SOL    HW1 4217   0.076   2.326   5.464
 1106SOL    HW2 4218   0.000   2.465   5.422
 1107SOL     OW 4219   0.861   0.520   0.534
 1107SOL    HW1 4220   0.905   0.610   0.539
 1107SOL    HW2 4221   0.783   0.518   0.596
 1108SOL     OW 4222   1.692   0.625   6.161
 1108SOL    HW1 4223   1.596   0.596   6.165
 1108SOL    HW2 4224   1.749   0.548   6.132
 1109SOL     OW 4225   4.369   6.017   4.090
 1109SOL    HW1 4226   4.452   6.066   4.063
 1109SOL    HW2 4227   4.353   6.029   4.188
 1110SOL     OW 4228   3.102   3.203   2.094
 1110SOL    HW1 4229   3.186   3.152   2.078
 1110SOL    HW2 4230   3.115   3.299   2.070
 1111SOL     OW 4231   5.714   0.518   0.087
 1111SOL    HW1 4232   5.740   0.600   0.139
 1111SOL    HW2 4233   5.780   0.445   0.104
 1112SOL     OW 4234   6.605   1.071   2.212
 1112SOL    HW1 4235   6.534   1.004   2.234
 1112SOL    HW2 4236   6.621   1.070   2.113
 1113SOL     OW 4237   6.411   3.406   2.854
 1113SOL    HW1 4238   6.396   3.326   2.796
 1113SOL    HW2 4239   6.484   3.386   2.919
 1114SOL     OW 4240   4.816   0.902   5.993
 1114SOL    HW1 4241   4.760   0.842   6.051
 1114SOL    HW2 4242   4.767   0.922   5.909
 1115SOL     OW 4243   3.039   3.548   0.867
 1115SOL    HW1 4244   3.082   3.529   0.955
 1115SOL    HW2 4245   3.003   3.641   0.866
 1116SOL     OW 4246   4.229   6.049   4.316
 1116SOL    HW1 4247   4.248   5.990   4.395
 1116SOL    HW2 4248   4.135   6.036   4.286
 1117SOL     OW 4249   2.760   2.906   1.405
 1117SOL    HW1 4250   2.839   2.878   1.351
 1117SOL    HW2 4251   2.791   2.954   1.487
 1118SOL     OW 4252   2.364   4.613   3.091
 1118SOL    HW1 4253   2.302   4.619   3.013
 1118SOL    HW2 4254   2.455   4.586   3.059
 1119SOL     OW 4255   4.225   4.218   1.614
 1119SOL    HW1 4256   4.266   4.133   1.580
 1119SOL    HW2 4257   4.275   4.250   1.695
 1120SOL     OW 4258   4.779   6.753   6.187
 1120SOL    HW1 4259   4.875   6.767   6.213
 1120SOL    HW2 4260   4.720   6.810   6.245
 1121SOL     OW 4261   5.023   3.093   1.579
 1121SOL    HW1 4262   4.944   3.092   1.641
 1121SOL    HW2 4263   5.053   3.000   1.562
 1122SOL     OW 4264   5.497   3.080   6.339
 1122SOL    HW1 4265   5.422   3.101   6.278
 1122SOL    HW2 4266   5.486   3.131   6.425
 1123SOL     OW 4267   4.536   1.090   2.361
 1123SOL    HW1 4268   4.485   1.089   2.274
 1123SOL    HW2 4269   4.595   1.010   2.364
 1124SOL     OW 4270   6.749   3.838   4.947
 1124SOL    HW1 4271   6.766   3.907   5.017
 1124SOL    HW2 4272   6.829   3.780   4.937
 1125SOL     OW 4273   3.202   3.314   5.115
 1125SOL    HW1 4274   3.284   3.299   5.169
 1125SOL    HW2 4275   3.212   3.398   5.060
 1126SOL     OW 4276   4.763   6.756   1.175
 1126SOL    HW1 4277   4.670   6.756   1.139
 1126SOL    HW2 4278   4.823   6.707   1.111
 1127SOL     OW 4279   2.186   4.857   0.756
 1127SOL    HW1 4280   2.087   4.868   0.768
 1127SOL    HW2 4281   2.207   4.760   0.745
 1128SOL     OW 4282   3.230   1.838   4.129
 1128SOL    HW1 4283   3.281   1.793   4.056
 1128SOL    HW2 4284   3.251   1.794   4.216
 1129SOL     OW 4285   5.281   0.480   6.870
 1129SOL    HW1 4286   5.253   0.430   6.952
 1129SOL    HW2 4287   5.326   0.565   6.896
 1130SOL     OW 4288   0.867   3.937   0.080
 1130SOL    HW1 4289   0.796   3.977   0.022
 1130SOL    HW2 4290   0.926   3.878   0.024
 1131SOL     OW 4291   0.183   5.944   5.461
 1131SOL    HW1 4292   0.194   5.846   5.476
 1131SOL    HW2 4293   0.098   5.961   5.412
 1132SOL     OW 4294   4.701   6.830   5.396
 1132SOL    HW1 4295   4.685   6.770   5.318
 1132SOL    HW2 4296   4.640   6.909   5.390
 1133SOL     OW 4297   0.872   3.325   1.603
 1133SOL    HW1 4298   0.839   3.397   1.541
 1133SOL    HW2 4299   0.840   3.236   1.570
 1134SOL     OW 4300   5.480   2.539   6.719
 1134SOL    HW1 4301   5.417   2.578   6.652
 1134SOL    HW2 4302   5.474   2.592   6.804
 1135SOL     OW 4303   2.813   2.343   3.650
 1135SOL    HW1 4304   2.756   2.317   3.727
 1135SOL    HW2 4305   2.757   2.388   3.580
 1136SOL     OW 4306   2.735   5.314   3.651
 1136SOL    HW1 4307   2.671   5.387   3.628
 1136SOL    HW2 4308   2.825   5.352   3.669
 1137SOL     OW 4309   1.422   1.796   6.183
 1137SOL    HW1 4310   1.470   1.805   6.271
 1137SOL    HW2 4311   1.447   1.872   6.123
 1138SOL     OW 4312   2.067   3.449   5.745
 1138SOL    HW1 4313   2.036   3.407   5.831
 1138SOL    HW2 4314   2.128   3.526   5.766
 1139SOL     OW 4315   1.586   6.895   2.605
 1139SOL    HW1 4316   1.685   6.897   2.620
 1139SOL    HW2 4317   1.564   6.939   2.518
 1140SOL     OW 4318   3.113   1.829   3.380
 1140SOL    HW1 4319   3.052   1.841   3.301
 1140SOL    HW2 4320   3.159   1.915   3.399
 1141SOL     OW 4321   5.982   6.043   4.821
 1141SOL    HW1 4322   5.989   6.066   4.918
 1141SOL    HW2 4323   5.931   5.958   4.811
 1142SOL     OW 4324   5.289   6.918   4.362
 1142SOL    HW1 4325   5.234   7.001   4.363
 1142SOL    HW2 4326   5.279   6.870   4.450
 1143SOL     OW 4327   3.854   2.178   3.205
 1143SOL    HW1 4328   3.939   2.231   3.199
 1143SOL    HW2 4329   3.826   2.149   3.113
 1144SOL     OW 4330   0.532   4.602   4.120
 1144SOL    HW1 4331   0.525   4.507   4.089
 1144SOL    HW2 4332   0.615   4.643   4.081
 1145SOL     OW 4333   6.808   5.697   4.371
 1145SOL    HW1 4334   6.800   5.635   4.450
 1145SOL    HW2 4335   6.889   5.671   4.317
 1146SOL     OW 4336   5.852   2.258   1.456
 1146SOL    HW1 4337   5.802   2.188   1.508
 1146SOL    HW2 4338   5.792   2.298   1.387
 1147SOL     OW 4339   0.006   4.052   2.213
 1147SOL    HW1 4340   0.076   4.114   2.248
 1147SOL    HW2 4341   0.049   3.983   2.155
 1148SOL     OW 4342   3.816   6.705   6.625
 1148SOL    HW1 4343   3.830   6.640   6.550
 1148SOL    HW2 4344   3.889   6.772   6.625
 1149SOL     OW 4345   6.419   3.698   2.875
 1149SOL    HW1 4346   6.379   3.607   2.883
 1149SOL    HW2 4347   6.481   3.715   2.951
 1150SOL     OW 4348   1.722   5.269   1.005
 1150SOL    HW1 4349   1.664   5.298   0.929
 1150SOL    HW2 4350   1.810   5.315   0.999
 1151SOL     OW 4351   5.951   5.108   6.620
 1151SOL    HW1 4352   5.959   5.165   6.538
 1151SOL    HW2 4353   5.863   5.062   6.620
 1152SOL     OW 4354   1.799   0.311   5.036
 1152SOL    HW1 4355   1.815   0.305   5.134
 1152SOL    HW2 4356   1.715   0.262   5.012
 1153SOL     OW 4357   2.100   5.475   2.682
 1153SOL    HW1 4358   2.129   5.422   2.602
 1153SOL    HW2 4359   2.162   5.457   2.758
 1154SOL     OW 4360   0.315   3.713   2.213
 1154SOL    HW1 4361   0.233   3.762   2.181
 1154SOL    HW2 4362   0.291   3.654   2.290
 1155SOL     OW 4363   4.065   6.157   1.563
 1155SOL    HW1 4364   4.107   6.145   1.653
 1155SOL    HW2 4365   4.135   6.183   1.496
 1156SOL     OW 4366   1.919   0.470   4.301
 1156SOL    HW1 4367   1.940   0.373   4.289
 1156SOL    HW2 4368   1.985   0.525   4.250
 1157SOL     OW 4369   0.102   2.644   4.024
 1157SOL    HW1 4370   0.052   2.580   3.966
 1157SOL    HW2 4371   0.175   2.688   3.971
 1158SOL     OW 4372   5.726   5.034   5.863
 1158SOL    HW1 4373   5.797   5.016   5.931
 1158SOL    HW2 4374   5.767   5.038   5.772
 1159SOL     OW 4375   4.001   5.186   3.031
 1159SOL    HW1 4376   3.982   5.088   3.030
 1159SOL    HW2 4377   4.035   5.213   3.121
 1160SOL     OW 4378   4.128   3.399   2.356
 1160SOL    HW1 4379   4.136   3.346   2.441
 1160SOL    HW2 4380   4.219   3.416   2.318
 1161SOL     OW 4381   5.694   0.563   3.861
 1161SOL    HW1 4382   5.731   0.564   3.768
 1161SOL    HW2 4383   5.612   0.620   3.865
 1162SOL     OW 4384   3.533   4.106   2.313
 1162SOL    HW1 4385   3.551   4.056   2.229
 1162SOL    HW2 4386   3.610   4.092   2.377
 1163SOL     OW 4387   5.098   2.495   2.134
 1163SOL    HW1 4388   5.131   2.410   2.092
 1163SOL    HW2 4389   5.002   2.509   2.109
 1164SOL     OW 4390   5.710   2.813   3.387
 1164SOL    HW1 4391   5.632   2.756   3.361
 1164SOL    HW2 4392   5.783   2.754   3.422
 1165SOL     OW 4393   0.429   3.480   3.684
 1165SOL    HW1 4394   0.528   3.478   3.674
 1165SOL    HW2 4395   0.391   3.389   3.666
 1166SOL     OW 4396   4.199   2.349   6.264
 1166SOL    HW1 4397   4.297   2.330   6.263
 1166SOL    HW2 4398   4.155   2.303   6.187
 1167SOL     OW 4399   4.978   1.154   5.158
 1167SOL    HW1 4400   4.974   1.059   5.189
 1167SOL    HW2 4401   4.886   1.194   5.160
 1168SOL     OW 4402   6.837   6.970   3.866
 1168SOL    HW1 4403   6.742   6.994   3.884
 1168SOL    HW2 4404   6.863   7.003   3.776
 1169SOL     OW 4405   1.169   3.656   1.324
 1169SOL    HW1 4406   1.116   3.736   1.296
 1169SOL    HW2 4407   1.120   3.607   1.396
 1170SOL     OW 4408   3.252   1.429   2.067
 1170SOL    HW1 4409   3.308   1.360   2.021
 1170SOL    HW2 4410   3.303   1.465   2.146
 1171SOL     OW 4411   2.863   5.511   1.343
 1171SOL    HW1 4412   2.833   5.416   1.329
 1171SOL    HW2 4413   2.784   5.566   1.369
 1172SOL     OW 4414   3.050   3.650   4.353
 1172SOL    HW1 4415   2.983   3.575   4.349
 1172SOL    HW2 4416   3.014   3.730   4.305
 1173SOL     OW 4417   2.768   0.936   6.032
 1173SOL    HW1 4418   2.757   0.851   5.981
 1173SOL    HW2 4419   2.814   1.004   5.975
 1174SOL     OW 4420   2.961   5.861   0.795
 1174SOL    HW1 4421   2.936   5.958   0.793
 1174SOL    HW2 4422   3.006   5.841   0.882
 1175SOL     OW 4423   6.462   4.966   6.200
 1175SOL    HW1 4424   6.443   4.885   6.144
 1175SOL    HW2 4425   6.552   5.001   6.178
 1176SOL     OW 4426   5.568   4.587   0.953
 1176SOL    HW1 4427   5.615   4.529   1.020
 1176SOL    HW2 4428   5.526   4.529   0.883
 1177SOL     OW 4429   6.829   3.401   5.815
 1177SOL    HW1 4430   6.795   3.318   5.771
 1177SOL    HW2 4431   6.797   3.481   5.765
 1178SOL     OW 4432   5.311   3.782   1.635
 1178SOL    HW1 4433   5.321   3.735   1.548
 1178SOL    HW2 4434   5.214   3.799   1.654
 1179SOL     OW 4435   1.673   5.315   6.932
 1179SOL    HW1 4436   1.608   5.390   6.920
 1179SOL    HW2 4437   1.763   5.343   6.898
 1180SOL     OW 4438   1.736   1.886   4.150
 1180SOL    HW1 4439   1.738   1.793   4.185
 1180SOL    HW2 4440   1.765   1.887   4.055
 1181SOL     OW 4441   1.798   4.056   3.961
 1181SOL    HW1 4442   1.724   4.070   3.895
 1181SOL    HW2 4443   1.818   4.143   4.007
 1182SOL     OW 4444   2.172   4.058   3.532
 1182SOL    HW1 4445   2.179   3.959   3.521
 1182SOL    HW2 4446   2.138   4.079   3.623
 1183SOL     OW 4447   4.290   6.276   1.470
 1183SOL    HW1 4448   4.280   6.307   1.376
 1183SOL    HW2 4449   4.377   6.228   1.481
 1184SOL     OW 4450   3.149   3.057   5.276
 1184SOL    HW1 4451   3.115   2.971   5.316
 1184SOL    HW2 4452   3.110   3.134   5.326
 1185SOL     OW 4453   1.863   0.330   6.863
 1185SOL    HW1 4454   1.923   0.330   6.943
 1185SOL    HW2 4455   1.777   0.376   6.885
 1186SOL     OW 4456   5.700   0.268   4.869
 1186SOL    HW1 4457   5.771   0.281   4.799
 1186SOL    HW2 4458   5.743   0.246   4.957
 1187SOL     OW 4459   5.731   6.946   5.188
 1187SOL    HW1 4460   5.759   6.865   5.238
 1187SOL    HW2 4461   5.675   6.919   5.110
 1188SOL     OW 4462   2.255   6.788   5.933
 1188SOL    HW1 4463   2.332   6.852   5.930
 1188SOL    HW2 4464   2.275   6.715   5.998
 1189SOL     OW 4465   5.630   1.155   1.397
 1189SOL    HW1 4466   5.599   1.073   1.349
 1189SOL    HW2 4467   5.702   1.200   1.343
 1190SOL     OW 4468   4.604   5.275   2.529
 1190SOL    HW1 4469   4.605   5.182   2.565
 1190SOL    HW2 4470   4.511   5.311   2.532
 1191SOL     OW 4471   3.131   5.468   6.072
 1191SOL    HW1 4472   3.185   5.475   5.988
 1191SOL    HW2 4473   3.042   5.429   6.051
 1192SOL     OW 4474   5.921   5.351   3.111
 1192SOL    HW1 4475   5.838   5.297   3.120
 1192SOL    HW2 4476   5.985   5.305   3.050
 1193SOL     OW 4477   4.990   0.351   4.103
 1193SOL    HW1 4478   4.973   0.316   4.011
 1193SOL    HW2 4479   5.069   0.413   4.102
 1194SOL     OW 4480   6.449   0.858   0.517
 1194SOL    HW1 4481   6.531   0.800   0.519
 1194SOL    HW2 4482   6.428   0.884   0.423
 1195SOL     OW 4483   5.661   0.595   6.264
 1195SOL    HW1 4484   5.667   0.693   6.249
 1195SOL    HW2 4485   5.741   0.563   6.315
 1196SOL     OW 4486   0.211   5.430   2.517
 1196SOL    HW1 4487   0.241   5.347   2.565
 1196SOL    HW2 4488   0.272   5.447   2.439
 1197SOL     OW 4489   3.714   5.903   5.678
 1197SOL    HW1 4490   3.678   5.992   5.648
 1197SOL    HW2 4491   3.704   5.837   5.604
 1198SOL     OW 4492   3.206   2.089   3.457
 1198SOL    HW1 4493   3.305   2.086   3.442
 1198SOL    HW2 4494   3.185   2.155   3.529
 1199SOL     OW 4495   3.359   4.190   1.765
 1199SOL    HW1 4496   3.458   4.186   1.756
 1199SOL    HW2 4497   3.317   4.117   1.711
 1200SOL     OW 4498   4.129   4.449   6.504
 1200SOL    HW1 4499   4.099   4.362   6.543
 1200SOL    HW2 4500   4.209   4.433   6.446
 1201SOL     OW 4501   1.470   1.905   4.802
 1201SOL    HW1 4502   1.511   1.854   4.878
 1201SOL    HW2 4503   1.458   1.843   4.724
 1202SOL     OW 4504   5.479   0.083   4.902
 1202SOL    HW1 4505   5.515   7.017   4.886
 1202SOL    HW2 4506   5.550   0.150   4.880
 1203SOL     OW 4507   5.340   0.183   1.187
 1203SOL    HW1 4508   5.346   0.088   1.219
 1203SOL    HW2 4509   5.284   0.236   1.251
 1204SOL     OW 4510   3.683   0.513   0.405
 1204SOL    HW1 4511   3.712   0.503   0.500
 1204SOL    HW2 4512   3.760   0.540   0.349
 1205SOL     OW 4513   6.056   1.779   5.264
 1205SOL    HW1 4514   6.067   1.795   5.362
 1205SOL    HW2 4515   6.042   1.682   5.247
 1206SOL     OW 4516   2.203   1.504   5.135
 1206SOL    HW1 4517   2.295   1.506   5.097
 1206SOL    HW2 4518   2.201   1.443   5.214
 1207SOL     OW 4519   5.728   0.079   0.057
 1207SOL    HW1 4520   5.673   0.110   7.006
 1207SOL    HW2 4521   5.686   0.108   0.143
 1208SOL     OW 4522   3.661   4.044   2.634
 1208SOL    HW1 4523   3.639   4.140   2.616
 1208SOL    HW2 4524   3.594   4.006   2.699
 1209SOL     OW 4525   5.725   5.661   4.430
 1209SOL    HW1 4526   5.818   5.643   4.397
 1209SOL    HW2 4527   5.691   5.581   4.478
 1210SOL     OW 4528   4.372   6.795   2.699
 1210SOL    HW1 4529   4.376   6.888   2.734
 1210SOL    HW2 4530   4.464   6.764   2.675
 1211SOL     OW 4531   1.156   4.131   4.505
 1211SOL    HW1 4532   1.222   4.092   4.441
 1211SOL    HW2 4533   1.201   4.203   4.558
 1212SOL     OW 4534   1.266   4.237   4.934
 1212SOL    HW1 4535   1.348   4.180   4.944
 1212SOL    HW2 4536   1.197   4.208   5.000
 1213SOL     OW 4537   6.412   2.608   5.259
 1213SOL    HW1 4538   6.436   2.680   5.194
 1213SOL    HW2 4539   6.312   2.605   5.271
 1214SOL     OW 4540   1.599   3.307   3.918
 1214SOL    HW1 4541   1.651   3.221   3.913
 1214SOL    HW2 4542   1.604   3.354   3.830
 1215SOL     OW 4543   1.239   4.084   3.239
 1215SOL    HW1 4544   1.204   4.151   3.305
 1215SOL    HW2 4545   1.319   4.039   3.278
 1216SOL     OW 4546   1.243   0.200   1.993
 1216SOL    HW1 4547   1.303   0.249   1.930
 1216SOL    HW2 4548   1.153   0.186   1.950
 1217SOL     OW 4549   1.380   6.580   1.184
 1217SOL    HW1 4550   1.347   6.672   1.164
 1217SOL    HW2 4551   1.359   6.519   1.107
 1218SOL     OW 4552   0.175   3.363   4.344
 1218SOL    HW1 4553   0.164   3.264   4.353
 1218SOL    HW2 4554   0.187   3.404   4.435
 1219SOL     OW 4555   3.655   6.315   1.422
 1219SOL    HW1 4556   3.705   6.231   1.404
 1219SOL    HW2 4557   3.595   6.302   1.501
 1220SOL     OW 4558   5.893   2.785   3.007
 1220SOL    HW1 4559   5.894   2.699   3.059
 1220SOL    HW2 4560   5.838   2.853   3.056
 1221SOL     OW 4561   4.669   3.426   0.528
 1221SOL    HW1 4562   4.703   3.511   0.487
 1221SOL    HW2 4563   4.574   3.412   0.502
 1222SOL     OW 4564   0.287   6.930   1.169
 1222SOL    HW1 4565   0.203   6.878   1.186
 1222SOL    HW2 4566   0.362   6.891   1.222
 1223SOL     OW 4567   6.400   7.017   6.247
 1223SOL    HW1 4568   6.306   0.026   6.250
 1223SOL    HW2 4569   6.399   6.921   6.277
 1224SOL     OW 4570   4.522   5.676   1.091
 1224SOL    HW1 4571   4.544   5.761   1.140
 1224SOL    HW2 4572   4.438   5.637   1.128
 1225SOL     OW 4573   5.037   2.055   0.553
 1225SOL    HW1 4574   4.993   2.091   0.635
 1225SOL    HW2 4575   5.026   1.956   0.550
 1226SOL     OW 4576   6.400   6.137   1.160
 1226SOL    HW1 4577   6.449   6.164   1.077
 1226SOL    HW2 4578   6.465   6.118   1.233
 1227SOL     OW 4579   5.665   3.758   5.532
 1227SOL    HW1 4580   5.604   3.685   5.560
 1227SOL    HW2 4581   5.660   3.833   5.598
 1228SOL     OW 4582   3.965   3.067   2.521
 1228SOL    HW1 4583   3.884   3.043   2.469
 1228SOL    HW2 4584   4.044   3.017   2.486
 1229SOL     OW 4585   1.845   6.199   2.493
 1229SOL    HW1 4586   1.815   6.235   2.582
 1229SOL    HW2 4587   1.819   6.262   2.421
 1230SOL     OW 4588   4.980   5.260   1.434
 1230SOL    HW1 4589   4.996   5.263   1.336
 1230SOL    HW2 4590   4.908   5.324   1.459
 1231SOL     OW 4591   1.847   2.068   6.559
 1231SOL    HW1 4592   1.799   2.050   6.473
 1231SOL    HW2 4593   1.875   1.981   6.600
 1232SOL     OW 4594   3.098   0.767   5.483
 1232SOL    HW1 4595   3.052   0.679   5.470
 1232SOL    HW2 4596   3.030   0.840   5.486
 1233SOL     OW 4597   0.312   5.648   3.959
 1233SOL    HW1 4598   0.295   5.641   4.057
 1233SOL    HW2 4599   0.401   5.608   3.937
 1234SOL     OW 4600   6.537   3.043   6.587
 1234SOL    HW1 4601   6.528   2.976   6.514
 1234SOL    HW2 4602   6.611   3.107   6.566
 1235SOL     OW 4603   6.385   5.076   0.340
 1235SOL    HW1 4604   6.476   5.106   0.312
 1235SOL    HW2 4605   6.332   5.049   0.259
 1236SOL     OW 4606   2.210   1.077   1.308
 1236SOL    HW1 4607   2.260   1.135   1.371
 1236SOL    HW2 4608   2.247   1.089   1.215
 1237SOL     OW 4609   1.091   0.343   4.814
 1237SOL    HW1 4610   1.183   0.339   4.776
 1237SOL    HW2 4611   1.096   0.364   4.912
 1238SOL     OW 4612   6.678   0.207   4.013
 1238SOL    HW1 4613   6.653   0.120   3.969
 1238SOL    HW2 4614   6.598   0.266   4.019
 1239SOL     OW 4615   5.713   4.886   4.420
 1239SOL    HW1 4616   5.677   4.835   4.498
 1239SOL    HW2 4617   5.802   4.925   4.443
 1240SOL     OW 4618   5.676   4.959   3.022
 1240SOL    HW1 4619   5.655   4.875   2.972
 1240SOL    HW2 4620   5.644   4.951   3.116
 1241SOL     OW 4621   5.475   5.249   4.398
 1241SOL    HW1 4622   5.434   5.244   4.489
 1241SOL    HW2 4623   5.443   5.172   4.343
 1242SOL     OW 4624   1.842   4.635   6.963
 1242SOL    HW1 4625   1.848   4.571   0.013
 1242SOL    HW2 4626   1.759   4.689   6.971
 1243SOL     OW 4627   0.781   4.575   4.919
 1243SOL    HW1 4628   0.822   4.524   4.995
 1243SOL    HW2 4629   0.769   4.513   4.841
 1244SOL     OW 4630   5.629   6.331   4.729
 1244SOL    HW1 4631   5.611   6.423   4.692
 1244SOL    HW2 4632   5.696   6.285   4.671
 1245SOL     OW 4633   5.395   6.269   2.600
 1245SOL    HW1 4634   5.410   6.287   2.503
 1245SOL    HW2 4635   5.474   6.222   2.639
 1246SOL     OW 4636   4.566   1.685   0.907
 1246SOL    HW1 4637   4.643   1.744   0.884
 1246SOL    HW2 4638   4.525   1.649   0.823
 1247SOL     OW 4639   6.414   6.728   3.231
 1247SOL    HW1 4640   6.444   6.635   3.212
 1247SOL    HW2 4641   6.367   6.731   3.319
 1248SOL     OW 4642   0.911   6.965   4.779
 1248SOL    HW1 4643   0.996   6.949   4.829
 1248SOL    HW2 4644   0.916   0.028   4.734
 1249SOL     OW 4645   6.794   4.624   0.138
 1249SOL    HW1 4646   6.882   4.643   0.182
 1249SOL    HW2 4647   6.722   4.674   0.185
 1250SOL     OW 4648   5.876   2.941   5.287
 1250SOL    HW1 4649   5.854   2.976   5.378
 1250SOL    HW2 4650   5.975   2.933   5.278
 1251SOL     OW 4651   2.797   0.381   2.752
 1251SOL    HW1 4652   2.723   0.367   2.686
 1251SOL    HW2 4653   2.863   0.447   2.716
 1252SOL     OW 4654   2.101   5.292   0.559
 1252SOL    HW1 4655   2.062   5.230   0.491
 1252SOL    HW2 4656   2.064   5.384   0.545
 1253SOL     OW 4657   3.346   0.845   1.300
 1253SOL    HW1 4658   3.402   0.898   1.364
 1253SOL    HW2 4659   3.332   0.753   1.336
 1254SOL     OW 4660   6.682   1.578   2.239
 1254SOL    HW1 4661   6.717   1.648   2.301
 1254SOL    HW2 4662   6.748   1.502   2.234
 1255SOL     OW 4663   5.441   1.421   4.782
 1255SOL    HW1 4664   5.347   1.401   4.756
 1255SOL    HW2 4665   5.493   1.336   4.789
 1256SOL     OW 4666   0.306   6.110   4.584
 1256SOL    HW1 4667   0.338   6.190   4.634
 1256SOL    HW2 4668   0.380   6.044   4.575
 1257SOL     OW 4669   0.635   5.351   4.046
 1257SOL    HW1 4670   0.730   5.356   4.015
 1257SOL    HW2 4671   0.594   5.265   4.015
 1258SOL     OW 4672   3.251   6.198   4.602
 1258SOL    HW1 4673   3.249   6.131   4.676
 1258SOL    HW2 4674   3.221   6.287   4.637
 1259SOL     OW 4675   5.336   6.783   4.602
 1259SOL    HW1 4676   5.427   6.822   4.619
 1259SOL    HW2 4677   5.292   6.762   4.688
 1260SOL     OW 4678   1.684   0.639   1.775
 1260SOL    HW1 4679   1.738   0.701   1.833
 1260SOL    HW2 4680   1.603   0.610   1.825
 1261SOL     OW 4681   6.917   4.571   6.381
 1261SOL    HW1 4682   6.843   4.505   6.389
 1261SOL    HW2 4683   7.001   4.531   6.417
 1262SOL     OW 4684   5.650   5.504   0.518
 1262SOL    HW1 4685   5.729   5.447   0.493
 1262SOL    HW2 4686   5.567   5.449   0.513
 1263SOL     OW 4687   0.628   2.541   1.436
 1263SOL    HW1 4688   0.676   2.623   1.406
 1263SOL    HW2 4689   0.546   2.568   1.487
 1264SOL     OW 4690   0.709   3.475   3.743
 1264SOL    HW1 4691   0.684   3.421   3.823
 1264SOL    HW2 4692   0.804   3.504   3.750
 1265SOL     OW 4693   6.884   4.515   5.006
 1265SOL    HW1 4694   6.834   4.518   5.093
 1265SOL    HW2 4695   6.836   4.454   4.943
 1266SOL     OW 4696   2.782   1.637   5.451
 1266SOL    HW1 4697   2.762   1.674   5.361
 1266SOL    HW2 4698   2.845   1.698   5.499
 1267SOL     OW 4699   6.881   5.371   3.228
 1267SOL    HW1 4700   6.862   5.450   3.170
 1267SOL    HW2 4701   6.940   5.307   3.179
 1268SOL     OW 4702   5.350   2.687   6.539
 1268SOL    HW1 4703   5.288   2.763   6.562
 1268SOL    HW2 4704   5.374   2.693   6.442
 1269SOL     OW 4705   6.593   5.382   5.511
 1269SOL    HW1 4706   6.530   5.428   5.448
 1269SOL    HW2 4707   6.563   5.288   5.525
 1270SOL     OW 4708   2.154   3.812   4.336
 1270SOL    HW1 4709   2.210   3.893   4.318
 1270SOL    HW2 4710   2.153   3.754   4.254
 1271SOL     OW 4711   3.321   1.837   2.640
 1271SOL    HW1 4712   3.298   1.831   2.543
 1271SOL    HW2 4713   3.315   1.933   2.670
 1272SOL     OW 4714   6.742   5.233   1.017
 1272SOL    HW1 4715   6.677   5.179   1.071
 1272SOL    HW2 4716   6.692   5.284   0.946
 1273SOL     OW 4717   2.667   4.769   6.595
 1273SOL    HW1 4718   2.642   4.843   6.658
 1273SOL    HW2 4719   2.584   4.734   6.551
 1274SOL     OW 4720   6.997   2.682   2.092
 1274SOL    HW1 4721   6.951   2.739   2.024
 1274SOL    HW2 4722   6.981   2.721   2.183
 1275SOL     OW 4723   4.352   1.171   4.881
 1275SOL    HW1 4724   4.418   1.170   4.806
 1275SOL    HW2 4725   4.400   1.186   4.967
 1276SOL     OW 4726   0.628   0.764   2.597
 1276SOL    HW1 4727   0.585   0.831   2.658
 1276SOL    HW2 4728   0.558   0.720   2.541
 1277SOL     OW 4729   6.647   0.668   4.504
 1277SOL    HW1 4730   6.699   0.598   4.455
 1277SOL    HW2 4731   6.688   0.757   4.490
 1278SOL     OW 4732   2.085   1.715   5.277
 1278SOL    HW1 4733   2.135   1.785   5.226
 1278SOL    HW2 4734   2.104   1.625   5.236
 1279SOL     OW 4735   2.944   5.952   0.438
 1279SOL    HW1 4736   2.878   5.989   0.371
 1279SOL    HW2 4737   2.915   5.860   0.464
 1280SOL     OW 4738   2.073   0.375   3.287
 1280SOL    HW1 4739   2.144   0.445   3.289
 1280SOL    HW2 4740   2.095   0.307   3.216
 1281SOL     OW 4741   1.340   6.405   3.329
 1281SOL    HW1 4742   1.432   6.443   3.335
 1281SOL    HW2 4743   1.304   6.393   3.422
 1282SOL     OW 4744   0.853   1.089   1.061
 1282SOL    HW1 4745   0.767   1.071   1.108
 1282SOL    HW2 4746   0.920   1.125   1.127
 1283SOL     OW 4747   5.234   4.514   5.256
 1283SOL    HW1 4748   5.306   4.582   5.244
 1283SOL    HW2 4749   5.164   4.550   5.318
 1284SOL     OW 4750   3.033   2.681   1.683
 1284SOL    HW1 4751   3.097   2.607   1.662
 1284SOL    HW2 4752   2.978   2.656   1.762
 1285SOL     OW 4753   4.755   2.485   5.980
 1285SOL    HW1 4754   4.658   2.495   6.002
 1285SOL    HW2 4755   4.790   2.572   5.945
 1286SOL     OW 4756   5.681   4.205   1.821
 1286SOL    HW1 4757   5.621   4.131   1.852
 1286SOL    HW2 4758   5.648   4.291   1.858
 1287SOL     OW 4759   6.249   5.770   6.925
 1287SOL    HW1 4760   6.149   5.763   6.924
 1287SOL    HW2 4761   6.288   5.681   6.948
 1288SOL     OW 4762   0.070   3.224   6.903
 1288SOL    HW1 4763   6.997   3.217   6.898
 1288SOL    HW2 4764   0.095   3.295   6.968
 1289SOL     OW 4765   6.831   6.130   2.395
 1289SOL    HW1 4766   6.784   6.067   2.334
 1289SOL    HW2 4767   6.815   6.224   2.365
 1290SOL     OW 4768   1.063   6.417   6.744
 1290SOL    HW1 4769   1.121   6.499   6.753
 1290SOL    HW2 4770   1.038   6.384   6.835
 1291SOL     OW 4771   0.946   5.884   6.393
 1291SOL    HW1 4772   1.017   5.831   6.440
 1291SOL    HW2 4773   0.916   5.834   6.312
 1292SOL     OW 4774   0.416   4.837   0.717
 1292SOL    HW1 4775   0.344   4.904   0.697
 1292SOL    HW2 4776   0.403   4.801   0.809
 1293SOL     OW 4777   1.470   1.803   6.853
 1293SOL    HW1 4778   1.483   1.709   6.884
 1293SOL    HW2 4779   1.545   1.860   6.886
 1294SOL     OW 4780   0.841   3.335   2.388
 1294SOL    HW1 4781   0.864   3.402   2.458
 1294SOL    HW2 4782   0.822   3.247   2.431
 1295SOL     OW 4783   5.593   3.202   2.018
 1295SOL    HW1 4784   5.494   3.213   2.014
 1295SOL    HW2 4785   5.632   3.223   1.928
 1296SOL     OW 4786   3.536   2.351   6.473
 1296SOL    HW1 4787   3.581   2.296   6.543
 1296SOL    HW2 4788   3.443   2.316   6.458
 1297SOL     OW 4789   6.733   1.473   5.642
 1297SOL    HW1 4790   6.693   1.407   5.579
 1297SOL    HW2 4791   6.804   1.526   5.594
 1298SOL     OW 4792   5.572   2.776   2.625
 1298SOL    HW1 4793   5.493   2.715   2.618
 1298SOL    HW2 4794   5.571   2.840   2.549
 1299SOL     OW 4795   1.099   4.351   4.253
 1299SOL    HW1 4796   1.194   4.320   4.261
 1299SOL    HW2 4797   1.039   4.287   4.302
 1300SOL     OW 4798   2.852   3.321   1.951
 1300SOL    HW1 4799   2.774   3.296   1.894
 1300SOL    HW2 4800   2.843   3.278   2.041
 1301SOL     OW 4801   0.609   6.450   3.937
 1301SOL    HW1 4802   0.621   6.390   4.016
 1301SOL    HW2 4803   0.688   6.511   3.929
 1302SOL     OW 4804   2.748   6.842   5.282
 1302SOL    HW1 4805   2.735   6.868   5.187
 1302SOL    HW2 4806   2.757   6.925   5.339
 1303SOL     OW 4807   3.498   1.538   0.969
 1303SOL    HW1 4808   3.483   1.459   0.911
 1303SOL    HW2 4809   3.442   1.530   1.052
 1304SOL     OW 4810   2.054   0.313   6.299
 1304SOL    HW1 4811   2.105   0.398   6.315
 1304SOL    HW2 4812   2.117   0.242   6.270
 1305SOL     OW 4813   4.607   6.541   4.541
 1305SOL    HW1 4814   4.546   6.465   4.562
 1305SOL    HW2 4815   4.565   6.600   4.473
 1306SOL     OW 4816   0.525   4.137   4.767
 1306SOL    HW1 4817   0.444   4.178   4.725
 1306SOL    HW2 4818   0.498   4.063   4.828
 1307SOL     OW 4819   1.419   3.652   5.289
 1307SOL    HW1 4820   1.348   3.685   5.227
 1307SOL    HW2 4821   1.491   3.607   5.236
 1308SOL     OW 4822   3.811   5.631   4.373
 1308SOL    HW1 4823   3.839   5.689   4.296
 1308SOL    HW2 4824   3.786   5.540   4.340
 1309SOL     OW 4825   5.277   2.823   4.914
 1309SOL    HW1 4826   5.262   2.726   4.931
 1309SOL    HW2 4827   5.245   2.847   4.823
 1310SOL     OW 4828   5.877   4.369   4.214
 1310SOL    HW1 4829   5.819   4.289   4.228
 1310SOL    HW2 4830   5.952   4.346   4.152
 1311SOL     OW 4831   6.252   6.853   4.583
 1311SOL    HW1 4832   6.215   6.760   4.582
 1311SOL    HW2 4833   6.220   6.902   4.663
 1312SOL     OW 4834   0.749   6.878   6.819
 1312SOL    HW1 4835   0.823   6.826   6.863
 1312SOL    HW2 4836   0.779   6.909   6.729
 1313SOL     OW 4837   3.365   5.459   5.245
 1313SOL    HW1 4838   3.433   5.390   5.268
 1313SOL    HW2 4839   3.275   5.415   5.236
 1314SOL     OW 4840   1.455   1.361   5.667
 1314SOL    HW1 4841   1.508   1.278   5.654
 1314SOL    HW2 4842   1.477   1.428   5.596
 1315SOL     OW 4843   2.336   1.491   0.830
 1315SOL    HW1 4844   2.283   1.485   0.915
 1315SOL    HW2 4845   2.423   1.442   0.842
 1316SOL     OW 4846   2.372   0.292   3.437
 1316SOL    HW1 4847   2.382   0.204   3.483
 1316SOL    HW2 4848   2.431   0.294   3.356
 1317SOL     OW 4849   0.378   4.517   4.329
 1317SOL    HW1 4850   0.404   4.556   4.417
 1317SOL    HW2 4851   0.426   4.564   4.255
 1318SOL     OW 4852   6.996   0.861   0.550
 1318SOL    HW1 4853   6.983   0.775   0.600
 1318SOL    HW2 4854   6.923   0.872   0.482
 1319SOL     OW 4855   6.773   1.037   0.829
 1319SOL    HW1 4856   6.688   1.073   0.792
 1319SOL    HW2 4857   6.799   1.089   0.911
 1320SOL     OW 4858   5.738   4.602   6.148
 1320SOL    HW1 4859   5.647   4.600   6.105
 1320SOL    HW2 4860   5.730   4.634   6.242
 1321SOL     OW 4861   4.075   3.524   6.633
 1321SOL    HW1 4862   4.126   3.476   6.562
 1321SOL    HW2 4863   4.003   3.465   6.669
 1322SOL     OW 4864   6.076   1.086   3.444
 1322SOL    HW1 4865   6.037   1.034   3.368
 1322SOL    HW2 4866   6.062   1.037   3.530
 1323SOL     OW 4867   0.336   1.203   5.589
 1323SOL    HW1 4868   0.273   1.246   5.654
 1323SOL    HW2 4869   0.424   1.187   5.633
 1324SOL     OW 4870   1.659   2.953   1.318
 1324SOL    HW1 4871   1.625   2.860   1.312
 1324SOL    HW2 4872   1.650   2.998   1.229
 1325SOL     OW 4873   1.523   6.111   3.285
 1325SOL    HW1 4874   1.491   6.018   3.299
 1325SOL    HW2 4875   1.446   6.175   3.294
 1326SOL     OW 4876   5.276   2.574   4.571
 1326SOL    HW1 4877   5.249   2.667   4.596
 1326SOL    HW2 4878   5.364   2.552   4.612
 1327SOL     OW 4879   2.679   4.734   2.746
 1327SOL    HW1 4880   2.754   4.713   2.683
 1327SOL    HW2 4881   2.599   4.762   2.693
 1328SOL     OW 4882   2.048   1.897   6.333
 1328SOL    HW1 4883   2.060   1.804   6.299
 1328SOL    HW2 4884   2.085   1.903   6.426
 1329SOL     OW 4885   0.548   1.547   0.593
 1329SOL    HW1 4886   0.512   1.517   0.681
 1329SOL    HW2 4887   0.551   1.646   0.590
 1330SOL     OW 4888   6.763   0.878   1.221
 1330SOL    HW1 4889   6.741   0.783   1.199
 1330SOL    HW2 4890   6.685   0.921   1.266
 1331SOL     OW 4891   6.028   0.977   1.917
 1331SOL    HW1 4892   6.072   1.031   1.845
 1331SOL    HW2 4893   6.081   0.986   2.002
 1332SOL     OW 4894   4.235   1.916   1.546
 1332SOL    HW1 4895   4.141   1.896   1.573
 1332SOL    HW2 4896   4.282   1.963   1.621
 1333SOL     OW 4897   3.924   4.085   4.774
 1333SOL    HW1 4898   3.993   4.138   4.823
 1333SOL    HW2 4899   3.968   4.027   4.706
 1334SOL     OW 4900   1.685   4.094   4.965
 1334SOL    HW1 4901   1.757   4.032   4.938
 1334SOL    HW2 4902   1.690   4.178   4.910
 1335SOL     OW 4903   2.057   6.027   3.251
 1335SOL    HW1 4904   1.998   6.105   3.274
 1335SOL    HW2 4905   2.152   6.057   3.251
 1336SOL     OW 4906   1.350   1.557   6.093
 1336SOL    HW1 4907   1.377   1.552   5.996
 1336SOL    HW2 4908   1.387   1.639   6.134
 1337SOL     OW 4909   2.272   2.135   6.291
 1337SOL    HW1 4910   2.339   2.158   6.362
 1337SOL    HW2 4911   2.192   2.092   6.332
 1338SOL     OW 4912   4.073   4.664   6.683
 1338SOL    HW1 4913   4.115   4.736   6.628
 1338SOL    HW2 4914   4.102   4.575   6.649
 1339SOL     OW 4915   0.015   4.477   6.080
 1339SOL    HW1 4916   0.093   4.490   6.141
 1339SOL    HW2 4917   0.038   4.514   5.989
 1340SOL     OW 4918   1.285   2.265   6.897
 1340SOL    HW1 4919   1.233   2.182   6.918
 1340SOL    HW2 4920   1.294   2.275   6.798
 1341SOL     OW 4921   3.401   1.080   4.048
 1341SOL    HW1 4922   3.369   1.171   4.021
 1341SOL    HW2 4923   3.481   1.089   4.107
 1342SOL     OW 4924   0.689   5.826   5.876
 1342SOL    HW1 4925   0.783   5.859   5.888
 1342SOL    HW2 4926   0.625   5.901   5.889
 1343SOL     OW 4927   3.620   6.067   2.629
 1343SOL    HW1 4928   3.693   5.999   2.637
 1343SOL    HW2 4929   3.542   6.026   2.583
 1344SOL     OW 4930   6.461   1.559   3.068
 1344SOL    HW1 4931   6.504   1.557   3.158
 1344SOL    HW2 4932   6.426   1.468   3.045
 1345SOL     OW 4933   0.714   0.813   3.061
 1345SOL    HW1 4934   0.716   0.737   3.126
 1345SOL    HW2 4935   0.796   0.869   3.074
 1346SOL     OW 4936   0.085   6.835   3.775
 1346SOL    HW1 4937   0.072   6.755   3.717
 1346SOL    HW2 4938   0.023   6.908   3.746
 1347SOL     OW 4939   6.484   6.489   3.165
 1347SOL    HW1 4940   6.439   6.408   3.204
 1347SOL    HW2 4941   6.563   6.459   3.112
 1348SOL     OW 4942   5.202   4.462   3.863
 1348SOL    HW1 4943   5.264   4.407   3.807
 1348SOL    HW2 4944   5.236   4.465   3.957
 1349SOL     OW 4945   4.074   2.507   0.015
 1349SOL    HW1 4946   4.158   2.462   7.011
 1349SOL    HW2 4947   4.046   2.575   6.973
 1350SOL     OW 4948   2.514   6.145   0.320
 1350SOL    HW1 4949   2.435   6.098   0.281
 1350SOL    HW2 4950   2.557   6.202   0.250
 1351SOL     OW 4951   0.304   0.839   4.167
 1351SOL    HW1 4952   0.397   0.832   4.203
 1351SOL    HW2 4953   0.274   0.935   4.172
 1352SOL     OW 4954   6.639   0.922   2.786
 1352SOL    HW1 4955   6.634   1.014   2.825
 1352SOL    HW2 4956   6.660   0.856   2.858
 1353SOL     OW 4957   0.340   4.363   5.025
 1353SOL    HW1 4958   0.403   4.393   4.954
 1353SOL    HW2 4959   0.347   4.264   5.036
 1354SOL     OW 4960   0.191   0.625   1.674
 1354SOL    HW1 4961   0.171   0.554   1.741
 1354SOL    HW2 4962   0.135   0.610   1.592
 1355SOL     OW 4963   5.111   3.673   6.684
 1355SOL    HW1 4964   5.122   3.750   6.746
 1355SOL    HW2 4965   5.075   3.705   6.596
 1356SOL     OW 4966   3.382   3.780   2.649
 1356SOL    HW1 4967   3.292   3.753   2.615
 1356SOL    HW2 4968   3.371   3.838   2.730
 1357SOL     OW 4969   2.433   3.177   6.115
 1357SOL    HW1 4970   2.461   3.083   6.094
 1357SOL    HW2 4971   2.496   3.241   6.070
 1358SOL     OW 4972   2.263   2.744   6.472
 1358SOL    HW1 4973   2.281   2.829   6.521
 1358SOL    HW2 4974   2.167   2.718   6.486
 1359SOL     OW 4975   6.212   3.735   1.602
 1359SOL    HW1 4976   6.246   3.813   1.549
 1359SOL    HW2 4977   6.114   3.724   1.587
 1360SOL     OW 4978   3.551   3.678   3.011
 1360SOL    HW1 4979   3.455   3.696   3.030
 1360SOL    HW2 4980   3.602   3.670   3.096
 1361SOL     OW 4981   0.827   6.267   6.121
 1361SOL    HW1 4982   0.752   6.242   6.183
 1361SOL    HW2 4983   0.790   6.295   6.033
 1362SOL     OW 4984   2.995   3.434   5.821
 1362SOL    HW1 4985   2.959   3.349   5.861
 1362SOL    HW2 4986   2.919   3.497   5.803
 1363SOL     OW 4987   6.666   5.687   2.665
 1363SOL    HW1 4988   6.636   5.622   2.735
 1363SOL    HW2 4989   6.760   5.716   2.684
 1364SOL     OW 4990   6.567   3.097   1.086
 1364SOL    HW1 4991   6.609   3.126   1.172
 1364SOL    HW2 4992   6.496   3.163   1.059
 1365SOL     OW 4993   0.944   3.190   6.047
 1365SOL    HW1 4994   0.872   3.121   6.058
 1365SOL    HW2 4995   0.904   3.281   6.056
 1366SOL     OW 4996   6.859   2.818   0.899
 1366SOL    HW1 4997   6.882   2.721   0.908
 1366SOL    HW2 4998   6.835   2.839   0.805
 1367SOL     OW 4999   0.389   4.617   3.897
 1367SOL    HW1 5000   0.434   4.627   3.986
 1367SOL    HW2 5001   0.379   4.707   3.855
 1368SOL     OW 5002   6.771   0.433   4.376
 1368SOL    HW1 5003   6.779   0.341   4.337
 1368SOL    HW2 5004   6.778   0.501   4.303
 1369SOL     OW 5005   2.061   5.651   2.248
 1369SOL    HW1 5006   2.026   5.564   2.283
 1369SOL    HW2 5007   2.145   5.635   2.196
 1370SOL     OW 5008   6.939   2.106   4.033
 1370SOL    HW1 5009   6.852   2.133   4.074
 1370SOL    HW2 5010   6.949   2.150   3.943
 1371SOL     OW 5011   5.623   1.092   4.420
 1371SOL    HW1 5012   5.535   1.108   4.466
 1371SOL    HW2 5013   5.641   1.166   4.355
 1372SOL     OW 5014   6.601   2.739   0.318
 1372SOL    HW1 5015   6.700   2.725   0.326
 1372SOL    HW2 5016   6.554   2.653   0.332
 1373SOL     OW 5017   4.678   2.752   1.862
 1373SOL    HW1 5018   4.642   2.845   1.871
 1373SOL    HW2 5019   4.737   2.747   1.781
 1374SOL     OW 5020   5.069   3.644   0.162
 1374SOL    HW1 5021   5.120   3.592   0.093
 1374SOL    HW2 5022   5.058   3.589   0.244
 1375SOL     OW 5023   6.213   6.248   5.095
 1375SOL    HW1 5024   6.219   6.150   5.110
 1375SOL    HW2 5025   6.120   6.279   5.112
 1376SOL     OW 5026   2.623   5.054   6.163
 1376SOL    HW1 5027   2.570   4.998   6.099
 1376SOL    HW2 5028   2.585   5.044   6.255
 1377SOL     OW 5029   1.396   2.661   2.978
 1377SOL    HW1 5030   1.323   2.642   3.044
 1377SOL    HW2 5031   1.477   2.693   3.027
 1378SOL     OW 5032   3.696   1.973   4.590
 1378SOL    HW1 5033   3.678   1.947   4.495
 1378SOL    HW2 5034   3.794   1.973   4.607
 1379SOL     OW 5035   5.261   5.312   1.430
 1379SOL    HW1 5036   5.310   5.241   1.480
 1379SOL    HW2 5037   5.164   5.309   1.454
 1380SOL     OW 5038   6.745   6.148   1.680
 1380SOL    HW1 5039   6.705   6.063   1.646
 1380SOL    HW2 5040   6.717   6.161   1.775
 1381SOL     OW 5041   6.169   2.142   5.541
 1381SOL    HW1 5042   6.071   2.145   5.557
 1381SOL    HW2 5043   6.187   2.113   5.447
 1382SOL     OW 5044   4.317   2.414   1.421
 1382SOL    HW1 5045   4.301   2.389   1.325
 1382SOL    HW2 5046   4.242   2.379   1.477
 1383SOL     OW 5047   1.453   0.554   1.890
 1383SOL    HW1 5048   1.453   0.607   1.975
 1383SOL    HW2 5049   1.379   0.487   1.892
 1384SOL     OW 5050   5.334   0.402   0.347
 1384SOL    HW1 5051   5.246   0.354   0.345
 1384SOL    HW2 5052   5.361   0.417   0.442
 1385SOL     OW 5053   1.644   4.824   3.419
 1385SOL    HW1 5054   1.701   4.799   3.339
 1385SOL    HW2 5055   1.699   4.816   3.502
 1386SOL     OW 5056   2.601   6.195   4.260
 1386SOL    HW1 5057   2.686   6.153   4.229
 1386SOL    HW2 5058   2.592   6.181   4.359
 1387SOL     OW 5059   3.596   5.796   1.294
 1387SOL    HW1 5060   3.508   5.840   1.279
 1387SOL    HW2 5061   3.646   5.846   1.366
 1388SOL     OW 5062   5.967   0.763   1.632
 1388SOL    HW1 5063   5.977   0.862   1.627
 1388SOL    HW2 5064   5.983   0.732   1.726
 1389SOL     OW 5065   6.633   1.133   2.942
 1389SOL    HW1 5066   6.619   1.110   3.039
 1389SOL    HW2 5067   6.707   1.200   2.934
 1390SOL     OW 5068   0.934   2.995   6.339
 1390SOL    HW1 5069   0.933   2.904   6.298
 1390SOL    HW2 5070   0.844   3.037   6.330
 1391SOL     OW 5071   7.025   1.824   3.903
 1391SOL    HW1 5072   6.990   1.909   3.943
 1391SOL    HW2 5073   0.098   1.832   3.890
 1392SOL     OW 5074   5.354   4.712   5.697
 1392SOL    HW1 5075   5.281   4.750   5.755
 1392SOL    HW2 5076   5.422   4.668   5.755
 1393SOL     OW 5077   5.622   5.680   5.283
 1393SOL    HW1 5078   5.670   5.617   5.223
 1393SOL    HW2 5079   5.556   5.734   5.230
 1394SOL     OW 5080   3.225   6.145   5.596
 1394SOL    HW1 5081   3.171   6.211   5.543
 1394SOL    HW2 5082   3.313   6.130   5.550
 1395SOL     OW 5083   3.123   4.608   5.830
 1395SOL    HW1 5084   3.024   4.622   5.826
 1395SOL    HW2 5085   3.154   4.618   5.925
 1396SOL     OW 5086   0.344   0.161   3.953
 1396SOL    HW1 5087   0.290   0.200   4.028
 1396SOL    HW2 5088   0.359   0.232   3.884
 1397SOL     OW 5089   6.080   0.293   5.018
 1397SOL    HW1 5090   6.118   0.295   4.925
 1397SOL    HW2 5091   6.130   0.358   5.076
 1398SOL     OW 5092   1.542   0.900   4.810
 1398SOL    HW1 5093   1.597   0.865   4.735
 1398SOL    HW2 5094   1.487   0.825   4.849
 1399SOL     OW 5095   3.585   6.663   1.583
 1399SOL    HW1 5096   3.539   6.627   1.502
 1399SOL    HW2 5097   3.612   6.587   1.642
 1400SOL     OW 5098   6.920   1.557   2.710
 1400SOL    HW1 5099   6.902   1.652   2.734
 1400SOL    HW2 5100   7.014   1.548   2.676
 1401SOL     OW 5101   0.548   1.760   5.355
 1401SOL    HW1 5102   0.502   1.674   5.377
 1401SOL    HW2 5103   0.646   1.751   5.375
 1402SOL     OW 5104   6.698   3.539   6.586
 1402SOL    HW1 5105   6.643   3.508   6.664
 1402SOL    HW2 5106   6.779   3.480   6.577
 1403SOL     OW 5107   3.393   0.667   1.990
 1403SOL    HW1 5108   3.446   0.653   2.074
 1403SOL    HW2 5109   3.325   0.739   2.005
 1404SOL     OW 5110   5.647   0.388   0.555
 1404SOL    HW1 5111   5.705   0.306   0.556
 1404SOL    HW2 5112   5.675   0.448   0.480
 1405SOL     OW 5113   1.869   3.985   1.015
 1405SOL    HW1 5114   1.828   4.065   0.972
 1405SOL    HW2 5115   1.960   3.969   0.976
 1406SOL     OW 5116   1.231   4.923   1.869
 1406SOL    HW1 5117   1.147   4.909   1.922
 1406SOL    HW2 5118   1.256   4.838   1.823
 1407SOL     OW 5119   0.492   1.332   2.053
 1407SOL    HW1 5120   0.560   1.379   1.996
 1407SOL    HW2 5121   0.416   1.302   1.995
 1408SOL     OW 5122   5.443   0.468   6.165
 1408SOL    HW1 5123   5.525   0.515   6.198
 1408SOL    HW2 5124   5.448   0.371   6.191
 1409SOL     OW 5125   0.682   7.021   5.290
 1409SOL    HW1 5126   0.722   6.957   5.356
 1409SOL    HW2 5127   0.722   0.085   5.304
 1410SOL     OW 5128   2.037   3.486   6.331
 1410SOL    HW1 5129   2.054   3.489   6.430
 1410SOL    HW2 5130   2.110   3.433   6.288
 1411SOL     OW 5131   2.544   6.503   2.862
 1411SOL    HW1 5132   2.525   6.574   2.793
 1411SOL    HW2 5133   2.462   6.486   2.915
 1412SOL     OW 5134   0.726   3.039   0.074
 1412SOL    HW1 5135   0.640   3.085   0.096
 1412SOL    HW2 5136   0.758   3.068   7.011
 1413SOL     OW 5137   2.197   0.859   5.067
 1413SOL    HW1 5138   2.206   0.844   4.968
 1413SOL    HW2 5139   2.127   0.797   5.102
 1414SOL     OW 5140   2.927   1.357   1.819
 1414SOL    HW1 5141   2.851   1.372   1.755
 1414SOL    HW2 5142   2.971   1.270   1.798
 1415SOL     OW 5143   2.282   6.882   4.363
 1415SOL    HW1 5144   2.350   6.810   4.350
 1415SOL    HW2 5145   2.192   6.849   4.332
 1416SOL     OW 5146   4.762   4.727   3.180
 1416SOL    HW1 5147   4.818   4.658   3.135
 1416SOL    HW2 5148   4.665   4.702   3.172
 1417SOL     OW 5149   2.705   2.199   6.762
 1417SOL    HW1 5150   2.798   2.229   6.744
 1417SOL    HW2 5151   2.642   2.276   6.748
 1418SOL     OW 5152   2.900   3.379   3.174
 1418SOL    HW1 5153   2.825   3.318   3.147
 1418SOL    HW2 5154   2.953   3.336   3.246
 1419SOL     OW 5155   3.250   6.495   4.500
 1419SOL    HW1 5156   3.278   6.582   4.460
 1419SOL    HW2 5157   3.281   6.491   4.595
 1420SOL     OW 5158   1.629   6.372   1.668
 1420SOL    HW1 5159   1.621   6.472   1.663
 1420SOL    HW2 5160   1.541   6.331   1.647
 1421SOL     OW 5161   1.803   2.767   2.878
 1421SOL    HW1 5162   1.797   2.714   2.963
 1421SOL    HW2 5163   1.777   2.861   2.896
 1422SOL     OW 5164   2.580   4.628   1.859
 1422SOL    HW1 5165   2.517   4.557   1.827
 1422SOL    HW2 5166   2.669   4.587   1.878
 1423SOL     OW 5167   5.490   6.313   2.341
 1423SOL    HW1 5168   5.487   6.232   2.282
 1423SOL    HW2 5169   5.404   6.363   2.331
 1424SOL     OW 5170   5.715   4.665   4.582
 1424SOL    HW1 5171   5.617   4.659   4.567
 1424SOL    HW2 5172   5.743   4.599   4.651
 1425SOL     OW 5173   1.471   6.118   3.898
 1425SOL    HW1 5174   1.469   6.030   3.946
 1425SOL    HW2 5175   1.468   6.103   3.800
 1426SOL     OW 5176   1.319   2.975   5.767
 1426SOL    HW1 5177   1.384   3.027   5.711
 1426SOL    HW2 5178   1.227   3.010   5.754
 1427SOL     OW 5179   0.048   6.869   2.950
 1427SOL    HW1 5180   0.025   6.805   2.876
 1427SOL    HW2 5181   0.114   6.827   3.011
 1428SOL     OW 5182   5.445   2.410   0.900
 1428SOL    HW1 5183   5.455   2.411   0.801
 1428SOL    HW2 5184   5.453   2.316   0.934
 1429SOL     OW 5185   6.338   2.143   0.360
 1429SOL    HW1 5186   6.341   2.158   0.459
 1429SOL    HW2 5187   6.330   2.231   0.313
 1430SOL     OW 5188   1.498   3.870   4.244
 1430SOL    HW1 5189   1.407   3.912   4.241
 1430SOL    HW2 5190   1.500   3.800   4.315
 1431SOL     OW 5191   2.433   1.830   1.449
 1431SOL    HW1 5192   2.518   1.830   1.502
 1431SOL    HW2 5193   2.432   1.752   1.387
 1432SOL     OW 5194   2.449   1.477   3.831
 1432SOL    HW1 5195   2.492   1.524   3.908
 1432SOL    HW2 5196   2.390   1.404   3.865
 1433SOL     OW 5197   4.493   1.438   4.582
 1433SOL    HW1 5198   4.424   1.435   4.510
 1433SOL    HW2 5199   4.468   1.507   4.650
 1434SOL     OW 5200   6.868   0.947   5.132
 1434SOL    HW1 5201   6.778   0.966   5.092
 1434SOL    HW2 5202   6.927   1.027   5.121
 1435SOL     OW 5203   5.990   1.143   2.360
 1435SOL    HW1 5204   6.039   1.230   2.366
 1435SOL    HW2 5205   6.047   1.070   2.401
 1436SOL     OW 5206   5.058   4.186   6.848
 1436SOL    HW1 5207   5.078   4.213   6.753
 1436SOL    HW2 5208   5.062   4.086   6.855
 1437SOL     OW 5209   2.343   2.310   4.091
 1437SOL    HW1 5210   2.309   2.257   4.013
 1437SOL    HW2 5211   2.300   2.400   4.091
 1438SOL     OW 5212   3.458   6.352   1.236
 1438SOL    HW1 5213   3.487   6.421   1.169
 1438SOL    HW2 5214   3.531   6.337   1.301
 1439SOL     OW 5215   6.983   6.044   2.150
 1439SOL    HW1 5216   0.049   6.029   2.186
 1439SOL    HW2 5217   6.959   5.970   2.088
 1440SOL     OW 5218   3.170   3.718   1.626
 1440SOL    HW1 5219   3.078   3.747   1.653
 1440SOL    HW2 5220   3.195   3.637   1.679
 1441SOL     OW 5221   6.348   1.159   2.039
 1441SOL    HW1 5222   6.433   1.122   2.001
 1441SOL    HW2 5223   6.295   1.084   2.080
 1442SOL     OW 5224   6.674   6.343   6.861
 1442SOL    HW1 5225   6.661   6.435   6.897
 1442SOL    HW2 5226   6.669   6.345   6.761
 1443SOL     OW 5227   0.582   2.778   2.428
 1443SOL    HW1 5228   0.558   2.821   2.341
 1443SOL    HW2 5229   0.569   2.844   2.502
 1444SOL     OW 5230   5.086   7.006   0.720
 1444SOL    HW1 5231   5.109   6.910   0.737
 1444SOL    HW2 5232   5.013   0.007   0.782
 1445SOL     OW 5233   0.781   3.329   2.962
 1445SOL    HW1 5234   0.798   3.283   2.874
 1445SOL    HW2 5235   0.685   3.357   2.967
 1446SOL     OW 5236   6.803   0.482   0.176
 1446SOL    HW1 5237   6.832   0.555   0.113
 1446SOL    HW2 5238   6.704   0.470   0.169
 1447SOL     OW 5239   5.701   5.190   3.153
 1447SOL    HW1 5240   5.609   5.227   3.162
 1447SOL    HW2 5241   5.700   5.115   3.087
 1448SOL     OW 5242   6.938   2.812   4.725
 1448SOL    HW1 5243   7.017   2.758   4.753
 1448SOL    HW2 5244   6.854   2.762   4.745
 1449SOL     OW 5245   1.535   4.034   5.629
 1449SOL    HW1 5246   1.446   4.076   5.650
 1449SOL    HW2 5247   1.526   3.976   5.548
 1450SOL     OW 5248   0.775   2.725   6.039
 1450SOL    HW1 5249   0.676   2.722   6.029
 1450SOL    HW2 5250   0.802   2.679   6.124
 1451SOL     OW 5251   1.119   6.086   2.052
 1451SOL    HW1 5252   1.066   6.013   2.008
 1451SOL    HW2 5253   1.206   6.049   2.083
 1452SOL     OW 5254   4.675   2.312   5.424
 1452SOL    HW1 5255   4.612   2.345   5.354
 1452SOL    HW2 5256   4.629   2.310   5.513
 1453SOL     OW 5257   0.600   4.607   5.374
 1453SOL    HW1 5258   0.576   4.540   5.444
 1453SOL    HW2 5259   0.694   4.590   5.342
 1454SOL     OW 5260   2.245   2.119   3.028
 1454SOL    HW1 5261   2.256   2.028   2.988
 1454SOL    HW2 5262   2.309   2.183   2.985
 1455SOL     OW 5263   1.735   6.257   2.735
 1455SOL    HW1 5264   1.655   6.238   2.677
 1455SOL    HW2 5265   1.726   6.207   2.821
 1456SOL     OW 5266   6.589   6.287   6.394
 1456SOL    HW1 5267   6.639   6.319   6.474
 1456SOL    HW2 5268   6.645   6.221   6.344
 1457SOL     OW 5269   0.128   4.347   0.726
 1457SOL    HW1 5270   0.029   4.345   0.736
 1457SOL    HW2 5271   0.171   4.299   0.803
 1458SOL     OW 5272   5.473   4.853   5.511
 1458SOL    HW1 5273   5.464   4.803   5.425
 1458SOL    HW2 5274   5.448   4.794   5.588
 1459SOL     OW 5275   4.354   6.604   6.066
 1459SOL    HW1 5276   4.268   6.643   6.098
 1459SOL    HW2 5277   4.394   6.547   6.138
 1460SOL     OW 5278   1.538   6.645   4.816
 1460SOL    HW1 5279   1.600   6.678   4.887
 1460SOL    HW2 5280   1.585   6.581   4.756
 1461SOL     OW 5281   0.344   3.528   3.216
 1461SOL    HW1 5282   0.281   3.479   3.278
 1461SOL    HW2 5283   0.316   3.624   3.210
 1462SOL     OW 5284   0.876   1.051   6.763
 1462SOL    HW1 5285   0.948   0.995   6.805
 1462SOL    HW2 5286   0.791   1.039   6.813
 1463SOL     OW 5287   1.304   4.984   5.923
 1463SOL    HW1 5288   1.353   4.928   5.856
 1463SOL    HW2 5289   1.330   4.957   6.016
 1464SOL     OW 5290   6.875   4.044   3.480
 1464SOL    HW1 5291   6.863   4.056   3.579
 1464SOL    HW2 5292   6.797   4.084   3.432
 1465SOL     OW 5293   1.651   1.963   3.716
 1465SOL    HW1 5294   1.678   2.059   3.720
 1465SOL    HW2 5295   1.710   1.909   3.775
 1466SOL     OW 5296   3.934   2.127   1.965
 1466SOL    HW1 5297   3.911   2.063   1.892
 1466SOL    HW2 5298   3.851   2.170   1.999
 1467SOL     OW 5299   1.781   1.296   4.192
 1467SOL    HW1 5300   1.685   1.281   4.168
 1467SOL    HW2 5301   1.818   1.368   4.133
 1468SOL     OW 5302   2.139   5.321   1.583
 1468SOL    HW1 5303   2.046   5.336   1.550
 1468SOL    HW2 5304   2.155   5.223   1.596
 1469SOL     OW 5305   0.035   6.251   3.031
 1469SOL    HW1 5306   0.001   6.343   3.012
 1469SOL    HW2 5307   0.040   6.199   2.946
 1470SOL     OW 5308   6.809   2.843   1.189
 1470SOL    HW1 5309   6.735   2.902   1.220
 1470SOL    HW2 5310   6.817   2.849   1.089
 1471SOL     OW 5311   0.558   0.154   0.600
 1471SOL    HW1 5312   0.587   0.114   0.513
 1471SOL    HW2 5313   0.522   0.246   0.585
 1472SOL     OW 5314   2.300   6.446   6.556
 1472SOL    HW1 5315   2.384   6.411   6.515
 1472SOL    HW2 5316   2.322   6.495   6.641
 1473SOL     OW 5317   3.139   5.263   4.606
 1473SOL    HW1 5318   3.144   5.275   4.705
 1473SOL    HW2 5319   3.221   5.302   4.564
 1474SOL     OW 5320   3.933   5.075   1.646
 1474SOL    HW1 5321   3.952   5.115   1.556
 1474SOL    HW2 5322   3.923   5.149   1.714
 1475SOL     OW 5323   5.186   1.426   0.222
 1475SOL    HW1 5324   5.256   1.490   0.254
 1475SOL    HW2 5325   5.226   1.336   0.208
 1476SOL     OW 5326   3.060   1.177   1.603
 1476SOL    HW1 5327   3.146   1.221   1.631
 1476SOL    HW2 5328   3.013   1.236   1.537
 1477SOL     OW 5329   4.296   0.066   0.274
 1477SOL    HW1 5330   4.360   7.026   0.312
 1477SOL    HW2 5331   4.256   0.120   0.348
 1478SOL     OW 5332   5.922   6.613   5.320
 1478SOL    HW1 5333   5.947   6.578   5.410
 1478SOL    HW2 5334   5.997   6.600   5.256
 1479SOL     OW 5335   3.546   3.694   2.146
 1479SOL    HW1 5336   3.572   3.790   2.157
 1479SOL    HW2 5337   3.498   3.683   2.059
 1480SOL     OW 5338   2.305   6.932   6.527
 1480SOL    HW1 5339   2.265   6.991   6.457
 1480SOL    HW2 5340   2.343   6.850   6.483
 1481SOL     OW 5341   5.754   2.270   5.607
 1481SOL    HW1 5342   5.699   2.264   5.691
 1481SOL    HW2 5343   5.695   2.298   5.531
 1482SOL     OW 5344   4.358   0.294   0.880
 1482SOL    HW1 5345   4.390   0.299   0.785
 1482SOL    HW2 5346   4.281   0.356   0.892
 1483SOL     OW 5347   4.825   1.732   5.454
 1483SOL    HW1 5348   4.913   1.687   5.471
 1483SOL    HW2 5349   4.826   1.774   5.364
 1484SOL     OW 5350   3.464   5.183   4.183
 1484SOL    HW1 5351   3.377   5.208   4.225
 1484SOL    HW2 5352   3.492   5.253   4.118
 1485SOL     OW 5353   5.000   0.948   3.545
 1485SOL    HW1 5354   4.953   0.998   3.617
 1485SOL    HW2 5355   4.936   0.927   3.471
 1486SOL     OW 5356   4.653   6.511   3.687
 1486SOL    HW1 5357   4.668   6.542   3.593
 1486SOL    HW2 5358   4.559   6.478   3.697
 1487SOL     OW 5359   0.420   0.753   0.047
 1487SOL    HW1 5360   0.348   0.701   0.092
 1487SOL    HW2 5361   0.395   0.850   0.044
 1488SOL     OW 5362   5.960   0.895   2.701
 1488SOL    HW1 5363   5.991   0.830   2.770
 1488SOL    HW2 5364   5.903   0.849   2.634
 1489SOL     OW 5365   3.512   4.756   6.912
 1489SOL    HW1 5366   3.471   4.750   6.820
 1489SOL    HW2 5367   3.595   4.812   6.907
 1490SOL     OW 5368   0.153   2.974   1.440
 1490SOL    HW1 5369   0.087   2.900   1.449
 1490SOL    HW2 5370   0.159   3.024   1.526
 1491SOL     OW 5371   6.631   3.865   2.435
 1491SOL    HW1 5372   6.612   3.767   2.440
 1491SOL    HW2 5373   6.591   3.911   2.514
 1492SOL     OW 5374   6.746   0.440   2.618
 1492SOL    HW1 5375   6.739   0.540   2.622
 1492SOL    HW2 5376   6.724   0.409   2.526
 1493SOL     OW 5377   4.048   1.104   6.291
 1493SOL    HW1 5378   4.012   1.113   6.198
 1493SOL    HW2 5379   3.981   1.137   6.357
 1494SOL     OW 5380   5.691   2.152   6.815
 1494SOL    HW1 5381   5.595   2.153   6.785
 1494SOL    HW2 5382   5.750   2.141   6.735
 1495SOL     OW 5383   6.354   3.434   3.421
 1495SOL    HW1 5384   6.361   3.529   3.453
 1495SOL    HW2 5385   6.261   3.418   3.387
 1496SOL     OW 5386   0.357   0.248   0.035
 1496SOL    HW1 5387   0.426   0.176   0.031
 1496SOL    HW2 5388   0.323   0.256   0.129
 1497SOL     OW 5389   5.036   2.801   2.659
 1497SOL    HW1 5390   4.942   2.825   2.683
 1497SOL    HW2 5391   5.098   2.831   2.732
 1498SOL     OW 5392   2.594   4.608   1.267
 1498SOL    HW1 5393   2.632   4.689   1.313
 1498SOL    HW2 5394   2.586   4.533   1.332
 1499SOL     OW 5395   0.569   3.790   5.747
 1499SOL    HW1 5396   0.652   3.783   5.802
 1499SOL    HW2 5397   0.495   3.737   5.790
 1500SOL     OW 5398   1.166   6.010   7.003
 1500SOL    HW1 5399   1.082   5.967   0.010
 1500SOL    HW2 5400   1.181   6.096   0.025
 1501SOL     OW 5401   6.408   1.631   6.725
 1501SOL    HW1 5402   6.434   1.721   6.760
 1501SOL    HW2 5403   6.392   1.638   6.626
 1502SOL     OW 5404   6.146   1.441   6.035
 1502SOL    HW1 5405   6.138   1.540   6.023
 1502SOL    HW2 5406   6.078   1.395   5.979
 1503SOL     OW 5407   0.834   3.221   2.722
 1503SOL    HW1 5408   0.765   3.149   2.731
 1503SOL    HW2 5409   0.919   3.182   2.687
 1504SOL     OW 5410   0.416   6.986   3.684
 1504SOL    HW1 5411   0.347   0.011   3.632
 1504SOL    HW2 5412   0.373   6.947   3.765
 1505SOL     OW 5413   5.898   6.157   5.432
 1505SOL    HW1 5414   5.840   6.083   5.397
 1505SOL    HW2 5415   5.928   6.134   5.524
 1506SOL     OW 5416   1.134   0.287   1.050
 1506SOL    HW1 5417   1.197   0.360   1.021
 1506SOL    HW2 5418   1.108   0.302   1.145
 1507SOL     OW 5419   1.119   1.729   4.337
 1507SOL    HW1 5420   1.192   1.725   4.406
 1507SOL    HW2 5421   1.090   1.636   4.315
 1508SOL     OW 5422   0.946   1.513   0.753
 1508SOL    HW1 5423   0.956   1.423   0.797
 1508SOL    HW2 5424   0.854   1.547   0.769
 1509SOL     OW 5425   5.310   1.345   5.221
 1509SOL    HW1 5426   5.394   1.337   5.169
 1509SOL    HW2 5427   5.232   1.348   5.158
 1510SOL     OW 5428   4.163   6.921   4.149
 1510SOL    HW1 5429   4.254   6.919   4.109
 1510SOL    HW2 5430   4.161   6.864   4.230
 1511SOL     OW 5431   3.156   4.040   4.161
 1511SOL    HW1 5432   3.248   4.001   4.163
 1511SOL    HW2 5433   3.136   4.082   4.250
 1512SOL     OW 5434   5.811   5.735   0.983
 1512SOL    HW1 5435   5.905   5.737   0.947
 1512SOL    HW2 5436   5.750   5.696   0.915
 1513SOL     OW 5437   3.393   6.859   5.489
 1513SOL    HW1 5438   3.344   6.785   5.444
 1513SOL    HW2 5439   3.409   6.835   5.585
 1514SOL     OW 5440   3.486   2.497   5.541
 1514SOL    HW1 5441   3.452   2.452   5.624
 1514SOL    HW2 5442   3.443   2.587   5.533
 1515SOL     OW 5443   6.489   1.890   2.345
 1515SOL    HW1 5444   6.588   1.891   2.363
 1515SOL    HW2 5445   6.459   1.796   2.331
 1516SOL     OW 5446   5.569   5.503   4.896
 1516SOL    HW1 5447   5.588   5.445   4.976
 1516SOL    HW2 5448   5.655   5.529   4.852
 1517SOL     OW 5449   4.022   6.882   3.561
 1517SOL    HW1 5450   4.023   6.900   3.659
 1517SOL    HW2 5451   3.951   6.939   3.518
 1518SOL     OW 5452   6.316   3.100   0.244
 1518SOL    HW1 5453   6.382   3.027   0.223
 1518SOL    HW2 5454   6.318   3.169   0.171
 1519SOL     OW 5455   6.940   5.146   0.677
 1519SOL    HW1 5456   6.855   5.160   0.626
 1519SOL    HW2 5457   6.921   5.097   0.761
 1520SOL     OW 5458   0.560   4.754   1.568
 1520SOL    HW1 5459   0.591   4.817   1.496
 1520SOL    HW2 5460   0.464   4.769   1.587
 1521SOL     OW 5461   2.508   4.653   0.528
 1521SOL    HW1 5462   2.459   4.665   0.614
 1521SOL    HW2 5463   2.522   4.556   0.511
 1522SOL     OW 5464   5.150   5.755   4.470
 1522SOL    HW1 5465   5.164   5.698   4.550
 1522SOL    HW2 5466   5.233   5.756   4.414
 1523SOL     OW 5467   3.699   0.112   6.560
 1523SOL    HW1 5468   3.704   0.023   6.515
 1523SOL    HW2 5469   3.791   0.141   6.586
 1524SOL     OW 5470   2.858   2.255   2.402
 1524SOL    HW1 5471   2.787   2.286   2.339
 1524SOL    HW2 5472   2.946   2.253   2.355
 1525SOL     OW 5473   5.758   2.831   1.173
 1525SOL    HW1 5474   5.833   2.769   1.196
 1525SOL    HW2 5475   5.777   2.922   1.210
 1526SOL     OW 5476   0.424   1.423   0.177
 1526SOL    HW1 5477   0.483   1.466   0.109
 1526SOL    HW2 5478   0.365   1.492   0.218
 1527SOL     OW 5479   3.839   1.148   4.670
 1527SOL    HW1 5480   3.756   1.103   4.636
 1527SOL    HW2 5481   3.888   1.086   4.730
 1528SOL     OW 5482   4.407   5.076   1.097
 1528SOL    HW1 5483   4.491   5.032   1.062
 1528SOL    HW2 5484   4.432   5.153   1.155
 1529SOL     OW 5485   5.337   1.199   0.190
 1529SOL    HW1 5486   5.410   1.202   0.259
 1529SOL    HW2 5487   5.296   1.108   0.190
 1530SOL     OW 5488   3.478   0.354   1.635
 1530SOL    HW1 5489   3.512   0.284   1.698
 1530SOL    HW2 5490   3.554   0.413   1.608
 1531SOL     OW 5491   4.451   0.333   4.536
 1531SOL    HW1 5492   4.471   0.396   4.611
 1531SOL    HW2 5493   4.500   0.248   4.549
 1532SOL     OW 5494   3.444   4.664   6.076
 1532SOL    HW1 5495   3.529   4.713   6.097
 1532SOL    HW2 5496   3.445   4.635   5.980
 1533SOL     OW 5497   5.741   5.775   0.620
 1533SOL    HW1 5498   5.733   5.819   0.531
 1533SOL    HW2 5499   5.706   5.681   0.614
 1534SOL     OW 5500   3.719   5.694   0.065
 1534SOL    HW1 5501   3.703   5.750   0.146
 1534SOL    HW2 5502   3.637   5.639   0.045
 1535SOL     OW 5503   5.752   6.250   4.498
 1535SOL    HW1 5504   5.693   6.243   4.418
 1535SOL    HW2 5505   5.811   6.169   4.503
 1536SOL     OW 5506   4.370   4.757   0.295
 1536SOL    HW1 5507   4.391   4.793   0.386
 1536SOL    HW2 5508   4.285   4.705   0.299
 1537SOL     OW 5509   3.955   5.775   3.931
 1537SOL    HW1 5510   3.980   5.679   3.919
 1537SOL    HW2 5511   3.867   5.793   3.887
 1538SOL     OW 5512   3.347   1.211   6.939
 1538SOL    HW1 5513   3.382   1.281   7.002
 1538SOL    HW2 5514   3.247   1.210   6.943
 1539SOL     OW 5515   4.919   3.269   2.050
 1539SOL    HW1 5516   4.854   3.193   2.050
 1539SOL    HW2 5517   4.984   3.257   2.124
 1540SOL     OW 5518   1.358   6.914   5.073
 1540SOL    HW1 5519   1.294   6.989   5.082
 1540SOL    HW2 5520   1.438   6.944   5.021
 1541SOL     OW 5521   3.794   3.354   4.569
 1541SOL    HW1 5522   3.719   3.363   4.635
 1541SOL    HW2 5523   3.825   3.259   4.565
 1542SOL     OW 5524   6.487   6.964   2.018
 1542SOL    HW1 5525   6.500   0.036   2.006
 1542SOL    HW2 5526   6.440   6.947   2.104
 1543SOL     OW 5527   3.494   5.612   6.489
 1543SOL    HW1 5528   3.421   5.651   6.546
 1543SOL    HW2 5529   3.453   5.557   6.416
 1544SOL     OW 5530   3.581   3.665   4.013
 1544SOL    HW1 5531   3.591   3.647   4.111
 1544SOL    HW2 5532   3.671   3.673   3.971
 1545SOL     OW 5533   6.431   0.886   2.225
 1545SOL    HW1 5534   6.403   0.813   2.163
 1545SOL    HW2 5535   6.386   0.875   2.314
 1546SOL     OW 5536   5.212   6.154   6.188
 1546SOL    HW1 5537   5.232   6.223   6.257
 1546SOL    HW2 5538   5.293   6.097   6.173
 1547SOL     OW 5539   1.712   4.191   0.916
 1547SOL    HW1 5540   1.712   4.194   0.816
 1547SOL    HW2 5541   1.628   4.146   0.948
 1548SOL     OW 5542   6.553   3.728   0.536
 1548SOL    HW1 5543   6.584   3.692   0.449
 1548SOL    HW2 5544   6.453   3.734   0.536
 1549SOL     OW 5545   4.134   1.542   4.065
 1549SOL    HW1 5546   4.097   1.525   3.973
 1549SOL    HW2 5547   4.233   1.557   4.058
 1550SOL     OW 5548   3.312   3.033   1.785
 1550SOL    HW1 5549   3.333   2.936   1.783
 1550SOL    HW2 5550   3.363   3.076   1.860
 1551SOL     OW 5551   1.287   5.120   6.846
 1551SOL    HW1 5552   1.293   5.215   6.815
 1551SOL    HW2 5553   1.206   5.077   6.807
 1552SOL     OW 5554   2.475   4.755   1.054
 1552SOL    HW1 5555   2.519   4.773   0.966
 1552SOL    HW2 5556   2.535   4.698   1.110
 1553SOL     OW 5557   0.165   1.002   6.052
 1553SOL    HW1 5558   0.163   1.026   6.149
 1553SOL    HW2 5559   0.074   1.019   6.012
 1554SOL     OW 5560   2.900   2.086   3.868
 1554SOL    HW1 5561   2.874   1.992   3.886
 1554SOL    HW2 5562   3.000   2.093   3.864
 1555SOL     OW 5563   5.883   2.814   6.515
 1555SOL    HW1 5564   5.878   2.867   6.599
 1555SOL    HW2 5565   5.831   2.860   6.443
 1556SOL     OW 5566   1.565   0.811   6.020
 1556SOL    HW1 5567   1.623   0.741   6.062
 1556SOL    HW2 5568   1.606   0.840   5.933
 1557SOL     OW 5569   1.922   4.022   6.048
 1557SOL    HW1 5570   1.838   3.977   6.079
 1557SOL    HW2 5571   1.959   3.973   5.969
 1558SOL     OW 5572   6.024   0.538   4.482
 1558SOL    HW1 5573   5.949   0.543   4.416
 1558SOL    HW2 5574   6.110   0.524   4.434
 1559SOL     OW 5575   1.274   3.223   6.593
 1559SOL    HW1 5576   1.289   3.243   6.496
 1559SOL    HW2 5577   1.306   3.131   6.613
 1560SOL     OW 5578   0.120   0.776   6.812
 1560SOL    HW1 5579   0.080   0.751   6.723
 1560SOL    HW2 5580   0.074   0.725   6.884
 1561SOL     OW 5581   4.666   6.230   3.210
 1561SOL    HW1 5582   4.680   6.272   3.300
 1561SOL    HW2 5583   4.605   6.151   3.219
 1562SOL     OW 5584   4.497   6.306   2.126
 1562SOL    HW1 5585   4.400   6.316   2.103
 1562SOL    HW2 5586   4.551   6.369   2.070
 1563SOL     OW 5587   3.350   0.607   5.881
 1563SOL    HW1 5588   3.429   0.635   5.826
 1563SOL    HW2 5589   3.356   0.647   5.972
 1564SOL     OW 5590   1.724   0.376   2.894
 1564SOL    HW1 5591   1.642   0.335   2.854
 1564SOL    HW2 5592   1.802   0.317   2.879
 1565SOL     OW 5593   4.847   4.271   2.524
 1565SOL    HW1 5594   4.930   4.327   2.529
 1565SOL    HW2 5595   4.868   4.184   2.481
 1566SOL     OW 5596   5.547   3.432   3.530
 1566SOL    HW1 5597   5.493   3.516   3.535
 1566SOL    HW2 5598   5.577   3.417   3.436
 1567SOL     OW 5599   6.003   6.225   0.102
 1567SOL    HW1 5600   5.941   6.301   0.122
 1567SOL    HW2 5601   6.088   6.260   0.064
 1568SOL     OW 5602   1.690   0.599   0.396
 1568SOL    HW1 5603   1.635   0.517   0.410
 1568SOL    HW2 5604   1.728   0.599   0.304
 1569SOL     OW 5605   4.681   5.976   3.779
 1569SOL    HW1 5606   4.599   6.034   3.773
 1569SOL    HW2 5607   4.654   5.880   3.783
 1570SOL     OW 5608   2.488   1.173   1.349
 1570SOL    HW1 5609   2.487   1.195   1.446
 1570SOL    HW2 5610   2.561   1.224   1.304
 1571SOL     OW 5611   6.357   3.246   0.861
 1571SOL    HW1 5612   6.372   3.299   0.944
 1571SOL    HW2 5613   6.262   3.216   0.857
 1572SOL     OW 5614   0.104   0.497   2.989
 1572SOL    HW1 5615   0.016   0.477   2.946
 1572SOL    HW2 5616   0.172   0.431   2.957
 1573SOL     OW 5617   5.282   0.237   1.747
 1573SOL    HW1 5618   5.330   0.318   1.711
 1573SOL    HW2 5619   5.254   0.254   1.841
 1574SOL     OW 5620   0.682   2.401   1.060
 1574SOL    HW1 5621   0.772   2.371   1.093
 1574SOL    HW2 5622   0.670   2.371   0.966
 1575SOL     OW 5623   2.948   2.178   0.603
 1575SOL    HW1 5624   2.945   2.124   0.687
 1575SOL    HW2 5625   2.950   2.117   0.524
 1576SOL     OW 5626   5.454   5.584   3.949
 1576SOL    HW1 5627   5.387   5.560   4.019
 1576SOL    HW2 5628   5.509   5.662   3.981
 1577SOL     OW 5629   2.460   1.652   5.431
 1577SOL    HW1 5630   2.518   1.608   5.499
 1577SOL    HW2 5631   2.371   1.608   5.430
 1578SOL     OW 5632   5.841   3.109   5.517
 1578SOL    HW1 5633   5.882   3.200   5.516
 1578SOL    HW2 5634   5.759   3.110   5.575
 1579SOL     OW 5635   0.282   1.388   3.366
 1579SOL    HW1 5636   0.314   1.311   3.311
 1579SOL    HW2 5637   0.335   1.394   3.451
 1580SOL     OW 5638   2.674   4.104   5.350
 1580SOL    HW1 5639   2.595   4.084   5.292
 1580SOL    HW2 5640   2.742   4.031   5.340
 1581SOL     OW 5641   6.067   4.845   4.295
 1581SOL    HW1 5642   6.140   4.835   4.227
 1581SOL    HW2 5643   6.086   4.787   4.374
 1582SOL     OW 5644   0.884   5.001   4.770
 1582SOL    HW1 5645   0.869   4.972   4.676
 1582SOL    HW2 5646   0.811   4.965   4.828
 1583SOL     OW 5647   2.161   2.752   3.773
 1583SOL    HW1 5648   2.188   2.657   3.763
 1583SOL    HW2 5649   2.195   2.788   3.859
 1584SOL     OW 5650   2.413   6.401   5.171
 1584SOL    HW1 5651   2.480   6.460   5.215
 1584SOL    HW2 5652   2.334   6.390   5.232
 1585SOL     OW 5653   5.231   2.197   3.472
 1585SOL    HW1 5654   5.229   2.103   3.439
 1585SOL    HW2 5655   5.284   2.254   3.410
 1586SOL     OW 5656   4.102   3.864   1.934
 1586SOL    HW1 5657   4.148   3.778   1.916
 1586SOL    HW2 5658   4.158   3.920   1.995
 1587SOL     OW 5659   2.648   5.808   6.509
 1587SOL    HW1 5660   2.708   5.879   6.546
 1587SOL    HW2 5661   2.608   5.840   6.424
 1588SOL     OW 5662   4.983   1.380   2.978
 1588SOL    HW1 5663   5.056   1.311   2.983
 1588SOL    HW2 5664   4.911   1.357   3.044
 1589SOL     OW 5665   5.544   3.701   3.477
 1589SOL    HW1 5666   5.641   3.685   3.460
 1589SOL    HW2 5667   5.530   3.794   3.512
 1590SOL     OW 5668   1.746   6.498   6.928
 1590SOL    HW1 5669   1.823   6.561   6.922
 1590SOL    HW2 5670   1.760   6.421   6.866
 1591SOL     OW 5671   1.003   4.688   2.385
 1591SOL    HW1 5672   0.931   4.622   2.406
 1591SOL    HW2 5673   1.038   4.728   2.470
 1592SOL     OW 5674   3.238   3.162   1.528
 1592SOL    HW1 5675   3.260   3.127   1.619
 1592SOL    HW2 5676   3.323   3.184   1.479
 1593SOL     OW 5677   1.059   6.250   5.267
 1593SOL    HW1 5678   1.100   6.181   5.327
 1593SOL    HW2 5679   1.131   6.299   5.219
 1594SOL     OW 5680   0.079   5.152   3.157
 1594SOL    HW1 5681   0.108   5.141   3.062
 1594SOL    HW2 5682   0.141   5.100   3.216
 1595SOL     OW 5683   0.293   4.830   6.827
 1595SOL    HW1 5684   0.237   4.806   6.747
 1595SOL    HW2 5685   0.366   4.892   6.799
 1596SOL     OW 5686   1.558   4.247   5.460
 1596SOL    HW1 5687   1.597   4.207   5.377
 1596SOL    HW2 5688   1.615   4.223   5.539
 1597SOL     OW 5689   2.242   6.108   1.075
 1597SOL    HW1 5690   2.161   6.123   1.019
 1597SOL    HW2 5691   2.219   6.120   1.171
 1598SOL     OW 5692   1.206   4.137   0.387
 1598SOL    HW1 5693   1.121   4.164   0.433
 1598SOL    HW2 5694   1.185   4.092   0.301
 1599SOL     OW 5695   4.039   4.223   6.606
 1599SOL    HW1 5696   3.998   4.151   6.549
 1599SOL    HW2 5697   3.978   4.244   6.682
 1600SOL     OW 5698   5.365   1.709   5.158
 1600SOL    HW1 5699   5.292   1.766   5.122
 1600SOL    HW2 5700   5.327   1.643   5.223
 1601SOL     OW 5701   2.044   4.548   4.437
 1601SOL    HW1 5702   2.029   4.505   4.527
 1601SOL    HW2 5703   2.112   4.495   4.387
 1602SOL     OW 5704   1.583   5.845   3.389
 1602SOL    HW1 5705   1.580   5.758   3.436
 1602SOL    HW2 5706   1.658   5.845   3.322
 1603SOL     OW 5707   1.299   6.456   1.705
 1603SOL    HW1 5708   1.246   6.533   1.741
 1603SOL    HW2 5709   1.338   6.403   1.781
 1604SOL     OW 5710   5.932   5.375   6.762
 1604SOL    HW1 5711   5.946   5.299   6.699
 1604SOL    HW2 5712   6.020   5.412   6.790
 1605SOL     OW 5713   6.616   0.384   2.863
 1605SOL    HW1 5714   6.640   0.301   2.914
 1605SOL    HW2 5715   6.670   0.388   2.779
 1606SOL     OW 5716   4.538   0.050   5.666
 1606SOL    HW1 5717   4.595   0.078   5.743
 1606SOL    HW2 5718   4.460   0.111   5.658
 1607SOL     OW 5719   4.218   2.573   0.623
 1607SOL    HW1 5720   4.192   2.514   0.699
 1607SOL    HW2 5721   4.208   2.524   0.537
 1608SOL     OW 5722   2.008   6.983   6.642
 1608SOL    HW1 5723   1.978   6.940   6.557
 1608SOL    HW2 5724   2.063   6.917   6.694
 1609SOL     OW 5725   6.556   2.491   6.464
 1609SOL    HW1 5726   6.649   2.477   6.430
 1609SOL    HW2 5727   6.508   2.404   6.469
 1610SOL     OW 5728   5.387   4.813   5.010
 1610SOL    HW1 5729   5.347   4.902   4.993
 1610SOL    HW2 5730   5.337   4.743   4.957
 1611SOL     OW 5731   3.668   3.034   2.107
 1611SOL    HW1 5732   3.751   3.053   2.055
 1611SOL    HW2 5733   3.615   2.962   2.061
 1612SOL     OW 5734   2.289   1.944   5.273
 1612SOL    HW1 5735   2.202   1.991   5.259
 1612SOL    HW2 5736   2.348   1.999   5.332
 1613SOL     OW 5737   2.032   6.356   0.800
 1613SOL    HW1 5738   2.111   6.329   0.746
 1613SOL    HW2 5739   1.948   6.330   0.752
 1614SOL     OW 5740   6.692   2.794   6.949
 1614SOL    HW1 5741   6.738   2.810   6.861
 1614SOL    HW2 5742   6.681   2.695   6.963
 1615SOL     OW 5743   7.013   4.486   6.928
 1615SOL    HW1 5744   6.992   4.505   6.832
 1615SOL    HW2 5745   6.952   4.539   6.987
 1616SOL     OW 5746   4.622   2.261   6.307
 1616SOL    HW1 5747   4.591   2.354   6.288
 1616SOL    HW2 5748   4.554   2.196   6.274
 1617SOL     OW 5749   6.439   1.024   2.636
 1617SOL    HW1 5750   6.475   1.095   2.576
 1617SOL    HW2 5751   6.514   0.980   2.686
 1618SOL     OW 5752   6.922   3.447   1.577
 1618SOL    HW1 5753   6.946   3.475   1.484
 1618SOL    HW2 5754   6.895   3.528   1.629
 1619SOL     OW 5755   0.553   3.528   4.080
 1619SOL    HW1 5756   0.652   3.515   4.079
 1619SOL    HW2 5757   0.532   3.624   4.095
 1620SOL     OW 5758   1.592   6.115   0.859
 1620SOL    HW1 5759   1.518   6.177   0.886
 1620SOL    HW2 5760   1.655   6.103   0.936
 1621SOL     OW 5761   0.769   0.556   7.020
 1621SOL    HW1 5762   0.734   0.566   0.086
 1621SOL    HW2 5763   0.737   0.632   6.963
 1622SOL     OW 5764   1.623   2.337   4.281
 1622SOL    HW1 5765   1.566   2.415   4.306
 1622SOL    HW2 5766   1.669   2.355   4.195
 1623SOL     OW 5767   2.474   3.237   6.424
 1623SOL    HW1 5768   2.442   3.217   6.331
 1623SOL    HW2 5769   2.401   3.216   6.489
 1624SOL     OW 5770   2.987   0.669   6.268
 1624SOL    HW1 5771   2.898   0.688   6.226
 1624SOL    HW2 5772   3.059   0.692   6.202
 1625SOL     OW 5773   0.748   4.717   2.122
 1625SOL    HW1 5774   0.762   4.673   2.033
 1625SOL    HW2 5775   0.717   4.650   2.188
 1626SOL     OW 5776   2.573   3.032   6.847
 1626SOL    HW1 5777   2.482   2.991   6.841
 1626SOL    HW2 5778   2.632   2.975   6.904
 1627SOL     OW 5779   6.196   2.078   3.912
 1627SOL    HW1 5780   6.153   2.157   3.955
 1627SOL    HW2 5781   6.220   2.100   3.818
 1628SOL     OW 5782   3.213   5.058   1.079
 1628SOL    HW1 5783   3.119   5.074   1.109
 1628SOL    HW2 5784   3.246   4.972   1.119
 1629SOL     OW 5785   3.169   2.160   4.678
 1629SOL    HW1 5786   3.204   2.209   4.599
 1629SOL    HW2 5787   3.243   2.145   4.744
 1630SOL     OW 5788   0.535   5.314   5.356
 1630SOL    HW1 5789   0.482   5.329   5.272
 1630SOL    HW2 5790   0.560   5.402   5.395
 1631SOL     OW 5791   6.865   0.432   5.657
 1631SOL    HW1 5792   6.964   0.421   5.665
 1631SOL    HW2 5793   6.823   0.415   5.746
 1632SOL     OW 5794   0.664   1.045   6.907
 1632SOL    HW1 5795   0.686   1.031   7.003
 1632SOL    HW2 5796   0.630   1.138   6.894
 1633SOL     OW 5797   5.739   2.459   2.881
 1633SOL    HW1 5798   5.728   2.361   2.892
 1633SOL    HW2 5799   5.650   2.501   2.863
 1634SOL     OW 5800   3.502   5.438   6.740
 1634SOL    HW1 5801   3.421   5.411   6.687
 1634SOL    HW2 5802   3.548   5.514   6.694
 1635SOL     OW 5803   6.790   5.488   4.547
 1635SOL    HW1 5804   6.869   5.455   4.495
 1635SOL    HW2 5805   6.754   5.413   4.603
 1636SOL     OW 5806   2.611   5.084   1.397
 1636SOL    HW1 5807   2.615   5.082   1.497
 1636SOL    HW2 5808   2.535   5.026   1.366
 1637SOL     OW 5809   0.183   2.822   2.498
 1637SOL    HW1 5810   0.156   2.915   2.522
 1637SOL    HW2 5811   0.234   2.823   2.413
 1638SOL     OW 5812   0.053   3.140   3.831
 1638SOL    HW1 5813   7.025   3.158   3.913
 1638SOL    HW2 5814   7.026   3.086   3.767
 1639SOL     OW 5815   5.317   5.435   2.812
 1639SOL    HW1 5816   5.365   5.512   2.854
 1639SOL    HW2 5817   5.237   5.412   2.867
 1640SOL     OW 5818   5.885   1.891   0.623
 1640SOL    HW1 5819   5.802   1.873   0.570
 1640SOL    HW2 5820   5.862   1.941   0.706
 1641SOL     OW 5821   5.428   2.700   3.696
 1641SOL    HW1 5822   5.525   2.722   3.708
 1641SOL    HW2 5823   5.381   2.711   3.784
 1642SOL     OW 5824   6.559   2.943   0.123
 1642SOL    HW1 5825   6.583   2.874   0.191
 1642SOL    HW2 5826   6.588   2.912   0.032
 1643SOL     OW 5827   3.941   6.494   5.109
 1643SOL    HW1 5828   3.904   6.571   5.057
 1643SOL    HW2 5829   3.971   6.422   5.045
 1644SOL     OW 5830   3.522   1.557   1.523
 1644SOL    HW1 5831   3.476   1.614   1.455
 1644SOL    HW2 5832   3.525   1.606   1.610
 1645SOL     OW 5833   2.887   6.099   5.880
 1645SOL    HW1 5834   2.872   6.029   5.950
 1645SOL    HW2 5835   2.946   6.062   5.808
 1646SOL     OW 5836   2.415   5.240   1.212
 1646SOL    HW1 5837   2.353   5.165   1.187
 1646SOL    HW2 5838   2.473   5.210   1.288
 1647SOL     OW 5839   5.816   2.331   3.303
 1647SOL    HW1 5840   5.904   2.364   3.339
 1647SOL    HW2 5841   5.784   2.393   3.231
 1648SOL     OW 5842   5.296   6.987   1.976
 1648SOL    HW1 5843   5.382   6.953   2.013
 1648SOL    HW2 5844   5.295   6.974   1.877
 1649SOL     OW 5845   3.093   0.741   2.899
 1649SOL    HW1 5846   3.039   0.722   2.818
 1649SOL    HW2 5847   3.161   0.668   2.912
 1650SOL     OW 5848   2.629   0.302   3.909
 1650SOL    HW1 5849   2.683   0.236   3.857
 1650SOL    HW2 5850   2.580   0.254   3.982
 1651SOL     OW 5851   0.253   0.333   0.329
 1651SOL    HW1 5852   0.185   0.381   0.385
 1651SOL    HW2 5853   0.341   0.334   0.377
 1652SOL     OW 5854   2.897   2.048   0.844
 1652SOL    HW1 5855   2.803   2.030   0.817
 1652SOL    HW2 5856   2.945   1.962   0.860
 1653SOL     OW 5857   6.718   5.631   1.054
 1653SOL    HW1 5858   6.666   5.606   1.136
 1653SOL    HW2 5859   6.678   5.586   0.974
 1654SOL     OW 5860   6.590   3.256   3.060
 1654SOL    HW1 5861   6.567   3.184   2.995
 1654SOL    HW2 5862   6.522   3.258   3.133
 1655SOL     OW 5863   5.565   4.623   5.864
 1655SOL    HW1 5864   5.576   4.708   5.916
 1655SOL    HW2 5865   5.653   4.598   5.823
 1656SOL     OW 5866   1.270   4.599   3.543
 1656SOL    HW1 5867   1.219   4.584   3.459
 1656SOL    HW2 5868   1.368   4.590   3.524
 1657SOL     OW 5869   1.568   1.083   5.770
 1657SOL    HW1 5870   1.519   1.026   5.704
 1657SOL    HW2 5871   1.665   1.059   5.769
 1658SOL     OW 5872   5.932   6.244   3.099
 1658SOL    HW1 5873   5.936   6.335   3.142
 1658SOL    HW2 5874   5.848   6.198   3.127
 1659SOL     OW 5875   3.649   2.136   6.609
 1659SOL    HW1 5876   3.633   2.076   6.688
 1659SOL    HW2 5877   3.746   2.137   6.586
 1660SOL     OW 5878   0.570   5.686   3.383
 1660SOL    HW1 5879   0.534   5.602   3.343
 1660SOL    HW2 5880   0.632   5.664   3.458
 1661SOL     OW 5881   3.572   1.696   2.655
 1661SOL    HW1 5882   3.515   1.750   2.594
 1661SOL    HW2 5883   3.553   1.721   2.750
 1662SOL     OW 5884   6.549   2.150   3.309
 1662SOL    HW1 5885   6.508   2.061   3.290
 1662SOL    HW2 5886   6.638   2.156   3.264
 1663SOL     OW 5887   3.062   6.647   3.245
 1663SOL    HW1 5888   2.987   6.684   3.300
 1663SOL    HW2 5889   3.143   6.635   3.302
 1664SOL     OW 5890   1.630   0.439   4.329
 1664SOL    HW1 5891   1.717   0.485   4.316
 1664SOL    HW2 5892   1.629   0.394   4.418
 1665SOL     OW 5893   1.164   1.677   2.561
 1665SOL    HW1 5894   1.260   1.697   2.583
 1665SOL    HW2 5895   1.128   1.611   2.626
 1666SOL     OW 5896   5.981   2.464   6.397
 1666SOL    HW1 5897   5.968   2.541   6.335
 1666SOL    HW2 5898   6.051   2.403   6.360
 1667SOL     OW 5899   6.027   6.566   6.746
 1667SOL    HW1 5900   6.095   6.633   6.775
 1667SOL    HW2 5901   6.008   6.578   6.649
 1668SOL     OW 5902   4.607   0.114   4.623
 1668SOL    HW1 5903   4.685   0.094   4.683
 1668SOL    HW2 5904   4.567   0.028   4.591
 1669SOL     OW 5905   5.694   6.333   6.917
 1669SOL    HW1 5906   5.687   6.432   6.921
 1669SOL    HW2 5907   5.723   6.305   6.825
 1670SOL     OW 5908   6.100   5.028   5.821
 1670SOL    HW1 5909   6.088   4.933   5.849
 1670SOL    HW2 5910   6.187   5.063   5.856
 1671SOL     OW 5911   4.407   3.427   0.912
 1671SOL    HW1 5912   4.505   3.447   0.911
 1671SOL    HW2 5913   4.384   3.376   0.994
 1672SOL     OW 5914   2.192   3.979   2.711
 1672SOL    HW1 5915   2.187   3.879   2.707
 1672SOL    HW2 5916   2.283   4.008   2.682
 1673SOL     OW 5917   6.255   3.220   5.012
 1673SOL    HW1 5918   6.341   3.173   5.033
 1673SOL    HW2 5919   6.274   3.299   4.953
 1674SOL     OW 5920   1.327   4.168   0.673
 1674SOL    HW1 5921   1.292   4.136   0.585
 1674SOL    HW2 5922   1.357   4.090   0.728
 1675SOL     OW 5923   4.793   0.965   6.884
 1675SOL    HW1 5924   4.868   0.962   6.818
 1675SOL    HW2 5925   4.744   0.878   6.884
 1676SOL     OW 5926   2.494   1.529   2.652
 1676SOL    HW1 5927   2.472   1.608   2.595
 1676SOL    HW2 5928   2.480   1.551   2.748
 1677SOL     OW 5929   5.879   1.803   5.596
 1677SOL    HW1 5930   5.795   1.783   5.545
 1677SOL    HW2 5931   5.885   1.901   5.613
 1678SOL     OW 5932   5.479   5.556   2.621
 1678SOL    HW1 5933   5.443   5.486   2.682
 1678SOL    HW2 5934   5.473   5.645   2.665
 1679SOL     OW 5935   0.991   3.255   5.521
 1679SOL    HW1 5936   1.043   3.331   5.481
 1679SOL    HW2 5937   0.940   3.288   5.601
 1680SOL     OW 5938   0.734   1.378   4.065
 1680SOL    HW1 5939   0.757   1.331   4.151
 1680SOL    HW2 5940   0.761   1.474   4.071
 1681SOL     OW 5941   6.219   5.321   0.936
 1681SOL    HW1 5942   6.185   5.372   1.016
 1681SOL    HW2 5943   6.201   5.373   0.853
 1682SOL     OW 5944   0.115   3.179   4.905
 1682SOL    HW1 5945   0.165   3.122   4.840
 1682SOL    HW2 5946   0.019   3.185   4.878
 1683SOL     OW 5947   4.482   5.285   1.298
 1683SOL    HW1 5948   4.548   5.347   1.255
 1683SOL    HW2 5949   4.529   5.226   1.364
 1684SOL     OW 5950   0.525   6.762   4.807
 1684SOL    HW1 5951   0.568   6.791   4.722
 1684SOL    HW2 5952   0.432   6.730   4.788
 1685SOL     OW 5953   1.853   1.575   6.857
 1685SOL    HW1 5954   1.914   1.644   6.817
 1685SOL    HW2 5955   1.903   1.519   6.922
 1686SOL     OW 5956   1.442   5.563   5.008
 1686SOL    HW1 5957   1.492   5.579   4.923
 1686SOL    HW2 5958   1.506   5.555   5.084
 1687SOL     OW 5959   1.738   4.442   2.507
 1687SOL    HW1 5960   1.696   4.511   2.567
 1687SOL    HW2 5961   1.835   4.435   2.528
 1688SOL     OW 5962   1.381   1.527   3.237
 1688SOL    HW1 5963   1.332   1.595   3.183
 1688SOL    HW2 5964   1.479   1.541   3.227
 1689SOL     OW 5965   3.308   2.087   2.181
 1689SOL    HW1 5966   3.341   2.166   2.234
 1689SOL    HW2 5967   3.375   2.062   2.112
 1690SOL     OW 5968   1.897   1.739   2.170
 1690SOL    HW1 5969   1.882   1.745   2.072
 1690SOL    HW2 5970   1.825   1.790   2.218
 1691SOL     OW 5971   5.192   3.509   3.174
 1691SOL    HW1 5972   5.127   3.441   3.140
 1691SOL    HW2 5973   5.156   3.549   3.259
 1692SOL     OW 5974   0.339   0.338   1.588
 1692SOL    HW1 5975   0.416   0.387   1.630
 1692SOL    HW2 5976   0.264   0.332   1.654
 1693SOL     OW 5977   2.268   2.784   3.341
 1693SOL    HW1 5978   2.211   2.721   3.393
 1693SOL    HW2 5979   2.316   2.734   3.269
 1694SOL     OW 5980   4.188   5.586   4.935
 1694SOL    HW1 5981   4.193   5.491   4.906
 1694SOL    HW2 5982   4.266   5.608   4.994
 1695SOL     OW 5983   2.121   2.250   5.623
 1695SOL    HW1 5984   2.023   2.265   5.612
 1695SOL    HW2 5985   2.136   2.164   5.671
 1696SOL     OW 5986   4.989   5.652   0.428
 1696SOL    HW1 5987   4.938   5.655   0.342
 1696SOL    HW2 5988   5.068   5.592   0.417
 1697SOL     OW 5989   1.008   0.102   1.313
 1697SOL    HW1 5990   0.971   0.057   1.232
 1697SOL    HW2 5991   1.105   0.079   1.322
 1698SOL     OW 5992   4.889   2.030   1.694
 1698SOL    HW1 5993   4.827   1.991   1.762
 1698SOL    HW2 5994   4.835   2.081   1.626
 1699SOL     OW 5995   2.388   3.075   1.174
 1699SOL    HW1 5996   2.451   3.015   1.223
 1699SOL    HW2 5997   2.372   3.158   1.229
 1700SOL     OW 5998   6.486   2.138   2.995
 1700SOL    HW1 5999   6.430   2.056   2.989
 1700SOL    HW2 6000   6.561   2.132   2.929
 1701SOL     OW 6001   5.498   2.506   4.689
 1701SOL    HW1 6002   5.512   2.516   4.787
 1701SOL    HW2 6003   5.491   2.409   4.666
 1702SOL     OW 6004   5.945   3.583   1.299
 1702SOL    HW1 6005   5.886   3.515   1.342
 1702SOL    HW2 6006   5.981   3.646   1.369
 1703SOL     OW 6007   2.635   3.893   1.674
 1703SOL    HW1 6008   2.733   3.904   1.692
 1703SOL    HW2 6009   2.602   3.810   1.720
 1704SOL     OW 6010   0.381   1.321   0.894
 1704SOL    HW1 6011   0.443   1.244   0.881
 1704SOL    HW2 6012   0.286   1.290   0.885
 1705SOL     OW 6013   3.709   2.153   1.263
 1705SOL    HW1 6014   3.680   2.207   1.342
 1705SOL    HW2 6015   3.658   2.183   1.182
 1706SOL     OW 6016   4.041   0.531   0.630
 1706SOL    HW1 6017   4.091   0.603   0.678
 1706SOL    HW2 6018   4.090   0.444   0.640
 1707SOL     OW 6019   4.592   2.028   2.600
 1707SOL    HW1 6020   4.661   1.970   2.642
 1707SOL    HW2 6021   4.579   2.111   2.654
 1708SOL     OW 6022   6.688   6.200   2.910
 1708SOL    HW1 6023   6.706   6.182   2.813
 1708SOL    HW2 6024   6.694   6.298   2.927
 1709SOL     OW 6025   2.384   0.021   2.088
 1709SOL    HW1 6026   2.339   6.963   2.062
 1709SOL    HW2 6027   2.367   0.040   2.185
 1710SOL     OW 6028   0.359   4.242   3.455
 1710SOL    HW1 6029   0.423   4.166   3.453
 1710SOL    HW2 6030   0.271   4.212   3.492
 1711SOL     OW 6031   1.352   4.367   5.188
 1711SOL    HW1 6032   1.317   4.396   5.098
 1711SOL    HW2 6033   1.452   4.371   5.187
 1712SOL     OW 6034   0.962   4.095   0.495
 1712SOL    HW1 6035   0.984   3.998   0.503
 1712SOL    HW2 6036   0.878   4.114   0.545
 1713SOL     OW 6037   2.018   2.515   1.584
 1713SOL    HW1 6038   2.009   2.555   1.493
 1713SOL    HW2 6039   2.022   2.588   1.652
 1714SOL     OW 6040   4.173   1.773   6.491
 1714SOL    HW1 6041   4.175   1.813   6.399
 1714SOL    HW2 6042   4.266   1.767   6.527
 1715SOL     OW 6043   0.354   3.225   3.144
 1715SOL    HW1 6044   0.410   3.286   3.088
 1715SOL    HW2 6045   0.261   3.262   3.151
 1716SOL     OW 6046   6.048   0.070   1.119
 1716SOL    HW1 6047   6.118   0.129   1.079
 1716SOL    HW2 6048   6.020   0.107   1.208
 1717SOL     OW 6049   2.272   6.316   0.388
 1717SOL    HW1 6050   2.175   6.303   0.368
 1717SOL    HW2 6051   2.326   6.292   0.307
 1718SOL     OW 6052   2.172   3.607   6.922
 1718SOL    HW1 6053   2.074   3.625   6.915
 1718SOL    HW2 6054   2.220   3.691   6.947
 1719SOL     OW 6055   2.312   3.108   1.496
 1719SOL    HW1 6056   2.395   3.059   1.469
 1719SOL    HW2 6057   2.307   3.195   1.447
 1720SOL     OW 6058   6.761   1.526   0.804
 1720SOL    HW1 6059   6.735   1.622   0.805
 1720SOL    HW2 6060   6.752   1.490   0.711
 1721SOL     OW 6061   1.751   6.292   3.228
 1721SOL    HW1 6062   1.833   6.310   3.282
 1721SOL    HW2 6063   1.700   6.216   3.267
 1722SOL     OW 6064   5.830   0.372   2.316
 1722SOL    HW1 6065   5.844   0.385   2.414
 1722SOL    HW2 6066   5.887   0.437   2.265
 1723SOL     OW 6067   6.359   1.835   3.037
 1723SOL    HW1 6068   6.411   1.751   3.051
 1723SOL    HW2 6069   6.273   1.813   2.990
 1724SOL     OW 6070   5.881   1.063   0.776
 1724SOL    HW1 6071   5.798   1.092   0.728
 1724SOL    HW2 6072   5.873   0.966   0.801
 1725SOL     OW 6073   3.746   4.537   0.507
 1725SOL    HW1 6074   3.665   4.479   0.493
 1725SOL    HW2 6075   3.720   4.633   0.495
 1726SOL     OW 6076   6.547   4.677   4.419
 1726SOL    HW1 6077   6.571   4.584   4.445
 1726SOL    HW2 6078   6.454   4.698   4.450
 1727SOL     OW 6079   3.824   3.647   5.051
 1727SOL    HW1 6080   3.862   3.658   4.959
 1727SOL    HW2 6081   3.752   3.715   5.066
 1728SOL     OW 6082   4.997   4.412   4.305
 1728SOL    HW1 6083   5.009   4.418   4.404
 1728SOL    HW2 6084   5.048   4.334   4.270
 1729SOL     OW 6085   1.401   3.657   3.325
 1729SOL    HW1 6086   1.422   3.752   3.345
 1729SOL    HW2 6087   1.365   3.612   3.407
 1730SOL     OW 6088   6.540   1.330   4.798
 1730SOL    HW1 6089   6.505   1.237   4.807
 1730SOL    HW2 6090   6.621   1.331   4.740
 1731SOL     OW 6091   2.073   5.062   1.652
 1731SOL    HW1 6092   2.050   4.967   1.633
 1731SOL    HW2 6093   2.033   5.089   1.740
 1732SOL     OW 6094   1.965   4.930   0.121
 1732SOL    HW1 6095   1.974   5.024   0.155
 1732SOL    HW2 6096   2.045   4.906   0.067
 1733SOL     OW 6097   1.231   4.051   2.020
 1733SOL    HW1 6098   1.253   4.023   2.113
 1733SOL    HW2 6099   1.297   4.119   1.989
 1734SOL     OW 6100   4.399   3.322   1.159
 1734SOL    HW1 6101   4.450   3.238   1.143
 1734SOL    HW2 6102   4.328   3.305   1.228
 1735SOL     OW 6103   6.286   5.311   1.831
 1735SOL    HW1 6104   6.192   5.346   1.827
 1735SOL    HW2 6105   6.292   5.241   1.903
 1736SOL     OW 6106   4.199   3.248   6.799
 1736SOL    HW1 6107   4.146   3.279   6.879
 1736SOL    HW2 6108   4.291   3.225   6.828
 1737SOL     OW 6109   2.287   0.647   3.981
 1737SOL    HW1 6110   2.276   0.733   3.932
 1737SOL    HW2 6111   2.385   0.626   3.990
 1738SOL     OW 6112   2.163   2.745   2.483
 1738SOL    HW1 6113   2.066   2.764   2.497
 1738SOL    HW2 6114   2.198   2.801   2.408
 1739SOL     OW 6115   4.301   2.307   4.787
 1739SOL    HW1 6116   4.343   2.393   4.758
 1739SOL    HW2 6117   4.265   2.317   4.879
 1740SOL     OW 6118   0.289   1.003   6.834
 1740SOL    HW1 6119   0.311   1.018   6.931
 1740SOL    HW2 6120   0.242   0.915   6.825
 1741SOL     OW 6121   2.315   0.747   2.437
 1741SOL    HW1 6122   2.264   0.789   2.362
 1741SOL    HW2 6123   2.330   0.815   2.509
 1742SOL     OW 6124   5.153   6.655   5.352
 1742SOL    HW1 6125   5.114   6.571   5.390
 1742SOL    HW2 6126   5.093   6.732   5.373
 1743SOL     OW 6127   2.387   0.864   2.003
 1743SOL    HW1 6128   2.373   0.956   1.964
 1743SOL    HW2 6129   2.366   0.795   1.934
 1744SOL     OW 6130   2.241   0.674   1.384
 1744SOL    HW1 6131   2.288   0.731   1.451
 1744SOL    HW2 6132   2.153   0.644   1.421
 1745SOL     OW 6133   0.075   2.127   3.785
 1745SOL    HW1 6134   0.123   2.200   3.834
 1745SOL    HW2 6135   0.132   2.045   3.783
 1746SOL     OW 6136   3.044   5.998   6.286
 1746SOL    HW1 6137   3.136   5.991   6.248
 1746SOL    HW2 6138   3.048   5.991   6.386
 1747SOL     OW 6139   4.537   6.966   1.961
 1747SOL    HW1 6140   4.500   6.878   1.931
 1747SOL    HW2 6141   4.637   6.962   1.957
 1748SOL     OW 6142   6.157   1.685   3.798
 1748SOL    HW1 6143   6.114   1.623   3.733
 1748SOL    HW2 6144   6.142   1.780   3.768
 1749SOL     OW 6145   3.940   6.769   6.344
 1749SOL    HW1 6146   3.987   6.827   6.411
 1749SOL    HW2 6147   3.849   6.807   6.327
 1750SOL     OW 6148   5.407   1.196   2.919
 1750SOL    HW1 6149   5.376   1.274   2.974
 1750SOL    HW2 6150   5.382   1.210   2.823
 1751SOL     OW 6151   2.378   4.714   4.543
 1751SOL    HW1 6152   2.443   4.780   4.505
 1751SOL    HW2 6153   2.292   4.761   4.563
 1752SOL     OW 6154   6.607   2.204   0.608
 1752SOL    HW1 6155   6.581   2.300   0.610
 1752SOL    HW2 6156   6.534   2.149   0.649
 1753SOL     OW 6157   0.865   6.943   6.584
 1753SOL    HW1 6158   0.955   6.905   6.604
 1753SOL    HW2 6159   0.871   0.016   6.585
 1754SOL     OW 6160   3.475   3.915   0.768
 1754SOL    HW1 6161   3.566   3.949   0.793
 1754SOL    HW2 6162   3.414   3.922   0.848
 1755SOL     OW 6163   5.301   4.500   1.751
 1755SOL    HW1 6164   5.354   4.581   1.776
 1755SOL    HW2 6165   5.204   4.518   1.766
 1756SOL     OW 6166   5.906   4.952   3.893
 1756SOL    HW1 6167   5.880   5.048   3.904
 1756SOL    HW2 6168   5.876   4.900   3.973
 1757SOL     OW 6169   2.297   6.536   4.525
 1757SOL    HW1 6170   2.309   6.460   4.588
 1757SOL    HW2 6171   2.216   6.589   4.551
 1758SOL     OW 6172   3.151   1.577   3.486
 1758SOL    HW1 6173   3.159   1.535   3.396
 1758SOL    HW2 6174   3.147   1.677   3.476
 1759SOL     OW 6175   0.637   4.774   6.136
 1759SOL    HW1 6176   0.649   4.716   6.217
 1759SOL    HW2 6177   0.711   4.842   6.134
 1760SOL     OW 6178   6.367   1.676   1.484
 1760SOL    HW1 6179   6.376   1.776   1.482
 1760SOL    HW2 6180   6.364   1.645   1.578
 1761SOL     OW 6181   6.376   1.126   1.108
 1761SOL    HW1 6182   6.384   1.176   1.194
 1761SOL    HW2 6183   6.297   1.066   1.111
 1762SOL     OW 6184   6.116   2.035   4.968
 1762SOL    HW1 6185   6.080   1.949   5.004
 1762SOL    HW2 6186   6.212   2.045   4.995
 1763SOL     OW 6187   2.149   3.504   4.403
 1763SOL    HW1 6188   2.205   3.587   4.408
 1763SOL    HW2 6189   2.151   3.469   4.309
 1764SOL     OW 6190   2.000   3.556   3.251
 1764SOL    HW1 6191   1.905   3.525   3.245
 1764SOL    HW2 6192   2.003   3.655   3.264
 1765SOL     OW 6193   2.686   1.199   7.004
 1765SOL    HW1 6194   2.762   1.201   0.042
 1765SOL    HW2 6195   2.676   1.289   6.961
 1766SOL     OW 6196   5.454   3.202   4.895
 1766SOL    HW1 6197   5.405   3.194   4.808
 1766SOL    HW2 6198   5.486   3.111   4.923
 1767SOL     OW 6199   5.342   3.864   2.308
 1767SOL    HW1 6200   5.242   3.877   2.312
 1767SOL    HW2 6201   5.372   3.813   2.387
 1768SOL     OW 6202   4.740   7.020   4.210
 1768SOL    HW1 6203   4.742   6.931   4.257
 1768SOL    HW2 6204   4.659   0.044   4.237
 1769SOL     OW 6205   3.882   2.174   4.277
 1769SOL    HW1 6206   3.967   2.161   4.327
 1769SOL    HW2 6207   3.837   2.258   4.307
 1770SOL     OW 6208   1.901   5.535   4.762
 1770SOL    HW1 6209   1.946   5.609   4.712
 1770SOL    HW2 6210   1.938   5.447   4.731
 1771SOL     OW 6211   2.436   5.759   6.936
 1771SOL    HW1 6212   2.441   5.728   6.841
 1771SOL    HW2 6213   2.487   5.844   6.946
 1772SOL     OW 6214   3.683   0.222   3.854
 1772SOL    HW1 6215   3.752   0.150   3.862
 1772SOL    HW2 6216   3.679   0.273   3.940
 1773SOL     OW 6217   2.157   5.234   5.640
 1773SOL    HW1 6218   2.113   5.267   5.723
 1773SOL    HW2 6219   2.144   5.135   5.633
 1774SOL     OW 6220   4.183   5.388   2.013
 1774SOL    HW1 6221   4.095   5.385   2.059
 1774SOL    HW2 6222   4.251   5.340   2.068
 1775SOL     OW 6223   0.918   3.899   2.610
 1775SOL    HW1 6224   0.914   3.931   2.516
 1775SOL    HW2 6225   0.863   3.959   2.668
 1776SOL     OW 6226   3.933   6.321   4.526
 1776SOL    HW1 6227   4.017   6.280   4.562
 1776SOL    HW2 6228   3.876   6.249   4.486
 1777SOL     OW 6229   3.700   5.671   6.740
 1777SOL    HW1 6230   3.758   5.676   6.822
 1777SOL    HW2 6231   3.737   5.603   6.677
 1778SOL     OW 6232   4.679   3.314   5.690
 1778SOL    HW1 6233   4.731   3.250   5.746
 1778SOL    HW2 6234   4.703   3.407   5.716
 1779SOL     OW 6235   3.785   0.248   4.354
 1779SOL    HW1 6236   3.804   0.222   4.260
 1779SOL    HW2 6237   3.836   0.189   4.416
 1780SOL     OW 6238   3.471   2.920   0.170
 1780SOL    HW1 6239   3.554   2.865   0.162
 1780SOL    HW2 6240   3.470   2.966   0.259
 1781SOL     OW 6241   3.658   6.330   2.716
 1781SOL    HW1 6242   3.743   6.380   2.696
 1781SOL    HW2 6243   3.666   6.237   2.680
 1782SOL     OW 6244   2.834   1.935   2.992
 1782SOL    HW1 6245   2.754   1.975   3.035
 1782SOL    HW2 6246   2.889   2.007   2.950
 1783SOL     OW 6247   2.719   5.674   5.776
 1783SOL    HW1 6248   2.630   5.712   5.802
 1783SOL    HW2 6249   2.754   5.724   5.697
 1784SOL     OW 6250   4.698   0.830   6.529
 1784SOL    HW1 6251   4.654   0.767   6.464
 1784SOL    HW2 6252   4.788   0.855   6.495
 1785SOL     OW 6253   5.923   3.568   3.053
 1785SOL    HW1 6254   5.857   3.494   3.042
 1785SOL    HW2 6255   6.016   3.530   3.058
 1786SOL     OW 6256   2.069   2.974   0.021
 1786SOL    HW1 6257   2.081   2.882   7.011
 1786SOL    HW2 6258   1.985   3.014   7.011
 1787SOL     OW 6259   2.662   1.446   5.163
 1787SOL    HW1 6260   2.749   1.473   5.203
 1787SOL    HW2 6261   2.659   1.346   5.157
 1788SOL     OW 6262   2.689   4.073   6.019
 1788SOL    HW1 6263   2.719   4.164   5.989
 1788SOL    HW2 6264   2.733   4.049   6.105
 1789SOL     OW 6265   5.368   2.037   1.848
 1789SOL    HW1 6266   5.386   2.009   1.753
 1789SOL    HW2 6267   5.449   2.081   1.885
 1790SOL     OW 6268   3.827   6.216   3.624
 1790SOL    HW1 6269   3.730   6.217   3.600
 1790SOL    HW2 6270   3.837   6.224   3.723
 1791SOL     OW 6271   6.676   0.756   3.240
 1791SOL    HW1 6272   6.689   0.765   3.339
 1791SOL    HW2 6273   6.629   0.838   3.206
 1792SOL     OW 6274   6.705   3.451   4.933
 1792SOL    HW1 6275   6.699   3.537   4.882
 1792SOL    HW2 6276   6.799   3.416   4.927
 1793SOL     OW 6277   5.988   0.029   3.798
 1793SOL    HW1 6278   5.941   6.975   3.761
 1793SOL    HW2 6279   6.060   0.058   3.736
 1794SOL     OW 6280   5.475   6.232   5.480
 1794SOL    HW1 6281   5.409   6.232   5.405
 1794SOL    HW2 6282   5.457   6.155   5.541
 1795SOL     OW 6283   0.952   2.318   1.076
 1795SOL    HW1 6284   1.013   2.396   1.070
 1795SOL    HW2 6285   0.920   2.293   0.984
 1796SOL     OW 6286   2.740   0.705   5.864
 1796SOL    HW1 6287   2.708   0.632   5.925
 1796SOL    HW2 6288   2.747   0.670   5.771
 1797SOL     OW 6289   1.373   0.028   0.428
 1797SOL    HW1 6290   1.405   0.071   0.343
 1797SOL    HW2 6291   1.398   6.958   0.427
 1798SOL     OW 6292   4.515   2.511   3.817
 1798SOL    HW1 6293   4.551   2.437   3.760
 1798SOL    HW2 6294   4.583   2.534   3.887
 1799SOL     OW 6295   0.136   2.635   4.783
 1799SOL    HW1 6296   0.196   2.625   4.863
 1799SOL    HW2 6297   0.173   2.583   4.706
 1800SOL     OW 6298   4.280   4.550   1.262
 1800SOL    HW1 6299   4.350   4.571   1.330
 1800SOL    HW2 6300   4.239   4.461   1.282
 1801SOL     OW 6301   0.071   0.128   2.288
 1801SOL    HW1 6302   0.036   0.048   2.240
 1801SOL    HW2 6303   0.171   0.132   2.278
 1802SOL     OW 6304   5.060   6.006   4.605
 1802SOL    HW1 6305   5.071   5.916   4.564
 1802SOL    HW2 6306   5.120   6.071   4.558
 1803SOL     OW 6307   0.292   5.709   6.764
 1803SOL    HW1 6308   0.384   5.671   6.771
 1803SOL    HW2 6309   0.290   5.779   6.692
 1804SOL     OW 6310   2.195   4.022   5.293
 1804SOL    HW1 6311   2.171   3.926   5.301
 1804SOL    HW2 6312   2.275   4.032   5.233
 1805SOL     OW 6313   5.600   3.753   6.023
 1805SOL    HW1 6314   5.615   3.706   5.936
 1805SOL    HW2 6315   5.670   3.726   6.088
 1806SOL     OW 6316   0.533   6.955   6.414
 1806SOL    HW1 6317   0.507   6.899   6.493
 1806SOL    HW2 6318   0.617   6.919   6.374
 1807SOL     OW 6319   5.554   2.948   4.640
 1807SOL    HW1 6320   5.602   2.875   4.689
 1807SOL    HW2 6321   5.466   2.913   4.607
 1808SOL     OW 6322   0.471   4.136   5.415
 1808SOL    HW1 6323   0.550   4.075   5.413
 1808SOL    HW2 6324   0.410   4.110   5.490
 1809SOL     OW 6325   2.431   2.347   5.240
 1809SOL    HW1 6326   2.498   2.383   5.306
 1809SOL    HW2 6327   2.474   2.277   5.184
 1810SOL     OW 6328   2.751   0.075   3.820
 1810SOL    HW1 6329   2.700   7.017   3.836
 1810SOL    HW2 6330   2.770   0.085   3.723
 1811SOL     OW 6331   5.918   6.010   3.431
 1811SOL    HW1 6332   5.973   5.957   3.495
 1811SOL    HW2 6333   5.865   6.078   3.481
 1812SOL     OW 6334   4.010   5.801   4.963
 1812SOL    HW1 6335   3.943   5.790   5.037
 1812SOL    HW2 6336   4.049   5.712   4.940
 1813SOL     OW 6337   5.920   4.447   0.514
 1813SOL    HW1 6338   6.014   4.465   0.485
 1813SOL    HW2 6339   5.919   4.380   0.587
 1814SOL     OW 6340   5.083   0.110   2.046
 1814SOL    HW1 6341   5.135   0.178   2.098
 1814SOL    HW2 6342   5.143   0.034   2.022
 1815SOL     OW 6343   0.956   2.314   1.886
 1815SOL    HW1 6344   0.879   2.304   1.950
 1815SOL    HW2 6345   0.920   2.315   1.793
 1816SOL     OW 6346   2.563   3.293   0.781
 1816SOL    HW1 6347   2.492   3.279   0.849
 1816SOL    HW2 6348   2.626   3.365   0.812
 1817SOL     OW 6349   2.587   6.762   2.203
 1817SOL    HW1 6350   2.642   6.759   2.120
 1817SOL    HW2 6351   2.509   6.700   2.194
 1818SOL     OW 6352   1.627   0.087   2.837
 1818SOL    HW1 6353   1.546   0.118   2.886
 1818SOL    HW2 6354   1.600   0.035   2.756
 1819SOL     OW 6355   0.786   4.545   1.902
 1819SOL    HW1 6356   0.879   4.525   1.873
 1819SOL    HW2 6357   0.725   4.545   1.822
 1820SOL     OW 6358   4.138   1.088   2.730
 1820SOL    HW1 6359   4.222   1.108   2.781
 1820SOL    HW2 6360   4.059   1.099   2.790
 1821SOL     OW 6361   1.945   1.500   2.327
 1821SOL    HW1 6362   1.912   1.592   2.308
 1821SOL    HW2 6363   1.987   1.498   2.418
 1822SOL     OW 6364   3.631   2.570   1.162
 1822SOL    HW1 6365   3.693   2.601   1.089
 1822SOL    HW2 6366   3.633   2.635   1.237
 1823SOL     OW 6367   3.568   6.174   3.565
 1823SOL    HW1 6368   3.576   6.078   3.537
 1823SOL    HW2 6369   3.489   6.185   3.624
 1824SOL     OW 6370   4.063   2.687   0.939
 1824SOL    HW1 6371   4.056   2.627   1.019
 1824SOL    HW2 6372   4.085   2.633   0.858
 1825SOL     OW 6373   1.049   0.680   2.039
 1825SOL    HW1 6374   1.076   0.769   2.076
 1825SOL    HW2 6375   1.128   0.618   2.042
 1826SOL     OW 6376   2.973   1.294   1.367
 1826SOL    HW1 6377   2.969   1.394   1.367
 1826SOL    HW2 6378   3.047   1.263   1.307
 1827SOL     OW 6379   0.100   4.807   2.135
 1827SOL    HW1 6380   0.106   4.777   2.231
 1827SOL    HW2 6381   0.184   4.857   2.111
 1828SOL     OW 6382   0.488   2.859   0.123
 1828SOL    HW1 6383   0.458   2.844   0.029
 1828SOL    HW2 6384   0.430   2.928   0.167
 1829SOL     OW 6385   4.813   7.012   3.341
 1829SOL    HW1 6386   4.834   0.034   3.256
 1829SOL    HW2 6387   4.716   6.988   3.343
 1830SOL     OW 6388   5.227   6.406   3.653
 1830SOL    HW1 6389   5.232   6.307   3.661
 1830SOL    HW2 6390   5.255   6.448   3.739
 1831SOL     OW 6391   5.943   6.793   2.700
 1831SOL    HW1 6392   5.970   6.730   2.772
 1831SOL    HW2 6393   5.995   6.773   2.617
 1832SOL     OW 6394   5.204   2.122   1.244
 1832SOL    HW1 6395   5.167   2.208   1.281
 1832SOL    HW2 6396   5.138   2.048   1.259
 1833SOL     OW 6397   5.553   0.159   4.610
 1833SOL    HW1 6398   5.586   0.222   4.680
 1833SOL    HW2 6399   5.462   0.125   4.634
 1834SOL     OW 6400   3.457   4.131   0.556
 1834SOL    HW1 6401   3.515   4.212   0.543
 1834SOL    HW2 6402   3.513   4.055   0.591
 1835SOL     OW 6403   0.895   4.153   1.628
 1835SOL    HW1 6404   0.848   4.138   1.715
 1835SOL    HW2 6405   0.938   4.244   1.629
 1836SOL     OW 6406   6.870   2.224   0.827
 1836SOL    HW1 6407   6.775   2.255   0.819
 1836SOL    HW2 6408   6.930   2.304   0.836
 1837SOL     OW 6409   0.516   1.853   3.974
 1837SOL    HW1 6410   0.563   1.889   4.054
 1837SOL    HW2 6411   0.457   1.776   4.001
 1838SOL     OW 6412   0.661   1.981   3.806
 1838SOL    HW1 6413   0.671   2.073   3.844
 1838SOL    HW2 6414   0.610   1.924   3.870
 1839SOL     OW 6415   4.946   2.553   4.889
 1839SOL    HW1 6416   4.950   2.569   4.988
 1839SOL    HW2 6417   4.925   2.456   4.873
 1840SOL     OW 6418   2.572   6.096   1.712
 1840SOL    HW1 6419   2.537   6.184   1.682
 1840SOL    HW2 6420   2.672   6.096   1.708
 1841SOL     OW 6421   1.649   3.478   4.456
 1841SOL    HW1 6422   1.637   3.408   4.387
 1841SOL    HW2 6423   1.742   3.516   4.450
 1842SOL     OW 6424   0.399   5.585   1.171
 1842SOL    HW1 6425   0.483   5.580   1.117
 1842SOL    HW2 6426   0.331   5.523   1.133
 1843SOL     OW 6427   1.771   2.315   5.044
 1843SOL    HW1 6428   1.826   2.330   5.126
 1843SOL    HW2 6429   1.788   2.223   5.009
 1844SOL     OW 6430   3.914   1.624   4.946
 1844SOL    HW1 6431   3.916   1.558   4.871
 1844SOL    HW2 6432   4.005   1.661   4.961
 1845SOL     OW 6433   2.536   0.225   6.715
 1845SOL    HW1 6434   2.451   0.197   6.671
 1845SOL    HW2 6435   2.594   0.145   6.730
 1846SOL     OW 6436   4.277   2.096   6.596
 1846SOL    HW1 6437   4.361   2.062   6.639
 1846SOL    HW2 6438   4.259   2.043   6.512
 1847SOL     OW 6439   1.066   0.507   6.572
 1847SOL    HW1 6440   1.153   0.466   6.597
 1847SOL    HW2 6441   0.992   0.456   6.616
 1848SOL     OW 6442   1.899   5.954   2.585
 1848SOL    HW1 6443   1.918   5.873   2.529
 1848SOL    HW2 6444   1.875   6.031   2.525
 1849SOL     OW 6445   3.976   0.558   0.374
 1849SOL    HW1 6446   4.001   0.530   0.467
 1849SOL    HW2 6447   4.018   0.647   0.354
 1850SOL     OW 6448   5.796   1.994   2.915
 1850SOL    HW1 6449   5.875   1.933   2.930
 1850SOL    HW2 6450   5.784   2.053   2.995
 1851SOL     OW 6451   0.490   1.571   1.238
 1851SOL    HW1 6452   0.476   1.478   1.202
 1851SOL    HW2 6453   0.403   1.619   1.240
 1852SOL     OW 6454   4.529   3.991   0.896
 1852SOL    HW1 6455   4.435   3.980   0.926
 1852SOL    HW2 6456   4.590   3.934   0.952
 1853SOL     OW 6457   0.908   3.668   1.681
 1853SOL    HW1 6458   0.983   3.733   1.696
 1853SOL    HW2 6459   0.921   3.588   1.739
 1854SOL     OW 6460   3.027   5.514   4.046
 1854SOL    HW1 6461   3.045   5.569   3.965
 1854SOL    HW2 6462   3.042   5.417   4.025
 1855SOL     OW 6463   4.734   4.848   0.115
 1855SOL    HW1 6464   4.826   4.869   0.083
 1855SOL    HW2 6465   4.739   4.801   0.203
 1856SOL     OW 6466   6.405   2.492   5.565
 1856SOL    HW1 6467   6.307   2.506   5.555
 1856SOL    HW2 6468   6.424   2.396   5.584
 1857SOL     OW 6469   4.866   0.891   5.237
 1857SOL    HW1 6470   4.767   0.888   5.252
 1857SOL    HW2 6471   4.905   0.800   5.251
 1858SOL     OW 6472   5.789   3.025   3.565
 1858SOL    HW1 6473   5.768   2.993   3.658
 1858SOL    HW2 6474   5.756   2.958   3.498
 1859SOL     OW 6475   4.095   2.216   3.886
 1859SOL    HW1 6476   4.164   2.145   3.900
 1859SOL    HW2 6477   4.140   2.303   3.866
 1860SOL     OW 6478   6.713   1.480   3.889
 1860SOL    HW1 6479   6.647   1.554   3.903
 1860SOL    HW2 6480   6.791   1.514   3.837
 1861SOL     OW 6481   4.617   6.540   2.032
 1861SOL    HW1 6482   4.525   6.575   2.047
 1861SOL    HW2 6483   4.668   6.543   2.119
 1862SOL     OW 6484   1.830   6.970   0.140
 1862SOL    HW1 6485   1.871   6.920   0.215
 1862SOL    HW2 6486   1.744   6.926   0.114
 1863SOL     OW 6487   2.847   2.821   0.616
 1863SOL    HW1 6488   2.902   2.877   0.678
 1863SOL    HW2 6489   2.777   2.877   0.572
 1864SOL     OW 6490   0.974   0.043   5.356
 1864SOL    HW1 6491   0.918   0.084   5.428
 1864SOL    HW2 6492   1.024   6.992   5.393
 1865SOL     OW 6493   4.087   0.949   5.410
 1865SOL    HW1 6494   4.085   0.894   5.494
 1865SOL    HW2 6495   4.138   1.033   5.428
 1866SOL     OW 6496   4.352   4.702   2.276
 1866SOL    HW1 6497   4.405   4.624   2.241
 1866SOL    HW2 6498   4.306   4.675   2.361
 1867SOL     OW 6499   0.642   3.683   0.123
 1867SOL    HW1 6500   0.683   3.608   0.176
 1867SOL    HW2 6501   0.605   3.752   0.185
 1868SOL     OW 6502   5.497   4.310   6.997
 1868SOL    HW1 6503   5.506   4.213   7.022
 1868SOL    HW2 6504   5.538   4.324   6.906
 1869SOL     OW 6505   6.599   1.937   5.053
 1869SOL    HW1 6506   6.584   1.856   4.997
 1869SOL    HW2 6507   6.637   2.010   4.997
 1870SOL     OW 6508   2.246   4.434   5.872
 1870SOL    HW1 6509   2.322   4.410   5.811
 1870SOL    HW2 6510   2.282   4.456   5.962
 1871SOL     OW 6511   1.418   0.045   0.709
 1871SOL    HW1 6512   1.334   0.050   0.762
 1871SOL    HW2 6513   1.397   0.033   0.612
 1872SOL     OW 6514   3.122   4.215   6.842
 1872SOL    HW1 6515   3.199   4.156   6.863
 1872SOL    HW2 6516   3.133   4.253   6.750
 1873SOL     OW 6517   4.201   1.139   5.165
 1873SOL    HW1 6518   4.195   1.084   5.081
 1873SOL    HW2 6519   4.129   1.209   5.163
 1874SOL     OW 6520   2.863   1.589   1.438
 1874SOL    HW1 6521   2.949   1.639   1.448
 1874SOL    HW2 6522   2.822   1.610   1.350
 1875SOL     OW 6523   0.883   0.331   6.878
 1875SOL    HW1 6524   0.803   0.274   6.901
 1875SOL    HW2 6525   0.865   0.426   6.904
 1876SOL     OW 6526   3.416   0.350   5.766
 1876SOL    HW1 6527   3.515   0.351   5.752
 1876SOL    HW2 6528   3.391   0.425   5.827
 1877SOL     OW 6529   0.344   0.416   3.825
 1877SOL    HW1 6530   0.371   0.436   3.731
 1877SOL    HW2 6531   0.406   0.461   3.888
 1878SOL     OW 6532   6.885   2.063   3.630
 1878SOL    HW1 6533   6.967   2.084   3.684
 1878SOL    HW2 6534   6.828   1.999   3.681
 1879SOL     OW 6535   1.463   3.686   4.482
 1879SOL    HW1 6536   1.527   3.616   4.512
 1879SOL    HW2 6537   1.371   3.665   4.515
 1880SOL     OW 6538   0.287   0.831   4.930
 1880SOL    HW1 6539   0.210   0.799   4.985
 1880SOL    HW2 6540   0.252   0.889   4.856
 1881SOL     OW 6541   6.025   2.088   1.710
 1881SOL    HW1 6542   6.099   2.022   1.722
 1881SOL    HW2 6543   5.939   2.048   1.743
 1882SOL     OW 6544   1.332   4.710   6.490
 1882SOL    HW1 6545   1.249   4.687   6.540
 1882SOL    HW2 6546   1.408   4.655   6.523
 1883SOL     OW 6547   6.492   2.136   2.609
 1883SOL    HW1 6548   6.470   2.040   2.594
 1883SOL    HW2 6549   6.413   2.192   2.586
 1884SOL     OW 6550   1.296   1.705   0.900
 1884SOL    HW1 6551   1.232   1.733   0.828
 1884SOL    HW2 6552   1.246   1.697   0.987
 1885SOL     OW 6553   1.668   1.726   5.677
 1885SOL    HW1 6554   1.680   1.678   5.591
 1885SOL    HW2 6555   1.680   1.662   5.753
 1886SOL     OW 6556   2.079   0.230   1.770
 1886SOL    HW1 6557   2.122   0.281   1.696
 1886SOL    HW2 6558   2.036   0.293   1.834
 1887SOL     OW 6559   0.738   5.565   5.572
 1887SOL    HW1 6560   0.644   5.548   5.545
 1887SOL    HW2 6561   0.793   5.484   5.553
 1888SOL     OW 6562   3.438   1.794   7.016
 1888SOL    HW1 6563   3.387   1.775   0.073
 1888SOL    HW2 6564   3.377   1.835   6.948
 1889SOL     OW 6565   0.274   3.564   3.900
 1889SOL    HW1 6566   0.275   3.482   3.957
 1889SOL    HW2 6567   0.331   3.549   3.819
 1890SOL     OW 6568   0.566   5.430   4.291
 1890SOL    HW1 6569   0.591   5.399   4.199
 1890SOL    HW2 6570   0.468   5.418   4.304
 1891SOL     OW 6571   4.427   3.048   1.682
 1891SOL    HW1 6572   4.463   3.099   1.603
 1891SOL    HW2 6573   4.500   3.034   1.748
 1892SOL     OW 6574   0.284   0.805   2.267
 1892SOL    HW1 6575   0.255   0.833   2.358
 1892SOL    HW2 6576   0.244   0.866   2.198
 1893SOL     OW 6577   3.906   3.135   1.974
 1893SOL    HW1 6578   3.903   3.043   1.935
 1893SOL    HW2 6579   3.999   3.171   1.968
 1894SOL     OW 6580   3.427   4.153   4.083
 1894SOL    HW1 6581   3.400   4.239   4.039
 1894SOL    HW2 6582   3.408   4.159   4.181
 1895SOL     OW 6583   3.927   0.159   1.122
 1895SOL    HW1 6584   3.910   0.116   1.210
 1895SOL    HW2 6585   3.983   0.098   1.066
 1896SOL     OW 6586   6.348   1.867   0.625
 1896SOL    HW1 6587   6.393   1.829   0.706
 1896SOL    HW2 6588   6.339   1.796   0.555
 1897SOL     OW 6589   1.596   4.795   2.214
 1897SOL    HW1 6590   1.605   4.696   2.205
 1897SOL    HW2 6591   1.501   4.822   2.199
 1898SOL     OW 6592   2.126   4.559   2.300
 1898SOL    HW1 6593   2.052   4.548   2.233
 1898SOL    HW2 6594   2.198   4.615   2.260
 1899SOL     OW 6595   0.807   1.067   0.386
 1899SOL    HW1 6596   0.846   1.158   0.373
 1899SOL    HW2 6597   0.817   1.014   0.302
 1900SOL     OW 6598   2.768   0.733   6.677
 1900SOL    HW1 6599   2.715   0.817   6.685
 1900SOL    HW2 6600   2.778   0.708   6.581
 1901SOL     OW 6601   2.561   2.953   0.926
 1901SOL    HW1 6602   2.624   2.879   0.950
 1901SOL    HW2 6603   2.583   3.034   0.980
 1902SOL     OW 6604   2.444   0.435   5.048
 1902SOL    HW1 6605   2.397   0.383   5.118
 1902SOL    HW2 6606   2.379   0.463   4.977
 1903SOL     OW 6607   0.815   3.307   3.395
 1903SOL    HW1 6608   0.910   3.330   3.419
 1903SOL    HW2 6609   0.776   3.249   3.466
 1904SOL     OW 6610   5.967   5.295   2.788
 1904SOL    HW1 6611   5.970   5.201   2.821
 1904SOL    HW2 6612   5.872   5.320   2.768
 1905SOL     OW 6613   0.806   0.258   3.544
 1905SOL    HW1 6614   0.720   0.289   3.583
 1905SOL    HW2 6615   0.819   0.161   3.565
 1906SOL     OW 6616   2.787   0.285   6.150
 1906SOL    HW1 6617   2.723   0.272   6.226
 1906SOL    HW2 6618   2.827   0.196   6.126
 1907SOL     OW 6619   4.643   2.621   0.973
 1907SOL    HW1 6620   4.548   2.612   0.943
 1907SOL    HW2 6621   4.688   2.531   0.969
 1908SOL     OW 6622   4.204   6.911   6.325
 1908SOL    HW1 6623   4.242   6.825   6.359
 1908SOL    HW2 6624   4.257   6.940   6.244
 1909SOL     OW 6625   0.633   3.159   3.561
 1909SOL    HW1 6626   0.570   3.208   3.501
 1909SOL    HW2 6627   0.605   3.172   3.656
 1910SOL     OW 6628   6.806   6.685   5.709
 1910SOL    HW1 6629   6.756   6.629   5.643
 1910SOL    HW2 6630   6.904   6.668   5.698
 1911SOL     OW 6631   6.909   4.011   4.521
 1911SOL    HW1 6632   6.818   4.050   4.524
 1911SOL    HW2 6633   6.965   4.051   4.594
 1912SOL     OW 6634   2.736   5.531   2.185
 1912SOL    HW1 6635   2.637   5.538   2.173
 1912SOL    HW2 6636   2.781   5.556   2.100
 1913SOL     OW 6637   2.107   6.746   4.639
 1913SOL    HW1 6638   2.129   6.844   4.632
 1913SOL    HW2 6639   2.148   6.709   4.723
 1914SOL     OW 6640   3.866   4.489   6.395
 1914SOL    HW1 6641   3.941   4.468   6.458
 1914SOL    HW2 6642   3.778   4.480   6.442
 1915SOL     OW 6643   4.563   2.736   5.752
 1915SOL    HW1 6644   4.487   2.671   5.752
 1915SOL    HW2 6645   4.555   2.797   5.831
 1916SOL     OW 6646   4.203   6.888   1.223
 1916SOL    HW1 6647   4.297   6.900   1.191
 1916SOL    HW2 6648   4.139   6.915   1.150
 1917SOL     OW 6649   2.625   4.062   0.007
 1917SOL    HW1 6650   2.715   4.054   6.992
 1917SOL    HW2 6651   2.582   3.971   0.012
 1918SOL     OW 6652   1.059   1.129   4.985
 1918SOL    HW1 6653   1.040   1.031   4.994
 1918SOL    HW2 6654   1.031   1.161   4.895
 1919SOL     OW 6655   1.922   1.837   0.937
 1919SOL    HW1 6656   1.847   1.866   0.878
 1919SOL    HW2 6657   1.995   1.797   0.881
 1920SOL     OW 6658   5.716   2.248   2.435
 1920SOL    HW1 6659   5.750   2.212   2.348
 1920SOL    HW2 6660   5.752   2.191   2.510
 1921SOL     OW 6661   1.136   3.015   0.162
 1921SOL    HW1 6662   1.209   2.976   0.106
 1921SOL    HW2 6663   1.148   3.114   0.170
 1922SOL     OW 6664   3.131   3.492   2.140
 1922SOL    HW1 6665   3.227   3.516   2.155
 1922SOL    HW2 6666   3.082   3.572   2.105
 1923SOL     OW 6667   5.012   0.338   6.832
 1923SOL    HW1 6668   5.050   0.408   6.771
 1923SOL    HW2 6669   5.072   0.259   6.834
 1924SOL     OW 6670   4.577   0.139   0.667
 1924SOL    HW1 6671   4.620   0.148   0.757
 1924SOL    HW2 6672   4.483   0.108   0.678
 1925SOL     OW 6673   0.767   4.244   1.868
 1925SOL    HW1 6674   0.713   4.305   1.810
 1925SOL    HW2 6675   0.706   4.187   1.922
 1926SOL     OW 6676   3.511   0.098   1.774
 1926SOL    HW1 6677   3.428   0.048   1.749
 1926SOL    HW2 6678   3.591   0.055   1.732
 1927SOL     OW 6679   2.335   4.205   0.978
 1927SOL    HW1 6680   2.310   4.110   0.957
 1927SOL    HW2 6681   2.340   4.217   1.077
 1928SOL     OW 6682   4.703   4.771   4.479
 1928SOL    HW1 6683   4.632   4.715   4.522
 1928SOL    HW2 6684   4.662   4.829   4.408
 1929SOL     OW 6685   2.936   0.637   2.668
 1929SOL    HW1 6686   2.873   0.711   2.643
 1929SOL    HW2 6687   2.983   0.604   2.586
 1930SOL     OW 6688   5.000   3.118   6.300
 1930SOL    HW1 6689   4.943   3.199   6.294
 1930SOL    HW2 6690   4.987   3.075   6.390
 1931SOL     OW 6691   1.103   1.842   6.509
 1931SOL    HW1 6692   1.053   1.755   6.511
 1931SOL    HW2 6693   1.065   1.899   6.436
 1932SOL     OW 6694   4.840   2.784   3.015
 1932SOL    HW1 6695   4.758   2.726   3.022
 1932SOL    HW2 6696   4.915   2.741   3.065
 1933SOL     OW 6697   0.159   1.755   0.174
 1933SOL    HW1 6698   0.205   1.835   0.135
 1933SOL    HW2 6699   0.210   1.723   0.254
 1934SOL     OW 6700   0.489   0.759   5.496
 1934SOL    HW1 6701   0.414   0.762   5.431
 1934SOL    HW2 6702   0.455   0.728   5.585
 1935SOL     OW 6703   4.611   4.367   3.740
 1935SOL    HW1 6704   4.538   4.432   3.718
 1935SOL    HW2 6705   4.593   4.326   3.829
 1936SOL     OW 6706   5.050   3.510   4.306
 1936SOL    HW1 6707   5.051   3.606   4.276
 1936SOL    HW2 6708   5.104   3.500   4.389
 1937SOL     OW 6709   4.803   5.732   6.917
 1937SOL    HW1 6710   4.761   5.785   6.844
 1937SOL    HW2 6711   4.787   5.634   6.900
 1938SOL     OW 6712   1.305   2.551   6.753
 1938SOL    HW1 6713   1.230   2.577   6.814
 1938SOL    HW2 6714   1.288   2.460   6.716
 1939SOL     OW 6715   0.703   5.512   4.917
 1939SOL    HW1 6716   0.700   5.463   4.830
 1939SOL    HW2 6717   0.781   5.574   4.918
 1940SOL     OW 6718   5.878   4.789   1.722
 1940SOL    HW1 6719   5.826   4.704   1.727
 1940SOL    HW2 6720   5.974   4.771   1.740
 1941SOL     OW 6721   0.046   2.922   3.447
 1941SOL    HW1 6722   7.010   2.947   3.522
 1941SOL    HW2 6723   0.125   2.983   3.448
 1942SOL     OW 6724   5.380   3.330   2.867
 1942SOL    HW1 6725   5.459   3.325   2.806
 1942SOL    HW2 6726   5.408   3.304   2.959
 1943SOL     OW 6727   1.690   1.134   2.473
 1943SOL    HW1 6728   1.705   1.113   2.569
 1943SOL    HW2 6729   1.592   1.139   2.455
 1944SOL     OW 6730   6.688   3.331   0.751
 1944SOL    HW1 6731   6.641   3.370   0.829
 1944SOL    HW2 6732   6.785   3.354   0.756
 1945SOL     OW 6733   3.895   6.738   0.938
 1945SOL    HW1 6734   3.819   6.673   0.927
 1945SOL    HW2 6735   3.891   6.779   1.029
 1946SOL     OW 6736   6.821   6.161   0.921
 1946SOL    HW1 6737   6.817   6.157   1.021
 1946SOL    HW2 6738   6.854   6.073   0.886
 1947SOL     OW 6739   5.694   4.140   3.539
 1947SOL    HW1 6740   5.720   4.195   3.619
 1947SOL    HW2 6741   5.632   4.193   3.481
 1948SOL     OW 6742   5.670   3.747   3.126
 1948SOL    HW1 6743   5.749   3.701   3.084
 1948SOL    HW2 6744   5.586   3.703   3.095
 1949SOL     OW 6745   4.216   4.247   0.698
 1949SOL    HW1 6746   4.139   4.305   0.723
 1949SOL    HW2 6747   4.184   4.173   0.639
 1950SOL     OW 6748   3.859   4.063   3.971
 1950SOL    HW1 6749   3.911   4.014   3.901
 1950SOL    HW2 6750   3.762   4.060   3.948
 1951SOL     OW 6751   6.492   3.994   5.793
 1951SOL    HW1 6752   6.553   3.959   5.721
 1951SOL    HW2 6753   6.511   3.948   5.879
 1952SOL     OW 6754   5.171   3.883   0.820
 1952SOL    HW1 6755   5.123   3.896   0.733
 1952SOL    HW2 6756   5.264   3.851   0.801
 1953SOL     OW 6757   0.538   1.336   6.589
 1953SOL    HW1 6758   0.469   1.269   6.562
 1953SOL    HW2 6759   0.629   1.296   6.580
 1954SOL     OW 6760   4.523   0.204   1.815
 1954SOL    HW1 6761   4.504   0.119   1.864
 1954SOL    HW2 6762   4.458   0.215   1.741
 1955SOL     OW 6763   1.260   1.430   1.768
 1955SOL    HW1 6764   1.336   1.369   1.745
 1955SOL    HW2 6765   1.190   1.425   1.697
 1956SOL     OW 6766   5.851   0.774   2.488
 1956SOL    HW1 6767   5.905   0.754   2.407
 1956SOL    HW2 6768   5.771   0.714   2.491
 1957SOL     OW 6769   5.303   2.780   3.936
 1957SOL    HW1 6770   5.308   2.698   3.993
 1957SOL    HW2 6771   5.215   2.825   3.950
 1958SOL     OW 6772   4.471   1.626   0.637
 1958SOL    HW1 6773   4.487   1.725   0.639
 1958SOL    HW2 6774   4.512   1.587   0.554
 1959SOL     OW 6775   6.733   6.962   4.281
 1959SOL    HW1 6776   6.682   6.888   4.236
 1959SOL    HW2 6777   6.799   6.922   4.346
 1960SOL     OW 6778   5.865   3.396   3.330
 1960SOL    HW1 6779   5.790   3.346   3.286
 1960SOL    HW2 6780   5.882   3.357   3.420
 1961SOL     OW 6781   6.206   4.388   4.684
 1961SOL    HW1 6782   6.193   4.481   4.648
 1961SOL    HW2 6783   6.173   4.384   4.778
 1962SOL     OW 6784   1.487   6.320   2.936
 1962SOL    HW1 6785   1.517   6.314   2.841
 1962SOL    HW2 6786   1.548   6.266   2.994
 1963SOL     OW 6787   1.073   1.336   1.595
 1963SOL    HW1 6788   1.003   1.391   1.550
 1963SOL    HW2 6789   1.040   1.242   1.608
 1964SOL     OW 6790   5.528   4.712   1.560
 1964SOL    HW1 6791   5.488   4.720   1.651
 1964SOL    HW2 6792   5.613   4.764   1.556
 1965SOL     OW 6793   0.620   4.148   4.186
 1965SOL    HW1 6794   0.649   4.054   4.168
 1965SOL    HW2 6795   0.699   4.202   4.215
 1966SOL     OW 6796   1.488   4.817   1.517
 1966SOL    HW1 6797   1.403   4.830   1.466
 1966SOL    HW2 6798   1.467   4.801   1.614
 1967SOL     OW 6799   6.578   2.281   3.888
 1967SOL    HW1 6800   6.492   2.269   3.838
 1967SOL    HW2 6801   6.571   2.239   3.978
 1968SOL     OW 6802   2.181   1.154   6.018
 1968SOL    HW1 6803   2.243   1.146   6.096
 1968SOL    HW2 6804   2.153   1.249   6.008
 1969SOL     OW 6805   3.453   0.568   0.867
 1969SOL    HW1 6806   3.368   0.516   0.853
 1969SOL    HW2 6807   3.465   0.632   0.790
 1970SOL     OW 6808   6.057   5.731   4.772
 1970SOL    HW1 6809   6.139   5.726   4.828
 1970SOL    HW2 6810   6.077   5.702   4.679
 1971SOL     OW 6811   1.311   6.994   5.818
 1971SOL    HW1 6812   1.383   6.931   5.847
 1971SOL    HW2 6813   1.332   0.060   5.849
 1972SOL     OW 6814   5.781   2.593   1.481
 1972SOL    HW1 6815   5.732   2.518   1.435
 1972SOL    HW2 6816   5.818   2.560   1.568
 1973SOL     OW 6817   2.568   3.415   1.195
 1973SOL    HW1 6818   2.499   3.459   1.253
 1973SOL    HW2 6819   2.612   3.483   1.138
 1974SOL     OW 6820   4.420   6.341   4.690
 1974SOL    HW1 6821   4.505   6.287   4.690
 1974SOL    HW2 6822   4.374   6.330   4.602
 1975SOL     OW 6823   2.126   3.504   3.548
 1975SOL    HW1 6824   2.062   3.491   3.472
 1975SOL    HW2 6825   2.147   3.416   3.589
 1976SOL     OW 6826   6.859   0.181   6.324
 1976SOL    HW1 6827   6.842   0.272   6.285
 1976SOL    HW2 6828   6.802   0.114   6.277
 1977SOL     OW 6829   2.449   4.348   6.630
 1977SOL    HW1 6830   2.429   4.431   6.681
 1977SOL    HW2 6831   2.453   4.270   6.692
 1978SOL     OW 6832   2.349   6.649   2.716
 1978SOL    HW1 6833   2.295   6.567   2.735
 1978SOL    HW2 6834   2.365   6.656   2.617
 1979SOL     OW 6835   6.298   5.469   6.409
 1979SOL    HW1 6836   6.286   5.470   6.508
 1979SOL    HW2 6837   6.277   5.378   6.373
 1980SOL     OW 6838   2.806   1.120   1.697
 1980SOL    HW1 6839   2.886   1.139   1.640
 1980SOL    HW2 6840   2.830   1.130   1.794
 1981SOL     OW 6841   4.648   2.641   3.414
 1981SOL    HW1 6842   4.660   2.584   3.495
 1981SOL    HW2 6843   4.584   2.595   3.351
 1982SOL     OW 6844   6.539   3.623   3.801
 1982SOL    HW1 6845   6.637   3.618   3.819
 1982SOL    HW2 6846   6.518   3.707   3.751
 1983SOL     OW 6847   0.323   0.168   0.774
 1983SOL    HW1 6848   0.241   0.127   0.735
 1983SOL    HW2 6849   0.404   0.123   0.735
 1984SOL     OW 6850   5.279   2.286   5.297
 1984SOL    HW1 6851   5.328   2.210   5.340
 1984SOL    HW2 6852   5.311   2.372   5.337
 1985SOL     OW 6853   6.046   5.001   1.578
 1985SOL    HW1 6854   6.073   4.906   1.593
 1985SOL    HW2 6855   6.017   5.042   1.664
 1986SOL     OW 6856   3.288   1.397   6.666
 1986SOL    HW1 6857   3.262   1.389   6.570
 1986SOL    HW2 6858   3.317   1.308   6.700
 1987SOL     OW 6859   1.388   1.113   3.946
 1987SOL    HW1 6860   1.294   1.133   3.918
 1987SOL    HW2 6861   1.392   1.019   3.981
 1988SOL     OW 6862   0.006   2.239   1.090
 1988SOL    HW1 6863   0.089   2.230   1.145
 1988SOL    HW2 6864   0.010   2.173   1.014
 1989SOL     OW 6865   2.783   5.188   5.661
 1989SOL    HW1 6866   2.863   5.130   5.645
 1989SOL    HW2 6867   2.810   5.285   5.654
 1990SOL     OW 6868   4.080   0.815   0.333
 1990SOL    HW1 6869   4.064   0.892   0.396
 1990SOL    HW2 6870   4.171   0.823   0.293
 1991SOL     OW 6871   2.892   5.677   0.454
 1991SOL    HW1 6872   2.953   5.599   0.466
 1991SOL    HW2 6873   2.797   5.646   0.464
 1992SOL     OW 6874   0.003   6.451   6.959
 1992SOL    HW1 6875   7.009   6.525   7.023
 1992SOL    HW2 6876   6.979   6.369   6.984
 1993SOL     OW 6877   1.911   2.956   4.967
 1993SOL    HW1 6878   1.816   2.944   4.996
 1993SOL    HW2 6879   1.972   2.916   5.036
 1994SOL     OW 6880   3.803   3.465   0.425
 1994SOL    HW1 6881   3.820   3.524   0.504
 1994SOL    HW2 6882   3.797   3.370   0.454
 1995SOL     OW 6883   5.158   1.868   5.068
 1995SOL    HW1 6884   5.197   1.961   5.071
 1995SOL    HW2 6885   5.083   1.866   5.002
 1996SOL     OW 6886   3.651   1.308   1.232
 1996SOL    HW1 6887   3.715   1.264   1.294
 1996SOL    HW2 6888   3.652   1.407   1.247
 1997SOL     OW 6889   3.427   1.584   3.905
 1997SOL    HW1 6890   3.465   1.517   3.970
 1997SOL    HW2 6891   3.348   1.545   3.859
 1998SOL     OW 6892   1.152   3.241   1.696
 1998SOL    HW1 6893   1.201   3.213   1.779
 1998SOL    HW2 6894   1.086   3.312   1.719
 1999SOL     OW 6895   0.943   0.529   5.234
 1999SOL    HW1 6896   0.903   0.552   5.146
 1999SOL    HW2 6897   0.871   0.513   5.301
 2000SOL     OW 6898   3.986   3.506   6.200
 2000SOL    HW1 6899   3.897   3.506   6.244
 2000SOL    HW2 6900   4.013   3.601   6.181
 2001SOL     OW 6901   1.758   1.695   6.468
 2001SOL    HW1 6902   1.777   1.698   6.369
 2001SOL    HW2 6903   1.669   1.737   6.486
 2002SOL     OW 6904   6.965   5.645   1.182
 2002SOL    HW1 6905   0.006   5.703   1.135
 2002SOL    HW2 6906   6.881   5.643   1.128
 2003SOL     OW 6907   6.116   4.885   2.206
 2003SOL    HW1 6908   6.125   4.974   2.249
 2003SOL    HW2 6909   6.042   4.888   2.138
 2004SOL     OW 6910   3.470   0.732   3.648
 2004SOL    HW1 6911   3.498   0.815   3.696
 2004SOL    HW2 6912   3.521   0.654   3.684
 2005SOL     OW 6913   0.387   6.293   0.289
 2005SOL    HW1 6914   0.436   6.221   0.239
 2005SOL    HW2 6915   0.451   6.365   0.316
 2006SOL     OW 6916   5.221   0.181   3.327
 2006SOL    HW1 6917   5.170   0.170   3.241
 2006SOL    HW2 6918   5.162   0.225   3.395
 2007SOL     OW 6919   5.247   4.457   0.673
 2007SOL    HW1 6920   5.161   4.505   0.689
 2007SOL    HW2 6921   5.277   4.472   0.579
 2008SOL     OW 6922   2.027   3.913   4.029
 2008SOL    HW1 6923   1.933   3.942   4.011
 2008SOL    HW2 6924   2.033   3.813   4.021
 2009SOL     OW 6925   6.426   6.367   1.612
 2009SOL    HW1 6926   6.383   6.449   1.573
 2009SOL    HW2 6927   6.520   6.361   1.580
 2010SOL     OW 6928   1.805   2.366   1.944
 2010SOL    HW1 6929   1.813   2.389   1.847
 2010SOL    HW2 6930   1.865   2.425   1.998
 2011SOL     OW 6931   6.788   6.142   5.478
 2011SOL    HW1 6932   6.866   6.191   5.440
 2011SOL    HW2 6933   6.809   6.044   5.485
 2012SOL     OW 6934   1.497   3.416   2.569
 2012SOL    HW1 6935   1.547   3.330   2.560
 2012SOL    HW2 6936   1.474   3.432   2.665
 2013SOL     OW 6937   0.401   2.665   3.187
 2013SOL    HW1 6938   0.359   2.667   3.096
 2013SOL    HW2 6939   0.424   2.758   3.216
 2014SOL     OW 6940   2.886   0.502   3.881
 2014SOL    HW1 6941   2.805   0.534   3.930
 2014SOL    HW2 6942   2.883   0.534   3.787
 2015SOL     OW 6943   3.702   0.627   1.759
 2015SOL    HW1 6944   3.722   0.577   1.843
 2015SOL    HW2 6945   3.727   0.723   1.770
 2016SOL     OW 6946   1.848   6.280   5.519
 2016SOL    HW1 6947   1.817   6.301   5.427
 2016SOL    HW2 6948   1.806   6.344   5.584
 2017SOL     OW 6949   4.163   6.844   3.191
 2017SOL    HW1 6950   4.120   6.828   3.102
 2017SOL    HW2 6951   4.131   6.775   3.257
 2018SOL     OW 6952   0.031   2.007   2.871
 2018SOL    HW1 6953   6.989   1.945   2.835
 2018SOL    HW2 6954   0.122   1.967   2.860
 2019SOL     OW 6955   6.452   4.818   6.438
 2019SOL    HW1 6956   6.450   4.892   6.371
 2019SOL    HW2 6957   6.495   4.850   6.523
 2020SOL     OW 6958   1.731   6.347   5.962
 2020SOL    HW1 6959   1.636   6.338   5.992
 2020SOL    HW2 6960   1.761   6.260   5.923
 2021SOL     OW 6961   6.042   6.485   3.293
 2021SOL    HW1 6962   6.130   6.441   3.314
 2021SOL    HW2 6963   6.047   6.582   3.316
 2022SOL     OW 6964   1.958   4.115   5.203
 2022SOL    HW1 6965   2.054   4.100   5.224
 2022SOL    HW2 6966   1.948   4.145   5.108
 2023SOL     OW 6967   7.000   0.237   0.084
 2023SOL    HW1 6968   6.934   0.313   0.088
 2023SOL    HW2 6969   0.059   0.265   0.128
 2024SOL     OW 6970   0.426   5.675   4.445
 2024SOL    HW1 6971   0.395   5.586   4.411
 2024SOL    HW2 6972   0.491   5.714   4.379
 2025SOL     OW 6973   2.684   0.561   4.659
 2025SOL    HW1 6974   2.697   0.613   4.743
 2025SOL    HW2 6975   2.629   0.614   4.595
 2026SOL     OW 6976   5.918   0.453   6.284
 2026SOL    HW1 6977   5.914   0.534   6.225
 2026SOL    HW2 6978   6.010   0.444   6.322
 2027SOL     OW 6979   0.716   5.705   2.154
 2027SOL    HW1 6980   0.787   5.773   2.174
 2027SOL    HW2 6981   0.745   5.616   2.188
 2028SOL     OW 6982   3.713   5.968   2.936
 2028SOL    HW1 6983   3.684   5.905   2.864
 2028SOL    HW2 6984   3.672   6.058   2.919
 2029SOL     OW 6985   0.054   2.090   6.397
 2029SOL    HW1 6986   0.046   2.063   6.493
 2029SOL    HW2 6987   0.011   2.021   6.340
 2030SOL     OW 6988   2.892   5.821   3.383
 2030SOL    HW1 6989   2.843   5.785   3.304
 2030SOL    HW2 6990   2.830   5.825   3.462
 2031SOL     OW 6991   6.628   5.531   2.902
 2031SOL    HW1 6992   6.673   5.442   2.893
 2031SOL    HW2 6993   6.633   5.561   2.997
 2032SOL     OW 6994   3.140   1.642   6.367
 2032SOL    HW1 6995   3.124   1.728   6.319
 2032SOL    HW2 6996   3.177   1.661   6.458
 2033SOL     OW 6997   2.130   0.802   0.937
 2033SOL    HW1 6998   2.213   0.773   0.985
 2033SOL    HW2 6999   2.088   0.724   0.892
 2034SOL     OW 7000   0.575   5.437   5.784
 2034SOL    HW1 7001   0.554   5.532   5.759
 2034SOL    HW2 7002   0.593   5.431   5.882
 2035SOL     OW 7003   6.027   0.153   2.301
 2035SOL    HW1 7004   6.075   0.150   2.214
 2035SOL    HW2 7005   5.971   0.235   2.306
 2036SOL     OW 7006   1.164   3.610   2.388
 2036SOL    HW1 7007   1.148   3.634   2.292
 2036SOL    HW2 7008   1.079   3.580   2.430
 2037SOL     OW 7009   0.488   2.891   6.291
 2037SOL    HW1 7010   0.406   2.926   6.246
 2037SOL    HW2 7011   0.462   2.839   6.372
 2038SOL     OW 7012   2.335   1.667   6.688
 2038SOL    HW1 7013   2.320   1.630   6.596
 2038SOL    HW2 7014   2.274   1.744   6.704
 2039SOL     OW 7015   6.684   6.210   2.635
 2039SOL    HW1 7016   6.734   6.147   2.575
 2039SOL    HW2 7017   6.588   6.213   2.607
 2040SOL     OW 7018   2.272   3.044   0.213
 2040SOL    HW1 7019   2.245   3.041   0.117
 2040SOL    HW2 7020   2.362   3.087   0.221
 2041SOL     OW 7021   1.942   6.950   6.348
 2041SOL    HW1 7022   2.038   6.959   6.321
 2041SOL    HW2 7023   1.890   7.026   6.310
 2042SOL     OW 7024   4.666   0.571   6.381
 2042SOL    HW1 7025   4.703   0.503   6.317
 2042SOL    HW2 7026   4.596   0.528   6.438
 2043SOL     OW 7027   6.990   3.309   1.280
 2043SOL    HW1 7028   0.048   3.271   1.242
 2043SOL    HW2 7029   7.003   3.406   1.301
 2044SOL     OW 7030   5.397   0.758   0.675
 2044SOL    HW1 7031   5.346   0.712   0.602
 2044SOL    HW2 7032   5.410   0.694   0.751
 2045SOL     OW 7033   1.780   6.076   5.879
 2045SOL    HW1 7034   1.717   6.054   5.805
 2045SOL    HW2 7035   1.768   6.010   5.953
 2046SOL     OW 7036   1.016   1.995   4.997
 2046SOL    HW1 7037   0.978   2.064   5.060
 2046SOL    HW2 7038   1.105   2.026   4.964
 2047SOL     OW 7039   6.399   1.968   0.027
 2047SOL    HW1 7040   6.316   1.987   0.078
 2047SOL    HW2 7041   6.439   2.053   7.021
 2048SOL     OW 7042   1.050   1.238   4.492
 2048SOL    HW1 7043   1.075   1.197   4.580
 2048SOL    HW2 7044   1.130   1.237   4.431
 2049SOL     OW 7045   4.757   1.122   4.889
 2049SOL    HW1 7046   4.678   1.116   4.828
 2049SOL    HW2 7047   4.731   1.167   4.974
 2050SOL     OW 7048   0.512   1.241   3.926
 2050SOL    HW1 7049   0.597   1.276   3.966
 2050SOL    HW2 7050   0.531   1.160   3.871
 2051SOL     OW 7051   3.098   6.815   1.037
 2051SOL    HW1 7052   3.074   6.847   1.129
 2051SOL    HW2 7053   3.066   6.881   0.969
 2052SOL     OW 7054   1.839   4.555   6.685
 2052SOL    HW1 7055   1.924   4.503   6.672
 2052SOL    HW2 7056   1.832   4.584   6.780
 2053SOL     OW 7057   0.896   5.348   3.933
 2053SOL    HW1 7058   0.991   5.326   3.958
 2053SOL    HW2 7059   0.896   5.425   3.870
 2054SOL     OW 7060   3.421   3.627   3.796
 2054SOL    HW1 7061   3.429   3.547   3.736
 2054SOL    HW2 7062   3.486   3.617   3.872
 2055SOL     OW 7063   1.837   2.288   5.585
 2055SOL    HW1 7064   1.750   2.260   5.627
 2055SOL    HW2 7065   1.839   2.387   5.576
 2056SOL     OW 7066   4.065   4.615   1.461
 2056SOL    HW1 7067   4.136   4.647   1.398
 2056SOL    HW2 7068   4.004   4.551   1.413
 2057SOL     OW 7069   5.479   2.453   4.356
 2057SOL    HW1 7070   5.461   2.467   4.258
 2057SOL    HW2 7071   5.396   2.473   4.408
 2058SOL     OW 7072   1.079   6.463   3.712
 2058SOL    HW1 7073   1.121   6.536   3.659
 2058SOL    HW2 7074   1.031   6.503   3.791
 2059SOL     OW 7075   2.773   0.058   5.457
 2059SOL    HW1 7076   2.764   0.035   5.553
 2059SOL    HW2 7077   2.733   0.148   5.440
 2060SOL     OW 7078   1.306   3.541   6.849
 2060SOL    HW1 7079   1.259   3.626   6.825
 2060SOL    HW2 7080   1.380   3.561   6.913
 2061SOL     OW 7081   2.168   1.753   2.170
 2061SOL    HW1 7082   2.072   1.755   2.141
 2061SOL    HW2 7083   2.183   1.825   2.238
 2062SOL     OW 7084   6.153   5.132   5.021
 2062SOL    HW1 7085   6.218   5.195   4.979
 2062SOL    HW2 7086   6.066   5.135   4.971
 2063SOL     OW 7087   1.988   0.715   5.149
 2063SOL    HW1 7088   1.891   0.702   5.128
 2063SOL    HW2 7089   1.998   0.730   5.247
 2064SOL     OW 7090   0.512   3.179   3.795
 2064SOL    HW1 7091   0.591   3.134   3.836
 2064SOL    HW2 7092   0.435   3.176   3.859
 2065SOL     OW 7093   4.702   2.742   5.512
 2065SOL    HW1 7094   4.652   2.734   5.598
 2065SOL    HW2 7095   4.645   2.707   5.437
 2066SOL     OW 7096   5.750   2.694   5.785
 2066SOL    HW1 7097   5.676   2.678   5.850
 2066SOL    HW2 7098   5.809   2.613   5.782
 2067SOL     OW 7099   6.434   4.760   1.239
 2067SOL    HW1 7100   6.507   4.813   1.283
 2067SOL    HW2 7101   6.367   4.822   1.200
 2068SOL     OW 7102   3.924   0.517   4.116
 2068SOL    HW1 7103   3.974   0.457   4.053
 2068SOL    HW2 7104   3.886   0.594   4.065
 2069SOL     OW 7105   0.290   2.127   4.381
 2069SOL    HW1 7106   0.348   2.122   4.462
 2069SOL    HW2 7107   0.347   2.138   4.299
 2070SOL     OW 7108   0.652   3.836   1.841
 2070SOL    HW1 7109   0.676   3.896   1.764
 2070SOL    HW2 7110   0.638   3.743   1.808
 2071SOL     OW 7111   6.438   1.670   6.236
 2071SOL    HW1 7112   6.431   1.735   6.160
 2071SOL    HW2 7113   6.503   1.704   6.304
 2072SOL     OW 7114   4.026   4.647   5.543
 2072SOL    HW1 7115   3.992   4.604   5.626
 2072SOL    HW2 7116   4.096   4.589   5.501
 2073SOL     OW 7117   3.388   5.868   0.599
 2073SOL    HW1 7118   3.299   5.825   0.613
 2073SOL    HW2 7119   3.423   5.842   0.509
 2074SOL     OW 7120   1.660   3.423   5.516
 2074SOL    HW1 7121   1.700   3.497   5.462
 2074SOL    HW2 7122   1.571   3.452   5.551
 2075SOL     OW 7123   0.107   2.350   2.116
 2075SOL    HW1 7124   0.083   2.264   2.160
 2075SOL    HW2 7125   0.076   2.427   2.172
 2076SOL     OW 7126   4.964   6.221   5.056
 2076SOL    HW1 7127   4.939   6.154   4.987
 2076SOL    HW2 7128   5.059   6.249   5.043
 2077SOL     OW 7129   0.080   3.643   1.061
 2077SOL    HW1 7130   0.043   3.612   1.148
 2077SOL    HW2 7131   0.107   3.739   1.068
 2078SOL     OW 7132   2.029   3.830   5.870
 2078SOL    HW1 7133   2.094   3.759   5.899
 2078SOL    HW2 7134   2.078   3.902   5.821
 2079SOL     OW 7135   5.291   1.731   1.717
 2079SOL    HW1 7136   5.335   1.684   1.793
 2079SOL    HW2 7137   5.336   1.705   1.631
 2080SOL     OW 7138   2.582   2.862   5.698
 2080SOL    HW1 7139   2.568   2.817   5.610
 2080SOL    HW2 7140   2.548   2.956   5.693
 2081SOL     OW 7141   6.955   0.107   3.325
 2081SOL    HW1 7142   7.005   0.128   3.241
 2081SOL    HW2 7143   6.948   0.008   3.336
 2082SOL     OW 7144   0.638   6.384   2.548
 2082SOL    HW1 7145   0.594   6.381   2.459
 2082SOL    HW2 7146   0.575   6.422   2.616
 2083SOL     OW 7147   6.519   5.990   4.433
 2083SOL    HW1 7148   6.513   5.945   4.522
 2083SOL    HW2 7149   6.540   5.923   4.362
 2084SOL     OW 7150   0.822   2.296   1.610
 2084SOL    HW1 7151   0.763   2.298   1.529
 2084SOL    HW2 7152   0.889   2.223   1.601
 2085SOL     OW 7153   4.962   5.261   0.239
 2085SOL    HW1 7154   5.029   5.335   0.248
 2085SOL    HW2 7155   5.004   5.174   0.264
 2086SOL     OW 7156   4.449   6.980   6.922
 2086SOL    HW1 7157   4.485   0.044   6.943
 2086SOL    HW2 7158   4.506   6.911   6.968
 2087SOL     OW 7159   4.292   2.389   6.893
 2087SOL    HW1 7160   4.246   2.362   6.809
 2087SOL    HW2 7161   4.361   2.458   6.872
 2088SOL     OW 7162   6.665   5.436   4.960
 2088SOL    HW1 7163   6.696   5.408   5.051
 2088SOL    HW2 7164   6.735   5.412   4.892
 2089SOL     OW 7165   2.886   3.234   5.970
 2089SOL    HW1 7166   2.964   3.215   6.029
 2089SOL    HW2 7167   2.862   3.151   5.918
 2090SOL     OW 7168   4.504   3.549   5.318
 2090SOL    HW1 7169   4.427   3.607   5.290
 2090SOL    HW2 7170   4.575   3.554   5.248
 2091SOL     OW 7171   6.131   5.574   2.126
 2091SOL    HW1 7172   6.087   5.628   2.055
 2091SOL    HW2 7173   6.088   5.484   2.132
 2092SOL     OW 7174   4.522   4.072   1.347
 2092SOL    HW1 7175   4.619   4.074   1.373
 2092SOL    HW2 7176   4.504   4.147   1.283
 2093SOL     OW 7177   3.772   2.096   2.970
 2093SOL    HW1 7178   3.862   2.106   2.928
 2093SOL    HW2 7179   3.702   2.101   2.899
 2094SOL     OW 7180   4.910   2.754   6.911
 2094SOL    HW1 7181   4.903   2.791   6.818
 2094SOL    HW2 7182   4.947   2.823   6.972
 2095SOL     OW 7183   5.488   6.419   3.482
 2095SOL    HW1 7184   5.540   6.504   3.481
 2095SOL    HW2 7185   5.395   6.436   3.450
 2096SOL     OW 7186   4.401   6.661   2.137
 2096SOL    HW1 7187   4.324   6.621   2.087
 2096SOL    HW2 7188   4.371   6.745   2.182
 2097SOL     OW 7189   1.289   5.359   6.608
 2097SOL    HW1 7190   1.370   5.307   6.636
 2097SOL    HW2 7191   1.280   5.440   6.666
 2098SOL     OW 7192   3.178   6.415   3.067
 2098SOL    HW1 7193   3.276   6.405   3.085
 2098SOL    HW2 7194   3.137   6.473   3.137
 2099SOL     OW 7195   5.145   1.452   0.521
 2099SOL    HW1 7196   5.087   1.379   0.558
 2099SOL    HW2 7197   5.113   1.477   0.430
 2100SOL     OW 7198   5.643   1.055   0.640
 2100SOL    HW1 7199   5.615   1.045   0.736
 2100SOL    HW2 7200   5.624   1.148   0.610
 2101SOL     OW 7201   0.115   6.631   2.173
 2101SOL    HW1 7202   0.097   6.637   2.272
 2101SOL    HW2 7203   0.039   6.672   2.123
 2102SOL     OW 7204   3.738   3.662   0.626
 2102SOL    HW1 7205   3.640   3.668   0.644
 2102SOL    HW2 7206   3.771   3.752   0.597
 2103SOL     OW 7207   3.330   6.231   0.582
 2103SOL    HW1 7208   3.358   6.139   0.553
 2103SOL    HW2 7209   3.232   6.229   0.605
 2104SOL     OW 7210   0.990   4.756   3.305
 2104SOL    HW1 7211   1.012   4.833   3.365
 2104SOL    HW2 7212   1.073   4.707   3.280
 2105SOL     OW 7213   5.360   4.070   6.598
 2105SOL    HW1 7214   5.342   4.122   6.515
 2105SOL    HW2 7215   5.339   3.973   6.583
 2106SOL     OW 7216   5.417   3.804   2.006
 2106SOL    HW1 7217   5.383   3.776   2.096
 2106SOL    HW2 7218   5.353   3.773   1.935
 2107SOL     OW 7219   5.389   3.729   5.028
 2107SOL    HW1 7220   5.445   3.812   5.025
 2107SOL    HW2 7221   5.418   3.667   4.955
 2108SOL     OW 7222   5.834   6.544   5.604
 2108SOL    HW1 7223   5.767   6.592   5.547
 2108SOL    HW2 7224   5.851   6.597   5.687
 2109SOL     OW 7225   2.682   5.202   2.789
 2109SOL    HW1 7226   2.752   5.183   2.721
 2109SOL    HW2 7227   2.700   5.291   2.832
 2110SOL     OW 7228   3.917   0.938   6.821
 2110SOL    HW1 7229   3.888   0.843   6.813
 2110SOL    HW2 7230   3.991   0.956   6.756
 2111SOL     OW 7231   0.993   2.847   5.931
 2111SOL    HW1 7232   1.074   2.849   5.989
 2111SOL    HW2 7233   0.913   2.821   5.985
 2112SOL     OW 7234   0.363   1.871   0.770
 2112SOL    HW1 7235   0.450   1.919   0.762
 2112SOL    HW2 7236   0.351   1.811   0.692
 2113SOL     OW 7237   1.577   7.019   4.497
 2113SOL    HW1 7238   1.613   6.973   4.578
 2113SOL    HW2 7239   1.518   6.956   4.447
 2114SOL     OW 7240   2.182   2.480   6.803
 2114SOL    HW1 7241   2.157   2.391   6.764
 2114SOL    HW2 7242   2.234   2.466   6.887
 2115SOL     OW 7243   0.076   5.781   3.493
 2115SOL    HW1 7244   0.142   5.761   3.566
 2115SOL    HW2 7245   0.079   5.879   3.472
 2116SOL     OW 7246   0.388   2.873   6.894
 2116SOL    HW1 7247   0.434   2.836   6.813
 2116SOL    HW2 7248   0.290   2.852   6.890
 2117SOL     OW 7249   5.871   1.590   2.202
 2117SOL    HW1 7250   5.941   1.593   2.131
 2117SOL    HW2 7251   5.831   1.499   2.206
 2118SOL     OW 7252   6.188   2.924   1.893
 2118SOL    HW1 7253   6.216   3.017   1.866
 2118SOL    HW2 7254   6.089   2.917   1.888
 2119SOL     OW 7255   3.402   0.237   0.150
 2119SOL    HW1 7256   3.302   0.231   0.144
 2119SOL    HW2 7257   3.430   0.333   0.147
 2120SOL     OW 7258   5.890   1.911   1.014
 2120SOL    HW1 7259   5.936   1.842   0.959
 2120SOL    HW2 7260   5.951   1.988   1.031
 2121SOL     OW 7261   1.640   0.813   6.612
 2121SOL    HW1 7262   1.553   0.803   6.660
 2121SOL    HW2 7263   1.625   0.859   6.524
 2122SOL     OW 7264   5.864   0.541   5.283
 2122SOL    HW1 7265   5.786   0.522   5.224
 2122SOL    HW2 7266   5.930   0.598   5.235
 2123SOL     OW 7267   1.319   5.749   3.322
 2123SOL    HW1 7268   1.307   5.759   3.223
 2123SOL    HW2 7269   1.401   5.799   3.351
 2124SOL     OW 7270   3.712   3.031   5.770
 2124SOL    HW1 7271   3.660   2.946   5.760
 2124SOL    HW2 7272   3.655   3.101   5.812
 2125SOL     OW 7273   1.769   6.158   2.999
 2125SOL    HW1 7274   1.747   6.214   3.079
 2125SOL    HW2 7275   1.775   6.062   3.026
 2126SOL     OW 7276   3.688   4.184   6.955
 2126SOL    HW1 7277   3.613   4.198   6.891
 2126SOL    HW2 7278   3.652   4.157   0.017
 2127SOL     OW 7279   0.463   2.384   5.225
 2127SOL    HW1 7280   0.394   2.378   5.154
 2127SOL    HW2 7281   0.460   2.475   5.267
 2128SOL     OW 7282   5.375   2.991   1.680
 2128SOL    HW1 7283   5.315   2.998   1.600
 2128SOL    HW2 7284   5.437   2.914   1.669
 2129SOL     OW 7285   4.979   4.371   3.490
 2129SOL    HW1 7286   4.936   4.413   3.570
 2129SOL    HW2 7287   4.911   4.315   3.442
 2130SOL     OW 7288   1.862   0.817   2.255
 2130SOL    HW1 7289   1.817   0.844   2.340
 2130SOL    HW2 7290   1.902   0.898   2.211
 2131SOL     OW 7291   5.854   1.867   5.953
 2131SOL    HW1 7292   5.852   1.902   6.046
 2131SOL    HW2 7293   5.908   1.929   5.896
 2132SOL     OW 7294   3.034   1.820   7.010
 2132SOL    HW1 7295   3.058   1.915   0.004
 2132SOL    HW2 7296   3.107   1.760   0.015
 2133SOL     OW 7297   2.484   2.354   1.605
 2133SOL    HW1 7298   2.576   2.359   1.642
 2133SOL    HW2 7299   2.418   2.340   1.679
 2134SOL     OW 7300   0.917   6.218   5.001
 2134SOL    HW1 7301   0.946   6.211   5.096
 2134SOL    HW2 7302   0.930   6.312   4.969
 2135SOL     OW 7303   0.568   1.340   3.349
 2135SOL    HW1 7304   0.666   1.358   3.358
 2135SOL    HW2 7305   0.532   1.392   3.272
 2136SOL     OW 7306   0.376   3.704   3.562
 2136SOL    HW1 7307   0.394   3.613   3.600
 2136SOL    HW2 7308   0.296   3.700   3.502
 2137SOL     OW 7309   1.380   0.313   5.153
 2137SOL    HW1 7310   1.442   0.292   5.077
 2137SOL    HW2 7311   1.380   0.412   5.170
 2138SOL     OW 7312   0.026   2.964   0.609
 2138SOL    HW1 7313   6.961   3.000   0.625
 2138SOL    HW2 7314   0.073   3.020   0.541
 2139SOL     OW 7315   2.869   0.634   5.239
 2139SOL    HW1 7316   2.864   0.556   5.302
 2139SOL    HW2 7317   2.872   0.600   5.145
 2140SOL     OW 7318   2.335   5.922   3.465
 2140SOL    HW1 7319   2.275   5.933   3.544
 2140SOL    HW2 7320   2.317   5.834   3.421
 2141SOL     OW 7321   5.342   2.174   1.008
 2141SOL    HW1 7322   5.280   2.173   1.086
 2141SOL    HW2 7323   5.306   2.116   0.935
 2142SOL     OW 7324   1.943   2.440   3.663
 2142SOL    HW1 7325   1.873   2.370   3.677
 2142SOL    HW2 7326   2.031   2.405   3.693
 2143SOL     OW 7327   3.219   6.738   1.633
 2143SOL    HW1 7328   3.242   6.737   1.536
 2143SOL    HW2 7329   3.277   6.673   1.682
 2144SOL     OW 7330   0.828   1.031   3.467
 2144SOL    HW1 7331   0.738   0.996   3.440
 2144SOL    HW2 7332   0.871   1.078   3.390
 2145SOL     OW 7333   3.337   5.078   3.157
 2145SOL    HW1 7334   3.392   5.160   3.140
 2145SOL    HW2 7335   3.353   5.011   3.085
 2146SOL     OW 7336   3.871   3.023   2.763
 2146SOL    HW1 7337   3.932   3.069   2.828
 2146SOL    HW2 7338   3.898   3.046   2.670
 2147SOL     OW 7339   1.246   1.146   5.699
 2147SOL    HW1 7340   1.251   1.147   5.799
 2147SOL    HW2 7341   1.300   1.221   5.662
 2148SOL     OW 7342   4.893   3.472   2.777
 2148SOL    HW1 7343   4.882   3.498   2.681
 2148SOL    HW2 7344   4.810   3.427   2.809
 2149SOL     OW 7345   3.771   0.983   2.630
 2149SOL    HW1 7346   3.783   1.001   2.533
 2149SOL    HW2 7347   3.673   0.979   2.652
 2150SOL     OW 7348   3.069   2.247   3.645
 2150SOL    HW1 7349   2.974   2.268   3.666
 2150SOL    HW2 7350   3.120   2.232   3.730
 2151SOL     OW 7351   3.930   2.896   5.548
 2151SOL    HW1 7352   3.953   2.945   5.632
 2151SOL    HW2 7353   3.999   2.916   5.478
 2152SOL     OW 7354   6.164   6.161   2.141
 2152SOL    HW1 7355   6.092   6.158   2.071
 2152SOL    HW2 7356   6.189   6.068   2.166
 2153SOL     OW 7357   4.430   2.284   3.536
 2153SOL    HW1 7358   4.487   2.364   3.516
 2153SOL    HW2 7359   4.470   2.233   3.613
 2154SOL     OW 7360   3.210   5.664   4.918
 2154SOL    HW1 7361   3.190   5.757   4.948
 2154SOL    HW2 7362   3.141   5.602   4.955
 2155SOL     OW 7363   0.503   4.336   0.599
 2155SOL    HW1 7364   0.571   4.318   0.670
 2155SOL    HW2 7365   0.543   4.320   0.509
 2156SOL     OW 7366   1.948   0.425   1.891
 2156SOL    HW1 7367   1.851   0.440   1.869
 2156SOL    HW2 7368   1.971   0.474   1.975
 2157SOL     OW 7369   0.625   1.349   5.018
 2157SOL    HW1 7370   0.658   1.271   4.965
 2157SOL    HW2 7371   0.543   1.387   4.973
 2158SOL     OW 7372   3.709   6.772   1.826
 2158SOL    HW1 7373   3.632   6.773   1.762
 2158SOL    HW2 7374   3.768   6.695   1.806
 2159SOL     OW 7375   1.306   6.644   5.052
 2159SOL    HW1 7376   1.378   6.582   5.081
 2159SOL    HW2 7377   1.335   6.738   5.064
 2160SOL     OW 7378   2.995   4.110   1.111
 2160SOL    HW1 7379   3.009   4.078   1.018
 2160SOL    HW2 7380   2.916   4.062   1.151
 2161SOL     OW 7381   5.113   2.509   3.627
 2161SOL    HW1 7382   5.041   2.524   3.559
 2161SOL    HW2 7383   5.202   2.507   3.582
 2162SOL     OW 7384   1.426   0.763   6.770
 2162SOL    HW1 7385   1.332   0.765   6.737
 2162SOL    HW2 7386   1.429   0.790   6.866
 2163SOL     OW 7387   1.836   1.237   0.489
 2163SOL    HW1 7388   1.807   1.278   0.575
 2163SOL    HW2 7389   1.765   1.251   0.419
 2164SOL     OW 7390   1.870   1.024   6.887
 2164SOL    HW1 7391   1.835   1.098   6.944
 2164SOL    HW2 7392   1.881   1.055   6.793
 2165SOL     OW 7393   2.012   6.872   2.826
 2165SOL    HW1 7394   1.950   6.872   2.904
 2165SOL    HW2 7395   2.103   6.901   2.855
 2166SOL     OW 7396   0.430   2.435   6.306
 2166SOL    HW1 7397   0.395   2.527   6.288
 2166SOL    HW2 7398   0.498   2.439   6.380
 2167SOL     OW 7399   3.615   0.625   2.689
 2167SOL    HW1 7400   3.558   0.695   2.646
 2167SOL    HW2 7401   3.701   0.666   2.719
 2168SOL     OW 7402   5.727   4.234   4.814
 2168SOL    HW1 7403   5.795   4.289   4.766
 2168SOL    HW2 7404   5.754   4.224   4.910
 2169SOL     OW 7405   5.343   2.051   6.299
 2169SOL    HW1 7406   5.273   2.007   6.243
 2169SOL    HW2 7407   5.432   2.043   6.253
 2170SOL     OW 7408   4.204   5.132   4.733
 2170SOL    HW1 7409   4.300   5.107   4.729
 2170SOL    HW2 7410   4.151   5.054   4.768
 2171SOL     OW 7411   6.962   2.931   6.962
 2171SOL    HW1 7412   6.975   3.029   6.947
 2171SOL    HW2 7413   6.867   2.914   6.989
 2172SOL     OW 7414   2.848   0.735   0.584
 2172SOL    HW1 7415   2.855   0.819   0.638
 2172SOL    HW2 7416   2.778   0.676   0.623
 2173SOL     OW 7417   5.674   1.301   5.686
 2173SOL    HW1 7418   5.665   1.212   5.641
 2173SOL    HW2 7419   5.587   1.351   5.678
 2174SOL     OW 7420   0.151   5.203   4.941
 2174SOL    HW1 7421   0.219   5.234   4.875
 2174SOL    HW2 7422   0.177   5.233   5.033
 2175SOL     OW 7423   2.232   0.279   4.670
 2175SOL    HW1 7424   2.275   0.352   4.722
 2175SOL    HW2 7425   2.188   0.214   4.733
 2176SOL     OW 7426   1.833   2.604   3.121
 2176SOL    HW1 7427   1.927   2.631   3.141
 2176SOL    HW2 7428   1.823   2.505   3.136
 2177SOL     OW 7429   0.357   2.566   0.899
 2177SOL    HW1 7430   0.372   2.468   0.883
 2177SOL    HW2 7431   0.369   2.615   0.813
 2178SOL     OW 7432   0.780   4.967   0.382
 2178SOL    HW1 7433   0.764   4.894   0.448
 2178SOL    HW2 7434   0.709   5.036   0.390
 2179SOL     OW 7435   1.737   5.550   4.390
 2179SOL    HW1 7436   1.776   5.481   4.451
 2179SOL    HW2 7437   1.674   5.608   4.441
 2180SOL     OW 7438   3.393   3.479   2.746
 2180SOL    HW1 7439   3.440   3.468   2.833
 2180SOL    HW2 7440   3.366   3.575   2.735
 2181SOL     OW 7441   5.157   5.500   6.104
 2181SOL    HW1 7442   5.119   5.560   6.033
 2181SOL    HW2 7443   5.256   5.488   6.088
 2182SOL     OW 7444   0.287   2.958   6.130
 2182SOL    HW1 7445   0.199   2.920   6.103
 2182SOL    HW2 7446   0.299   3.048   6.089
 2183SOL     OW 7447   3.541   3.278   1.059
 2183SOL    HW1 7448   3.551   3.349   0.990
 2183SOL    HW2 7449   3.616   3.284   1.125
 2184SOL     OW 7450   3.850   2.614   6.332
 2184SOL    HW1 7451   3.913   2.666   6.274
 2184SOL    HW2 7452   3.760   2.610   6.287
 2185SOL     OW 7453   1.930   1.036   1.224
 2185SOL    HW1 7454   1.998   1.087   1.277
 2185SOL    HW2 7455   1.957   1.034   1.128
 2186SOL     OW 7456   0.586   6.135   3.252
 2186SOL    HW1 7457   0.677   6.133   3.293
 2186SOL    HW2 7458   0.524   6.189   3.309
 2187SOL     OW 7459   0.286   1.558   6.901
 2187SOL    HW1 7460   0.331   1.571   6.813
 2187SOL    HW2 7461   0.188   1.574   6.891
 2188SOL     OW 7462   5.797   0.022   2.666
 2188SOL    HW1 7463   5.727   0.064   2.723
 2188SOL    HW2 7464   5.830   6.965   2.710
 2189SOL     OW 7465   2.149   6.436   6.306
 2189SOL    HW1 7466   2.213   6.438   6.383
 2189SOL    HW2 7467   2.106   6.346   6.301
 2190SOL     OW 7468   5.280   1.842   2.039
 2190SOL    HW1 7469   5.323   1.909   1.979
 2190SOL    HW2 7470   5.331   1.756   2.033
 2191SOL     OW 7471   3.327   2.830   6.213
 2191SOL    HW1 7472   3.250   2.768   6.226
 2191SOL    HW2 7473   3.392   2.820   6.289
 2192SOL     OW 7474   4.428   5.735   4.833
 2192SOL    HW1 7475   4.456   5.668   4.764
 2192SOL    HW2 7476   4.492   5.732   4.910
 2193SOL     OW 7477   1.107   5.145   5.594
 2193SOL    HW1 7478   1.106   5.067   5.531
 2193SOL    HW2 7479   1.191   5.143   5.649
 2194SOL     OW 7480   2.479   0.105   0.947
 2194SOL    HW1 7481   2.509   0.165   1.021
 2194SOL    HW2 7482   2.422   0.032   0.985
 2195SOL     OW 7483   1.813   5.536   2.555
 2195SOL    HW1 7484   1.878   5.603   2.592
 2195SOL    HW2 7485   1.863   5.454   2.526
 2196SOL     OW 7486   3.422   1.975   6.392
 2196SOL    HW1 7487   3.410   1.885   6.432
 2196SOL    HW2 7488   3.391   2.045   6.456
 2197SOL     OW 7489   4.950   4.975   1.413
 2197SOL    HW1 7490   4.940   5.072   1.436
 2197SOL    HW2 7491   4.859   4.934   1.402
 2198SOL     OW 7492   6.778   3.810   0.772
 2198SOL    HW1 7493   6.702   3.861   0.813
 2198SOL    HW2 7494   6.805   3.736   0.834
 2199SOL     OW 7495   4.690   0.281   1.529
 2199SOL    HW1 7496   4.728   0.264   1.620
 2199SOL    HW2 7497   4.621   0.212   1.508
 2200SOL     OW 7498   3.505   0.304   4.486
 2200SOL    HW1 7499   3.589   0.279   4.436
 2200SOL    HW2 7500   3.529   0.338   4.576
 2201SOL     OW 7501   5.793   3.417   2.102
 2201SOL    HW1 7502   5.759   3.334   2.059
 2201SOL    HW2 7503   5.857   3.463   2.040
 2202SOL     OW 7504   4.843   5.670   3.964
 2202SOL    HW1 7505   4.771   5.679   3.895
 2202SOL    HW2 7506   4.888   5.759   3.976
 2203SOL     OW 7507   3.516   2.064   3.500
 2203SOL    HW1 7508   3.537   1.968   3.515
 2203SOL    HW2 7509   3.546   2.092   3.409
 2204SOL     OW 7510   3.270   2.771   0.522
 2204SOL    HW1 7511   3.337   2.749   0.451
 2204SOL    HW2 7512   3.288   2.863   0.557
 2205SOL     OW 7513   2.998   6.973   0.833
 2205SOL    HW1 7514   2.926   0.015   0.847
 2205SOL    HW2 7515   3.021   6.968   0.736
 2206SOL     OW 7516   2.258   3.212   6.568
 2206SOL    HW1 7517   2.310   3.206   6.653
 2206SOL    HW2 7518   2.202   3.295   6.569
 2207SOL     OW 7519   0.967   4.648   6.259
 2207SOL    HW1 7520   0.868   4.650   6.275
 2207SOL    HW2 7521   1.006   4.737   6.284
 2208SOL     OW 7522   0.226   3.655   1.847
 2208SOL    HW1 7523   0.258   3.665   1.753
 2208SOL    HW2 7524   0.295   3.607   1.901
 2209SOL     OW 7525   0.848   5.850   6.647
 2209SOL    HW1 7526   0.916   5.875   6.579
 2209SOL    HW2 7527   0.788   5.928   6.665
 2210SOL     OW 7528   0.773   6.125   4.109
 2210SOL    HW1 7529   0.784   6.112   4.208
 2210SOL    HW2 7530   0.690   6.178   4.091
 2211SOL     OW 7531   6.250   1.555   5.442
 2211SOL    HW1 7532   6.268   1.513   5.531
 2211SOL    HW2 7533   6.208   1.487   5.381
 2212SOL     OW 7534   1.829   0.180   6.372
 2212SOL    HW1 7535   1.918   0.224   6.357
 2212SOL    HW2 7536   1.814   0.169   6.471
 2213SOL     OW 7537   3.865   1.889   3.625
 2213SOL    HW1 7538   3.888   1.980   3.591
 2213SOL    HW2 7539   3.894   1.820   3.558
 2214SOL     OW 7540   5.045   0.032   4.559
 2214SOL    HW1 7541   5.022   0.088   4.480
 2214SOL    HW2 7542   5.040   6.962   4.534
 2215SOL     OW 7543   6.361   2.095   5.091
 2215SOL    HW1 7544   6.388   2.184   5.128
 2215SOL    HW2 7545   6.442   2.047   5.057
 2216SOL     OW 7546   1.714   6.751   1.747
 2216SOL    HW1 7547   1.721   6.718   1.841
 2216SOL    HW2 7548   1.630   6.715   1.705
 2217SOL     OW 7549   4.067   0.378   1.172
 2217SOL    HW1 7550   4.014   0.301   1.137
 2217SOL    HW2 7551   4.064   0.377   1.272
 2218SOL     OW 7552   0.634   6.099   0.457
 2218SOL    HW1 7553   0.615   6.018   0.513
 2218SOL    HW2 7554   0.610   6.080   0.362
 2219SOL     OW 7555   1.451   3.954   3.349
 2219SOL    HW1 7556   1.451   3.946   3.448
 2219SOL    HW2 7557   1.545   3.955   3.315
 2220SOL     OW 7558   0.404   1.105   6.560
 2220SOL    HW1 7559   0.351   1.076   6.640
 2220SOL    HW2 7560   0.453   1.026   6.523
 2221SOL     OW 7561   6.637   2.687   1.597
 2221SOL    HW1 7562   6.667   2.730   1.682
 2221SOL    HW2 7563   6.650   2.750   1.521
 2222SOL     OW 7564   4.794   6.577   2.776
 2222SOL    HW1 7565   4.886   6.538   2.766
 2222SOL    HW2 7566   4.801   6.675   2.793
 2223SOL     OW 7567   5.550   5.157   2.790
 2223SOL    HW1 7568   5.567   5.062   2.763
 2223SOL    HW2 7569   5.600   5.218   2.729
 2224SOL     OW 7570   1.555   4.550   1.458
 2224SOL    HW1 7571   1.463   4.513   1.441
 2224SOL    HW2 7572   1.549   4.648   1.473
 2225SOL     OW 7573   5.907   4.900   2.061
 2225SOL    HW1 7574   5.855   4.823   2.024
 2225SOL    HW2 7575   5.876   4.919   2.155
 2226SOL     OW 7576   3.967   4.501   1.090
 2226SOL    HW1 7577   4.047   4.558   1.070
 2226SOL    HW2 7578   3.951   4.438   1.013
 2227SOL     OW 7579   0.072   4.108   4.684
 2227SOL    HW1 7580   0.062   4.103   4.784
 2227SOL    HW2 7581   0.159   4.150   4.661
 2228SOL     OW 7582   2.982   5.136   6.020
 2228SOL    HW1 7583   2.899   5.191   6.012
 2228SOL    HW2 7584   2.962   5.042   5.990
 2229SOL     OW 7585   4.824   0.950   3.768
 2229SOL    HW1 7586   4.725   0.964   3.769
 2229SOL    HW2 7587   4.844   0.852   3.767
 2230SOL     OW 7588   1.364   6.279   6.808
 2230SOL    HW1 7589   1.413   6.312   6.727
 2230SOL    HW2 7590   1.328   6.188   6.791
 2231SOL     OW 7591   2.615   0.108   1.352
 2231SOL    HW1 7592   2.527   0.064   1.339
 2231SOL    HW2 7593   2.638   0.108   1.449
 2232SOL     OW 7594   6.168   2.754   3.001
 2232SOL    HW1 7595   6.215   2.830   2.955
 2232SOL    HW2 7596   6.071   2.777   3.012
 2233SOL     OW 7597   4.121   0.368   0.071
 2233SOL    HW1 7598   4.165   0.289   0.026
 2233SOL    HW2 7599   4.062   0.336   0.145
 2234SOL     OW 7600   3.498   1.814   0.794
 2234SOL    HW1 7601   3.545   1.735   0.834
 2234SOL    HW2 7602   3.523   1.896   0.846
 2235SOL     OW 7603   1.435   6.782   0.770
 2235SOL    HW1 7604   1.422   6.877   0.741
 2235SOL    HW2 7605   1.351   6.747   0.811
 2236SOL     OW 7606   0.236   4.434   1.017
 2236SOL    HW1 7607   0.219   4.364   1.086
 2236SOL    HW2 7608   0.173   4.511   1.031
 2237SOL     OW 7609   6.511   2.302   4.251
 2237SOL    HW1 7610   6.499   2.381   4.311
 2237SOL    HW2 7611   6.422   2.264   4.228
 2238SOL     OW 7612   1.344   5.594   2.056
 2238SOL    HW1 7613   1.418   5.650   2.095
 2238SOL    HW2 7614   1.384   5.514   2.011
 2239SOL     OW 7615   4.274   5.239   3.224
 2239SOL    HW1 7616   4.281   5.194   3.136
 2239SOL    HW2 7617   4.215   5.320   3.216
 2240SOL     OW 7618   5.611   4.266   2.120
 2240SOL    HW1 7619   5.671   4.318   2.180
 2240SOL    HW2 7620   5.578   4.326   2.047
 2241SOL     OW 7621   0.641   0.212   2.408
 2241SOL    HW1 7622   0.719   0.264   2.445
 2241SOL    HW2 7623   0.660   0.187   2.313
 2242SOL     OW 7624   4.798   1.799   2.666
 2242SOL    HW1 7625   4.885   1.814   2.714
 2242SOL    HW2 7626   4.798   1.709   2.624
 2243SOL     OW 7627   2.341   6.234   5.374
 2243SOL    HW1 7628   2.293   6.306   5.423
 2243SOL    HW2 7629   2.425   6.211   5.423
 2244SOL     OW 7630   2.922   0.495   4.720
 2244SOL    HW1 7631   2.959   0.581   4.755
 2244SOL    HW2 7632   2.825   0.507   4.697
 2245SOL     OW 7633   1.518   1.301   1.814
 2245SOL    HW1 7634   1.594   1.241   1.789
 2245SOL    HW2 7635   1.523   1.321   1.912
 2246SOL     OW 7636   0.932   3.798   5.828
 2246SOL    HW1 7637   0.996   3.774   5.901
 2246SOL    HW2 7638   0.940   3.895   5.807
 2247SOL     OW 7639   1.945   1.938   6.013
 2247SOL    HW1 7640   1.986   1.850   5.989
 2247SOL    HW2 7641   1.964   1.959   6.109
 2248SOL     OW 7642   5.036   3.120   5.278
 2248SOL    HW1 7643   4.997   3.211   5.265
 2248SOL    HW2 7644   5.000   3.057   5.209
 2249SOL     OW 7645   4.974   5.302   4.068
 2249SOL    HW1 7646   4.915   5.365   4.117
 2249SOL    HW2 7647   4.924   5.264   3.989
 2250SOL     OW 7648   6.411   4.550   0.024
 2250SOL    HW1 7649   6.333   4.602   0.059
 2250SOL    HW2 7650   6.416   4.462   0.071
 2251SOL     OW 7651   6.079   0.973   6.998
 2251SOL    HW1 7652   6.128   0.916   6.933
 2251SOL    HW2 7653   6.037   1.050   6.950
 2252SOL     OW 7654   4.300   2.189   5.548
 2252SOL    HW1 7655   4.319   2.282   5.580
 2252SOL    HW2 7656   4.201   2.174   5.549
 2253SOL     OW 7657   2.306   3.993   6.684
 2253SOL    HW1 7658   2.226   3.990   6.743
 2253SOL    HW2 7659   2.369   3.920   6.709
 2254SOL     OW 7660   2.264   3.847   6.069
 2254SOL    HW1 7661   2.326   3.910   6.024
 2254SOL    HW2 7662   2.212   3.895   6.139
 2255SOL     OW 7663   5.801   2.833   1.625
 2255SOL    HW1 7664   5.810   2.836   1.525
 2255SOL    HW2 7665   5.734   2.763   1.649
 2256SOL     OW 7666   4.166   4.928   1.729
 2256SOL    HW1 7667   4.160   4.853   1.794
 2256SOL    HW2 7668   4.075   4.968   1.716
 2257SOL     OW 7669   1.994   4.184   3.800
 2257SOL    HW1 7670   1.909   4.156   3.844
 2257SOL    HW2 7671   2.057   4.106   3.796
 2258SOL     OW 7672   1.569   5.286   4.193
 2258SOL    HW1 7673   1.560   5.383   4.217
 2258SOL    HW2 7674   1.663   5.269   4.162
 2259SOL     OW 7675   5.714   3.255   6.577
 2259SOL    HW1 7676   5.773   3.295   6.648
 2259SOL    HW2 7677   5.618   3.262   6.606
 2260SOL     OW 7678   5.323   5.438   0.739
 2260SOL    HW1 7679   5.343   5.404   0.831
 2260SOL    HW2 7680   5.380   5.389   0.673
 2261SOL     OW 7681   5.065   5.969   6.831
 2261SOL    HW1 7682   5.080   6.057   6.877
 2261SOL    HW2 7683   4.984   5.976   6.773
 2262SOL     OW 7684   4.577   1.975   3.119
 2262SOL    HW1 7685   4.500   1.928   3.077
 2262SOL    HW2 7686   4.574   1.962   3.219
 2263SOL     OW 7687   0.539   5.274   6.317
 2263SOL    HW1 7688   0.497   5.321   6.240
 2263SOL    HW2 7689   0.472   5.214   6.360
 2264SOL     OW 7690   3.690   4.063   4.200
 2264SOL    HW1 7691   3.763   4.124   4.170
 2264SOL    HW2 7692   3.620   4.057   4.129
 2265SOL     OW 7693   6.873   0.732   1.911
 2265SOL    HW1 7694   6.812   0.738   1.990
 2265SOL    HW2 7695   6.967   0.748   1.940
 2266SOL     OW 7696   5.930   6.875   1.060
 2266SOL    HW1 7697   5.852   6.866   1.122
 2266SOL    HW2 7698   5.976   6.962   1.076
 2267SOL     OW 7699   6.155   2.589   5.802
 2267SOL    HW1 7700   6.101   2.541   5.734
 2267SOL    HW2 7701   6.102   2.599   5.886
 2268SOL     OW 7702   0.082   5.569   0.113
 2268SOL    HW1 7703   0.031   5.616   0.184
 2268SOL    HW2 7704   0.040   5.586   0.024
 2269SOL     OW 7705   6.804   5.445   5.731
 2269SOL    HW1 7706   6.897   5.450   5.695
 2269SOL    HW2 7707   6.742   5.414   5.659
 2270SOL     OW 7708   4.013   3.554   1.652
 2270SOL    HW1 7709   3.946   3.532   1.723
 2270SOL    HW2 7710   3.993   3.500   1.570
 2271SOL     OW 7711   6.563   4.480   2.217
 2271SOL    HW1 7712   6.598   4.536   2.292
 2271SOL    HW2 7713   6.616   4.396   2.211
 2272SOL     OW 7714   6.054   1.861   6.241
 2272SOL    HW1 7715   5.977   1.920   6.216
 2272SOL    HW2 7716   6.030   1.807   6.321
 2273SOL     OW 7717   1.143   1.665   3.356
 2273SOL    HW1 7718   1.153   1.764   3.349
 2273SOL    HW2 7719   1.125   1.627   3.265
 2274SOL     OW 7720   1.352   2.982   4.205
 2274SOL    HW1 7721   1.314   2.892   4.184
 2274SOL    HW2 7722   1.281   3.051   4.195
 2275SOL     OW 7723   5.333   6.727   3.554
 2275SOL    HW1 7724   5.409   6.723   3.618
 2275SOL    HW2 7725   5.272   6.802   3.579
 2276SOL     OW 7726   4.727   4.756   1.643
 2276SOL    HW1 7727   4.740   4.680   1.580
 2276SOL    HW2 7728   4.664   4.729   1.716
 2277SOL     OW 7729   3.241   3.803   0.094
 2277SOL    HW1 7730   3.183   3.879   0.065
 2277SOL    HW2 7731   3.191   3.717   0.086
 2278SOL     OW 7732   5.615   6.313   1.527
 2278SOL    HW1 7733   5.699   6.298   1.475
 2278SOL    HW2 7734   5.637   6.319   1.625
 2279SOL     OW 7735   5.818   3.732   5.109
 2279SOL    HW1 7736   5.911   3.719   5.074
 2279SOL    HW2 7737   5.767   3.647   5.099
 2280SOL     OW 7738   6.016   6.636   6.479
 2280SOL    HW1 7739   6.089   6.599   6.422
 2280SOL    HW2 7740   5.995   6.730   6.451
 2281SOL     OW 7741   3.698   3.094   0.827
 2281SOL    HW1 7742   3.685   3.193   0.822
 2281SOL    HW2 7743   3.694   3.064   0.922
 2282SOL     OW 7744   3.890   5.359   3.273
 2282SOL    HW1 7745   3.983   5.382   3.246
 2282SOL    HW2 7746   3.892   5.296   3.351
 2283SOL     OW 7747   6.710   3.195   3.537
 2283SOL    HW1 7748   6.620   3.232   3.557
 2283SOL    HW2 7749   6.702   3.125   3.465
 2284SOL     OW 7750   1.888   2.807   2.162
 2284SOL    HW1 7751   1.983   2.836   2.154
 2284SOL    HW2 7752   1.866   2.788   2.258
 2285SOL     OW 7753   2.228   4.507   0.228
 2285SOL    HW1 7754   2.159   4.443   0.262
 2285SOL    HW2 7755   2.183   4.578   0.174
 2286SOL     OW 7756   6.514   6.619   4.324
 2286SOL    HW1 7757   6.421   6.584   4.319
 2286SOL    HW2 7758   6.531   6.657   4.415
 2287SOL     OW 7759   2.213   2.962   1.836
 2287SOL    HW1 7760   2.309   2.963   1.809
 2287SOL    HW2 7761   2.202   2.910   1.921
 2288SOL     OW 7762   0.200   6.180   4.347
 2288SOL    HW1 7763   0.260   6.165   4.425
 2288SOL    HW2 7764   0.106   6.160   4.373
 2289SOL     OW 7765   5.517   2.293   1.697
 2289SOL    HW1 7766   5.485   2.210   1.743
 2289SOL    HW2 7767   5.545   2.360   1.766
 2290SOL     OW 7768   3.338   3.075   3.049
 2290SOL    HW1 7769   3.264   3.100   3.112
 2290SOL    HW2 7770   3.327   3.126   2.964
 2291SOL     OW 7771   1.904   2.860   0.509
 2291SOL    HW1 7772   1.960   2.857   0.592
 2291SOL    HW2 7773   1.963   2.846   0.429
 2292SOL     OW 7774   4.258   2.331   2.892
 2292SOL    HW1 7775   4.277   2.369   2.801
 2292SOL    HW2 7776   4.339   2.282   2.924
 2293SOL     OW 7777   6.330   1.162   0.313
 2293SOL    HW1 7778   6.242   1.181   0.270
 2293SOL    HW2 7779   6.395   1.235   0.290
 2294SOL     OW 7780   0.664   2.331   5.855
 2294SOL    HW1 7781   0.653   2.305   5.951
 2294SOL    HW2 7782   0.757   2.365   5.840
 2295SOL     OW 7783   6.074   6.237   1.357
 2295SOL    HW1 7784   6.110   6.254   1.448
 2295SOL    HW2 7785   6.121   6.296   1.291
 2296SOL     OW 7786   3.020   5.238   3.962
 2296SOL    HW1 7787   2.953   5.164   3.959
 2296SOL    HW2 7788   3.093   5.218   3.896
 2297SOL     OW 7789   4.207   4.458   5.439
 2297SOL    HW1 7790   4.219   4.466   5.340
 2297SOL    HW2 7791   4.133   4.394   5.459
 2298SOL     OW 7792   4.167   3.403   4.525
 2298SOL    HW1 7793   4.261   3.372   4.516
 2298SOL    HW2 7794   4.133   3.381   4.617
 2299SOL     OW 7795   5.374   3.196   4.600
 2299SOL    HW1 7796   5.422   3.110   4.617
 2299SOL    HW2 7797   5.318   3.188   4.518
 2300SOL     OW 7798   4.113   6.575   2.276
 2300SOL    HW1 7799   4.124   6.633   2.357
 2300SOL    HW2 7800   4.133   6.480   2.300
 2301SOL     OW 7801   3.945   3.181   4.336
 2301SOL    HW1 7802   3.865   3.138   4.296
 2301SOL    HW2 7803   3.983   3.122   4.408
 2302SOL     OW 7804   4.240   2.375   0.434
 2302SOL    HW1 7805   4.272   2.282   0.449
 2302SOL    HW2 7806   4.295   2.418   0.363
 2303SOL     OW 7807   3.725   2.273   0.351
 2303SOL    HW1 7808   3.795   2.344   0.357
 2303SOL    HW2 7809   3.641   2.304   0.396
 2304SOL     OW 7810   6.207   5.887   1.776
 2304SOL    HW1 7811   6.265   5.807   1.765
 2304SOL    HW2 7812   6.169   5.913   1.687
 2305SOL     OW 7813   2.203   1.092   5.205
 2305SOL    HW1 7814   2.178   0.997   5.190
 2305SOL    HW2 7815   2.234   1.132   5.118
 2306SOL     OW 7816   1.502   5.490   3.926
 2306SOL    HW1 7817   1.564   5.411   3.930
 2306SOL    HW2 7818   1.556   5.574   3.919
 2307SOL     OW 7819   0.020   2.617   5.948
 2307SOL    HW1 7820   7.022   2.604   5.852
 2307SOL    HW2 7821   0.054   2.531   5.986
 2308SOL     OW 7822   2.546   4.798   1.629
 2308SOL    HW1 7823   2.563   4.743   1.710
 2308SOL    HW2 7824   2.626   4.795   1.569
 2309SOL     OW 7825   1.565   6.245   5.099
 2309SOL    HW1 7826   1.641   6.184   5.079
 2309SOL    HW2 7827   1.490   6.192   5.139
 2310SOL     OW 7828   4.804   6.557   1.610
 2310SOL    HW1 7829   4.802   6.479   1.547
 2310SOL    HW2 7830   4.869   6.625   1.576
 2311SOL     OW 7831   2.489   6.086   1.265
 2311SOL    HW1 7832   2.432   6.118   1.189
 2311SOL    HW2 7833   2.568   6.037   1.228
 2312SOL     OW 7834   3.276   4.928   2.580
 2312SOL    HW1 7835   3.198   4.901   2.637
 2312SOL    HW2 7836   3.249   5.005   2.522
 2313SOL     OW 7837   4.470   5.341   2.062
 2313SOL    HW1 7838   4.560   5.329   2.105
 2313SOL    HW2 7839   4.444   5.437   2.067
 2314SOL     OW 7840   2.689   5.530   4.160
 2314SOL    HW1 7841   2.648   5.450   4.203
 2314SOL    HW2 7842   2.771   5.503   4.109
 2315SOL     OW 7843   4.225   3.110   6.497
 2315SOL    HW1 7844   4.215   3.186   6.561
 2315SOL    HW2 7845   4.135   3.067   6.483
 2316SOL     OW 7846   5.465   2.948   2.926
 2316SOL    HW1 7847   5.400   2.888   2.880
 2316SOL    HW2 7848   5.500   3.016   2.862
 2317SOL     OW 7849   1.317   5.047   3.668
 2317SOL    HW1 7850   1.323   5.000   3.580
 2317SOL    HW2 7851   1.385   5.120   3.672
 2318SOL     OW 7852   6.998   1.321   3.385
 2318SOL    HW1 7853   6.942   1.342   3.465
 2318SOL    HW2 7854   0.061   1.364   3.394
 2319SOL     OW 7855   0.914   4.199   4.439
 2319SOL    HW1 7856   1.007   4.162   4.446
 2319SOL    HW2 7857   0.850   4.135   4.483
 2320SOL     OW 7858   6.385   3.464   4.494
 2320SOL    HW1 7859   6.471   3.516   4.487
 2320SOL    HW2 7860   6.342   3.483   4.583
 2321SOL     OW 7861   3.202   6.505   5.624
 2321SOL    HW1 7862   3.285   6.454   5.649
 2321SOL    HW2 7863   3.221   6.558   5.541
 2322SOL     OW 7864   2.427   0.178   5.869
 2322SOL    HW1 7865   2.501   0.214   5.813
 2322SOL    HW2 7866   2.385   0.253   5.921
 2323SOL     OW 7867   4.959   5.144   1.894
 2323SOL    HW1 7868   4.952   5.049   1.923
 2323SOL    HW2 7869   5.014   5.196   1.960
 2324SOL     OW 7870   6.848   5.678   3.552
 2324SOL    HW1 7871   6.939   5.700   3.516
 2324SOL    HW2 7872   6.816   5.753   3.609
 2325SOL     OW 7873   0.265   3.601   0.342
 2325SOL    HW1 7874   0.311   3.676   0.294
 2325SOL    HW2 7875   0.168   3.602   0.320
 2326SOL     OW 7876   1.459   5.217   0.049
 2326SOL    HW1 7877   1.421   5.170   6.996
 2326SOL    HW2 7878   1.547   5.258   0.026
 2327SOL     OW 7879   4.874   2.279   4.826
 2327SOL    HW1 7880   4.775   2.283   4.811
 2327SOL    HW2 7881   4.892   2.224   4.908
 2328SOL     OW 7882   4.716   6.648   3.433
 2328SOL    HW1 7883   4.667   6.733   3.414
 2328SOL    HW2 7884   4.711   6.588   3.353
 2329SOL     OW 7885   0.348   6.106   4.106
 2329SOL    HW1 7886   0.335   6.032   4.039
 2329SOL    HW2 7887   0.265   6.115   4.162
 2330SOL     OW 7888   7.006   4.297   2.950
 2330SOL    HW1 7889   0.061   4.355   2.942
 2330SOL    HW2 7890   6.962   4.288   2.861
 2331SOL     OW 7891   0.863   4.310   5.395
 2331SOL    HW1 7892   0.793   4.300   5.324
 2331SOL    HW2 7893   0.954   4.311   5.353
 2332SOL     OW 7894   5.345   2.046   5.459
 2332SOL    HW1 7895   5.261   1.992   5.458
 2332SOL    HW2 7896   5.407   2.011   5.389
 2333SOL     OW 7897   0.949   5.635   4.068
 2333SOL    HW1 7898   0.865   5.684   4.089
 2333SOL    HW2 7899   1.006   5.629   4.151
 2334SOL     OW 7900   2.804   0.254   0.293
 2334SOL    HW1 7901   2.738   0.326   0.314
 2334SOL    HW2 7902   2.803   0.186   0.366
 2335SOL     OW 7903   5.579   6.700   3.748
 2335SOL    HW1 7904   5.633   6.671   3.669
 2335SOL    HW2 7905   5.600   6.642   3.826
 2336SOL     OW 7906   5.123   1.561   5.933
 2336SOL    HW1 7907   5.068   1.478   5.942
 2336SOL    HW2 7908   5.140   1.599   6.024
 2337SOL     OW 7909   5.157   0.075   2.788
 2337SOL    HW1 7910   5.070   0.122   2.780
 2337SOL    HW2 7911   5.142   7.003   2.794
 2338SOL     OW 7912   0.839   6.494   6.549
 2338SOL    HW1 7913   0.923   6.471   6.599
 2338SOL    HW2 7914   0.857   6.569   6.486
 2339SOL     OW 7915   3.894   4.312   0.396
 2339SOL    HW1 7916   3.831   4.381   0.430
 2339SOL    HW2 7917   3.844   4.228   0.375
 2340SOL     OW 7918   3.426   5.186   4.935
 2340SOL    HW1 7919   3.390   5.159   5.024
 2340SOL    HW2 7920   3.432   5.286   4.931
 2341SOL     OW 7921   5.648   5.141   0.235
 2341SOL    HW1 7922   5.743   5.154   0.207
 2341SOL    HW2 7923   5.645   5.102   0.327
 2342SOL     OW 7924   6.179   0.498   5.657
 2342SOL    HW1 7925   6.181   0.552   5.573
 2342SOL    HW2 7926   6.135   0.551   5.730
 2343SOL     OW 7927   1.191   6.762   1.230
 2343SOL    HW1 7928   1.101   6.724   1.251
 2343SOL    HW2 7929   1.244   6.771   1.314
 2344SOL     OW 7930   1.987   2.266   2.754
 2344SOL    HW1 7931   1.945   2.319   2.680
 2344SOL    HW2 7932   2.045   2.326   2.809
 2345SOL     OW 7933   2.009   1.247   4.489
 2345SOL    HW1 7934   2.037   1.343   4.478
 2345SOL    HW2 7935   1.954   1.237   4.571
 2346SOL     OW 7936   5.159   3.580   5.789
 2346SOL    HW1 7937   5.112   3.668   5.776
 2346SOL    HW2 7938   5.103   3.506   5.752
 2347SOL     OW 7939   1.720   3.084   1.836
 2347SOL    HW1 7940   1.685   3.166   1.882
 2347SOL    HW2 7941   1.649   3.044   1.778
 2348SOL     OW 7942   2.661   6.712   1.946
 2348SOL    HW1 7943   2.723   6.786   1.919
 2348SOL    HW2 7944   2.622   6.670   1.863
 2349SOL     OW 7945   5.060   5.647   5.898
 2349SOL    HW1 7946   5.098   5.734   5.866
 2349SOL    HW2 7947   5.064   5.580   5.824
 2350SOL     OW 7948   2.205   6.429   5.480
 2350SOL    HW1 7949   2.223   6.523   5.510
 2350SOL    HW2 7950   2.155   6.380   5.551
 2351SOL     OW 7951   2.281   5.706   4.232
 2351SOL    HW1 7952   2.259   5.646   4.154
 2351SOL    HW2 7953   2.208   5.699   4.300
 2352SOL     OW 7954   0.686   3.641   2.535
 2352SOL    HW1 7955   0.785   3.652   2.543
 2352SOL    HW2 7956   0.653   3.693   2.456
 2353SOL     OW 7957   3.242   4.347   6.110
 2353SOL    HW1 7958   3.248   4.356   6.209
 2353SOL    HW2 7959   3.334   4.341   6.071
 2354SOL     OW 7960   3.966   2.258   0.622
 2354SOL    HW1 7961   3.909   2.318   0.566
 2354SOL    HW2 7962   3.993   2.178   0.569
 2355SOL     OW 7963   0.750   6.694   0.660
 2355SOL    HW1 7964   0.730   6.691   0.562
 2355SOL    HW2 7965   0.687   6.758   0.704
 2356SOL     OW 7966   2.855   4.993   3.358
 2356SOL    HW1 7967   2.826   4.906   3.399
 2356SOL    HW2 7968   2.883   4.978   3.263
 2357SOL     OW 7969   6.472   4.422   1.530
 2357SOL    HW1 7970   6.507   4.416   1.624
 2357SOL    HW2 7971   6.496   4.510   1.491
 2358SOL     OW 7972   3.985   1.807   5.913
 2358SOL    HW1 7973   4.022   1.723   5.954
 2358SOL    HW2 7974   3.899   1.830   5.957
 2359SOL     OW 7975   1.727   1.537   5.852
 2359SOL    HW1 7976   1.716   1.560   5.949
 2359SOL    HW2 7977   1.740   1.439   5.842
 2360SOL     OW 7978   4.441   4.298   0.860
 2360SOL    HW1 7979   4.360   4.266   0.811
 2360SOL    HW2 7980   4.521   4.247   0.827
 2361SOL     OW 7981   3.882   6.310   1.839
 2361SOL    HW1 7982   3.962   6.283   1.786
 2361SOL    HW2 7983   3.871   6.249   1.917
 2362SOL     OW 7984   4.094   6.357   4.110
 2362SOL    HW1 7985   4.035   6.383   4.187
 2362SOL    HW2 7986   4.088   6.258   4.097
 2363SOL     OW 7987   2.934   3.782   0.961
 2363SOL    HW1 7988   2.890   3.802   0.873
 2363SOL    HW2 7989   2.866   3.747   1.025
 2364SOL     OW 7990   4.241   1.254   2.219
 2364SOL    HW1 7991   4.146   1.286   2.219
 2364SOL    HW2 7992   4.291   1.298   2.293
 2365SOL     OW 7993   4.882   3.626   3.437
 2365SOL    HW1 7994   4.875   3.550   3.372
 2365SOL    HW2 7995   4.888   3.590   3.530
 2366SOL     OW 7996   2.605   4.643   5.221
 2366SOL    HW1 7997   2.578   4.566   5.279
 2366SOL    HW2 7998   2.690   4.621   5.174
 2367SOL     OW 7999   7.004   4.653   5.483
 2367SOL    HW1 8000   0.008   4.706   5.562
 2367SOL    HW2 8001   6.928   4.593   5.511
 2368SOL     OW 8002   5.540   6.143   4.254
 2368SOL    HW1 8003   5.594   6.060   4.265
 2368SOL    HW2 8004   5.443   6.122   4.265
 2369SOL     OW 8005   2.943   1.968   4.206
 2369SOL    HW1 8006   3.009   1.894   4.214
 2369SOL    HW2 8007   2.958   2.035   4.279
 2370SOL     OW 8008   5.537   2.700   1.276
 2370SOL    HW1 8009   5.513   2.628   1.211
 2370SOL    HW2 8010   5.615   2.752   1.241
 2371SOL     OW 8011   0.996   6.566   3.014
 2371SOL    HW1 8012   1.094   6.549   3.018
 2371SOL    HW2 8013   0.952   6.498   2.956
 2372SOL     OW 8014   6.222   0.850   6.238
 2372SOL    HW1 8015   6.153   0.799   6.186
 2372SOL    HW2 8016   6.229   0.943   6.201
 2373SOL     OW 8017   5.977   6.324   6.166
 2373SOL    HW1 8018   6.023   6.271   6.096
 2373SOL    HW2 8019   5.907   6.382   6.123
 2374SOL     OW 8020   5.624   5.740   2.157
 2374SOL    HW1 8021   5.554   5.695   2.213
 2374SOL    HW2 8022   5.676   5.671   2.107
 2375SOL     OW 8023   1.165   0.642   3.921
 2375SOL    HW1 8024   1.108   0.562   3.939
 2375SOL    HW2 8025   1.254   0.613   3.887
 2376SOL     OW 8026   5.783   1.313   3.045
 2376SOL    HW1 8027   5.734   1.266   3.119
 2376SOL    HW2 8028   5.830   1.245   2.989
 2377SOL     OW 8029   4.364   5.324   5.900
 2377SOL    HW1 8030   4.321   5.379   5.971
 2377SOL    HW2 8031   4.462   5.342   5.899
 2378SOL     OW 8032   0.009   1.103   0.195
 2378SOL    HW1 8033   0.002   1.170   0.268
 2378SOL    HW2 8034   6.993   1.017   0.224
 2379SOL     OW 8035   6.994   4.944   0.900
 2379SOL    HW1 8036   6.989   4.854   0.858
 2379SOL    HW2 8037   6.971   4.938   0.997
 2380SOL     OW 8038   4.867   4.698   5.028
 2380SOL    HW1 8039   4.846   4.701   4.930
 2380SOL    HW2 8040   4.926   4.776   5.051
 2381SOL     OW 8041   2.695   4.762   4.561
 2381SOL    HW1 8042   2.677   4.686   4.623
 2381SOL    HW2 8043   2.740   4.836   4.611
 2382SOL     OW 8044   1.091   5.828   1.654
 2382SOL    HW1 8045   1.041   5.750   1.690
 2382SOL    HW2 8046   1.190   5.812   1.663
 2383SOL     OW 8047   4.713   5.537   5.417
 2383SOL    HW1 8048   4.722   5.637   5.419
 2383SOL    HW2 8049   4.665   5.510   5.333
 2384SOL     OW 8050   0.882   1.855   1.681
 2384SOL    HW1 8051   0.911   1.875   1.774
 2384SOL    HW2 8052   0.923   1.922   1.618
 2385SOL     OW 8053   0.974   2.111   1.270
 2385SOL    HW1 8054   0.907   2.060   1.217
 2385SOL    HW2 8055   0.995   2.197   1.224
 2386SOL     OW 8056   4.444   5.647   4.297
 2386SOL    HW1 8057   4.406   5.696   4.218
 2386SOL    HW2 8058   4.544   5.659   4.299
 2387SOL     OW 8059   1.502   1.527   4.156
 2387SOL    HW1 8060   1.578   1.570   4.203
 2387SOL    HW2 8061   1.442   1.597   4.118
 2388SOL     OW 8062   6.641   1.891   5.322
 2388SOL    HW1 8063   6.628   1.904   5.224
 2388SOL    HW2 8064   6.555   1.862   5.364
 2389SOL     OW 8065   5.760   4.583   4.041
 2389SOL    HW1 8066   5.781   4.668   4.090
 2389SOL    HW2 8067   5.777   4.505   4.101
 2390SOL     OW 8068   4.169   4.127   5.604
 2390SOL    HW1 8069   4.143   4.210   5.554
 2390SOL    HW2 8070   4.131   4.131   5.697
 2391SOL     OW 8071   3.797   3.943   6.112
 2391SOL    HW1 8072   3.856   4.015   6.149
 2391SOL    HW2 8073   3.851   3.885   6.050
 2392SOL     OW 8074   3.858   5.138   5.565
 2392SOL    HW1 8075   3.860   5.202   5.488
 2392SOL    HW2 8076   3.806   5.056   5.539
 2393SOL     OW 8077   3.286   5.805   1.272
 2393SOL    HW1 8078   3.259   5.889   1.319
 2393SOL    HW2 8079   3.273   5.727   1.333
 2394SOL     OW 8080   0.836   2.636   3.192
 2394SOL    HW1 8081   0.847   2.729   3.229
 2394SOL    HW2 8082   0.877   2.570   3.254
 2395SOL     OW 8083   0.166   2.095   4.950
 2395SOL    HW1 8084   0.140   2.102   4.854
 2395SOL    HW2 8085   0.101   2.036   4.998
 2396SOL     OW 8086   6.625   1.002   4.997
 2396SOL    HW1 8087   6.545   1.041   5.042
 2396SOL    HW2 8088   6.601   0.913   4.958
 2397SOL     OW 8089   0.220   4.927   5.367
 2397SOL    HW1 8090   0.151   4.994   5.393
 2397SOL    HW2 8091   0.244   4.871   5.446
 2398SOL     OW 8092   2.746   5.786   3.634
 2398SOL    HW1 8093   2.679   5.859   3.644
 2398SOL    HW2 8094   2.784   5.763   3.723
 2399SOL     OW 8095   2.674   2.298   4.439
 2399SOL    HW1 8096   2.610   2.369   4.409
 2399SOL    HW2 8097   2.683   2.301   4.538
 2400SOL     OW 8098   0.830   4.268   0.780
 2400SOL    HW1 8099   0.783   4.195   0.730
 2400SOL    HW2 8100   0.817   4.255   0.878
 2401SOL     OW 8101   3.763   6.990   5.658
 2401SOL    HW1 8102   3.797   0.053   5.688
 2401SOL    HW2 8103   3.700   6.954   5.727
 2402SOL     OW 8104   1.009   3.989   2.262
 2402SOL    HW1 8105   1.098   3.945   2.252
 2402SOL    HW2 8106   1.007   4.073   2.207
 2403SOL     OW 8107   3.545   3.909   2.864
 2403SOL    HW1 8108   3.573   3.816   2.887
 2403SOL    HW2 8109   3.455   3.927   2.902
 2404SOL     OW 8110   6.475   2.096   0.950
 2404SOL    HW1 8111   6.495   2.000   0.932
 2404SOL    HW2 8112   6.561   2.147   0.961
 2405SOL     OW 8113   2.196   3.710   0.772
 2405SOL    HW1 8114   2.111   3.760   0.753
 2405SOL    HW2 8115   2.225   3.662   0.689
 2406SOL     OW 8116   2.690   6.673   4.964
 2406SOL    HW1 8117   2.753   6.628   4.901
 2406SOL    HW2 8118   2.697   6.772   4.954
 2407SOL     OW 8119   3.731   1.388   3.657
 2407SOL    HW1 8120   3.645   1.363   3.613
 2407SOL    HW2 8121   3.753   1.321   3.728
 2408SOL     OW 8122   2.868   5.598   4.671
 2408SOL    HW1 8123   2.796   5.627   4.608
 2408SOL    HW2 8124   2.839   5.517   4.721
 2409SOL     OW 8125   2.293   2.692   1.634
 2409SOL    HW1 8126   2.231   2.748   1.579
 2409SOL    HW2 8127   2.245   2.610   1.665
 2410SOL     OW 8128   0.285   3.642   5.343
 2410SOL    HW1 8129   0.239   3.568   5.391
 2410SOL    HW2 8130   0.377   3.613   5.316
 2411SOL     OW 8131   2.548   3.784   0.067
 2411SOL    HW1 8132   2.542   3.729   0.150
 2411SOL    HW2 8133   2.613   3.741   0.004
 2412SOL     OW 8134   3.791   1.875   6.474
 2412SOL    HW1 8135   3.713   1.927   6.511
 2412SOL    HW2 8136   3.861   1.866   6.544
 2413SOL     OW 8137   6.805   3.137   6.519
 2413SOL    HW1 8138   6.741   3.196   6.469
 2413SOL    HW2 8139   6.874   3.103   6.456
 2414SOL     OW 8140   6.096   2.370   4.501
 2414SOL    HW1 8141   6.175   2.316   4.529
 2414SOL    HW2 8142   6.036   2.314   4.444
 2415SOL     OW 8143   2.741   6.069   1.092
 2415SOL    HW1 8144   2.757   5.971   1.081
 2415SOL    HW2 8145   2.828   6.115   1.112
 2416SOL     OW 8146   6.637   3.695   3.043
 2416SOL    HW1 8147   6.682   3.612   3.077
 2416SOL    HW2 8148   6.706   3.760   3.013
 2417SOL     OW 8149   3.629   3.550   1.204
 2417SOL    HW1 8150   3.621   3.484   1.278
 2417SOL    HW2 8151   3.559   3.531   1.135
 2418SOL     OW 8152   4.555   3.898   5.908
 2418SOL    HW1 8153   4.518   3.858   5.824
 2418SOL    HW2 8154   4.655   3.893   5.905
 2419SOL     OW 8155   1.958   6.512   4.454
 2419SOL    HW1 8156   1.995   6.452   4.525
 2419SOL    HW2 8157   1.887   6.464   4.403
 2420SOL     OW 8158   1.983   4.400   2.611
 2420SOL    HW1 8159   1.990   4.367   2.705
 2420SOL    HW2 8160   2.067   4.449   2.587
 2421SOL     OW 8161   2.991   6.544   4.584
 2421SOL    HW1 8162   2.919   6.545   4.514
 2421SOL    HW2 8163   3.080   6.558   4.540
 2422SOL     OW 8164   4.095   6.446   0.788
 2422SOL    HW1 8165   4.113   6.452   0.690
 2422SOL    HW2 8166   4.181   6.429   0.836
 2423SOL     OW 8167   2.010   4.991   2.244
 2423SOL    HW1 8168   2.058   4.979   2.158
 2423SOL    HW2 8169   2.068   4.960   2.320
 2424SOL     OW 8170   5.560   1.276   5.957
 2424SOL    HW1 8171   5.597   1.264   5.865
 2424SOL    HW2 8172   5.564   1.189   6.006
 2425SOL     OW 8173   4.680   5.356   5.633
 2425SOL    HW1 8174   4.715   5.440   5.590
 2425SOL    HW2 8175   4.714   5.350   5.726
 2426SOL     OW 8176   1.306   4.881   5.628
 2426SOL    HW1 8177   1.265   4.906   5.540
 2426SOL    HW2 8178   1.371   4.952   5.656
 2427SOL     OW 8179   5.323   0.860   6.693
 2427SOL    HW1 8180   5.357   0.950   6.719
 2427SOL    HW2 8181   5.226   0.854   6.715
 2428SOL     OW 8182   0.219   0.881   3.238
 2428SOL    HW1 8183   0.312   0.895   3.206
 2428SOL    HW2 8184   0.170   0.968   3.237
 2429SOL     OW 8185   5.285   5.655   1.806
 2429SOL    HW1 8186   5.297   5.556   1.796
 2429SOL    HW2 8187   5.363   5.703   1.767
 2430SOL     OW 8188   6.115   2.624   6.655
 2430SOL    HW1 8189   6.092   2.565   6.577
 2430SOL    HW2 8190   6.032   2.663   6.693
 2431SOL     OW 8191   6.869   2.330   1.749
 2431SOL    HW1 8192   6.960   2.342   1.788
 2431SOL    HW2 8193   6.875   2.323   1.649
 2432SOL     OW 8194   3.629   5.337   2.340
 2432SOL    HW1 8195   3.575   5.290   2.270
 2432SOL    HW2 8196   3.651   5.274   2.414
 2433SOL     OW 8197   6.754   3.959   0.279
 2433SOL    HW1 8198   6.744   3.960   0.378
 2433SOL    HW2 8199   6.823   3.891   0.253
 2434SOL     OW 8200   4.104   1.983   3.202
 2434SOL    HW1 8201   4.113   2.080   3.178
 2434SOL    HW2 8202   4.013   1.951   3.176
 2435SOL     OW 8203   5.289   6.361   6.627
 2435SOL    HW1 8204   5.284   6.451   6.672
 2435SOL    HW2 8205   5.312   6.373   6.531
 2436SOL     OW 8206   2.400   1.742   1.102
 2436SOL    HW1 8207   2.348   1.744   1.017
 2436SOL    HW2 8208   2.417   1.836   1.133
 2437SOL     OW 8209   6.777   5.439   1.911
 2437SOL    HW1 8210   6.776   5.398   1.820
 2437SOL    HW2 8211   6.815   5.373   1.976
 2438SOL     OW 8212   2.954   1.653   4.842
 2438SOL    HW1 8213   2.881   1.700   4.793
 2438SOL    HW2 8214   2.930   1.556   4.854
 2439SOL     OW 8215   0.665   5.889   0.628
 2439SOL    HW1 8216   0.749   5.887   0.575
 2439SOL    HW2 8217   0.668   5.818   0.698
 2440SOL     OW 8218   4.957   0.618   5.271
 2440SOL    HW1 8219   4.914   0.540   5.226
 2440SOL    HW2 8220   5.053   0.624   5.243
 2441SOL     OW 8221   6.008   0.015   0.080
 2441SOL    HW1 8222   5.915   0.049   0.090
 2441SOL    HW2 8223   6.071   0.093   0.072
 2442SOL     OW 8224   4.896   3.841   2.010
 2442SOL    HW1 8225   4.905   3.865   1.913
 2442SOL    HW2 8226   4.883   3.743   2.019
 2443SOL     OW 8227   2.346   2.150   0.586
 2443SOL    HW1 8228   2.279   2.147   0.512
 2443SOL    HW2 8229   2.311   2.098   0.664
 2444SOL     OW 8230   3.854   6.115   1.024
 2444SOL    HW1 8231   3.862   6.048   0.950
 2444SOL    HW2 8232   3.766   6.103   1.071
 2445SOL     OW 8233   0.203   2.700   1.056
 2445SOL    HW1 8234   0.230   2.750   1.138
 2445SOL    HW2 8235   0.278   2.641   1.026
 2446SOL     OW 8236   1.645   3.523   1.450
 2446SOL    HW1 8237   1.561   3.486   1.488
 2446SOL    HW2 8238   1.722   3.501   1.510
 2447SOL     OW 8239   3.518   0.252   0.906
 2447SOL    HW1 8240   3.461   0.174   0.880
 2447SOL    HW2 8241   3.469   0.337   0.889
 2448SOL     OW 8242   5.896   1.850   3.901
 2448SOL    HW1 8243   5.947   1.883   3.822
 2448SOL    HW2 8244   5.905   1.915   3.976
 2449SOL     OW 8245   1.927   4.230   2.149
 2449SOL    HW1 8246   1.868   4.310   2.135
 2449SOL    HW2 8247   1.880   4.163   2.207
 2450SOL     OW 8248   1.913   5.659   6.450
 2450SOL    HW1 8249   1.999   5.610   6.433
 2450SOL    HW2 8250   1.907   5.683   6.547
 2451SOL     OW 8251   0.644   0.210   4.618
 2451SOL    HW1 8252   0.637   0.280   4.546
 2451SOL    HW2 8253   0.740   0.203   4.647
 2452SOL     OW 8254   2.646   2.183   3.820
 2452SOL    HW1 8255   2.587   2.127   3.878
 2452SOL    HW2 8256   2.739   2.144   3.819
 2453SOL     OW 8257   0.664   1.476   7.001
 2453SOL    HW1 8258   0.603   1.549   0.005
 2453SOL    HW2 8259   0.759   1.509   7.001
 2454SOL     OW 8260   4.152   5.878   1.085
 2454SOL    HW1 8261   4.134   5.782   1.064
 2454SOL    HW2 8262   4.197   5.885   1.174
 2455SOL     OW 8263   4.328   1.058   0.366
 2455SOL    HW1 8264   4.312   0.979   0.425
 2455SOL    HW2 8265   4.310   1.033   0.271
 2456SOL     OW 8266   0.978   4.649   0.094
 2456SOL    HW1 8267   1.065   4.617   0.132
 2456SOL    HW2 8268   0.995   4.695   0.006
 2457SOL     OW 8269   5.638   1.739   5.505
 2457SOL    HW1 8270   5.578   1.811   5.471
 2457SOL    HW2 8271   5.629   1.732   5.604
 2458SOL     OW 8272   1.303   6.679   2.815
 2458SOL    HW1 8273   1.227   6.675   2.879
 2458SOL    HW2 8274   1.304   6.767   2.769
 2459SOL     OW 8275   2.668   6.166   0.836
 2459SOL    HW1 8276   2.676   6.124   0.926
 2459SOL    HW2 8277   2.758   6.193   0.803
 2460SOL     OW 8278   1.573   0.993   6.393
 2460SOL    HW1 8279   1.556   1.057   6.467
 2460SOL    HW2 8280   1.671   0.979   6.382
 2461SOL     OW 8281   4.245   0.709   4.122
 2461SOL    HW1 8282   4.151   0.735   4.100
 2461SOL    HW2 8283   4.244   0.644   4.198
 2462SOL     OW 8284   0.673   4.667   0.936
 2462SOL    HW1 8285   0.616   4.747   0.918
 2462SOL    HW2 8286   0.754   4.670   0.878
 2463SOL     OW 8287   6.770   1.118   6.321
 2463SOL    HW1 8288   6.752   1.165   6.407
 2463SOL    HW2 8289   6.700   1.048   6.306
 2464SOL     OW 8290   0.718   2.398   3.024
 2464SOL    HW1 8291   0.623   2.390   3.053
 2464SOL    HW2 8292   0.774   2.427   3.101
 2465SOL     OW 8293   0.600   5.042   5.651
 2465SOL    HW1 8294   0.533   4.971   5.671
 2465SOL    HW2 8295   0.558   5.112   5.592
 2466SOL     OW 8296   1.696   2.216   1.598
 2466SOL    HW1 8297   1.759   2.204   1.522
 2466SOL    HW2 8298   1.706   2.140   1.662
 2467SOL     OW 8299   5.196   1.168   5.929
 2467SOL    HW1 8300   5.110   1.136   5.968
 2467SOL    HW2 8301   5.241   1.230   5.994
 2468SOL     OW 8302   3.830   0.202   5.769
 2468SOL    HW1 8303   3.873   0.288   5.742
 2468SOL    HW2 8304   3.796   0.208   5.862
 2469SOL     OW 8305   3.771   2.710   5.468
 2469SOL    HW1 8306   3.680   2.743   5.445
 2469SOL    HW2 8307   3.823   2.784   5.513
 2470SOL     OW 8308   3.644   4.781   0.496
 2470SOL    HW1 8309   3.548   4.773   0.468
 2470SOL    HW2 8310   3.689   4.849   0.438
 2471SOL     OW 8311   3.480   6.836   1.016
 2471SOL    HW1 8312   3.441   6.793   1.097
 2471SOL    HW2 8313   3.505   6.766   0.949
 2472SOL     OW 8314   5.016   2.242   4.178
 2472SOL    HW1 8315   5.057   2.321   4.132
 2472SOL    HW2 8316   5.043   2.158   4.130
 2473SOL     OW 8317   0.473   4.602   4.579
 2473SOL    HW1 8318   0.458   4.528   4.645
 2473SOL    HW2 8319   0.565   4.593   4.540
 2474SOL     OW 8320   0.995   5.955   0.853
 2474SOL    HW1 8321   0.969   5.859   0.852
 2474SOL    HW2 8322   0.919   6.011   0.820
 2475SOL     OW 8323   5.372   0.398   0.615
 2475SOL    HW1 8324   5.471   0.406   0.612
 2475SOL    HW2 8325   5.347   0.308   0.652
 2476SOL     OW 8326   5.547   0.947   1.730
 2476SOL    HW1 8327   5.616   1.006   1.687
 2476SOL    HW2 8328   5.593   0.882   1.791
 2477SOL     OW 8329   3.623   0.816   3.430
 2477SOL    HW1 8330   3.560   0.787   3.502
 2477SOL    HW2 8331   3.624   0.749   3.356
 2478SOL     OW 8332   4.488   1.173   3.283
 2478SOL    HW1 8333   4.484   1.211   3.190
 2478SOL    HW2 8334   4.407   1.201   3.334
 2479SOL     OW 8335   0.778   3.078   1.119
 2479SOL    HW1 8336   0.790   3.109   1.213
 2479SOL    HW2 8337   0.785   3.156   1.057
 2480SOL     OW 8338   3.791   2.748   1.003
 2480SOL    HW1 8339   3.787   2.753   0.903
 2480SOL    HW2 8340   3.886   2.737   1.032
 2481SOL     OW 8341   3.873   0.584   1.516
 2481SOL    HW1 8342   3.820   0.599   1.599
 2481SOL    HW2 8343   3.969   0.608   1.533
 2482SOL     OW 8344   5.777   3.661   7.009
 2482SOL    HW1 8345   5.750   3.565   7.008
 2482SOL    HW2 8346   5.865   3.672   6.963
 2483SOL     OW 8347   0.961   2.556   0.146
 2483SOL    HW1 8348   0.931   2.651   0.143
 2483SOL    HW2 8349   1.051   2.551   0.189
 2484SOL     OW 8350   4.573   1.159   1.937
 2484SOL    HW1 8351   4.543   1.113   2.020
 2484SOL    HW2 8352   4.527   1.247   1.928
 2485SOL     OW 8353   5.549   1.932   6.469
 2485SOL    HW1 8354   5.538   1.849   6.525
 2485SOL    HW2 8355   5.463   1.953   6.424
 2486SOL     OW 8356   0.411   4.839   5.714
 2486SOL    HW1 8357   0.376   4.791   5.634
 2486SOL    HW2 8358   0.414   4.777   5.792
 2487SOL     OW 8359   4.716   6.138   0.692
 2487SOL    HW1 8360   4.757   6.109   0.606
 2487SOL    HW2 8361   4.660   6.064   0.729
 2488SOL     OW 8362   6.912   4.124   1.749
 2488SOL    HW1 8363   6.951   4.054   1.689
 2488SOL    HW2 8364   6.814   4.106   1.762
 2489SOL     OW 8365   0.530   6.297   4.170
 2489SOL    HW1 8366   0.458   6.233   4.144
 2489SOL    HW2 8367   0.554   6.284   4.266
 2490SOL     OW 8368   0.955   6.386   1.458
 2490SOL    HW1 8369   0.966   6.302   1.404
 2490SOL    HW2 8370   1.030   6.448   1.438
 2491SOL     OW 8371   3.990   4.548   1.706
 2491SOL    HW1 8372   3.895   4.522   1.688
 2491SOL    HW2 8373   4.030   4.587   1.623
 2492SOL     OW 8374   5.176   3.398   0.909
 2492SOL    HW1 8375   5.120   3.481   0.911
 2492SOL    HW2 8376   5.234   3.398   0.828
 2493SOL     OW 8377   6.949   0.262   1.312
 2493SOL    HW1 8378   0.011   0.242   1.353
 2493SOL    HW2 8379   6.879   0.265   1.383
 2494SOL     OW 8380   6.051   3.238   2.043
 2494SOL    HW1 8381   6.119   3.226   1.971
 2494SOL    HW2 8382   6.028   3.335   2.052
 2495SOL     OW 8383   5.288   5.884   3.634
 2495SOL    HW1 8384   5.221   5.958   3.643
 2495SOL    HW2 8385   5.375   5.921   3.602
 2496SOL     OW 8386   0.024   3.619   6.834
 2496SOL    HW1 8387   0.109   3.567   6.839
 2496SOL    HW2 8388   6.987   3.574   6.772
 2497SOL     OW 8389   0.565   0.626   0.629
 2497SOL    HW1 8390   0.490   0.681   0.665
 2497SOL    HW2 8391   0.598   0.667   0.544
 2498SOL     OW 8392   3.398   2.758   5.521
 2498SOL    HW1 8393   3.349   2.730   5.439
 2498SOL    HW2 8394   3.461   2.833   5.499
 2499SOL     OW 8395   6.064   3.071   1.277
 2499SOL    HW1 8396   6.155   3.110   1.291
 2499SOL    HW2 8397   6.031   3.030   1.362
 2500SOL     OW 8398   3.595   3.717   6.024
 2500SOL    HW1 8399   3.526   3.644   6.034
 2500SOL    HW2 8400   3.636   3.736   6.113
 2501SOL     OW 8401   5.961   5.785   0.019
 2501SOL    HW1 8402   5.909   5.869   0.035
 2501SOL    HW2 8403   5.915   5.730   6.977
 2502SOL     OW 8404   2.257   6.711   4.864
 2502SOL    HW1 8405   2.305   6.796   4.843
 2502SOL    HW2 8406   2.323   6.637   4.876
 2503SOL     OW 8407   3.258   6.575   5.366
 2503SOL    HW1 8408   3.330   6.567   5.297
 2503SOL    HW2 8409   3.188   6.638   5.333
 2504SOL     OW 8410   3.299   5.412   2.524
 2504SOL    HW1 8411   3.220   5.422   2.463
 2504SOL    HW2 8412   3.277   5.451   2.613
 2505SOL     OW 8413   0.321   5.837   3.332
 2505SOL    HW1 8414   0.375   5.859   3.414
 2505SOL    HW2 8415   0.248   5.774   3.357
 2506SOL     OW 8416   6.509   3.887   6.240
 2506SOL    HW1 8417   6.541   3.973   6.279
 2506SOL    HW2 8418   6.571   3.813   6.267
 2507SOL     OW 8419   0.120   3.350   0.131
 2507SOL    HW1 8420   0.046   3.390   0.186
 2507SOL    HW2 8421   0.194   3.322   0.192
 2508SOL     OW 8422   2.773   1.868   4.714
 2508SOL    HW1 8423   2.684   1.867   4.667
 2508SOL    HW2 8424   2.770   1.936   4.787
 2509SOL     OW 8425   6.564   4.187   0.483
 2509SOL    HW1 8426   6.608   4.097   0.483
 2509SOL    HW2 8427   6.626   4.253   0.440
 2510SOL     OW 8428   3.547   4.180   0.968
 2510SOL    HW1 8429   3.609   4.101   0.961
 2510SOL    HW2 8430   3.585   4.246   1.033
 2511SOL     OW 8431   2.262   1.081   4.753
 2511SOL    HW1 8432   2.266   1.134   4.838
 2511SOL    HW2 8433   2.259   1.143   4.675
 2512SOL     OW 8434   3.980   4.316   5.502
 2512SOL    HW1 8435   3.909   4.364   5.450
 2512SOL    HW2 8436   3.944   4.227   5.532
 2513SOL     OW 8437   1.933   5.917   5.258
 2513SOL    HW1 8438   1.908   5.891   5.352
 2513SOL    HW2 8439   2.022   5.877   5.235
 2514SOL     OW 8440   0.477   3.071   4.274
 2514SOL    HW1 8441   0.517   3.073   4.366
 2514SOL    HW2 8442   0.421   2.989   4.264
 2515SOL     OW 8443   1.683   0.112   1.301
 2515SOL    HW1 8444   1.635   0.042   1.249
 2515SOL    HW2 8445   1.690   0.196   1.246
 2516SOL     OW 8446   4.940   0.830   2.508
 2516SOL    HW1 8447   5.025   0.855   2.461
 2516SOL    HW2 8448   4.923   0.895   2.582
 2517SOL     OW 8449   2.060   6.816   5.745
 2517SOL    HW1 8450   2.101   6.905   5.728
 2517SOL    HW2 8451   2.104   6.773   5.824
 2518SOL     OW 8452   1.587   5.477   1.295
 2518SOL    HW1 8453   1.613   5.525   1.212
 2518SOL    HW2 8454   1.668   5.433   1.334
 2519SOL     OW 8455   3.461   0.975   1.519
 2519SOL    HW1 8456   3.555   0.943   1.528
 2519SOL    HW2 8457   3.462   1.071   1.490
 2520SOL     OW 8458   3.650   1.923   6.829
 2520SOL    HW1 8459   3.624   1.959   6.918
 2520SOL    HW2 8460   3.702   1.839   6.841
 2521SOL     OW 8461   3.512   1.913   5.752
 2521SOL    HW1 8462   3.480   1.954   5.837
 2521SOL    HW2 8463   3.442   1.852   5.716
 2522SOL     OW 8464   1.206   1.486   5.479
 2522SOL    HW1 8465   1.299   1.496   5.445
 2522SOL    HW2 8466   1.145   1.464   5.402
 2523SOL     OW 8467   1.622   3.251   1.162
 2523SOL    HW1 8468   1.714   3.212   1.172
 2523SOL    HW2 8469   1.628   3.351   1.170
 2524SOL     OW 8470   0.308   6.438   4.716
 2524SOL    HW1 8471   0.312   6.517   4.655
 2524SOL    HW2 8472   0.213   6.418   4.738
 2525SOL     OW 8473   1.330   3.235   4.920
 2525SOL    HW1 8474   1.405   3.261   4.859
 2525SOL    HW2 8475   1.323   3.135   4.924
 2526SOL     OW 8476   1.535   4.907   6.540
 2526SOL    HW1 8477   1.454   4.864   6.499
 2526SOL    HW2 8478   1.539   4.885   6.637
 2527SOL     OW 8479   5.144   5.911   5.868
 2527SOL    HW1 8480   5.086   5.985   5.901
 2527SOL    HW2 8481   5.217   5.949   5.810
 2528SOL     OW 8482   5.428   4.131   5.264
 2528SOL    HW1 8483   5.442   4.228   5.286
 2528SOL    HW2 8484   5.471   4.074   5.334
 2529SOL     OW 8485   0.565   0.027   6.932
 2529SOL    HW1 8486   0.652   7.009   6.909
 2529SOL    HW2 8487   0.539   0.089   6.858
 2530SOL     OW 8488   2.766   6.002   5.426
 2530SOL    HW1 8489   2.706   6.082   5.423
 2530SOL    HW2 8490   2.763   5.954   5.338
 2531SOL     OW 8491   6.151   6.114   5.582
 2531SOL    HW1 8492   6.139   6.017   5.603
 2531SOL    HW2 8493   6.190   6.161   5.661
 2532SOL     OW 8494   0.228   6.616   0.746
 2532SOL    HW1 8495   0.252   6.565   0.663
 2532SOL    HW2 8496   0.187   6.554   0.813
 2533SOL     OW 8497   4.447   0.723   3.939
 2533SOL    HW1 8498   4.454   0.633   3.896
 2533SOL    HW2 8499   4.377   0.720   4.011
 2534SOL     OW 8500   4.309   1.255   1.592
 2534SOL    HW1 8501   4.296   1.350   1.623
 2534SOL    HW2 8502   4.231   1.227   1.536
 2535SOL     OW 8503   3.305   2.270   6.751
 2535SOL    HW1 8504   3.397   2.274   6.791
 2535SOL    HW2 8505   3.239   2.311   6.815
 2536SOL     OW 8506   1.839   0.442   6.496
 2536SOL    HW1 8507   1.864   0.392   6.413
 2536SOL    HW2 8508   1.743   0.468   6.491
 2537SOL     OW 8509   3.429   6.906   6.342
 2537SOL    HW1 8510   3.365   6.850   6.395
 2537SOL    HW2 8511   3.391   6.999   6.332
 2538SOL     OW 8512   0.188   3.903   4.130
 2538SOL    HW1 8513   0.208   4.000   4.143
 2538SOL    HW2 8514   0.273   3.853   4.114
 2539SOL     OW 8515   5.182   0.659   4.291
 2539SOL    HW1 8516   5.259   0.713   4.325
 2539SOL    HW2 8517   5.165   0.582   4.353
 2540SOL     OW 8518   4.324   1.964   2.638
 2540SOL    HW1 8519   4.275   2.041   2.598
 2540SOL    HW2 8520   4.423   1.981   2.633
 2541SOL     OW 8521   2.555   6.604   5.411
 2541SOL    HW1 8522   2.565   6.510   5.445
 2541SOL    HW2 8523   2.639   6.655   5.428
 2542SOL     OW 8524   3.438   3.619   6.544
 2542SOL    HW1 8525   3.509   3.683   6.517
 2542SOL    HW2 8526   3.381   3.660   6.615
 2543SOL     OW 8527   0.575   0.970   4.220
 2543SOL    HW1 8528   0.627   0.911   4.159
 2543SOL    HW2 8529   0.636   1.039   4.260
 2544SOL     OW 8530   0.493   6.327   0.583
 2544SOL    HW1 8531   0.435   6.394   0.537
 2544SOL    HW2 8532   0.520   6.256   0.518
 2545SOL     OW 8533   1.800   6.585   2.251
 2545SOL    HW1 8534   1.739   6.620   2.322
 2545SOL    HW2 8535   1.868   6.526   2.292
 2546SOL     OW 8536   6.808   2.039   1.167
 2546SOL    HW1 8537   6.765   1.951   1.185
 2546SOL    HW2 8538   6.802   2.060   1.069
 2547SOL     OW 8539   0.266   3.534   6.972
 2547SOL    HW1 8540   0.227   3.474   0.014
 2547SOL    HW2 8541   0.365   3.538   6.983
 2548SOL     OW 8542   0.388   6.868   4.430
 2548SOL    HW1 8543   0.312   6.890   4.369
 2548SOL    HW2 8544   0.388   6.932   4.507
 2549SOL     OW 8545   1.005   0.526   1.782
 2549SOL    HW1 8546   1.011   0.592   1.857
 2549SOL    HW2 8547   1.024   0.434   1.817
 2550SOL     OW 8548   6.305   6.660   0.582
 2550SOL    HW1 8549   6.352   6.742   0.615
 2550SOL    HW2 8550   6.244   6.626   0.653
 2551SOL     OW 8551   2.909   4.738   0.566
 2551SOL    HW1 8552   2.849   4.813   0.591
 2551SOL    HW2 8553   2.902   4.665   0.635
 2552SOL     OW 8554   2.183   5.403   4.935
 2552SOL    HW1 8555   2.162   5.501   4.925
 2552SOL    HW2 8556   2.175   5.358   4.846
 2553SOL     OW 8557   3.993   3.406   5.946
 2553SOL    HW1 8558   3.900   3.422   5.913
 2553SOL    HW2 8559   3.996   3.418   6.045
 2554SOL     OW 8560   2.417   1.008   0.063
 2554SOL    HW1 8561   2.386   1.051   0.147
 2554SOL    HW2 8562   2.401   1.070   7.012
 2555SOL     OW 8563   5.764   1.514   4.027
 2555SOL    HW1 8564   5.839   1.580   4.032
 2555SOL    HW2 8565   5.784   1.447   3.956
 2556SOL     OW 8566   4.466   6.103   0.416
 2556SOL    HW1 8567   4.376   6.143   0.435
 2556SOL    HW2 8568   4.537   6.166   0.448
 2557SOL     OW 8569   1.637   3.791   0.338
 2557SOL    HW1 8570   1.537   3.790   0.337
 2557SOL    HW2 8571   1.671   3.872   0.291
 2558SOL     OW 8572   5.203   0.855   5.679
 2558SOL    HW1 8573   5.233   0.949   5.663
 2558SOL    HW2 8574   5.128   0.834   5.616
 2559SOL     OW 8575   1.221   4.460   5.679
 2559SOL    HW1 8576   1.132   4.473   5.635
 2559SOL    HW2 8577   1.287   4.526   5.642
 2560SOL     OW 8578   6.416   2.235   5.614
 2560SOL    HW1 8579   6.319   2.225   5.590
 2560SOL    HW2 8580   6.451   2.148   5.648
 2561SOL     OW 8581   2.364   4.665   5.125
 2561SOL    HW1 8582   2.463   4.656   5.136
 2561SOL    HW2 8583   2.318   4.636   5.210
 2562SOL     OW 8584   2.307   4.485   1.430
 2562SOL    HW1 8585   2.292   4.480   1.331
 2562SOL    HW2 8586   2.388   4.432   1.455
 2563SOL     OW 8587   3.708   1.346   0.753
 2563SOL    HW1 8588   3.724   1.249   0.771
 2563SOL    HW2 8589   3.792   1.389   0.721
 2564SOL     OW 8590   1.439   5.505   0.136
 2564SOL    HW1 8591   1.373   5.472   0.069
 2564SOL    HW2 8592   1.391   5.551   0.211
 2565SOL     OW 8593   0.942   0.745   0.064
 2565SOL    HW1 8594   1.021   0.769   0.008
 2565SOL    HW2 8595   0.900   0.662   0.029
 2566SOL     OW 8596   2.385   6.666   1.468
 2566SOL    HW1 8597   2.326   6.746   1.459
 2566SOL    HW2 8598   2.474   6.686   1.426
 2567SOL     OW 8599   0.999   0.280   0.788
 2567SOL    HW1 8600   0.927   0.349   0.791
 2567SOL    HW2 8601   1.038   0.268   0.879
 2568SOL     OW 8602   4.549   2.078   6.961
 2568SOL    HW1 8603   4.536   2.052   6.865
 2568SOL    HW2 8604   4.460   2.083   7.006
 2569SOL     OW 8605   3.460   1.127   3.077
 2569SOL    HW1 8606   3.518   1.060   3.029
 2569SOL    HW2 8607   3.426   1.194   3.012
 2570SOL     OW 8608   5.756   0.764   5.676
 2570SOL    HW1 8609   5.668   0.747   5.720
 2570SOL    HW2 8610   5.797   0.677   5.649
 2571SOL     OW 8611   1.485   4.584   3.400
 2571SOL    HW1 8612   1.558   4.652   3.400
 2571SOL    HW2 8613   1.486   4.533   3.315
 2572SOL     OW 8614   2.741   5.267   2.257
 2572SOL    HW1 8615   2.754   5.364   2.234
 2572SOL    HW2 8616   2.807   5.241   2.327
 2573SOL     OW 8617   0.781   1.983   1.134
 2573SOL    HW1 8618   0.691   1.972   1.175
 2573SOL    HW2 8619   0.777   1.963   1.036
 2574SOL     OW 8620   5.025   3.645   0.907
 2574SOL    HW1 8621   5.087   3.709   0.862
 2574SOL    HW2 8622   4.932   3.658   0.871
 2575SOL     OW 8623   5.821   5.625   6.876
 2575SOL    HW1 8624   5.844   5.553   6.811
 2575SOL    HW2 8625   5.722   5.627   6.890
 2576SOL     OW 8626   4.163   6.129   4.635
 2576SOL    HW1 8627   4.210   6.051   4.593
 2576SOL    HW2 8628   4.104   6.097   4.709
 2577SOL     OW 8629   2.722   5.192   1.999
 2577SOL    HW1 8630   2.717   5.281   1.954
 2577SOL    HW2 8631   2.735   5.205   2.097
 2578SOL     OW 8632   3.944   1.485   3.531
 2578SOL    HW1 8633   3.866   1.471   3.593
 2578SOL    HW2 8634   3.942   1.580   3.497
 2579SOL     OW 8635   0.828   6.281   3.775
 2579SOL    HW1 8636   0.737   6.297   3.736
 2579SOL    HW2 8637   0.873   6.369   3.790
 2580SOL     OW 8638   2.434   4.824   0.040
 2580SOL    HW1 8639   2.464   4.795   0.131
 2580SOL    HW2 8640   2.512   4.825   7.004
 2581SOL     OW 8641   1.907   5.497   0.536
 2581SOL    HW1 8642   1.908   5.560   0.458
 2581SOL    HW2 8643   1.832   5.523   0.598
 2582SOL     OW 8644   0.144   4.224   1.450
 2582SOL    HW1 8645   0.119   4.319   1.466
 2582SOL    HW2 8646   0.066   4.165   1.473
 2583SOL     OW 8647   0.622   0.774   6.876
 2583SOL    HW1 8648   0.545   0.762   6.938
 2583SOL    HW2 8649   0.644   0.872   6.869
 2584SOL     OW 8650   4.155   5.456   5.737
 2584SOL    HW1 8651   4.246   5.432   5.772
 2584SOL    HW2 8652   4.115   5.377   5.691
 2585SOL     OW 8653   2.575   4.325   6.953
 2585SOL    HW1 8654   2.548   4.375   0.009
 2585SOL    HW2 8655   2.577   4.227   6.974
 2586SOL     OW 8656   2.920   0.887   5.778
 2586SOL    HW1 8657   2.865   0.814   5.819
 2586SOL    HW2 8658   3.010   0.850   5.753
 2587SOL     OW 8659   6.904   1.444   3.134
 2587SOL    HW1 8660   6.957   1.527   3.114
 2587SOL    HW2 8661   6.944   1.398   3.213
 2588SOL     OW 8662   3.967   2.319   5.246
 2588SOL    HW1 8663   3.886   2.342   5.299
 2588SOL    HW2 8664   4.024   2.401   5.235
 2589SOL     OW 8665   1.220   6.294   6.369
 2589SOL    HW1 8666   1.307   6.245   6.369
 2589SOL    HW2 8667   1.151   6.239   6.416
 2590SOL     OW 8668   2.839   5.152   0.348
 2590SOL    HW1 8669   2.749   5.186   0.320
 2590SOL    HW2 8670   2.899   5.145   0.268
 2591SOL     OW 8671   6.579   5.376   3.498
 2591SOL    HW1 8672   6.568   5.445   3.426
 2591SOL    HW2 8673   6.663   5.395   3.549
 2592SOL     OW 8674   2.821   4.099   6.578
 2592SOL    HW1 8675   2.766   4.018   6.560
 2592SOL    HW2 8676   2.792   4.141   6.664
 2593SOL     OW 8677   3.264   5.964   0.865
 2593SOL    HW1 8678   3.244   5.882   0.920
 2593SOL    HW2 8679   3.337   5.944   0.801
 2594SOL     OW 8680   2.545   4.357   6.197
 2594SOL    HW1 8681   2.453   4.397   6.190
 2594SOL    HW2 8682   2.609   4.413   6.146
 2595SOL     OW 8683   0.974   1.434   4.292
 2595SOL    HW1 8684   1.021   1.414   4.206
 2595SOL    HW2 8685   1.000   1.367   4.361
 2596SOL     OW 8686   1.908   2.856   1.139
 2596SOL    HW1 8687   1.985   2.795   1.121
 2596SOL    HW2 8688   1.937   2.929   1.201
 2597SOL     OW 8689   6.788   5.226   6.834
 2597SOL    HW1 8690   6.848   5.280   6.893
 2597SOL    HW2 8691   6.703   5.204   6.884
 2598SOL     OW 8692   6.442   1.945   1.432
 2598SOL    HW1 8693   6.371   1.939   1.362
 2598SOL    HW2 8694   6.456   2.041   1.457
 2599SOL     OW 8695   1.829   6.444   1.379
 2599SOL    HW1 8696   1.836   6.498   1.463
 2599SOL    HW2 8697   1.750   6.383   1.385
 2600SOL     OW 8698   5.914   3.316   4.302
 2600SOL    HW1 8699   5.966   3.241   4.343
 2600SOL    HW2 8700   5.829   3.281   4.263
 2601SOL     OW 8701   1.920   2.117   2.014
 2601SOL    HW1 8702   2.013   2.142   2.042
 2601SOL    HW2 8703   1.877   2.195   1.968
 2602SOL     OW 8704   1.705   5.284   3.868
 2602SOL    HW1 8705   1.732   5.271   3.964
 2602SOL    HW2 8706   1.787   5.292   3.811
 2603SOL     OW 8707   2.763   1.386   2.026
 2603SOL    HW1 8708   2.831   1.391   1.954
 2603SOL    HW2 8709   2.745   1.290   2.048
 2604SOL     OW 8710   5.186   1.965   2.260
 2604SOL    HW1 8711   5.166   1.906   2.182
 2604SOL    HW2 8712   5.231   1.912   2.332
 2605SOL     OW 8713   1.281   4.132   2.664
 2605SOL    HW1 8714   1.331   4.170   2.742
 2605SOL    HW2 8715   1.319   4.044   2.638
 2606SOL     OW 8716   5.226   5.115   1.018
 2606SOL    HW1 8717   5.311   5.149   0.976
 2606SOL    HW2 8718   5.241   5.025   1.058
 2607SOL     OW 8719   1.691   2.549   1.129
 2607SOL    HW1 8720   1.677   2.451   1.112
 2607SOL    HW2 8721   1.743   2.589   1.054
 2608SOL     OW 8722   2.082   5.863   6.612
 2608SOL    HW1 8723   2.149   5.822   6.551
 2608SOL    HW2 8724   2.113   5.854   6.707
 2609SOL     OW 8725   0.451   1.299   1.181
 2609SOL    HW1 8726   0.446   1.278   1.084
 2609SOL    HW2 8727   0.360   1.294   1.221
 2610SOL     OW 8728   1.236   4.802   4.398
 2610SOL    HW1 8729   1.177   4.867   4.351
 2610SOL    HW2 8730   1.295   4.850   4.463
 2611SOL     OW 8731   4.582   6.372   0.046
 2611SOL    HW1 8732   4.493   6.417   0.057
 2611SOL    HW2 8733   4.631   6.415   6.996
 2612SOL     OW 8734   5.171   6.687   4.818
 2612SOL    HW1 8735   5.140   6.691   4.913
 2612SOL    HW2 8736   5.197   6.593   4.795
 2613SOL     OW 8737   1.154   5.640   6.046
 2613SOL    HW1 8738   1.168   5.737   6.028
 2613SOL    HW2 8739   1.141   5.591   5.959
 2614SOL     OW 8740   5.929   0.752   6.219
 2614SOL    HW1 8741   5.871   0.794   6.289
 2614SOL    HW2 8742   5.881   0.752   6.131
 2615SOL     OW 8743   1.118   3.478   1.518
 2615SOL    HW1 8744   1.035   3.459   1.570
 2615SOL    HW2 8745   1.150   3.393   1.475
 2616SOL     OW 8746   1.085   1.056   5.415
 2616SOL    HW1 8747   1.091   1.135   5.475
 2616SOL    HW2 8748   1.028   1.078   5.336
 2617SOL     OW 8749   5.496   0.091   0.976
 2617SOL    HW1 8750   5.436   0.142   1.038
 2617SOL    HW2 8751   5.581   0.142   0.963
 2618SOL     OW 8752   1.762   5.811   5.048
 2618SOL    HW1 8753   1.808   5.866   5.117
 2618SOL    HW2 8754   1.793   5.716   5.056
 2619SOL     OW 8755   3.901   1.780   1.977
 2619SOL    HW1 8756   3.893   1.686   2.011
 2619SOL    HW2 8757   3.832   1.837   2.021
 2620SOL     OW 8758   6.390   5.986   1.979
 2620SOL    HW1 8759   6.346   5.946   2.059
 2620SOL    HW2 8760   6.337   5.963   1.897
 2621SOL     OW 8761   0.301   6.003   2.561
 2621SOL    HW1 8762   0.261   5.911   2.551
 2621SOL    HW2 8763   0.297   6.031   2.657
 2622SOL     OW 8764   3.343   2.840   5.935
 2622SOL    HW1 8765   3.262   2.894   5.914
 2622SOL    HW2 8766   3.346   2.819   6.033
 2623SOL     OW 8767   0.179   6.438   3.520
 2623SOL    HW1 8768   0.254   6.498   3.491
 2623SOL    HW2 8769   0.214   6.344   3.530
 2624SOL     OW 8770   6.558   1.888   4.561
 2624SOL    HW1 8771   6.489   1.832   4.605
 2624SOL    HW2 8772   6.650   1.857   4.588
 2625SOL     OW 8773   1.843   5.193   5.300
 2625SOL    HW1 8774   1.855   5.099   5.269
 2625SOL    HW2 8775   1.920   5.249   5.268
 2626SOL     OW 8776   6.804   6.689   5.216
 2626SOL    HW1 8777   6.818   6.600   5.259
 2626SOL    HW2 8778   6.706   6.704   5.202
 2627SOL     OW 8779   1.129   6.873   5.975
 2627SOL    HW1 8780   1.184   6.916   5.903
 2627SOL    HW2 8781   1.098   6.784   5.945
 2628SOL     OW 8782   1.551   3.508   3.691
 2628SOL    HW1 8783   1.497   3.447   3.633
 2628SOL    HW2 8784   1.489   3.566   3.745
 2629SOL     OW 8785   3.234   3.870   3.339
 2629SOL    HW1 8786   3.193   3.932   3.406
 2629SOL    HW2 8787   3.174   3.864   3.259
 2630SOL     OW 8788   3.852   1.338   3.178
 2630SOL    HW1 8789   3.923   1.408   3.177
 2630SOL    HW2 8790   3.889   1.254   3.218
 2631SOL     OW 8791   5.594   0.551   6.710
 2631SOL    HW1 8792   5.646   0.490   6.650
 2631SOL    HW2 8793   5.558   0.499   6.788
 2632SOL     OW 8794   5.607   4.633   1.265
 2632SOL    HW1 8795   5.674   4.565   1.237
 2632SOL    HW2 8796   5.593   4.627   1.364
 2633SOL     OW 8797   6.744   2.743   5.296
 2633SOL    HW1 8798   6.812   2.755   5.224
 2633SOL    HW2 8799   6.722   2.831   5.337
 2634SOL     OW 8800   6.631   6.378   4.563
 2634SOL    HW1 8801   6.659   6.431   4.483
 2634SOL    HW2 8802   6.682   6.291   4.564
 2635SOL     OW 8803   5.625   5.488   3.752
 2635SOL    HW1 8804   5.551   5.517   3.812
 2635SOL    HW2 8805   5.711   5.486   3.803
 2636SOL     OW 8806   4.008   0.393   6.073
 2636SOL    HW1 8807   3.954   0.472   6.044
 2636SOL    HW2 8808   3.953   0.310   6.066
 2637SOL     OW 8809   0.382   2.067   3.075
 2637SOL    HW1 8810   0.319   2.124   3.128
 2637SOL    HW2 8811   0.349   2.059   2.981
 2638SOL     OW 8812   0.679   0.373   4.410
 2638SOL    HW1 8813   0.696   0.471   4.409
 2638SOL    HW2 8814   0.715   0.332   4.326
 2639SOL     OW 8815   4.558   5.077   5.152
 2639SOL    HW1 8816   4.554   5.166   5.107
 2639SOL    HW2 8817   4.534   5.087   5.248
 2640SOL     OW 8818   0.933   0.166   4.676
 2640SOL    HW1 8819   0.966   0.165   4.581
 2640SOL    HW2 8820   0.996   0.221   4.732
 2641SOL     OW 8821   5.334   2.569   0.200
 2641SOL    HW1 8822   5.272   2.524   0.266
 2641SOL    HW2 8823   5.379   2.499   0.144
 2642SOL     OW 8824   6.729   1.327   4.583
 2642SOL    HW1 8825   6.788   1.394   4.628
 2642SOL    HW2 8826   6.745   1.330   4.484
 2643SOL     OW 8827   0.735   3.114   3.901
 2643SOL    HW1 8828   0.749   3.127   3.999
 2643SOL    HW2 8829   0.803   3.051   3.865
 2644SOL     OW 8830   4.902   5.617   4.422
 2644SOL    HW1 8831   4.877   5.542   4.483
 2644SOL    HW2 8832   4.986   5.660   4.455
 2645SOL     OW 8833   4.821   5.555   3.609
 2645SOL    HW1 8834   4.828   5.476   3.548
 2645SOL    HW2 8835   4.895   5.551   3.677
 2646SOL     OW 8836   0.687   3.655   6.008
 2646SOL    HW1 8837   0.698   3.753   5.994
 2646SOL    HW2 8838   0.604   3.637   6.061
 2647SOL     OW 8839   5.580   0.235   1.880
 2647SOL    HW1 8840   5.612   0.247   1.785
 2647SOL    HW2 8841   5.579   0.324   1.925
 2648SOL     OW 8842   0.714   0.201   4.196
 2648SOL    HW1 8843   0.759   0.148   4.267
 2648SOL    HW2 8844   0.656   0.141   4.141
 2649SOL     OW 8845   5.128   2.696   1.870
 2649SOL    HW1 8846   5.051   2.759   1.880
 2649SOL    HW2 8847   5.197   2.718   1.939
 2650SOL     OW 8848   3.085   5.919   4.976
 2650SOL    HW1 8849   3.084   6.007   5.024
 2650SOL    HW2 8850   2.997   5.905   4.930
 2651SOL     OW 8851   3.776   1.553   5.513
 2651SOL    HW1 8852   3.701   1.515   5.567
 2651SOL    HW2 8853   3.810   1.636   5.556
 2652SOL     OW 8854   5.065   3.474   5.433
 2652SOL    HW1 8855   5.052   3.423   5.518
 2652SOL    HW2 8856   5.001   3.440   5.363
 2653SOL     OW 8857   3.339   6.325   6.596
 2653SOL    HW1 8858   3.433   6.332   6.630
 2653SOL    HW2 8859   3.327   6.238   6.549
 2654SOL     OW 8860   5.017   6.721   0.306
 2654SOL    HW1 8861   4.990   6.631   0.273
 2654SOL    HW2 8862   5.066   6.711   0.393
 2655SOL     OW 8863   5.163   6.174   3.030
 2655SOL    HW1 8864   5.079   6.228   3.030
 2655SOL    HW2 8865   5.193   6.159   3.124
 2656SOL     OW 8866   3.735   6.156   4.039
 2656SOL    HW1 8867   3.827   6.116   4.039
 2656SOL    HW2 8868   3.686   6.124   3.958
 2657SOL     OW 8869   2.193   3.620   0.331
 2657SOL    HW1 8870   2.138   3.564   0.268
 2657SOL    HW2 8871   2.202   3.573   0.418
 2658SOL     OW 8872   4.060   4.547   6.170
 2658SOL    HW1 8873   3.963   4.565   6.185
 2658SOL    HW2 8874   4.113   4.590   6.244
 2659SOL     OW 8875   5.208   2.144   5.072
 2659SOL    HW1 8876   5.234   2.192   5.156
 2659SOL    HW2 8877   5.116   2.172   5.045
 2660SOL     OW 8878   0.928   1.345   0.971
 2660SOL    HW1 8879   0.898   1.417   1.033
 2660SOL    HW2 8880   0.891   1.257   1.001
 2661SOL     OW 8881   1.468   0.476   1.476
 2661SOL    HW1 8882   1.524   0.474   1.393
 2661SOL    HW2 8883   1.435   0.569   1.492
 2662SOL     OW 8884   3.298   0.966   3.224
 2662SOL    HW1 8885   3.370   1.027   3.191
 2662SOL    HW2 8886   3.317   0.873   3.192
 2663SOL     OW 8887   3.113   6.908   6.195
 2663SOL    HW1 8888   3.182   6.905   6.123
 2663SOL    HW2 8889   3.103   6.818   6.236
 2664SOL     OW 8890   3.753   2.816   5.203
 2664SOL    HW1 8891   3.782   2.728   5.241
 2664SOL    HW2 8892   3.754   2.886   5.275
 2665SOL     OW 8893   2.204   3.641   5.250
 2665SOL    HW1 8894   2.164   3.550   5.264
 2665SOL    HW2 8895   2.304   3.636   5.258
 2666SOL     OW 8896   2.171   3.701   2.716
 2666SOL    HW1 8897   2.178   3.649   2.801
 2666SOL    HW2 8898   2.083   3.682   2.673
 2667SOL     OW 8899   5.949   4.048   3.889
 2667SOL    HW1 8900   6.038   4.062   3.934
 2667SOL    HW2 8901   5.964   4.028   3.792
 2668SOL     OW 8902   5.810   1.538   4.976
 2668SOL    HW1 8903   5.716   1.503   4.982
 2668SOL    HW2 8904   5.827   1.571   4.883
 2669SOL     OW 8905   2.100   6.846   0.394
 2669SOL    HW1 8906   2.165   6.817   0.324
 2669SOL    HW2 8907   2.125   6.936   0.429
 2670SOL     OW 8908   6.846   1.414   5.928
 2670SOL    HW1 8909   6.822   1.424   5.832
 2670SOL    HW2 8910   6.816   1.495   5.979
 2671SOL     OW 8911   3.549   5.685   5.878
 2671SOL    HW1 8912   3.624   5.648   5.823
 2671SOL    HW2 8913   3.531   5.779   5.851
 2672SOL     OW 8914   3.680   1.069   1.916
 2672SOL    HW1 8915   3.650   1.016   1.995
 2672SOL    HW2 8916   3.759   1.126   1.941
 2673SOL     OW 8917   4.702   0.288   2.557
 2673SOL    HW1 8918   4.688   0.341   2.474
 2673SOL    HW2 8919   4.794   0.306   2.593
 2674SOL     OW 8920   0.792   5.589   3.006
 2674SOL    HW1 8921   0.865   5.635   2.955
 2674SOL    HW2 8922   0.757   5.650   3.077
 2675SOL     OW 8923   6.973   6.288   3.589
 2675SOL    HW1 8924   6.910   6.343   3.644
 2675SOL    HW2 8925   0.014   6.347   3.546
 2676SOL     OW 8926   3.070   3.943   2.881
 2676SOL    HW1 8927   3.148   4.000   2.855
 2676SOL    HW2 8928   3.026   3.907   2.799
 2677SOL     OW 8929   1.927   4.503   1.293
 2677SOL    HW1 8930   1.950   4.581   1.234
 2677SOL    HW2 8931   1.840   4.463   1.262
 2678SOL     OW 8932   5.879   2.572   2.682
 2678SOL    HW1 8933   5.846   2.533   2.768
 2678SOL    HW2 8934   5.850   2.668   2.676
 2679SOL     OW 8935   1.506   5.299   2.578
 2679SOL    HW1 8936   1.488   5.209   2.539
 2679SOL    HW2 8937   1.544   5.359   2.508
 2680SOL     OW 8938   0.903   2.288   6.422
 2680SOL    HW1 8939   0.920   2.348   6.344
 2680SOL    HW2 8940   0.889   2.195   6.389
 2681SOL     OW 8941   1.372   2.950   5.289
 2681SOL    HW1 8942   1.336   3.022   5.348
 2681SOL    HW2 8943   1.305   2.930   5.217
 2682SOL     OW 8944   4.772   4.206   2.125
 2682SOL    HW1 8945   4.690   4.263   2.120
 2682SOL    HW2 8946   4.749   4.113   2.099
 2683SOL     OW 8947   2.138   3.791   3.180
 2683SOL    HW1 8948   2.179   3.714   3.131
 2683SOL    HW2 8949   2.102   3.857   3.114
 2684SOL     OW 8950   5.696   5.844   1.922
 2684SOL    HW1 8951   5.678   5.831   2.020
 2684SOL    HW2 8952   5.651   5.927   1.890
 2685SOL     OW 8953   6.893   5.401   4.803
 2685SOL    HW1 8954   6.956   5.324   4.809
 2685SOL    HW2 8955   6.943   5.482   4.771
 2686SOL     OW 8956   1.336   1.092   4.726
 2686SOL    HW1 8957   1.305   1.123   4.815
 2686SOL    HW2 8958   1.385   1.006   4.736
 2687SOL     OW 8959   3.979   1.277   2.149
 2687SOL    HW1 8960   3.925   1.257   2.231
 2687SOL    HW2 8961   3.967   1.202   2.083
 2688SOL     OW 8962   3.899   2.504   6.784
 2688SOL    HW1 8963   3.962   2.433   6.815
 2688SOL    HW2 8964   3.941   2.594   6.795
 2689SOL     OW 8965   0.642   4.252   2.910
 2689SOL    HW1 8966   0.550   4.287   2.894
 2689SOL    HW2 8967   0.679   4.291   2.995
 2690SOL     OW 8968   3.683   1.679   5.925
 2690SOL    HW1 8969   3.686   1.771   5.964
 2690SOL    HW2 8970   3.693   1.612   5.998
 2691SOL     OW 8971   6.937   4.539   4.476
 2691SOL    HW1 8972   6.859   4.536   4.538
 2691SOL    HW2 8973   6.956   4.634   4.451
 2692SOL     OW 8974   3.042   5.837   2.504
 2692SOL    HW1 8975   3.057   5.822   2.602
 2692SOL    HW2 8976   2.983   5.765   2.468
 2693SOL     OW 8977   1.493   5.853   4.058
 2693SOL    HW1 8978   1.547   5.848   4.142
 2693SOL    HW2 8979   1.530   5.787   3.992
 2694SOL     OW 8980   3.390   6.787   3.462
 2694SOL    HW1 8981   3.489   6.773   3.464
 2694SOL    HW2 8982   3.362   6.837   3.543
 2695SOL     OW 8983   6.674   6.605   2.528
 2695SOL    HW1 8984   6.654   6.686   2.473
 2695SOL    HW2 8985   6.706   6.634   2.619
 2696SOL     OW 8986   5.141   4.269   6.161
 2696SOL    HW1 8987   5.223   4.321   6.139
 2696SOL    HW2 8988   5.065   4.331   6.178
 2697SOL     OW 8989   4.240   1.589   0.943
 2697SOL    HW1 8990   4.229   1.501   0.897
 2697SOL    HW2 8991   4.331   1.592   0.986
 2698SOL     OW 8992   1.382   4.587   6.076
 2698SOL    HW1 8993   1.332   4.580   6.163
 2698SOL    HW2 8994   1.359   4.510   6.018
 2699SOL     OW 8995   3.450   5.856   2.498
 2699SOL    HW1 8996   3.527   5.832   2.438
 2699SOL    HW2 8997   3.383   5.909   2.446
 2700SOL     OW 8998   3.142   2.157   1.361
 2700SOL    HW1 8999   3.095   2.139   1.447
 2700SOL    HW2 9000   3.099   2.106   1.287
 2701SOL     OW 9001   5.050   3.110   4.712
 2701SOL    HW1 9002   5.021   3.193   4.665
 2701SOL    HW2 9003   5.110   3.133   4.788
 2702SOL     OW 9004   2.517   1.829   4.551
 2702SOL    HW1 9005   2.451   1.761   4.518
 2702SOL    HW2 9006   2.583   1.848   4.479
 2703SOL     OW 9007   1.777   5.736   1.730
 2703SOL    HW1 9008   1.741   5.823   1.763
 2703SOL    HW2 9009   1.837   5.696   1.800
 2704SOL     OW 9010   6.587   5.748   3.496
 2704SOL    HW1 9011   6.598   5.814   3.421
 2704SOL    HW2 9012   6.668   5.689   3.500
 2705SOL     OW 9013   0.651   0.550   5.160
 2705SOL    HW1 9014   0.595   0.484   5.209
 2705SOL    HW2 9015   0.609   0.572   5.072
 2706SOL     OW 9016   6.283   4.563   4.215
 2706SOL    HW1 9017   6.342   4.576   4.295
 2706SOL    HW2 9018   6.213   4.494   4.237
 2707SOL     OW 9019   3.825   6.989   3.120
 2707SOL    HW1 9020   3.920   7.004   3.093
 2707SOL    HW2 9021   3.764   0.018   3.064
 2708SOL     OW 9022   5.976   2.807   0.180
 2708SOL    HW1 9023   6.002   2.859   0.099
 2708SOL    HW2 9024   5.901   2.745   0.157
 2709SOL     OW 9025   5.279   6.824   5.973
 2709SOL    HW1 9026   5.310   6.853   5.882
 2709SOL    HW2 9027   5.323   6.737   5.997
 2710SOL     OW 9028   1.337   3.447   4.081
 2710SOL    HW1 9029   1.270   3.494   4.023
 2710SOL    HW2 9030   1.397   3.391   4.024
 2711SOL     OW 9031   3.449   2.075   3.796
 2711SOL    HW1 9032   3.493   2.093   3.708
 2711SOL    HW2 9033   3.405   1.985   3.793
 2712SOL     OW 9034   3.969   5.676   2.435
 2712SOL    HW1 9035   4.054   5.650   2.482
 2712SOL    HW2 9036   3.991   5.724   2.350
 2713SOL     OW 9037   4.634   4.769   6.426
 2713SOL    HW1 9038   4.692   4.688   6.428
 2713SOL    HW2 9039   4.648   4.822   6.510
 2714SOL     OW 9040   3.150   3.777   6.433
 2714SOL    HW1 9041   3.218   3.788   6.360
 2714SOL    HW2 9042   3.095   3.860   6.440
 2715SOL     OW 9043   5.081   1.336   1.441
 2715SOL    HW1 9044   5.111   1.431   1.431
 2715SOL    HW2 9045   5.094   1.307   1.536
 2716SOL     OW 9046   4.048   2.140   2.852
 2716SOL    HW1 9047   4.089   2.216   2.901
 2716SOL    HW2 9048   4.062   2.152   2.754
 2717SOL     OW 9049   1.402   1.164   2.716
 2717SOL    HW1 9050   1.387   1.248   2.768
 2717SOL    HW2 9051   1.406   1.087   2.779
 2718SOL     OW 9052   0.312   0.494   6.196
 2718SOL    HW1 9053   0.398   0.444   6.209
 2718SOL    HW2 9054   0.332   0.587   6.165
 2719SOL     OW 9055   1.859   3.874   2.744
 2719SOL    HW1 9056   1.790   3.849   2.676
 2719SOL    HW2 9057   1.939   3.913   2.697
 2720SOL     OW 9058   1.313   0.567   5.175
 2720SOL    HW1 9059   1.326   0.614   5.088
 2720SOL    HW2 9060   1.343   0.627   5.249
 2721SOL     OW 9061   2.904   5.875   1.543
 2721SOL    HW1 9062   2.994   5.911   1.518
 2721SOL    HW2 9063   2.882   5.797   1.485
 2722SOL     OW 9064   4.072   5.664   6.708
 2722SOL    HW1 9065   4.018   5.707   6.780
 2722SOL    HW2 9066   4.109   5.577   6.741
 2723SOL     OW 9067   3.420   6.679   0.375
 2723SOL    HW1 9068   3.499   6.740   0.377
 2723SOL    HW2 9069   3.441   6.595   0.425
 2724SOL     OW 9070   0.946   6.066   0.249
 2724SOL    HW1 9071   0.930   6.164   0.255
 2724SOL    HW2 9072   0.877   6.025   0.190
 2725SOL     OW 9073   5.124   3.556   4.585
 2725SOL    HW1 9074   5.178   3.505   4.652
 2725SOL    HW2 9075   5.049   3.603   4.632
 2726SOL     OW 9076   0.859   1.575   1.551
 2726SOL    HW1 9077   0.770   1.537   1.578
 2726SOL    HW2 9078   0.859   1.674   1.566
 2727SOL     OW 9079   2.174   4.149   4.128
 2727SOL    HW1 9080   2.143   4.054   4.116
 2727SOL    HW2 9081   2.143   4.204   4.051
 2728SOL     OW 9082   5.361   5.051   6.763
 2728SOL    HW1 9083   5.350   5.137   6.714
 2728SOL    HW2 9084   5.290   5.044   6.834
 2729SOL     OW 9085   5.318   6.323   5.755
 2729SOL    HW1 9086   5.339   6.239   5.807
 2729SOL    HW2 9087   5.402   6.376   5.743
 2730SOL     OW 9088   0.461   5.864   2.099
 2730SOL    HW1 9089   0.452   5.846   2.001
 2730SOL    HW2 9090   0.550   5.831   2.131
 2731SOL     OW 9091   2.924   3.374   3.637
 2731SOL    HW1 9092   2.940   3.289   3.687
 2731SOL    HW2 9093   2.936   3.358   3.539
 2732SOL     OW 9094   4.766   1.299   1.470
 2732SOL    HW1 9095   4.763   1.356   1.552
 2732SOL    HW2 9096   4.849   1.243   1.471
 2733SOL     OW 9097   6.940   0.624   5.872
 2733SOL    HW1 9098   6.853   0.582   5.848
 2733SOL    HW2 9099   6.982   0.573   5.947
 2734SOL     OW 9100   3.735   5.915   1.515
 2734SOL    HW1 9101   3.774   5.975   1.444
 2734SOL    HW2 9102   3.647   5.952   1.544
 2735SOL     OW 9103   1.501   2.109   0.609
 2735SOL    HW1 9104   1.572   2.156   0.660
 2735SOL    HW2 9105   1.414   2.113   0.659
 2736SOL     OW 9106   5.292   6.123   3.321
 2736SOL    HW1 9107   5.325   6.053   3.384
 2736SOL    HW2 9108   5.370   6.174   3.284
 2737SOL     OW 9109   2.748   1.707   6.138
 2737SOL    HW1 9110   2.717   1.681   6.047
 2737SOL    HW2 9111   2.820   1.645   6.168
 2738SOL     OW 9112   5.610   0.690   1.413
 2738SOL    HW1 9113   5.689   0.631   1.431
 2738SOL    HW2 9114   5.526   0.640   1.435
 2739SOL     OW 9115   0.955   5.374   2.115
 2739SOL    HW1 9116   0.877   5.322   2.081
 2739SOL    HW2 9117   0.960   5.462   2.068
 2740SOL     OW 9118   0.370   6.504   2.552
 2740SOL    HW1 9119   0.294   6.443   2.573
 2740SOL    HW2 9120   0.420   6.527   2.636
 2741SOL     OW 9121   1.308   2.339   4.359
 2741SOL    HW1 9122   1.357   2.329   4.446
 2741SOL    HW2 9123   1.217   2.376   4.376
 2742SOL     OW 9124   3.592   4.697   1.556
 2742SOL    HW1 9125   3.652   4.640   1.499
 2742SOL    HW2 9126   3.595   4.664   1.650
 2743SOL     OW 9127   6.865   4.842   2.051
 2743SOL    HW1 9128   6.784   4.811   2.000
 2743SOL    HW2 9129   6.941   4.778   2.036
 2744SOL     OW 9130   3.439   2.938   2.697
 2744SOL    HW1 9131   3.482   2.957   2.609
 2744SOL    HW2 9132   3.509   2.913   2.764
 2745SOL     OW 9133   6.602   1.096   5.930
 2745SOL    HW1 9134   6.614   1.195   5.931
 2745SOL    HW2 9135   6.629   1.060   5.840
 2746SOL     OW 9136   0.741   1.182   3.675
 2746SOL    HW1 9137   0.769   1.136   3.591
 2746SOL    HW2 9138   0.717   1.113   3.744
 2747SOL     OW 9139   3.433   5.330   0.520
 2747SOL    HW1 9140   3.532   5.320   0.518
 2747SOL    HW2 9141   3.403   5.354   0.613
 2748SOL     OW 9142   4.841   0.768   1.275
 2748SOL    HW1 9143   4.766   0.779   1.209
 2748SOL    HW2 9144   4.878   0.676   1.269
 2749SOL     OW 9145   1.503   3.441   0.501
 2749SOL    HW1 9146   1.559   3.484   0.429
 2749SOL    HW2 9147   1.512   3.342   0.495
 2750SOL     OW 9148   2.538   5.341   2.591
 2750SOL    HW1 9149   2.529   5.271   2.519
 2750SOL    HW2 9150   2.590   5.303   2.667
 2751SOL     OW 9151   1.563   2.705   1.291
 2751SOL    HW1 9152   1.478   2.731   1.245
 2751SOL    HW2 9153   1.612   2.639   1.235
 2752SOL     OW 9154   4.218   4.859   5.823
 2752SOL    HW1 9155   4.277   4.868   5.904
 2752SOL    HW2 9156   4.251   4.919   5.751
 2753SOL     OW 9157   6.395   6.629   5.019
 2753SOL    HW1 9158   6.398   6.604   4.923
 2753SOL    HW2 9159   6.301   6.656   5.043
 2754SOL     OW 9160   0.337   6.447   6.418
 2754SOL    HW1 9161   0.254   6.504   6.426
 2754SOL    HW2 9162   0.407   6.482   6.480
 2755SOL     OW 9163   2.694   6.911   2.626
 2755SOL    HW1 9164   2.681   6.961   2.541
 2755SOL    HW2 9165   2.715   6.815   2.605
 2756SOL     OW 9166   5.226   6.663   0.493
 2756SOL    HW1 9167   5.204   6.680   0.397
 2756SOL    HW2 9168   5.318   6.695   0.513
 2757SOL     OW 9169   1.280   5.216   1.196
 2757SOL    HW1 9170   1.277   5.309   1.159
 2757SOL    HW2 9171   1.365   5.172   1.168
 2758SOL     OW 9172   5.362   7.018   5.147
 2758SOL    HW1 9173   5.391   0.056   5.076
 2758SOL    HW2 9174   5.392   0.025   5.237
 2759SOL     OW 9175   5.683   6.570   3.982
 2759SOL    HW1 9176   5.693   6.645   4.047
 2759SOL    HW2 9177   5.668   6.485   4.031
 2760SOL     OW 9178   1.892   5.427   2.061
 2760SOL    HW1 9179   1.953   5.438   2.139
 2760SOL    HW2 9180   1.811   5.374   2.088
 2761SOL     OW 9181   0.975   5.712   3.216
 2761SOL    HW1 9182   1.024   5.704   3.129
 2761SOL    HW2 9183   0.996   5.633   3.274
 2762SOL     OW 9184   1.363   6.825   5.355
 2762SOL    HW1 9185   1.351   6.858   5.261
 2762SOL    HW2 9186   1.460   6.804   5.371
 2763SOL     OW 9187   5.897   2.178   3.668
 2763SOL    HW1 9188   5.882   2.161   3.766
 2763SOL    HW2 9189   5.819   2.142   3.616
 2764SOL     OW 9190   5.283   0.014   1.427
 2764SOL    HW1 9191   5.317   0.002   1.520
 2764SOL    HW2 9192   5.238   0.103   1.419
 2765SOL     OW 9193   5.154   1.551   2.244
 2765SOL    HW1 9194   5.153   1.465   2.192
 2765SOL    HW2 9195   5.106   1.622   2.193
 2766SOL     OW 9196   6.177   1.757   1.078
 2766SOL    HW1 9197   6.179   1.846   1.032
 2766SOL    HW2 9198   6.106   1.700   1.036
 2767SOL     OW 9199   6.486   4.127   6.378
 2767SOL    HW1 9200   6.582   4.122   6.350
 2767SOL    HW2 9201   6.472   4.210   6.431
 2768SOL     OW 9202   5.569   0.836   0.479
 2768SOL    HW1 9203   5.490   0.816   0.537
 2768SOL    HW2 9204   5.626   0.906   0.523
 2769SOL     OW 9205   6.796   4.103   3.041
 2769SOL    HW1 9206   6.880   4.156   3.035
 2769SOL    HW2 9207   6.817   4.005   3.041
 2770SOL     OW 9208   1.327   5.499   1.061
 2770SOL    HW1 9209   1.311   5.597   1.077
 2770SOL    HW2 9210   1.423   5.486   1.035
 2771SOL     OW 9211   5.285   1.540   1.262
 2771SOL    HW1 9212   5.265   1.636   1.281
 2771SOL    HW2 9213   5.218   1.504   1.197
 2772SOL     OW 9214   4.369   2.811   0.049
 2772SOL    HW1 9215   4.424   2.738   0.009
 2772SOL    HW2 9216   4.281   2.773   0.079
 2773SOL     OW 9217   4.199   3.598   5.955
 2773SOL    HW1 9218   4.284   3.604   5.902
 2773SOL    HW2 9219   4.155   3.511   5.936
 2774SOL     OW 9220   5.605   2.128   1.935
 2774SOL    HW1 9221   5.676   2.199   1.935
 2774SOL    HW2 9222   5.633   2.055   1.998
 2775SOL     OW 9223   6.940   5.934   1.305
 2775SOL    HW1 9224   6.890   5.869   1.362
 2775SOL    HW2 9225   7.020   5.888   1.265
 2776SOL     OW 9226   4.037   5.794   5.341
 2776SOL    HW1 9227   4.010   5.847   5.422
 2776SOL    HW2 9228   4.098   5.850   5.284
 2777SOL     OW 9229   3.297   1.062   2.523
 2777SOL    HW1 9230   3.319   1.108   2.437
 2777SOL    HW2 9231   3.279   1.130   2.594
 2778SOL     OW 9232   2.109   1.354   5.364
 2778SOL    HW1 9233   2.203   1.322   5.353
 2778SOL    HW2 9234   2.058   1.290   5.422
 2779SOL     OW 9235   5.297   0.028   0.112
 2779SOL    HW1 9236   5.214   7.005   0.090
 2779SOL    HW2 9237   5.356   6.997   0.168
 2780SOL     OW 9238   5.591   5.238   6.089
 2780SOL    HW1 9239   5.507   5.185   6.105
 2780SOL    HW2 9240   5.611   5.240   5.991
 2781SOL     OW 9241   5.690   4.953   1.605
 2781SOL    HW1 9242   5.761   4.905   1.657
 2781SOL    HW2 9243   5.725   4.977   1.515
 2782SOL     OW 9244   3.095   2.643   6.493
 2782SOL    HW1 9245   3.117   2.555   6.450
 2782SOL    HW2 9246   3.008   2.676   6.457
 2783SOL     OW 9247   6.344   3.673   4.775
 2783SOL    HW1 9248   6.369   3.768   4.754
 2783SOL    HW2 9249   6.256   3.652   4.732
 2784SOL     OW 9250   2.150   2.744   1.104
 2784SOL    HW1 9251   2.118   2.657   1.068
 2784SOL    HW2 9252   2.234   2.730   1.156
 2785SOL     OW 9253   6.709   1.322   6.839
 2785SOL    HW1 9254   6.756   1.404   6.871
 2785SOL    HW2 9255   6.714   1.318   6.739
 2786SOL     OW 9256   4.058   6.810   0.719
 2786SOL    HW1 9257   4.150   6.787   0.752
 2786SOL    HW2 9258   3.990   6.768   0.780
 2787SOL     OW 9259   2.410   4.601   6.496
 2787SOL    HW1 9260   2.410   4.503   6.515
 2787SOL    HW2 9261   2.320   4.639   6.519
 2788SOL     OW 9262   2.542   4.387   0.447
 2788SOL    HW1 9263   2.563   4.320   0.376
 2788SOL    HW2 9264   2.471   4.351   0.507
 2789SOL     OW 9265   1.279   1.759   3.677
 2789SOL    HW1 9266   1.332   1.761   3.762
 2789SOL    HW2 9267   1.182   1.756   3.698
 2790SOL     OW 9268   3.734   5.053   3.217
 2790SOL    HW1 9269   3.700   5.052   3.311
 2790SOL    HW2 9270   3.712   5.141   3.175
 2791SOL     OW 9271   1.945   4.461   4.680
 2791SOL    HW1 9272   1.925   4.364   4.684
 2791SOL    HW2 9273   1.861   4.514   4.692
 2792SOL     OW 9274   1.333   0.740   5.407
 2792SOL    HW1 9275   1.262   0.690   5.455
 2792SOL    HW2 9276   1.296   0.826   5.372
 2793SOL     OW 9277   5.068   1.546   2.492
 2793SOL    HW1 9278   5.121   1.605   2.553
 2793SOL    HW2 9279   5.102   1.557   2.398
 2794SOL     OW 9280   0.171   2.583   0.527
 2794SOL    HW1 9281   0.138   2.643   0.600
 2794SOL    HW2 9282   0.162   2.628   0.439
 2795SOL     OW 9283   2.966   4.219   1.416
 2795SOL    HW1 9284   3.066   4.209   1.416
 2795SOL    HW2 9285   2.940   4.298   1.470
 2796SOL     OW 9286   6.388   4.265   2.366
 2796SOL    HW1 9287   6.289   4.277   2.377
 2796SOL    HW2 9288   6.436   4.339   2.412
 2797SOL     OW 9289   5.144   5.589   4.690
 2797SOL    HW1 9290   5.053   5.600   4.730
 2797SOL    HW2 9291   5.169   5.492   4.691
 2798SOL     OW 9292   0.691   3.983   2.952
 2798SOL    HW1 9293   0.630   3.928   2.895
 2798SOL    HW2 9294   0.664   4.080   2.945
 2799SOL     OW 9295   0.278   5.869   6.531
 2799SOL    HW1 9296   0.261   5.960   6.492
 2799SOL    HW2 9297   0.248   5.799   6.467
 2800SOL     OW 9298   4.249   4.849   6.560
 2800SOL    HW1 9299   4.246   4.948   6.553
 2800SOL    HW2 9300   4.318   4.822   6.628
 2801SOL     OW 9301   4.142   5.468   3.226
 2801SOL    HW1 9302   4.220   5.490   3.168
 2801SOL    HW2 9303   4.108   5.551   3.270
 2802SOL     OW 9304   3.997   2.396   6.441
 2802SOL    HW1 9305   3.929   2.458   6.403
 2802SOL    HW2 9306   4.052   2.358   6.367
 2803SOL     OW 9307   2.014   5.928   5.762
 2803SOL    HW1 9308   2.103   5.974   5.770
 2803SOL    HW2 9309   1.941   5.992   5.786
 2804SOL     OW 9310   6.857   4.476   3.617
 2804SOL    HW1 9311   6.915   4.550   3.653
 2804SOL    HW2 9312   6.903   4.434   3.539
 2805SOL     OW 9313   4.538   3.359   1.426
 2805SOL    HW1 9314   4.575   3.376   1.517
 2805SOL    HW2 9315   4.593   3.289   1.380
 2806SOL     OW 9316   6.018   5.585   2.788
 2806SOL    HW1 9317   6.104   5.615   2.747
 2806SOL    HW2 9318   6.004   5.488   2.769
 2807SOL     OW 9319   5.150   4.708   3.763
 2807SOL    HW1 9320   5.148   4.714   3.663
 2807SOL    HW2 9321   5.169   4.614   3.791
 2808SOL     OW 9322   4.865   1.215   3.503
 2808SOL    HW1 9323   4.902   1.304   3.529
 2808SOL    HW2 9324   4.938   1.159   3.463
 2809SOL     OW 9325   5.935   2.638   1.263
 2809SOL    HW1 9326   5.899   2.609   1.351
 2809SOL    HW2 9327   5.912   2.570   1.193
 2810SOL     OW 9328   3.442   6.489   5.192
 2810SOL    HW1 9329   3.483   6.459   5.106
 2810SOL    HW2 9330   3.397   6.411   5.236
 2811SOL     OW 9331   1.133   1.463   2.726
 2811SOL    HW1 9332   1.204   1.443   2.795
 2811SOL    HW2 9333   1.122   1.383   2.667
 2812SOL     OW 9334   4.918   3.570   2.092
 2812SOL    HW1 9335   5.017   3.577   2.079
 2812SOL    HW2 9336   4.888   3.478   2.067
 2813SOL     OW 9337   5.930   6.764   6.169
 2813SOL    HW1 9338   5.979   6.851   6.156
 2813SOL    HW2 9339   5.965   6.697   6.103
 2814SOL     OW 9340   4.196   4.001   6.101
 2814SOL    HW1 9341   4.154   3.998   6.010
 2814SOL    HW2 9342   4.274   3.938   6.103
 2815SOL     OW 9343   6.639   1.013   4.468
 2815SOL    HW1 9344   6.699   1.093   4.458
 2815SOL    HW2 9345   6.549   1.034   4.432
 2816SOL     OW 9346   5.878   6.827   3.676
 2816SOL    HW1 9347   5.940   6.760   3.635
 2816SOL    HW2 9348   5.823   6.869   3.603
 2817SOL     OW 9349   1.824   0.734   1.261
 2817SOL    HW1 9350   1.799   0.737   1.358
 2817SOL    HW2 9351   1.853   0.825   1.231
 2818SOL     OW 9352   6.944   5.184   6.570
 2818SOL    HW1 9353   6.859   5.198   6.619
 2818SOL    HW2 9354   7.011   5.252   6.599
 2819SOL     OW 9355   0.191   2.000   0.918
 2819SOL    HW1 9356   0.122   1.939   0.956
 2819SOL    HW2 9357   0.251   1.948   0.857
 2820SOL     OW 9358   0.165   2.584   2.311
 2820SOL    HW1 9359   0.216   2.663   2.275
 2820SOL    HW2 9360   0.078   2.615   2.348
 2821SOL     OW 9361   2.837   4.309   5.948
 2821SOL    HW1 9362   2.909   4.295   6.016
 2821SOL    HW2 9363   2.784   4.390   5.972
 2822SOL     OW 9364   4.152   2.654   0.231
 2822SOL    HW1 9365   4.118   2.589   0.162
 2822SOL    HW2 9366   4.075   2.689   0.284
 2823SOL     OW 9367   2.361   6.830   1.786
 2823SOL    HW1 9368   2.301   6.867   1.715
 2823SOL    HW2 9369   2.307   6.815   1.869
 2824SOL     OW 9370   2.279   1.287   4.917
 2824SOL    HW1 9371   2.353   1.353   4.925
 2824SOL    HW2 9372   2.191   1.334   4.929
 2825SOL     OW 9373   6.947   6.994   0.966
 2825SOL    HW1 9374   6.998   0.050   0.990
 2825SOL    HW2 9375   6.996   6.913   0.999
 2826SOL     OW 9376   5.621   1.770   5.817
 2826SOL    HW1 9377   5.583   1.705   5.882
 2826SOL    HW2 9378   5.701   1.815   5.858
 2827SOL     OW 9379   6.899   1.381   5.035
 2827SOL    HW1 9380   6.853   1.316   4.975
 2827SOL    HW2 9381   6.986   1.409   4.995
 2828SOL     OW 9382   3.660   0.948   6.007
 2828SOL    HW1 9383   3.734   0.962   5.942
 2828SOL    HW2 9384   3.601   0.873   5.975
 2829SOL     OW 9385   3.635   4.869   6.188
 2829SOL    HW1 9386   3.616   4.828   6.277
 2829SOL    HW2 9387   3.590   4.958   6.181
 2830SOL     OW 9388   6.317   4.093   6.154
 2830SOL    HW1 9389   6.340   3.997   6.141
 2830SOL    HW2 9390   6.377   4.133   6.222
 2831SOL     OW 9391   6.189   5.979   4.641
 2831SOL    HW1 9392   6.218   6.075   4.643
 2831SOL    HW2 9393   6.148   5.956   4.729
 2832SOL     OW 9394   0.341   1.482   1.520
 2832SOL    HW1 9395   0.288   1.399   1.502
 2832SOL    HW2 9396   0.345   1.537   1.436
 2833SOL     OW 9397   5.784   1.820   2.305
 2833SOL    HW1 9398   5.800   1.799   2.402
 2833SOL    HW2 9399   5.809   1.742   2.249
 2834SOL     OW 9400   2.912   1.534   6.286
 2834SOL    HW1 9401   3.002   1.567   6.317
 2834SOL    HW2 9402   2.859   1.504   6.365
 2835SOL     OW 9403   0.334   6.748   2.007
 2835SOL    HW1 9404   0.296   6.675   2.064
 2835SOL    HW2 9405   0.264   6.817   1.991
 2836SOL     OW 9406   6.980   0.080   1.815
 2836SOL    HW1 9407   6.990   0.178   1.800
 2836SOL    HW2 9408   0.042   0.035   1.801
 2837SOL     OW 9409   5.153   3.517   2.792
 2837SOL    HW1 9410   5.206   3.437   2.818
 2837SOL    HW2 9411   5.056   3.497   2.797
 2838SOL     OW 9412   2.172   4.550   2.038
 2838SOL    HW1 9413   2.196   4.453   2.049
 2838SOL    HW2 9414   2.161   4.571   1.941
 2839SOL     OW 9415   5.831   1.303   2.134
 2839SOL    HW1 9416   5.876   1.228   2.182
 2839SOL    HW2 9417   5.843   1.291   2.035
 2840SOL     OW 9418   0.413   1.195   4.847
 2840SOL    HW1 9419   0.507   1.176   4.874
 2840SOL    HW2 9420   0.411   1.274   4.786
 2841SOL     OW 9421   0.752   6.545   6.803
 2841SOL    HW1 9422   0.839   6.582   6.769
 2841SOL    HW2 9423   0.733   6.583   6.894
 2842SOL     OW 9424   6.790   2.724   3.723
 2842SOL    HW1 9425   6.710   2.773   3.689
 2842SOL    HW2 9426   6.810   2.753   3.817
 2843SOL     OW 9427   3.519   1.440   4.397
 2843SOL    HW1 9428   3.514   1.342   4.417
 2843SOL    HW2 9429   3.563   1.486   4.474
 2844SOL     OW 9430   1.172   4.012   0.119
 2844SOL    HW1 9431   1.255   4.053   0.081
 2844SOL    HW2 9432   1.092   4.049   0.074
 2845SOL     OW 9433   1.014   3.844   0.532
 2845SOL    HW1 9434   1.089   3.786   0.565
 2845SOL    HW2 9435   0.928   3.792   0.535
 2846SOL     OW 9436   4.970   1.280   6.841
 2846SOL    HW1 9437   4.973   1.230   6.927
 2846SOL    HW2 9438   4.950   1.376   6.859
 2847SOL     OW 9439   5.287   3.593   3.449
 2847SOL    HW1 9440   5.367   3.652   3.434
 2847SOL    HW2 9441   5.204   3.649   3.443
 2848SOL     OW 9442   0.092   4.424   5.326
 2848SOL    HW1 9443   0.117   4.452   5.234
 2848SOL    HW2 9444   0.042   4.499   5.371
 2849SOL     OW 9445   3.363   0.959   0.900
 2849SOL    HW1 9446   3.426   0.908   0.958
 2849SOL    HW2 9447   3.400   0.965   0.808
 2850SOL     OW 9448   3.341   0.591   1.467
 2850SOL    HW1 9449   3.341   0.658   1.541
 2850SOL    HW2 9450   3.340   0.498   1.506
 2851SOL     OW 9451   0.971   4.513   5.576
 2851SOL    HW1 9452   1.016   4.576   5.513
 2851SOL    HW2 9453   0.918   4.446   5.524
 2852SOL     OW 9454   5.750   4.076   6.800
 2852SOL    HW1 9455   5.723   3.982   6.823
 2852SOL    HW2 9456   5.830   4.102   6.855
 2853SOL     OW 9457   3.036   2.649   0.470
 2853SOL    HW1 9458   2.970   2.682   0.538
 2853SOL    HW2 9459   3.127   2.683   0.493
 2854SOL     OW 9460   2.816   1.066   4.385
 2854SOL    HW1 9461   2.814   0.998   4.459
 2854SOL    HW2 9462   2.902   1.058   4.335
 2855SOL     OW 9463   2.058   0.134   6.001
 2855SOL    HW1 9464   2.029   0.222   5.963
 2855SOL    HW2 9465   2.052   0.064   5.929
 2856SOL     OW 9466   2.490   2.888   6.084
 2856SOL    HW1 9467   2.569   2.892   6.024
 2856SOL    HW2 9468   2.416   2.838   6.040
 2857SOL     OW 9469   3.092   1.711   1.496
 2857SOL    HW1 9470   3.124   1.629   1.544
 2857SOL    HW2 9471   3.079   1.785   1.561
 2858SOL     OW 9472   5.948   3.017   2.205
 2858SOL    HW1 9473   5.979   3.075   2.129
 2858SOL    HW2 9474   5.924   3.075   2.283
 2859SOL     OW 9475   4.999   1.337   0.862
 2859SOL    HW1 9476   4.905   1.303   0.874
 2859SOL    HW2 9477   5.059   1.260   0.838
 2860SOL     OW 9478   4.289   1.683   1.433
 2860SOL    HW1 9479   4.271   1.771   1.476
 2860SOL    HW2 9480   4.388   1.671   1.424
 2861SOL     OW 9481   4.334   5.745   5.573
 2861SOL    HW1 9482   4.278   5.785   5.645
 2861SOL    HW2 9483   4.383   5.665   5.609
 2862SOL     OW 9484   5.884   1.506   3.238
 2862SOL    HW1 9485   5.849   1.438   3.174
 2862SOL    HW2 9486   5.807   1.560   3.274
 2863SOL     OW 9487   6.037   1.199   0.238
 2863SOL    HW1 9488   5.968   1.148   0.186
 2863SOL    HW2 9489   6.025   1.180   0.336
 2864SOL     OW 9490   3.742   0.344   1.082
 2864SOL    HW1 9491   3.656   0.326   1.035
 2864SOL    HW2 9492   3.798   0.261   1.084
 2865SOL     OW 9493   4.589   4.468   5.268
 2865SOL    HW1 9494   4.578   4.371   5.290
 2865SOL    HW2 9495   4.682   4.484   5.235
 2866SOL     OW 9496   6.850   0.116   6.870
 2866SOL    HW1 9497   6.915   0.139   6.943
 2866SOL    HW2 9498   6.880   0.158   6.784
 2867SOL     OW 9499   6.131   4.300   2.456
 2867SOL    HW1 9500   6.128   4.397   2.480
 2867SOL    HW2 9501   6.124   4.245   2.539
 2868SOL     OW 9502   0.831   3.705   5.432
 2868SOL    HW1 9503   0.886   3.673   5.509
 2868SOL    HW2 9504   0.813   3.628   5.370
 2869SOL     OW 9505   6.178   0.960   2.505
 2869SOL    HW1 9506   6.114   0.929   2.575
 2869SOL    HW2 9507   6.261   0.995   2.549
 2870SOL     OW 9508   6.572   1.730   3.916
 2870SOL    HW1 9509   6.599   1.810   3.863
 2870SOL    HW2 9510   6.543   1.759   4.008
 2871SOL     OW 9511   2.193   1.981   6.562
 2871SOL    HW1 9512   2.154   1.958   6.652
 2871SOL    HW2 9513   2.256   2.058   6.572
 2872SOL     OW 9514   2.920   1.415   4.138
 2872SOL    HW1 9515   2.869   1.492   4.177
 2872SOL    HW2 9516   2.878   1.329   4.165
 2873SOL     OW 9517   0.608   5.962   3.024
 2873SOL    HW1 9518   0.649   5.886   3.074
 2873SOL    HW2 9519   0.585   6.036   3.087
 2874SOL     OW 9520   5.395   4.552   2.254
 2874SOL    HW1 9521   5.416   4.456   2.273
 2874SOL    HW2 9522   5.343   4.590   2.331
 2875SOL     OW 9523   3.857   6.251   6.350
 2875SOL    HW1 9524   3.843   6.248   6.252
 2875SOL    HW2 9525   3.954   6.262   6.370
 2876SOL     OW 9526   1.034   0.977   2.012
 2876SOL    HW1 9527   1.116   0.972   2.069
 2876SOL    HW2 9528   1.061   0.980   1.915
 2877SOL     OW 9529   3.583   2.928   5.432
 2877SOL    HW1 9530   3.554   2.972   5.346
 2877SOL    HW2 9531   3.609   2.998   5.498
 2878SOL     OW 9532   2.844   4.968   4.700
 2878SOL    HW1 9533   2.822   4.987   4.795
 2878SOL    HW2 9534   2.924   4.907   4.696
 2879SOL     OW 9535   4.590   5.278   0.226
 2879SOL    HW1 9536   4.586   5.366   0.178
 2879SOL    HW2 9537   4.569   5.205   0.161
 2880SOL     OW 9538   6.676   6.391   0.273
 2880SOL    HW1 9539   6.725   6.343   0.347
 2880SOL    HW2 9540   6.739   6.409   0.197
 2881SOL     OW 9541   6.605   6.109   1.349
 2881SOL    HW1 9542   6.683   6.124   1.289
 2881SOL    HW2 9543   6.599   6.184   1.416
 2882SOL     OW 9544   0.956   3.489   2.592
 2882SOL    HW1 9545   0.904   3.410   2.624
 2882SOL    HW2 9546   0.991   3.539   2.671
 2883SOL     OW 9547   3.751   6.976   3.606
 2883SOL    HW1 9548   3.731   6.892   3.555
 2883SOL    HW2 9549   3.666   7.019   3.634
 2884SOL     OW 9550   0.309   6.664   3.395
 2884SOL    HW1 9551   0.402   6.690   3.419
 2884SOL    HW2 9552   0.249   6.743   3.404
 2885SOL     OW 9553   0.223   2.663   2.975
 2885SOL    HW1 9554   0.153   2.705   3.033
 2885SOL    HW2 9555   0.262   2.732   2.915
 2886SOL     OW 9556   2.672   3.030   6.599
 2886SOL    HW1 9557   2.702   3.122   6.572
 2886SOL    HW2 9558   2.641   3.032   6.694
 2887SOL     OW 9559   2.715   6.447   5.126
 2887SOL    HW1 9560   2.744   6.386   5.052
 2887SOL    HW2 9561   2.706   6.541   5.090
 2888SOL     OW 9562   0.321   5.120   6.379
 2888SOL    HW1 9563   0.252   5.076   6.437
 2888SOL    HW2 9564   0.294   5.112   6.283
 2889SOL     OW 9565   1.605   0.936   1.636
 2889SOL    HW1 9566   1.695   0.894   1.628
 2889SOL    HW2 9567   1.564   0.909   1.724
 2890SOL     OW 9568   2.944   0.810   1.331
 2890SOL    HW1 9569   3.001   0.857   1.264
 2890SOL    HW2 9570   3.003   0.762   1.397
 2891SOL     OW 9571   1.920   4.638   3.436
 2891SOL    HW1 9572   1.891   4.671   3.346
 2891SOL    HW2 9573   1.940   4.716   3.495
 2892SOL     OW 9574   4.477   4.224   6.900
 2892SOL    HW1 9575   4.563   4.181   6.871
 2892SOL    HW2 9576   4.411   4.220   6.826
 2893SOL     OW 9577   2.503   6.175   5.840
 2893SOL    HW1 9578   2.574   6.239   5.812
 2893SOL    HW2 9579   2.504   6.164   5.939
 2894SOL     OW 9580   2.816   2.731   6.743
 2894SOL    HW1 9581   2.854   2.698   6.830
 2894SOL    HW2 9582   2.718   2.711   6.741
 2895SOL     OW 9583   3.767   3.405   6.628
 2895SOL    HW1 9584   3.823   3.360   6.698
 2895SOL    HW2 9585   3.674   3.370   6.632
 2896SOL     OW 9586   2.590   5.490   6.772
 2896SOL    HW1 9587   2.653   5.539   6.832
 2896SOL    HW2 9588   2.517   5.552   6.742
 2897SOL     OW 9589   2.081   6.392   3.676
 2897SOL    HW1 9590   2.107   6.467   3.737
 2897SOL    HW2 9591   2.044   6.316   3.730
 2898SOL     OW 9592   4.529   5.071   2.727
 2898SOL    HW1 9593   4.517   5.165   2.760
 2898SOL    HW2 9594   4.441   5.032   2.702
 2899SOL     OW 9595   0.580   0.625   6.454
 2899SOL    HW1 9596   0.598   0.614   6.356
 2899SOL    HW2 9597   0.597   0.719   6.481
 2900SOL     OW 9598   1.017   4.806   5.770
 2900SOL    HW1 9599   0.989   4.860   5.690
 2900SOL    HW2 9600   1.116   4.799   5.773
 2901SOL     OW 9601   2.105   0.320   2.419
 2901SOL    HW1 9602   2.081   0.253   2.490
 2901SOL    HW2 9603   2.188   0.369   2.446
 2902SOL     OW 9604   5.718   6.598   0.527
 2902SOL    HW1 9605   5.678   6.518   0.574
 2902SOL    HW2 9606   5.815   6.582   0.510
 2903SOL     OW 9607   3.235   0.450   1.997
 2903SOL    HW1 9608   3.305   0.517   1.973
 2903SOL    HW2 9609   3.258   0.408   2.084
 2904SOL     OW 9610   2.460   3.103   5.435
 2904SOL    HW1 9611   2.465   3.080   5.338
 2904SOL    HW2 9612   2.433   3.198   5.446
 2905SOL     OW 9613   1.713   0.828   2.493
 2905SOL    HW1 9614   1.622   0.817   2.451
 2905SOL    HW2 9615   1.738   0.925   2.493
 2906SOL     OW 9616   5.351   5.097   1.578
 2906SOL    HW1 9617   5.260   5.102   1.620
 2906SOL    HW2 9618   5.370   5.003   1.552
 2907SOL     OW 9619   6.691   1.485   5.206
 2907SOL    HW1 9620   6.613   1.535   5.170
 2907SOL    HW2 9621   6.750   1.455   5.131
 2908SOL     OW 9622   3.935   6.812   4.424
 2908SOL    HW1 9623   3.898   6.817   4.331
 2908SOL    HW2 9624   3.871   6.762   4.482
 2909SOL     OW 9625   0.408   4.850   4.529
 2909SOL    HW1 9626   0.424   4.756   4.558
 2909SOL    HW2 9627   0.480   4.878   4.465
 2910SOL     OW 9628   3.399   6.095   4.967
 2910SOL    HW1 9629   3.325   6.162   4.971
 2910SOL    HW2 9630   3.482   6.139   4.933
 2911SOL     OW 9631   2.224   5.048   3.181
 2911SOL    HW1 9632   2.239   4.949   3.184
 2911SOL    HW2 9633   2.176   5.077   3.263
 2912SOL     OW 9634   2.589   6.061   0.582
 2912SOL    HW1 9635   2.595   6.099   0.490
 2912SOL    HW2 9636   2.632   6.123   0.648
 2913SOL     OW 9637   1.877   4.119   2.527
 2913SOL    HW1 9638   1.953   4.072   2.482
 2913SOL    HW2 9639   1.910   4.206   2.565
 2914SOL     OW 9640   6.208   4.683   6.452
 2914SOL    HW1 9641   6.229   4.586   6.440
 2914SOL    HW2 9642   6.292   4.737   6.439
 2915SOL     OW 9643   4.754   1.301   4.265
 2915SOL    HW1 9644   4.734   1.393   4.300
 2915SOL    HW2 9645   4.678   1.270   4.208
 2916SOL     OW 9646   6.370   4.844   5.709
 2916SOL    HW1 9647   6.341   4.750   5.690
 2916SOL    HW2 9648   6.336   4.904   5.637
 2917SOL     OW 9649   4.005   0.225   0.715
 2917SOL    HW1 9650   3.910   0.237   0.743
 2917SOL    HW2 9651   4.052   0.166   0.781
 2918SOL     OW 9652   0.014   3.504   3.116
 2918SOL    HW1 9653   0.074   3.461   3.183
 2918SOL    HW2 9654   6.948   3.467   3.124
 2919SOL     OW 9655   6.077   6.999   0.335
 2919SOL    HW1 9656   6.163   0.019   0.357
 2919SOL    HW2 9657   6.051   7.020   0.241
 2920SOL     OW 9658   3.595   2.021   2.773
 2920SOL    HW1 9659   3.605   1.998   2.676
 2920SOL    HW2 9660   3.507   2.066   2.787
 2921SOL     OW 9661   0.440   1.615   2.662
 2921SOL    HW1 9662   0.467   1.711   2.661
 2921SOL    HW2 9663   0.501   1.563   2.603
 2922SOL     OW 9664   5.931   6.265   6.450
 2922SOL    HW1 9665   5.949   6.308   6.361
 2922SOL    HW2 9666   5.949   6.167   6.443
 2923SOL     OW 9667   6.961   5.516   2.586
 2923SOL    HW1 9668   6.960   5.610   2.618
 2923SOL    HW2 9669   0.023   5.496   2.542
 2924SOL     OW 9670   0.859   1.573   5.888
 2924SOL    HW1 9671   0.914   1.570   5.971
 2924SOL    HW2 9672   0.896   1.509   5.821
 2925SOL     OW 9673   5.973   1.766   2.742
 2925SOL    HW1 9674   6.016   1.699   2.682
 2925SOL    HW2 9675   5.905   1.721   2.800
 2926SOL     OW 9676   0.124   1.473   4.928
 2926SOL    HW1 9677   0.136   1.572   4.933
 2926SOL    HW2 9678   0.192   1.429   4.987
 2927SOL     OW 9679   1.501   2.760   1.878
 2927SOL    HW1 9680   1.529   2.794   1.968
 2927SOL    HW2 9681   1.560   2.799   1.808
 2928SOL     OW 9682   6.699   1.039   6.838
 2928SOL    HW1 9683   6.710   1.138   6.842
 2928SOL    HW2 9684   6.769   0.995   6.894
 2929SOL     OW 9685   0.645   0.891   6.454
 2929SOL    HW1 9686   0.631   0.948   6.373
 2929SOL    HW2 9687   0.736   0.907   6.491
 2930SOL     OW 9688   4.832   0.050   4.792
 2930SOL    HW1 9689   4.889   0.017   4.716
 2930SOL    HW2 9690   4.819   7.002   4.858
 2931SOL     OW 9691   5.176   5.602   6.528
 2931SOL    HW1 9692   5.237   5.637   6.457
 2931SOL    HW2 9693   5.224   5.533   6.582
 2932SOL     OW 9694   1.700   4.209   1.924
 2932SOL    HW1 9695   1.789   4.239   1.959
 2932SOL    HW2 9696   1.714   4.150   1.844
 2933SOL     OW 9697   5.585   2.161   4.082
 2933SOL    HW1 9698   5.595   2.119   4.172
 2933SOL    HW2 9699   5.539   2.098   4.020
 2934SOL     OW 9700   3.677   7.007   1.102
 2934SOL    HW1 9701   3.629   6.932   1.058
 2934SOL    HW2 9702   3.613   0.053   1.126
 2935SOL     OW 9703   6.615   3.512   1.543
 2935SOL    HW1 9704   6.670   3.546   1.620
 2935SOL    HW2 9705   6.628   3.413   1.534
 2936SOL     OW 9706   5.042   5.958   1.241
 2936SOL    HW1 9707   5.087   6.046   1.257
 2936SOL    HW2 9708   4.950   5.974   1.206
 2937SOL     OW 9709   3.267   5.124   0.668
 2937SOL    HW1 9710   3.177   5.163   0.648
 2937SOL    HW2 9711   3.318   5.113   0.583
 2938SOL     OW 9712   4.514   4.967   5.451
 2938SOL    HW1 9713   4.472   5.057   5.465
 2938SOL    HW2 9714   4.447   4.896   5.473
 2939SOL     OW 9715   6.532   6.747   4.578
 2939SOL    HW1 9716   6.616   6.797   4.599
 2939SOL    HW2 9717   6.454   6.810   4.579
 2940SOL     OW 9718   5.663   6.723   5.491
 2940SOL    HW1 9719   5.699   6.789   5.556
 2940SOL    HW2 9720   5.563   6.718   5.500
 2941SOL     OW 9721   1.901   2.265   5.990
 2941SOL    HW1 9722   1.885   2.176   5.948
 2941SOL    HW2 9723   1.921   2.333   5.919
 2942SOL     OW 9724   3.018   0.616   2.333
 2942SOL    HW1 9725   3.060   0.706   2.325
 2942SOL    HW2 9726   2.995   0.582   2.242
 2943SOL     OW 9727   5.280   3.423   2.292
 2943SOL    HW1 9728   5.375   3.393   2.300
 2943SOL    HW2 9729   5.250   3.463   2.379
 2944SOL     OW 9730   3.256   5.162   6.086
 2944SOL    HW1 9731   3.289   5.209   6.004
 2944SOL    HW2 9732   3.163   5.130   6.070
 2945SOL     OW 9733   3.897   4.014   2.764
 2945SOL    HW1 9734   3.969   3.971   2.710
 2945SOL    HW2 9735   3.818   4.035   2.706
 2946SOL     OW 9736   6.277   5.953   5.401
 2946SOL    HW1 9737   6.367   5.981   5.434
 2946SOL    HW2 9738   6.206   6.005   5.448
 2947SOL     OW 9739   0.011   3.947   6.660
 2947SOL    HW1 9740   6.962   4.006   6.690
 2947SOL    HW2 9741   0.040   3.889   6.736
 2948SOL     OW 9742   6.304   3.645   5.611
 2948SOL    HW1 9743   6.252   3.630   5.527
 2948SOL    HW2 9744   6.355   3.562   5.634
 2949SOL     OW 9745   1.752   6.114   1.120
 2949SOL    HW1 9746   1.775   6.046   1.189
 2949SOL    HW2 9747   1.707   6.192   1.164
 2950SOL     OW 9748   5.550   3.420   4.235
 2950SOL    HW1 9749   5.573   3.462   4.323
 2950SOL    HW2 9750   5.490   3.480   4.183
 2951SOL     OW 9751   0.150   2.211   0.242
 2951SOL    HW1 9752   0.230   2.159   0.212
 2951SOL    HW2 9753   0.177   2.271   0.318
 2952SOL     OW 9754   0.533   4.922   3.207
 2952SOL    HW1 9755   0.577   5.011   3.197
 2952SOL    HW2 9756   0.557   4.864   3.129
 2953SOL     OW 9757   5.268   2.706   2.135
 2953SOL    HW1 9758   5.234   2.784   2.083
 2953SOL    HW2 9759   5.197   2.636   2.141
 2954SOL     OW 9760   0.445   6.425   2.051
 2954SOL    HW1 9761   0.541   6.409   2.075
 2954SOL    HW2 9762   0.441   6.481   1.969
 2955SOL     OW 9763   0.272   2.976   0.303
 2955SOL    HW1 9764   0.308   2.924   0.380
 2955SOL    HW2 9765   0.214   3.050   0.336
 2956SOL     OW 9766   0.312   5.934   3.071
 2956SOL    HW1 9767   0.396   5.906   3.026
 2956SOL    HW2 9768   0.329   5.945   3.169
 2957SOL     OW 9769   0.503   3.674   0.789
 2957SOL    HW1 9770   0.507   3.588   0.737
 2957SOL    HW2 9771   0.429   3.731   0.752
 2958SOL     OW 9772   2.108   4.698   5.860
 2958SOL    HW1 9773   2.009   4.688   5.850
 2958SOL    HW2 9774   2.152   4.609   5.845
 2959SOL     OW 9775   6.086   4.696   6.152
 2959SOL    HW1 9776   6.034   4.617   6.186
 2959SOL    HW2 9777   6.157   4.720   6.219
 2960SOL     OW 9778   3.158   1.371   0.139
 2960SOL    HW1 9779   3.249   1.389   0.103
 2960SOL    HW2 9780   3.164   1.356   0.238
 2961SOL     OW 9781   5.174   3.108   4.955
 2961SOL    HW1 9782   5.156   3.024   5.006
 2961SOL    HW2 9783   5.270   3.134   4.966
 2962SOL     OW 9784   4.545   0.980   3.880
 2962SOL    HW1 9785   4.503   0.996   3.791
 2962SOL    HW2 9786   4.502   0.902   3.924
 2963SOL     OW 9787   1.993   1.709   5.657
 2963SOL    HW1 9788   1.991   1.807   5.639
 2963SOL    HW2 9789   2.066   1.667   5.604
 2964SOL     OW 9790   1.609   7.005   1.842
 2964SOL    HW1 9791   1.685   0.024   1.889
 2964SOL    HW2 9792   1.633   6.909   1.826
 2965SOL     OW 9793   0.317   0.831   5.255
 2965SOL    HW1 9794   0.251   0.873   5.318
 2965SOL    HW2 9795   0.363   0.902   5.202
 2966SOL     OW 9796   5.544   3.907   3.651
 2966SOL    HW1 9797   5.481   3.900   3.728
 2966SOL    HW2 9798   5.588   3.997   3.652
 2967SOL     OW 9799   6.214   2.442   3.824
 2967SOL    HW1 9800   6.305   2.401   3.831
 2967SOL    HW2 9801   6.223   2.541   3.816
 2968SOL     OW 9802   0.660   3.930   6.004
 2968SOL    HW1 9803   0.595   3.956   6.076
 2968SOL    HW2 9804   0.752   3.957   6.031
 2969SOL     OW 9805   5.497   1.916   5.280
 2969SOL    HW1 9806   5.444   1.845   5.234
 2969SOL    HW2 9807   5.595   1.899   5.266
 2970SOL     OW 9808   1.073   4.642   6.602
 2970SOL    HW1 9809   1.026   4.554   6.594
 2970SOL    HW2 9810   1.007   4.716   6.589
 2971SOL     OW 9811   5.954   2.772   3.788
 2971SOL    HW1 9812   6.036   2.729   3.750
 2971SOL    HW2 9813   5.975   2.865   3.817
 2972SOL     OW 9814   6.895   3.772   6.986
 2972SOL    HW1 9815   6.817   3.807   6.934
 2972SOL    HW2 9816   6.949   3.712   6.928
 2973SOL     OW 9817   5.392   0.458   3.820
 2973SOL    HW1 9818   5.328   0.406   3.763
 2973SOL    HW2 9819   5.399   0.416   3.910
 2974SOL     OW 9820   5.567   4.004   3.190
 2974SOL    HW1 9821   5.604   3.912   3.196
 2974SOL    HW2 9822   5.549   4.039   3.282
 2975SOL     OW 9823   0.601   1.657   4.704
 2975SOL    HW1 9824   0.605   1.608   4.617
 2975SOL    HW2 9825   0.693   1.681   4.734
 2976SOL     OW 9826   4.216   0.999   3.385
 2976SOL    HW1 9827   4.191   1.094   3.402
 2976SOL    HW2 9828   4.221   0.983   3.287
 2977SOL     OW 9829   2.531   0.141   4.131
 2977SOL    HW1 9830   2.439   0.153   4.167
 2977SOL    HW2 9831   2.594   0.201   4.181
 2978SOL     OW 9832   4.318   5.001   0.150
 2978SOL    HW1 9833   4.354   4.940   0.221
 2978SOL    HW2 9834   4.255   4.949   0.092
 2979SOL     OW 9835   3.418   0.621   3.963
 2979SOL    HW1 9836   3.374   0.533   3.945
 2979SOL    HW2 9837   3.500   0.629   3.907
 2980SOL     OW 9838   1.026   6.691   4.681
 2980SOL    HW1 9839   1.020   6.736   4.770
 2980SOL    HW2 9840   0.963   6.736   4.617
 2981SOL     OW 9841   0.831   0.592   5.737
 2981SOL    HW1 9842   0.927   0.567   5.748
 2981SOL    HW2 9843   0.825   0.671   5.676
 2982SOL     OW 9844   3.889   6.375   3.160
 2982SOL    HW1 9845   3.970   6.429   3.137
 2982SOL    HW2 9846   3.818   6.393   3.092
 2983SOL     OW 9847   0.078   0.494   4.070
 2983SOL    HW1 9848   0.028   0.547   4.139
 2983SOL    HW2 9849   0.150   0.441   4.115
 2984SOL     OW 9850   6.135   5.604   1.474
 2984SOL    HW1 9851   6.063   5.547   1.511
 2984SOL    HW2 9852   6.203   5.623   1.545
 2985SOL     OW 9853   1.104   2.013   4.311
 2985SOL    HW1 9854   1.183   2.040   4.256
 2985SOL    HW2 9855   1.109   1.916   4.332
 2986SOL     OW 9856   2.586   4.194   5.598
 2986SOL    HW1 9857   2.664   4.225   5.653
 2986SOL    HW2 9858   2.619   4.148   5.516
 2987SOL     OW 9859   5.167   0.974   4.566
 2987SOL    HW1 9860   5.120   1.041   4.509
 2987SOL    HW2 9861   5.117   0.887   4.564
 2988SOL     OW 9862   1.233   0.405   2.447
 2988SOL    HW1 9863   1.238   0.465   2.366
 2988SOL    HW2 9864   1.237   0.309   2.417
 2989SOL     OW 9865   6.170   5.422   1.185
 2989SOL    HW1 9866   6.237   5.369   1.237
 2989SOL    HW2 9867   6.176   5.518   1.210
 2990SOL     OW 9868   3.760   0.886   3.178
 2990SOL    HW1 9869   3.827   0.812   3.185
 2990SOL    HW2 9870   3.707   0.892   3.262
 2991SOL     OW 9871   0.286   4.504   0.571
 2991SOL    HW1 9872   0.370   4.455   0.548
 2991SOL    HW2 9873   0.222   4.442   0.616
 2992SOL     OW 9874   2.884   5.636   5.985
 2992SOL    HW1 9875   2.854   5.590   6.069
 2992SOL    HW2 9876   2.806   5.643   5.922
 2993SOL     OW 9877   1.501   4.511   2.363
 2993SOL    HW1 9878   1.592   4.482   2.394
 2993SOL    HW2 9879   1.432   4.451   2.404
 2994SOL     OW 9880   4.916   0.448   0.043
 2994SOL    HW1 9881   4.886   0.370   0.098
 2994SOL    HW2 9882   4.938   0.416   6.977
 2995SOL     OW 9883   1.533   2.371   6.990
 2995SOL    HW1 9884   1.579   2.306   0.024
 2995SOL    HW2 9885   1.456   2.326   6.945
 2996SOL     OW 9886   3.019   6.121   5.153
 2996SOL    HW1 9887   2.920   6.129   5.139
 2996SOL    HW2 9888   3.040   6.129   5.251
 2997SOL     OW 9889   5.255   5.990   2.158
 2997SOL    HW1 9890   5.345   6.033   2.164
 2997SOL    HW2 9891   5.231   5.950   2.247
 2998SOL     OW 9892   4.576   5.931   4.510
 2998SOL    HW1 9893   4.624   6.016   4.487
 2998SOL    HW2 9894   4.591   5.864   4.438
 2999SOL     OW 9895   3.325   6.219   3.702
 2999SOL    HW1 9896   3.252   6.270   3.657
 2999SOL    HW2 9897   3.292   6.181   3.788
 3000SOL     OW 9898   1.369   3.424   5.877
 3000SOL    HW1 9899   1.459   3.382   5.883
 3000SOL    HW2 9900   1.299   3.352   5.875
 3001SOL     OW 9901   5.073   7.017   6.628
 3001SOL    HW1 9902   5.009   6.946   6.599
 3001SOL    HW2 9903   5.029   0.080   6.624
 3002SOL     OW 9904   3.931   0.308   5.340
 3002SOL    HW1 9905   3.968   0.306   5.247
 3002SOL    HW2 9906   3.838   0.343   5.338
 3003SOL     OW 9907   2.888   6.506   6.401
 3003SOL    HW1 9908   2.933   6.583   6.357
 3003SOL    HW2 9909   2.855   6.534   6.492
 3004SOL     OW 9910   5.952   3.804   4.052
 3004SOL    HW1 9911   5.973   3.886   3.997
 3004SOL    HW2 9912   5.953   3.828   4.149
 3005SOL     OW 9913   3.484   3.204   1.332
 3005SOL    HW1 9914   3.546   3.132   1.364
 3005SOL    HW2 9915   3.463   3.188   1.235
 3006SOL     OW 9916   6.500   1.317   0.664
 3006SOL    HW1 9917   6.501   1.281   0.758
 3006SOL    HW2 9918   6.527   1.244   0.601
 3007SOL     OW 9919   5.503   5.024   2.036
 3007SOL    HW1 9920   5.531   4.928   2.043
 3007SOL    HW2 9921   5.457   5.051   2.121
 3008SOL     OW 9922   3.795   0.691   6.411
 3008SOL    HW1 9923   3.785   0.643   6.498
 3008SOL    HW2 9924   3.760   0.633   6.337
 3009SOL     OW 9925   0.656   0.001   2.587
 3009SOL    HW1 9926   0.630   0.092   2.557
 3009SOL    HW2 9927   0.611   6.959   2.529
 3010SOL     OW 9928   3.951   6.112   3.040
 3010SOL    HW1 9929   3.923   6.194   3.089
 3010SOL    HW2 9930   3.870   6.071   2.997
 3011SOL     OW 9931   6.193   0.825   6.782
 3011SOL    HW1 9932   6.290   0.839   6.763
 3011SOL    HW2 9933   6.139   0.861   6.706
 3012SOL     OW 9934   0.278   3.114   3.959
 3012SOL    HW1 9935   0.197   3.118   3.902
 3012SOL    HW2 9936   0.290   3.201   4.007
 3013SOL     OW 9937   5.595   6.010   3.233
 3013SOL    HW1 9938   5.675   5.964   3.273
 3013SOL    HW2 9939   5.618   6.105   3.212
 3014SOL     OW 9940   5.356   1.496   4.499
 3014SOL    HW1 9941   5.448   1.514   4.535
 3014SOL    HW2 9942   5.297   1.573   4.520
 3015SOL     OW 9943   3.038   2.088   0.051
 3015SOL    HW1 9944   3.060   2.160   7.011
 3015SOL    HW2 9945   2.948   2.106   0.091
 3016SOL     OW 9946   3.183   5.601   4.282
 3016SOL    HW1 9947   3.241   5.531   4.324
 3016SOL    HW2 9948   3.130   5.561   4.208
 3017SOL     OW 9949   0.901   5.694   0.875
 3017SOL    HW1 9950   0.809   5.664   0.897
 3017SOL    HW2 9951   0.967   5.622   0.898
 3018SOL     OW 9952   3.682   0.500   6.600
 3018SOL    HW1 9953   3.762   0.445   6.626
 3018SOL    HW2 9954   3.611   0.439   6.564
 3019SOL     OW 9955   3.267   6.631   1.147
 3019SOL    HW1 9956   3.210   6.700   1.105
 3019SOL    HW2 9957   3.258   6.545   1.097
 3020SOL     OW 9958   3.720   3.781   1.622
 3020SOL    HW1 9959   3.812   3.818   1.633
 3020SOL    HW2 9960   3.682   3.813   1.535
 3021SOL     OW 9961   2.003   2.274   6.674
 3021SOL    HW1 9962   1.990   2.358   6.622
 3021SOL    HW2 9963   1.952   2.200   6.632
 3022SOL     OW 9964   3.824   5.392   2.716
 3022SOL    HW1 9965   3.866   5.480   2.741
 3022SOL    HW2 9966   3.729   5.407   2.690
 3023SOL     OW 9967   3.285   5.910   3.350
 3023SOL    HW1 9968   3.199   5.959   3.335
 3023SOL    HW2 9969   3.268   5.831   3.410
 3024SOL     OW 9970   2.653   1.055   6.692
 3024SOL    HW1 9971   2.749   1.082   6.705
 3024SOL    HW2 9972   2.607   1.120   6.632
 3025SOL     OW 9973   3.289   3.232   1.015
 3025SOL    HW1 9974   3.386   3.230   1.041
 3025SOL    HW2 9975   3.278   3.186   0.927
 3026SOL     OW 9976   1.286   3.638   1.032
 3026SOL    HW1 9977   1.372   3.600   0.998
 3026SOL    HW2 9978   1.216   3.567   1.034
 3027SOL     OW 9979   3.849   0.732   2.669
 3027SOL    HW1 9980   3.905   0.691   2.596
 3027SOL    HW2 9981   3.842   0.830   2.654
 3028SOL     OW 9982   1.396   4.846   6.922
 3028SOL    HW1 9983   1.319   4.888   6.873
 3028SOL    HW2 9984   1.362   4.806   7.007
 3029SOL     OW 9985   6.393   4.730   5.360
 3029SOL    HW1 9986   6.324   4.789   5.402
 3029SOL    HW2 9987   6.458   4.786   5.309
 3030SOL     OW 9988   1.016   1.442   5.722
 3030SOL    HW1 9989   1.089   1.498   5.684
 3030SOL    HW2 9990   1.053   1.353   5.750
 3031SOL     OW 9991   0.770   3.720   0.582
 3031SOL    HW1 9992   0.733   3.789   0.644
 3031SOL    HW2 9993   0.713   3.638   0.585
 3032SOL     OW 9994   5.289   0.324   0.078
 3032SOL    HW1 9995   5.289   0.348   0.175
 3032SOL    HW2 9996   5.228   0.246   0.063
 3033SOL     OW 9997   0.665   2.846   0.335
 3033SOL    HW1 9998   0.627   2.932   0.368
 3033SOL    HW2 9999   0.648   2.837   0.236
 3034SOL     OW10000   1.966   6.317   3.384
 3034SOL    HW110001   2.030   6.389   3.412
 3034SOL    HW210002   1.912   6.289   3.463
 3035SOL     OW10003   6.565   1.621   0.590
 3035SOL    HW110004   6.494   1.630   0.520
 3035SOL    HW210005   6.552   1.535   0.639
 3036SOL     OW10006   2.021   4.030   6.791
 3036SOL    HW110007   2.077   4.112   6.809
 3036SOL    HW210008   1.967   4.044   6.708
 3037SOL     OW10009   5.787   5.732   4.739
 3037SOL    HW110010   5.887   5.727   4.749
 3037SOL    HW210011   5.760   5.695   4.650
 3038SOL     OW10012   5.657   6.743   6.250
 3038SOL    HW110013   5.754   6.758   6.230
 3038SOL    HW210014   5.646   6.660   6.304
 3039SOL     OW10015   6.731   4.635   2.420
 3039SOL    HW110016   6.784   4.718   2.399
 3039SOL    HW210017   6.687   4.644   2.509
 3040SOL     OW10018   4.582   3.932   6.493
 3040SOL    HW110019   4.631   3.988   6.426
 3040SOL    HW210020   4.484   3.952   6.488
 3041SOL     OW10021   2.078   2.550   6.093
 3041SOL    HW110022   2.158   2.543   6.152
 3041SOL    HW210023   1.999   2.506   6.137
 3042SOL     OW10024   5.239   0.243   2.249
 3042SOL    HW110025   5.177   0.270   2.323
 3042SOL    HW210026   5.319   0.197   2.286
 3043SOL     OW10027   0.513   5.697   0.515
 3043SOL    HW110028   0.415   5.698   0.536
 3043SOL    HW210029   0.559   5.769   0.567
 3044SOL     OW10030   3.557   4.487   5.349
 3044SOL    HW110031   3.653   4.515   5.341
 3044SOL    HW210032   3.544   4.432   5.431
 3045SOL     OW10033   4.864   0.616   2.873
 3045SOL    HW110034   4.834   0.663   2.956
 3045SOL    HW210035   4.799   0.633   2.799
 3046SOL     OW10036   0.835   3.234   5.266
 3046SOL    HW110037   0.879   3.245   5.355
 3046SOL    HW210038   0.897   3.187   5.203
 3047SOL     OW10039   5.501   5.181   1.803
 3047SOL    HW110040   5.481   5.121   1.881
 3047SOL    HW210041   5.493   5.129   1.718
 3048SOL     OW10042   4.423   3.601   1.376
 3048SOL    HW110043   4.430   3.502   1.377
 3048SOL    HW210044   4.432   3.635   1.282
 3049SOL     OW10045   0.921   6.671   1.275
 3049SOL    HW110046   0.842   6.733   1.270
 3049SOL    HW210047   0.892   6.579   1.249
 3050SOL     OW10048   3.167   6.884   3.631
 3050SOL    HW110049   3.159   6.967   3.575
 3050SOL    HW210050   3.180   6.910   3.727
 3051SOL     OW10051   2.177   4.739   6.576
 3051SOL    HW110052   2.190   4.833   6.545
 3051SOL    HW210053   2.120   4.738   6.658
 3052SOL     OW10054   3.777   0.331   3.418
 3052SOL    HW110055   3.758   0.392   3.341
 3052SOL    HW210056   3.759   0.236   3.391
 3053SOL     OW10057   5.981   0.648   6.919
 3053SOL    HW110058   6.059   0.698   6.882
 3053SOL    HW210059   6.014   0.577   6.982
 3054SOL     OW10060   6.931   2.629   6.762
 3054SOL    HW110061   6.886   2.715   6.738
 3054SOL    HW210062   6.955   2.630   6.859
 3055SOL     OW10063   5.140   0.332   3.699
 3055SOL    HW110064   5.088   0.399   3.751
 3055SOL    HW210065   5.102   0.325   3.607
 3056SOL     OW10066   6.541   0.380   0.149
 3056SOL    HW110067   6.493   0.356   0.065
 3056SOL    HW210068   6.539   0.303   0.212
 3057SOL     OW10069   4.589   5.530   2.784
 3057SOL    HW110070   4.549   5.620   2.770
 3057SOL    HW210071   4.645   5.506   2.705
 3058SOL     OW10072   6.495   5.832   1.355
 3058SOL    HW110073   6.397   5.848   1.364
 3058SOL    HW210074   6.545   5.918   1.364
 3059SOL     OW10075   1.344   3.269   5.180
 3059SOL    HW110076   1.332   3.265   5.080
 3059SOL    HW210077   1.439   3.248   5.203
 3060SOL     OW10078   0.694   6.702   0.352
 3060SOL    HW110079   0.753   6.777   0.321
 3060SOL    HW210080   0.599   6.733   0.353
 3061SOL     OW10081   0.064   0.749   5.095
 3061SOL    HW110082   7.000   0.790   5.097
 3061SOL    HW210083   0.104   0.751   5.187
 3062SOL     OW10084   1.734   0.102   1.612
 3062SOL    HW110085   1.699   0.110   1.705
 3062SOL    HW210086   1.733   0.191   1.568
 3063SOL     OW10087   2.167   5.015   2.023
 3063SOL    HW110088   2.109   5.079   1.974
 3063SOL    HW210089   2.206   4.949   1.959
 3064SOL     OW10090   5.534   3.343   3.942
 3064SOL    HW110091   5.605   3.358   4.011
 3064SOL    HW210092   5.576   3.317   3.855
 3065SOL     OW10093   2.331   0.297   6.523
 3065SOL    HW110094   2.338   0.388   6.481
 3065SOL    HW210095   2.246   0.291   6.576
 3066SOL     OW10096   6.087   4.076   0.276
 3066SOL    HW110097   6.149   4.148   0.308
 3066SOL    HW210098   6.037   4.039   0.355
 3067SOL     OW10099   3.546   1.088   4.913
 3067SOL    HW110100   3.573   1.082   5.009
 3067SOL    HW210101   3.549   1.184   4.884
 3068SOL     OW10102   5.971   6.030   0.606
 3068SOL    HW110103   6.047   6.004   0.666
 3068SOL    HW210104   5.904   5.956   0.603
 3069SOL     OW10105   0.198   6.073   1.637
 3069SOL    HW110106   0.135   6.143   1.603
 3069SOL    HW210107   0.197   6.073   1.737
 3070SOL     OW10108   2.275   1.319   2.668
 3070SOL    HW110109   2.245   1.348   2.759
 3070SOL    HW210110   2.373   1.300   2.670
 3071SOL     OW10111   6.571   6.933   3.607
 3071SOL    HW110112   6.581   6.835   3.590
 3071SOL    HW210113   6.580   6.950   3.705
 3072SOL     OW10114   0.965   6.719   1.580
 3072SOL    HW110115   0.944   6.741   1.485
 3072SOL    HW210116   0.900   6.652   1.614
 3073SOL     OW10117   0.475   3.857   5.237
 3073SOL    HW110118   0.559   3.837   5.185
 3073SOL    HW210119   0.455   3.954   5.232
 3074SOL     OW10120   4.736   2.921   0.209
 3074SOL    HW110121   4.687   2.875   0.283
 3074SOL    HW210122   4.817   2.867   0.185
 3075SOL     OW10123   1.870   6.573   1.615
 3075SOL    HW110124   1.813   6.642   1.660
 3075SOL    HW210125   1.925   6.525   1.684
 3076SOL     OW10126   6.344   0.408   4.566
 3076SOL    HW110127   6.344   0.407   4.466
 3076SOL    HW210128   6.436   0.428   4.599
 3077SOL     OW10129   5.823   4.700   3.512
 3077SOL    HW110130   5.875   4.732   3.433
 3077SOL    HW210131   5.873   4.718   3.596
 3078SOL     OW10132   2.223   3.953   1.957
 3078SOL    HW110133   2.192   3.914   2.044
 3078SOL    HW210134   2.321   3.938   1.947
 3079SOL     OW10135   1.622   2.536   5.312
 3079SOL    HW110136   1.615   2.635   5.311
 3079SOL    HW210137   1.572   2.499   5.233
 3080SOL     OW10138   6.108   5.066   1.326
 3080SOL    HW110139   6.055   5.145   1.297
 3080SOL    HW210140   6.072   5.030   1.412
 3081SOL     OW10141   0.571   4.640   5.930
 3081SOL    HW110142   0.560   4.702   6.007
 3081SOL    HW210143   0.654   4.664   5.879
 3082SOL     OW10144   4.074   6.873   3.869
 3082SOL    HW110145   4.108   6.929   3.944
 3082SOL    HW210146   4.123   6.786   3.867
 3083SOL     OW10147   4.025   6.917   2.957
 3083SOL    HW110148   4.001   6.987   2.889
 3083SOL    HW210149   3.969   6.836   2.942
 3084SOL     OW10150   4.570   4.523   4.112
 3084SOL    HW110151   4.645   4.585   4.133
 3084SOL    HW210152   4.587   4.434   4.156
 3085SOL     OW10153   0.017   4.372   3.420
 3085SOL    HW110154   0.002   4.415   3.330
 3085SOL    HW210155   0.112   4.340   3.426
 3086SOL     OW10156   3.935   0.976   2.128
 3086SOL    HW110157   3.990   0.896   2.147
 3086SOL    HW210158   3.912   0.980   2.031
 3087SOL     OW10159   6.704   4.686   3.843
 3087SOL    HW110160   6.708   4.746   3.923
 3087SOL    HW210161   6.777   4.619   3.848
 3088SOL     OW10162   2.856   5.002   5.303
 3088SOL    HW110163   2.763   4.967   5.316
 3088SOL    HW210164   2.894   4.965   5.218
 3089SOL     OW10165   1.466   3.367   6.726
 3089SOL    HW110166   1.423   3.283   6.693
 3089SOL    HW210167   1.396   3.432   6.753
 3090SOL     OW10168   1.821   1.857   1.209
 3090SOL    HW110169   1.848   1.855   1.113
 3090SOL    HW210170   1.723   1.839   1.216
 3091SOL     OW10171   3.276   6.858   0.208
 3091SOL    HW110172   3.310   6.804   0.285
 3091SOL    HW210173   3.199   6.914   0.239
 3092SOL     OW10174   5.439   6.651   0.006
 3092SOL    HW110175   5.514   6.716   7.023
 3092SOL    HW210176   5.397   6.635   6.943
 3093SOL     OW10177   5.857   5.216   6.159
 3093SOL    HW110178   5.899   5.128   6.138
 3093SOL    HW210179   5.772   5.226   6.107
 3094SOL     OW10180   3.179   6.265   4.975
 3094SOL    HW110181   3.092   6.274   4.927
 3094SOL    HW210182   3.163   6.231   5.068
 3095SOL     OW10183   2.197   4.450   4.193
 3095SOL    HW110184   2.161   4.454   4.099
 3095SOL    HW210185   2.183   4.358   4.230
 3096SOL     OW10186   6.602   0.424   4.637
 3096SOL    HW110187   6.671   0.352   4.634
 3096SOL    HW210188   6.646   0.513   4.630
 3097SOL     OW10189   0.727   2.354   0.372
 3097SOL    HW110190   0.654   2.353   0.305
 3097SOL    HW210191   0.715   2.433   0.433
 3098SOL     OW10192   2.691   3.223   1.432
 3098SOL    HW110193   2.657   3.129   1.420
 3098SOL    HW210194   2.634   3.286   1.380
 3099SOL     OW10195   6.543   5.522   4.732
 3099SOL    HW110196   6.611   5.571   4.677
 3099SOL    HW210197   6.585   5.490   4.817
 3100SOL     OW10198   6.797   0.212   4.712
 3100SOL    HW110199   6.850   0.228   4.629
 3100SOL    HW210200   6.839   0.262   4.788
 3101SOL     OW10201   4.768   6.122   5.562
 3101SOL    HW110202   4.710   6.092   5.486
 3101SOL    HW210203   4.863   6.098   5.542
 3102SOL     OW10204   0.905   4.436   1.597
 3102SOL    HW110205   0.806   4.448   1.607
 3102SOL    HW210206   0.934   4.470   1.508
 3103SOL     OW10207   3.791   1.814   1.108
 3103SOL    HW110208   3.738   1.895   1.085
 3103SOL    HW210209   3.767   1.739   1.046
 3104SOL     OW10210   5.199   5.773   4.143
 3104SOL    HW110211   5.163   5.697   4.088
 3104SOL    HW210212   5.269   5.739   4.206
 3105SOL     OW10213   5.810   5.831   3.263
 3105SOL    HW110214   5.868   5.897   3.311
 3105SOL    HW210215   5.772   5.767   3.330
 3106SOL     OW10216   6.468   2.094   2.152
 3106SOL    HW110217   6.466   2.041   2.237
 3106SOL    HW210218   6.561   2.124   2.133
 3107SOL     OW10219   3.360   0.358   3.952
 3107SOL    HW110220   3.263   0.336   3.964
 3107SOL    HW210221   3.413   0.305   4.018
 3108SOL     OW10222   1.829   1.041   4.264
 3108SOL    HW110223   1.837   0.995   4.352
 3108SOL    HW210224   1.825   1.140   4.278
 3109SOL     OW10225   4.988   5.677   2.680
 3109SOL    HW110226   5.002   5.587   2.639
 3109SOL    HW210227   5.000   5.671   2.779
 3110SOL     OW10228   6.991   2.484   3.591
 3110SOL    HW110229   7.013   2.570   3.637
 3110SOL    HW210230   6.902   2.451   3.623
 3111SOL     OW10231   6.098   5.414   4.015
 3111SOL    HW110232   6.007   5.445   4.042
 3111SOL    HW210233   6.091   5.361   3.931
 3112SOL     OW10234   4.485   2.511   6.048
 3112SOL    HW110235   4.450   2.584   6.106
 3112SOL    HW210236   4.426   2.502   5.967
 3113SOL     OW10237   2.254   0.183   3.937
 3113SOL    HW110238   2.162   0.144   3.943
 3113SOL    HW210239   2.319   0.110   3.914
 3114SOL     OW10240   5.401   4.019   6.883
 3114SOL    HW110241   5.369   4.042   6.791
 3114SOL    HW210242   5.499   3.998   6.880
 3115SOL     OW10243   4.067   4.115   0.516
 3115SOL    HW110244   4.070   4.029   0.465
 3115SOL    HW210245   4.018   4.183   0.463
 3116SOL     OW10246   6.805   2.856   6.674
 3116SOL    HW110247   6.728   2.794   6.664
 3116SOL    HW210248   6.790   2.937   6.618
 3117SOL     OW10249   4.594   3.733   5.475
 3117SOL    HW110250   4.674   3.753   5.419
 3117SOL    HW210251   4.535   3.669   5.427
 3118SOL     OW10252   6.913   4.564   6.677
 3118SOL    HW110253   6.836   4.620   6.708
 3118SOL    HW210254   6.880   4.492   6.616
 3119SOL     OW10255   1.894   4.396   5.327
 3119SOL    HW110256   1.951   4.427   5.251
 3119SOL    HW210257   1.884   4.297   5.324
 3120SOL     OW10258   2.231   5.816   4.562
 3120SOL    HW110259   2.145   5.796   4.517
 3120SOL    HW210260   2.295   5.856   4.496
 3121SOL     OW10261   0.916   1.614   2.017
 3121SOL    HW110262   0.979   1.536   2.017
 3121SOL    HW210263   0.948   1.683   1.951
 3122SOL     OW10264   3.141   5.316   6.363
 3122SOL    HW110265   3.171   5.227   6.327
 3122SOL    HW210266   3.129   5.380   6.287
 3123SOL     OW10267   3.149   6.409   3.566
 3123SOL    HW110268   3.115   6.344   3.498
 3123SOL    HW210269   3.223   6.463   3.527
 3124SOL     OW10270   4.344   0.883   5.248
 3124SOL    HW110271   4.385   0.866   5.337
 3124SOL    HW210272   4.286   0.965   5.253
 3125SOL     OW10273   6.201   2.033   5.306
 3125SOL    HW110274   6.243   2.030   5.215
 3125SOL    HW210275   6.102   2.044   5.297
 3126SOL     OW10276   5.278   4.833   6.363
 3126SOL    HW110277   5.239   4.780   6.288
 3126SOL    HW210278   5.377   4.821   6.366
 3127SOL     OW10279   0.636   1.923   3.087
 3127SOL    HW110280   0.658   1.875   3.171
 3127SOL    HW210281   0.539   1.947   3.086
 3128SOL     OW10282   1.723   0.789   0.609
 3128SOL    HW110283   1.699   0.723   0.537
 3128SOL    HW210284   1.820   0.813   0.601
 3129SOL     OW10285   0.661   4.294   6.094
 3129SOL    HW110286   0.721   4.372   6.074
 3129SOL    HW210287   0.568   4.315   6.066
 3130SOL     OW10288   2.687   4.657   2.361
 3130SOL    HW110289   2.630   4.601   2.421
 3130SOL    HW210290   2.769   4.685   2.410
 3131SOL     OW10291   0.912   2.847   3.344
 3131SOL    HW110292   0.978   2.863   3.417
 3131SOL    HW210293   0.905   2.928   3.286
 3132SOL     OW10294   5.145   5.922   5.268
 3132SOL    HW110295   5.195   5.850   5.221
 3132SOL    HW210296   5.053   5.930   5.229
 3133SOL     OW10297   2.339   2.122   4.336
 3133SOL    HW110298   2.308   2.175   4.256
 3133SOL    HW210299   2.293   2.033   4.335
 3134SOL     OW10300   5.073   3.368   1.490
 3134SOL    HW110301   5.066   3.271   1.512
 3134SOL    HW210302   5.168   3.398   1.498
 3135SOL     OW10303   3.950   1.928   4.642
 3135SOL    HW110304   3.939   1.851   4.706
 3135SOL    HW210305   4.026   1.909   4.580
 3136SOL     OW10306   6.075   6.123   5.971
 3136SOL    HW110307   6.117   6.034   5.986
 3136SOL    HW210308   6.128   6.174   5.903
 3137SOL     OW10309   4.859   1.746   3.874
 3137SOL    HW110310   4.851   1.648   3.895
 3137SOL    HW210311   4.955   1.774   3.883
 3138SOL     OW10312   6.047   1.980   4.644
 3138SOL    HW110313   6.143   2.003   4.630
 3138SOL    HW210314   6.014   2.022   4.728
 3139SOL     OW10315   5.433   6.606   5.981
 3139SOL    HW110316   5.345   6.559   5.968
 3139SOL    HW210317   5.489   6.554   6.046
 3140SOL     OW10318   6.778   6.909   6.576
 3140SOL    HW110319   6.754   6.825   6.624
 3140SOL    HW210320   6.741   6.988   6.624
 3141SOL     OW10321   0.679   6.255   6.770
 3141SOL    HW110322   0.723   6.332   6.815
 3141SOL    HW210323   0.630   6.287   6.688
 3142SOL     OW10324   4.775   6.232   0.223
 3142SOL    HW110325   4.690   6.285   0.225
 3142SOL    HW210326   4.794   6.195   0.314
 3143SOL     OW10327   6.764   2.031   6.464
 3143SOL    HW110328   6.848   2.036   6.518
 3143SOL    HW210329   6.714   2.118   6.472
 3144SOL     OW10330   1.879   3.582   0.959
 3144SOL    HW110331   1.857   3.512   0.891
 3144SOL    HW210332   1.862   3.672   0.921
 3145SOL     OW10333   3.107   5.797   2.767
 3145SOL    HW110334   3.046   5.805   2.846
 3145SOL    HW210335   3.171   5.722   2.782
 3146SOL     OW10336   1.610   6.519   3.348
 3146SOL    HW110337   1.685   6.516   3.414
 3146SOL    HW210338   1.648   6.534   3.256
 3147SOL     OW10339   4.681   5.051   0.427
 3147SOL    HW110340   4.625   5.134   0.429
 3147SOL    HW210341   4.765   5.067   0.478
 3148SOL     OW10342   3.955   5.237   4.014
 3148SOL    HW110343   3.959   5.228   4.114
 3148SOL    HW210344   4.003   5.160   3.972
 3149SOL     OW10345   3.369   0.843   5.493
 3149SOL    HW110346   3.404   0.873   5.405
 3149SOL    HW210347   3.269   0.832   5.487
 3150SOL     OW10348   5.210   6.415   4.724
 3150SOL    HW110349   5.263   6.331   4.730
 3150SOL    HW210350   5.141   6.407   4.652
 3151SOL     OW10351   4.984   1.128   6.489
 3151SOL    HW110352   5.074   1.160   6.518
 3151SOL    HW210353   4.921   1.206   6.486
 3152SOL     OW10354   0.296   5.203   1.404
 3152SOL    HW110355   0.285   5.284   1.461
 3152SOL    HW210356   0.374   5.150   1.437
 3153SOL     OW10357   6.111   4.293   1.321
 3153SOL    HW110358   6.196   4.252   1.288
 3153SOL    HW210359   6.131   4.354   1.398
 3154SOL     OW10360   6.596   2.191   6.638
 3154SOL    HW110361   6.656   2.266   6.667
 3154SOL    HW210362   6.511   2.228   6.602
 3155SOL     OW10363   6.284   5.061   0.912
 3155SOL    HW110364   6.297   5.027   1.006
 3155SOL    HW210365   6.253   5.157   0.916
 3156SOL     OW10366   3.718   4.096   2.971
 3156SOL    HW110367   3.647   4.040   2.928
 3156SOL    HW210368   3.798   4.101   2.910
 3157SOL     OW10369   2.040   3.613   4.826
 3157SOL    HW110370   2.050   3.521   4.863
 3157SOL    HW210371   2.055   3.680   4.899
 3158SOL     OW10372   4.957   6.942   1.263
 3158SOL    HW110373   4.880   6.890   1.225
 3158SOL    HW210374   4.923   0.002   1.299
 3159SOL     OW10375   5.001   5.834   6.122
 3159SOL    HW110376   4.998   5.926   6.084
 3159SOL    HW210377   5.051   5.774   6.059
 3160SOL     OW10378   6.048   4.043   5.960
 3160SOL    HW110379   6.106   3.967   5.987
 3160SOL    HW210380   6.103   4.113   5.914
 3161SOL     OW10381   1.760   1.052   2.722
 3161SOL    HW110382   1.719   0.992   2.791
 3161SOL    HW210383   1.813   1.123   2.768
 3162SOL     OW10384   0.348   5.654   0.007
 3162SOL    HW110385   0.261   5.626   0.048
 3162SOL    HW210386   0.331   5.698   6.946
 3163SOL     OW10387   3.917   3.155   6.736
 3163SOL    HW110388   3.884   3.095   6.810
 3163SOL    HW210389   4.009   3.188   6.760
 3164SOL     OW10390   5.524   4.179   0.846
 3164SOL    HW110391   5.592   4.115   0.811
 3164SOL    HW210392   5.537   4.189   0.945
 3165SOL     OW10393   0.620   6.954   1.966
 3165SOL    HW110394   0.603   6.860   1.998
 3165SOL    HW210395   0.665   7.006   2.039
 3166SOL     OW10396   4.929   2.893   6.170
 3166SOL    HW110397   4.952   2.980   6.215
 3166SOL    HW210398   4.961   2.817   6.227
 3167SOL     OW10399   0.194   4.284   1.755
 3167SOL    HW110400   0.112   4.340   1.740
 3167SOL    HW210401   0.212   4.229   1.674
 3168SOL     OW10402   5.675   2.908   0.422
 3168SOL    HW110403   5.618   2.828   0.403
 3168SOL    HW210404   5.624   2.974   0.477
 3169SOL     OW10405   1.054   3.041   5.770
 3169SOL    HW110406   1.040   2.958   5.824
 3169SOL    HW210407   1.020   3.120   5.820
 3170SOL     OW10408   4.347   0.383   6.831
 3170SOL    HW110409   4.268   0.444   6.833
 3170SOL    HW210410   4.406   0.409   6.754
 3171SOL     OW10411   6.644   0.452   2.064
 3171SOL    HW110412   6.633   0.549   2.084
 3171SOL    HW210413   6.719   0.415   2.119
 3172SOL     OW10414   6.608   6.468   4.817
 3172SOL    HW110415   6.641   6.426   4.733
 3172SOL    HW210416   6.515   6.502   4.802
 3173SOL     OW10417   2.143   0.191   2.123
 3173SOL    HW110418   2.212   0.194   2.051
 3173SOL    HW210419   2.161   0.265   2.189
 3174SOL     OW10420   3.126   2.857   5.610
 3174SOL    HW110421   3.221   2.831   5.592
 3174SOL    HW210422   3.072   2.846   5.527
 3175SOL     OW10423   1.091   6.184   6.612
 3175SOL    HW110424   1.052   6.264   6.659
 3175SOL    HW210425   1.154   6.137   6.673
 3176SOL     OW10426   1.638   4.578   6.176
 3176SOL    HW110427   1.715   4.569   6.113
 3176SOL    HW210428   1.553   4.590   6.124
 3177SOL     OW10429   5.178   5.213   5.582
 3177SOL    HW110430   5.265   5.173   5.609
 3177SOL    HW210431   5.115   5.140   5.553
 3178SOL     OW10432   0.450   4.321   2.098
 3178SOL    HW110433   0.399   4.379   2.162
 3178SOL    HW210434   0.546   4.348   2.100
 3179SOL     OW10435   2.159   2.432   2.582
 3179SOL    HW110436   2.236   2.483   2.621
 3179SOL    HW210437   2.087   2.424   2.651
 3180SOL     OW10438   5.204   0.260   5.704
 3180SOL    HW110439   5.175   0.181   5.649
 3180SOL    HW210440   5.163   0.343   5.667
 3181SOL     OW10441   0.531   1.066   3.393
 3181SOL    HW110442   0.562   1.161   3.392
 3181SOL    HW210443   0.522   1.032   3.299
 3182SOL     OW10444   0.338   6.216   5.351
 3182SOL    HW110445   0.431   6.233   5.384
 3182SOL    HW210446   0.295   6.146   5.408
 3183SOL     OW10447   4.475   5.017   1.919
 3183SOL    HW110448   4.388   5.064   1.909
 3183SOL    HW210449   4.549   5.078   1.890
 3184SOL     OW10450   2.692   2.211   2.874
 3184SOL    HW110451   2.781   2.245   2.905
 3184SOL    HW210452   2.694   2.111   2.870
 3185SOL     OW10453   0.784   6.705   5.152
 3185SOL    HW110454   0.776   6.779   5.085
 3185SOL    HW210455   0.723   6.630   5.127
 3186SOL     OW10456   3.416   1.324   2.526
 3186SOL    HW110457   3.384   1.418   2.515
 3186SOL    HW210458   3.380   1.287   2.612
 3187SOL     OW10459   3.387   4.421   6.870
 3187SOL    HW110460   3.394   4.376   6.781
 3187SOL    HW210461   3.479   4.437   6.907
 3188SOL     OW10462   3.597   5.595   2.836
 3188SOL    HW110463   3.660   5.599   2.913
 3188SOL    HW210464   3.562   5.687   2.817
 3189SOL     OW10465   0.979   0.474   3.382
 3189SOL    HW110466   0.911   0.403   3.400
 3189SOL    HW210467   1.065   0.431   3.355
 3190SOL     OW10468   1.458   5.951   1.612
 3190SOL    HW110469   1.431   5.864   1.651
 3190SOL    HW210470   1.481   5.939   1.515
 3191SOL     OW10471   3.754   0.737   0.831
 3191SOL    HW110472   3.807   0.695   0.905
 3191SOL    HW210473   3.657   0.715   0.843
 3192SOL     OW10474   0.710   2.522   1.733
 3192SOL    HW110475   0.781   2.466   1.691
 3192SOL    HW210476   0.650   2.560   1.662
 3193SOL     OW10477   4.634   1.778   6.455
 3193SOL    HW110478   4.714   1.743   6.408
 3193SOL    HW210479   4.663   1.836   6.532
 3194SOL     OW10480   1.628   3.801   6.155
 3194SOL    HW110481   1.647   3.897   6.175
 3194SOL    HW210482   1.594   3.792   6.061
 3195SOL     OW10483   1.534   2.977   3.931
 3195SOL    HW110484   1.455   3.028   3.897
 3195SOL    HW210485   1.503   2.909   3.997
 3196SOL     OW10486   0.399   0.241   4.740
 3196SOL    HW110487   0.489   0.222   4.701
 3196SOL    HW210488   0.410   0.284   4.830
 3197SOL     OW10489   1.058   5.354   3.612
 3197SOL    HW110490   1.155   5.372   3.592
 3197SOL    HW210491   1.052   5.279   3.678
 3198SOL     OW10492   0.416   1.553   6.033
 3198SOL    HW110493   0.487   1.622   6.021
 3198SOL    HW210494   0.327   1.591   6.008
 3199SOL     OW10495   4.384   1.432   2.514
 3199SOL    HW110496   4.478   1.400   2.507
 3199SOL    HW210497   4.382   1.532   2.502
 3200SOL     OW10498   6.952   2.061   0.333
 3200SOL    HW110499   0.018   2.095   0.316
 3200SOL    HW210500   6.890   2.094   0.263
 3201SOL     OW10501   5.509   3.881   3.986
 3201SOL    HW110502   5.573   3.958   3.991
 3201SOL    HW210503   5.551   3.807   3.934
 3202SOL     OW10504   1.755   4.999   1.780
 3202SOL    HW110505   1.742   5.014   1.878
 3202SOL    HW210506   1.780   4.904   1.764
 3203SOL     OW10507   6.942   0.894   0.984
 3203SOL    HW110508   6.902   0.908   1.074
 3203SOL    HW210509   6.874   0.913   0.913
 3204SOL     OW10510   6.715   5.691   2.014
 3204SOL    HW110511   6.753   5.602   1.989
 3204SOL    HW210512   6.679   5.687   2.107
 3205SOL     OW10513   6.809   3.596   5.166
 3205SOL    HW110514   6.765   3.528   5.108
 3205SOL    HW210515   6.906   3.603   5.142
 3206SOL     OW10516   1.091   6.823   5.456
 3206SOL    HW110517   1.036   6.742   5.433
 3206SOL    HW210518   1.180   6.817   5.411
 3207SOL     OW10519   0.779   0.684   4.905
 3207SOL    HW110520   0.680   0.680   4.891
 3207SOL    HW210521   0.819   0.593   4.890
 3208SOL     OW10522   4.397   5.603   5.112
 3208SOL    HW110523   4.467   5.533   5.118
 3208SOL    HW210524   4.429   5.686   5.158
 3209SOL     OW10525   2.397   0.392   3.796
 3209SOL    HW110526   2.341   0.332   3.853
 3209SOL    HW210527   2.492   0.391   3.829
 3210SOL     OW10528   6.872   4.562   2.791
 3210SOL    HW110529   6.918   4.495   2.732
 3210SOL    HW210530   6.863   4.525   2.883
 3211SOL     OW10531   2.058   4.535   1.520
 3211SOL    HW110532   1.993   4.542   1.444
 3211SOL    HW210533   2.150   4.525   1.484
 3212SOL     OW10534   4.444   2.558   6.712
 3212SOL    HW110535   4.372   2.624   6.692
 3212SOL    HW210536   4.469   2.509   6.628
 3213SOL     OW10537   5.867   5.811   2.737
 3213SOL    HW110538   5.850   5.859   2.824
 3213SOL    HW210539   5.916   5.726   2.756
 3214SOL     OW10540   4.544   5.934   6.827
 3214SOL    HW110541   4.515   5.883   6.746
 3214SOL    HW210542   4.575   6.025   6.801
 3215SOL     OW10543   6.305   2.804   6.582
 3215SOL    HW110544   6.252   2.887   6.561
 3215SOL    HW210545   6.243   2.733   6.614
 3216SOL     OW10546   5.461   6.832   3.305
 3216SOL    HW110547   5.398   6.776   3.360
 3216SOL    HW210548   5.530   6.774   3.264
 3217SOL     OW10549   0.298   4.521   2.228
 3217SOL    HW110550   0.264   4.473   2.308
 3217SOL    HW210551   0.366   4.589   2.255
 3218SOL     OW10552   4.365   0.454   3.376
 3218SOL    HW110553   4.292   0.509   3.416
 3218SOL    HW210554   4.335   0.359   3.367
 3219SOL     OW10555   0.525   0.212   3.364
 3219SOL    HW110556   0.600   0.163   3.320
 3219SOL    HW210557   0.447   0.215   3.303
 3220SOL     OW10558   0.076   4.298   5.020
 3220SOL    HW110559   0.149   4.363   4.999
 3220SOL    HW210560   0.003   4.345   5.070
 3221SOL     OW10561   2.871   0.180   3.560
 3221SOL    HW110562   2.967   0.153   3.558
 3221SOL    HW210563   2.823   0.138   3.483
 3222SOL     OW10564   5.519   2.265   3.085
 3222SOL    HW110565   5.583   2.188   3.091
 3222SOL    HW210566   5.508   2.291   2.989
 3223SOL     OW10567   2.484   4.717   6.057
 3223SOL    HW110568   2.469   4.802   6.008
 3223SOL    HW210569   2.430   4.716   6.141
 3224SOL     OW10570   4.037   5.451   0.320
 3224SOL    HW110571   3.990   5.447   0.232
 3224SOL    HW210572   4.131   5.482   0.306
 3225SOL     OW10573   2.879   3.809   0.105
 3225SOL    HW110574   2.891   3.898   0.060
 3225SOL    HW210575   2.844   3.743   0.039
 3226SOL     OW10576   1.427   1.013   4.252
 3226SOL    HW110577   1.468   1.092   4.207
 3226SOL    HW210578   1.412   0.940   4.185
 3227SOL     OW10579   3.821   1.153   5.586
 3227SOL    HW110580   3.786   1.186   5.498
 3227SOL    HW210581   3.814   1.226   5.654
 3228SOL     OW10582   5.338   3.667   4.412
 3228SOL    HW110583   5.277   3.640   4.487
 3228SOL    HW210584   5.293   3.648   4.325
 3229SOL     OW10585   4.382   1.424   5.679
 3229SOL    HW110586   4.431   1.497   5.726
 3229SOL    HW210587   4.284   1.441   5.682
 3230SOL     OW10588   0.527   0.474   3.354
 3230SOL    HW110589   0.534   0.374   3.364
 3230SOL    HW210590   0.461   0.509   3.422
 3231SOL     OW10591   6.188   6.014   0.810
 3231SOL    HW110592   6.277   6.002   0.765
 3231SOL    HW210593   6.186   5.960   0.894
 3232SOL     OW10594   2.717   4.740   4.285
 3232SOL    HW110595   2.716   4.733   4.385
 3232SOL    HW210596   2.642   4.686   4.247
 3233SOL     OW10597   0.458   4.072   1.125
 3233SOL    HW110598   0.526   4.009   1.087
 3233SOL    HW210599   0.499   4.122   1.201
 3234SOL     OW10600   0.429   1.589   6.629
 3234SOL    HW110601   0.381   1.605   6.542
 3234SOL    HW210602   0.471   1.499   6.628
 3235SOL     OW10603   5.469   6.814   2.638
 3235SOL    HW110604   5.475   6.719   2.605
 3235SOL    HW210605   5.480   6.815   2.737
 3236SOL     OW10606   1.486   3.167   2.848
 3236SOL    HW110607   1.453   3.129   2.762
 3236SOL    HW210608   1.422   3.238   2.879
 3237SOL     OW10609   3.619   6.891   4.866
 3237SOL    HW110610   3.668   6.849   4.942
 3237SOL    HW210611   3.585   6.819   4.804
 3238SOL     OW10612   7.013   6.282   6.327
 3238SOL    HW110613   7.013   6.330   6.240
 3238SOL    HW210614   0.004   6.347   6.401
 3239SOL     OW10615   6.667   0.289   5.292
 3239SOL    HW110616   6.658   0.234   5.209
 3239SOL    HW210617   6.597   0.262   5.358
 3240SOL     OW10618   1.321   0.320   4.675
 3240SOL    HW110619   1.254   0.303   4.602
 3240SOL    HW210620   1.368   0.406   4.657
 3241SOL     OW10621   4.871   1.029   4.321
 3241SOL    HW110622   4.826   1.117   4.326
 3241SOL    HW210623   4.936   1.029   4.245
 3242SOL     OW10624   4.076   6.430   6.726
 3242SOL    HW110625   3.983   6.396   6.740
 3242SOL    HW210626   4.087   6.461   6.632
 3243SOL     OW10627   4.463   5.138   0.703
 3243SOL    HW110628   4.436   5.192   0.623
 3243SOL    HW210629   4.444   5.191   0.786
 3244SOL     OW10630   3.321   6.128   6.802
 3244SOL    HW110631   3.313   6.219   6.761
 3244SOL    HW210632   3.413   6.093   6.787
 3245SOL     OW10633   3.646   2.410   6.748
 3245SOL    HW110634   3.618   2.419   6.653
 3245SOL    HW210635   3.739   2.445   6.759
 3246SOL     OW10636   5.130   6.254   2.719
 3246SOL    HW110637   5.228   6.257   2.697
 3246SOL    HW210638   5.108   6.164   2.757
 3247SOL     OW10639   0.096   2.707   3.666
 3247SOL    HW110640   0.194   2.707   3.642
 3247SOL    HW210641   0.082   2.762   3.748
 3248SOL     OW10642   6.099   3.257   1.582
 3248SOL    HW110643   6.154   3.273   1.500
 3248SOL    HW210644   6.005   3.234   1.555
 3249SOL     OW10645   2.636   4.640   4.892
 3249SOL    HW110646   2.708   4.626   4.960
 3249SOL    HW210647   2.565   4.571   4.905
 3250SOL     OW10648   4.430   6.521   2.423
 3250SOL    HW110649   4.417   6.614   2.459
 3250SOL    HW210650   4.474   6.527   2.333
 3251SOL     OW10651   3.465   1.986   3.035
 3251SOL    HW110652   3.552   2.007   2.990
 3251SOL    HW210653   3.453   1.887   3.041
 3252SOL     OW10654   2.678   1.042   2.733
 3252SOL    HW110655   2.736   1.051   2.814
 3252SOL    HW210656   2.724   0.984   2.666
 3253SOL     OW10657   5.316   3.032   1.047
 3253SOL    HW110658   5.228   3.079   1.053
 3253SOL    HW210659   5.336   3.009   0.952
 3254SOL     OW10660   4.682   4.431   3.381
 3254SOL    HW110661   4.674   4.390   3.472
 3254SOL    HW210662   4.737   4.373   3.323
 3255SOL     OW10663   4.371   5.749   0.377
 3255SOL    HW110664   4.315   5.667   0.392
 3255SOL    HW210665   4.323   5.829   0.413
 3256SOL     OW10666   5.049   6.856   5.723
 3256SOL    HW110667   5.000   6.835   5.807
 3256SOL    HW210668   5.138   6.895   5.745
 3257SOL     OW10669   1.280   2.559   0.963
 3257SOL    HW110670   1.337   2.477   0.966
 3257SOL    HW210671   1.225   2.565   1.046
 3258SOL     OW10672   5.237   6.428   2.060
 3258SOL    HW110673   5.223   6.436   2.159
 3258SOL    HW210674   5.202   6.339   2.029
 3259SOL     OW10675   4.320   6.496   4.010
 3259SOL    HW110676   4.247   6.431   4.028
 3259SOL    HW210677   4.285   6.574   3.958
 3260SOL     OW10678   2.343   2.064   0.113
 3260SOL    HW110679   2.410   2.106   0.174
 3260SOL    HW210680   2.390   2.009   0.044
 3261SOL     OW10681   4.601   0.093   0.980
 3261SOL    HW110682   4.507   0.087   1.012
 3261SOL    HW210683   4.661   0.118   1.056
 3262SOL     OW10684   3.837   1.879   3.133
 3262SOL    HW110685   3.817   1.795   3.083
 3262SOL    HW210686   3.794   1.956   3.086
 3263SOL     OW10687   4.443   6.724   1.488
 3263SOL    HW110688   4.390   6.808   1.503
 3263SOL    HW210689   4.381   6.645   1.491
 3264SOL     OW10690   6.702   4.547   6.916
 3264SOL    HW110691   6.622   4.605   6.899
 3264SOL    HW210692   6.738   4.566   7.007
 3265SOL     OW10693   5.187   0.514   6.258
 3265SOL    HW110694   5.284   0.512   6.233
 3265SOL    HW210695   5.135   0.563   6.188
 3266SOL     OW10696   1.009   1.608   6.114
 3266SOL    HW110697   1.074   1.627   6.188
 3266SOL    HW210698   0.945   1.537   6.144
 3267SOL     OW10699   3.538   1.940   1.358
 3267SOL    HW110700   3.478   1.979   1.288
 3267SOL    HW210701   3.629   1.979   1.349
 3268SOL     OW10702   1.229   4.515   6.294
 3268SOL    HW110703   1.261   4.575   6.368
 3268SOL    HW210704   1.131   4.529   6.279
 3269SOL     OW10705   4.222   4.621   0.998
 3269SOL    HW110706   4.295   4.584   0.941
 3269SOL    HW210707   4.258   4.638   1.090
 3270SOL     OW10708   0.735   5.780   4.722
 3270SOL    HW110709   0.780   5.843   4.785
 3270SOL    HW210710   0.793   5.700   4.708
 3271SOL     OW10711   6.179   2.029   1.024
 3271SOL    HW110712   6.159   2.054   1.118
 3271SOL    HW210713   6.276   2.045   1.005
 3272SOL     OW10714   4.115   0.216   0.456
 3272SOL    HW110715   4.065   0.266   0.385
 3272SOL    HW210716   4.068   0.226   0.543
 3273SOL     OW10717   0.337   6.898   2.631
 3273SOL    HW110718   0.416   6.896   2.569
 3273SOL    HW210719   0.263   6.951   2.588
 3274SOL     OW10720   3.005   2.066   5.934
 3274SOL    HW110721   2.925   2.010   5.954
 3274SOL    HW210722   3.044   2.101   6.019
 3275SOL     OW10723   2.202   0.504   6.808
 3275SOL    HW110724   2.297   0.534   6.801
 3275SOL    HW210725   2.192   0.444   6.887
 3276SOL     OW10726   3.166   6.388   0.077
 3276SOL    HW110727   3.210   6.423   7.021
 3276SOL    HW210728   3.170   6.458   0.149
 3277SOL     OW10729   0.105   5.789   4.938
 3277SOL    HW110730   0.054   5.782   5.024
 3277SOL    HW210731   0.197   5.823   4.956
 3278SOL     OW10732   1.452   0.467   6.138
 3278SOL    HW110733   1.396   0.502   6.063
 3278SOL    HW210734   1.415   0.381   6.171
 3279SOL     OW10735   0.890   0.035   1.079
 3279SOL    HW110736   0.863   0.124   1.043
 3279SOL    HW210737   0.938   7.009   1.009
 3280SOL     OW10738   1.732   4.874   6.007
 3280SOL    HW110739   1.645   4.852   5.962
 3280SOL    HW210740   1.714   4.898   6.103
 3281SOL     OW10741   2.658   5.818   0.581
 3281SOL    HW110742   2.666   5.917   0.588
 3281SOL    HW210743   2.696   5.776   0.664
 3282SOL     OW10744   2.369   5.264   3.072
 3282SOL    HW110745   2.461   5.225   3.083
 3282SOL    HW210746   2.302   5.190   3.080
 3283SOL     OW10747   2.263   0.965   3.436
 3283SOL    HW110748   2.307   0.929   3.518
 3283SOL    HW210749   2.326   1.026   3.388
 3284SOL     OW10750   6.849   4.950   6.743
 3284SOL    HW110751   6.906   4.935   6.824
 3284SOL    HW210752   6.810   5.042   6.746
 3285SOL     OW10753   0.702   1.743   3.344
 3285SOL    HW110754   0.651   1.750   3.429
 3285SOL    HW210755   0.703   1.647   3.314
 3286SOL     OW10756   3.551   3.452   4.756
 3286SOL    HW110757   3.603   3.428   4.838
 3286SOL    HW210758   3.590   3.535   4.716
 3287SOL     OW10759   1.756   5.269   0.500
 3287SOL    HW110760   1.825   5.336   0.526
 3287SOL    HW210761   1.716   5.294   0.412
 3288SOL     OW10762   0.556   6.143   6.212
 3288SOL    HW110763   0.517   6.216   6.155
 3288SOL    HW210764   0.528   6.156   6.307
 3289SOL     OW10765   1.211   6.378   5.083
 3289SOL    HW110766   1.263   6.312   5.029
 3289SOL    HW210767   1.240   6.471   5.058
 3290SOL     OW10768   6.583   5.121   1.184
 3290SOL    HW110769   6.502   5.174   1.209
 3290SOL    HW210770   6.584   5.035   1.235
 3291SOL     OW10771   1.279   6.354   0.343
 3291SOL    HW110772   1.329   6.432   0.306
 3291SOL    HW210773   1.328   6.318   0.422
 3292SOL     OW10774   6.909   7.003   5.586
 3292SOL    HW110775   6.986   6.984   5.648
 3292SOL    HW210776   6.944   0.001   5.496
 3293SOL     OW10777   0.047   1.100   2.643
 3293SOL    HW110778   0.131   1.073   2.597
 3293SOL    HW210779   0.012   1.185   2.602
 3294SOL     OW10780   0.377   0.469   6.896
 3294SOL    HW110781   0.407   0.552   6.944
 3294SOL    HW210782   0.361   0.396   6.962
 3295SOL     OW10783   1.682   3.521   0.284
 3295SOL    HW110784   1.772   3.510   0.243
 3295SOL    HW210785   1.678   3.610   0.330
 3296SOL     OW10786   2.191   6.715   2.300
 3296SOL    HW110787   2.226   6.760   2.382
 3296SOL    HW210788   2.208   6.617   2.307
 3297SOL     OW10789   3.112   2.401   6.360
 3297SOL    HW110790   3.201   2.357   6.369
 3297SOL    HW210791   3.040   2.332   6.359
 3298SOL     OW10792   6.360   3.190   2.652
 3298SOL    HW110793   6.294   3.133   2.700
 3298SOL    HW210794   6.359   3.168   2.554
 3299SOL     OW10795   1.782   6.985   5.063
 3299SOL    HW110796   1.809   0.010   5.144
 3299SOL    HW210797   1.859   6.978   5.000
 3300SOL     OW10798   6.488   6.256   4.308
 3300SOL    HW110799   6.482   6.165   4.348
 3300SOL    HW210800   6.482   6.325   4.380
 3301SOL     OW10801   0.668   3.700   3.000
 3301SOL    HW110802   0.702   3.631   3.064
 3301SOL    HW210803   0.746   3.751   2.963
 3302SOL     OW10804   1.238   4.772   3.759
 3302SOL    HW110805   1.269   4.719   3.680
 3302SOL    HW210806   1.205   4.861   3.729
 3303SOL     OW10807   3.941   3.513   3.457
 3303SOL    HW110808   3.869   3.583   3.462
 3303SOL    HW210809   4.015   3.537   3.521
 3304SOL     OW10810   0.571   6.290   4.447
 3304SOL    HW110811   0.512   6.370   4.440
 3304SOL    HW210812   0.604   6.282   4.541
 3305SOL     OW10813   2.022   1.113   2.206
 3305SOL    HW110814   1.928   1.133   2.179
 3305SOL    HW210815   2.077   1.197   2.199
 3306SOL     OW10816   1.725   3.639   3.489
 3306SOL    HW110817   1.740   3.734   3.515
 3306SOL    HW210818   1.698   3.585   3.569
 3307SOL     OW10819   6.965   5.902   0.340
 3307SOL    HW110820   7.015   5.966   0.282
 3307SOL    HW210821   6.990   5.916   0.435
 3308SOL     OW10822   4.912   6.076   0.887
 3308SOL    HW110823   4.884   6.135   0.811
 3308SOL    HW210824   4.859   6.100   0.969
 3309SOL     OW10825   0.400   4.853   2.938
 3309SOL    HW110826   0.450   4.930   2.898
 3309SOL    HW210827   0.455   4.770   2.931
 3310SOL     OW10828   0.760   5.302   2.525
 3310SOL    HW110829   0.809   5.232   2.473
 3310SOL    HW210830   0.821   5.339   2.596
 3311SOL     OW10831   4.191   6.571   1.059
 3311SOL    HW110832   4.117   6.592   0.995
 3311SOL    HW210833   4.155   6.572   1.152
 3312SOL     OW10834   3.259   3.748   6.797
 3312SOL    HW110835   3.165   3.776   6.779
 3312SOL    HW210836   3.259   3.662   6.848
 3313SOL     OW10837   0.024   5.480   3.703
 3313SOL    HW110838   0.049   5.429   3.621
 3313SOL    HW210839   0.063   5.572   3.698
 3314SOL     OW10840   1.210   3.419   5.384
 3314SOL    HW110841   1.280   3.448   5.449
 3314SOL    HW210842   1.252   3.363   5.313
 3315SOL     OW10843   0.406   2.226   4.155
 3315SOL    HW110844   0.490   2.269   4.122
 3315SOL    HW210845   0.332   2.242   4.090
 3316SOL     OW10846   4.774   1.929   6.644
 3316SOL    HW110847   4.783   1.853   6.708
 3316SOL    HW210848   4.860   1.979   6.638
 3317SOL     OW10849   4.311   2.627   1.136
 3317SOL    HW110850   4.213   2.636   1.154
 3317SOL    HW210851   4.338   2.532   1.147
 3318SOL     OW10852   2.780   5.738   5.503
 3318SOL    HW110853   2.855   5.693   5.455
 3318SOL    HW210854   2.793   5.838   5.497
 3319SOL     OW10855   0.357   5.863   4.896
 3319SOL    HW110856   0.373   5.839   4.801
 3319SOL    HW210857   0.401   5.795   4.955
 3320SOL     OW10858   6.237   1.140   5.754
 3320SOL    HW110859   6.162   1.118   5.692
 3320SOL    HW210860   6.324   1.127   5.706
 3321SOL     OW10861   3.210   3.353   3.080
 3321SOL    HW110862   3.213   3.397   3.170
 3321SOL    HW210863   3.222   3.422   3.008
 3322SOL     OW10864   3.967   1.741   0.665
 3322SOL    HW110865   3.995   1.775   0.755
 3322SOL    HW210866   4.026   1.665   0.639
 3323SOL     OW10867   2.357   4.954   0.579
 3323SOL    HW110868   2.375   4.884   0.509
 3323SOL    HW210869   2.280   4.925   0.635
 3324SOL     OW10870   0.981   3.039   0.588
 3324SOL    HW110871   0.958   2.948   0.554
 3324SOL    HW210872   1.077   3.059   0.568
 3325SOL     OW10873   1.229   2.891   0.939
 3325SOL    HW110874   1.234   2.807   0.885
 3325SOL    HW210875   1.142   2.894   0.988
 3326SOL     OW10876   6.392   1.605   0.971
 3326SOL    HW110877   6.338   1.556   0.903
 3326SOL    HW210878   6.331   1.648   1.037
 3327SOL     OW10879   2.902   6.767   2.319
 3327SOL    HW110880   2.941   6.840   2.264
 3327SOL    HW210881   2.934   6.678   2.285
 3328SOL     OW10882   4.901   0.749   2.187
 3328SOL    HW110883   4.821   0.746   2.248
 3328SOL    HW210884   4.981   0.714   2.236
 3329SOL     OW10885   4.934   0.244   5.447
 3329SOL    HW110886   4.984   0.329   5.465
 3329SOL    HW210887   4.981   0.167   5.490
 3330SOL     OW10888   6.415   6.236   2.551
 3330SOL    HW110889   6.338   6.179   2.581
 3330SOL    HW210890   6.394   6.332   2.568
 3331SOL     OW10891   1.924   3.282   2.646
 3331SOL    HW110892   1.863   3.360   2.660
 3331SOL    HW210893   1.981   3.299   2.565
 3332SOL     OW10894   4.492   5.373   0.887
 3332SOL    HW110895   4.551   5.427   0.828
 3332SOL    HW210896   4.504   5.402   0.982
 3333SOL     OW10897   4.084   3.772   1.455
 3333SOL    HW110898   4.073   3.701   1.524
 3333SOL    HW210899   4.031   3.853   1.480
 3334SOL     OW10900   1.752   2.013   2.919
 3334SOL    HW110901   1.757   2.028   2.820
 3334SOL    HW210902   1.756   2.102   2.966
 3335SOL     OW10903   3.836   4.473   5.313
 3335SOL    HW110904   3.826   4.412   5.235
 3335SOL    HW210905   3.905   4.542   5.294
 3336SOL     OW10906   4.370   6.054   3.816
 3336SOL    HW110907   4.274   6.059   3.788
 3336SOL    HW210908   4.376   6.009   3.905
 3337SOL     OW10909   3.308   3.794   3.004
 3337SOL    HW110910   3.255   3.712   2.982
 3337SOL    HW210911   3.256   3.852   3.067
 3338SOL     OW10912   2.158   1.778   1.434
 3338SOL    HW110913   2.108   1.861   1.406
 3338SOL    HW210914   2.248   1.804   1.467
 3339SOL     OW10915   2.476   6.922   5.595
 3339SOL    HW110916   2.466   6.883   5.503
 3339SOL    HW210917   2.534   7.004   5.590
 3340SOL     OW10918   4.175   0.949   4.565
 3340SOL    HW110919   4.103   1.007   4.526
 3340SOL    HW210920   4.169   0.857   4.526
 3341SOL     OW10921   2.315   4.236   2.693
 3341SOL    HW110922   2.270   4.220   2.606
 3341SOL    HW210923   2.261   4.196   2.767
 3342SOL     OW10924   6.826   0.475   3.248
 3342SOL    HW110925   6.915   0.469   3.293
 3342SOL    HW210926   6.787   0.566   3.262
 3343SOL     OW10927   5.012   5.171   6.776
 3343SOL    HW110928   5.074   5.126   6.840
 3343SOL    HW210929   4.948   5.103   6.738
 3344SOL     OW10930   6.493   2.880   2.604
 3344SOL    HW110931   6.416   2.816   2.604
 3344SOL    HW210932   6.574   2.835   2.642
 3345SOL     OW10933   6.879   4.841   0.450
 3345SOL    HW110934   6.823   4.882   0.522
 3345SOL    HW210935   6.941   4.773   0.490
 3346SOL     OW10936   2.173   1.179   0.037
 3346SOL    HW110937   2.162   1.188   0.136
 3346SOL    HW210938   2.112   1.108   0.003
 3347SOL     OW10939   0.058   3.304   6.444
 3347SOL    HW110940   0.043   3.221   6.389
 3347SOL    HW210941   0.115   3.281   6.524
 3348SOL     OW10942   3.979   3.743   5.948
 3348SOL    HW110943   4.062   3.689   5.956
 3348SOL    HW210944   3.902   3.684   5.922
 3349SOL     OW10945   2.171   5.148   3.441
 3349SOL    HW110946   2.107   5.222   3.419
 3349SOL    HW210947   2.263   5.185   3.454
 3350SOL     OW10948   0.350   3.835   5.569
 3350SOL    HW110949   0.381   3.832   5.474
 3350SOL    HW210950   0.427   3.820   5.631
 3351SOL     OW10951   5.396   0.916   1.496
 3351SOL    HW110952   5.382   0.981   1.421
 3351SOL    HW210953   5.419   0.966   1.580
 3352SOL     OW10954   4.885   2.502   7.024
 3352SOL    HW110955   4.918   2.501   0.092
 3352SOL    HW210956   4.919   2.584   6.978
 3353SOL     OW10957   2.703   0.573   1.790
 3353SOL    HW110958   2.788   0.564   1.738
 3353SOL    HW210959   2.683   0.670   1.804
 3354SOL     OW10960   3.717   3.456   6.340
 3354SOL    HW110961   3.732   3.450   6.438
 3354SOL    HW210962   3.717   3.552   6.312
 3355SOL     OW10963   2.157   0.498   5.209
 3355SOL    HW110964   2.158   0.424   5.141
 3355SOL    HW210965   2.092   0.569   5.180
 3356SOL     OW10966   1.689   6.709   5.026
 3356SOL    HW110967   1.688   6.807   5.046
 3356SOL    HW210968   1.782   6.674   5.035
 3357SOL     OW10969   3.694   3.505   1.568
 3357SOL    HW110970   3.716   3.587   1.620
 3357SOL    HW210971   3.602   3.512   1.530
 3358SOL     OW10972   0.240   1.137   2.413
 3358SOL    HW110973   0.160   1.107   2.362
 3358SOL    HW210974   0.308   1.175   2.350
 3359SOL     OW10975   6.756   6.319   4.061
 3359SOL    HW110976   6.766   6.390   4.130
 3359SOL    HW210977   6.691   6.250   4.093
 3360SOL     OW10978   7.017   3.052   5.827
 3360SOL    HW110979   7.008   2.986   5.901
 3360SOL    HW210980   0.015   3.142   5.865
 3361SOL     OW10981   0.235   0.744   4.566
 3361SOL    HW110982   0.175   0.687   4.510
 3361SOL    HW210983   0.195   0.834   4.577
 3362SOL     OW10984   3.889   1.624   4.077
 3362SOL    HW110985   3.873   1.695   4.008
 3362SOL    HW210986   3.988   1.613   4.091
 3363SOL     OW10987   5.788   3.641   1.094
 3363SOL    HW110988   5.852   3.653   1.017
 3363SOL    HW210989   5.830   3.582   1.163
 3364SOL     OW10990   1.649   4.224   3.785
 3364SOL    HW110991   1.667   4.321   3.803
 3364SOL    HW210992   1.556   4.213   3.752
 3365SOL     OW10993   2.134   3.634   4.138
 3365SOL    HW110994   2.155   3.544   4.101
 3365SOL    HW210995   2.035   3.645   4.144
 3366SOL     OW10996   5.761   3.888   4.463
 3366SOL    HW110997   5.745   3.793   4.438
 3366SOL    HW210998   5.687   3.920   4.522
 3367SOL     OW10999   3.915   3.070   3.995
 3367SOL    HW111000   3.944   3.030   3.908
 3367SOL    HW211001   3.980   3.140   4.023
 3368SOL     OW11002   1.472   6.119   0.457
 3368SOL    HW111003   1.381   6.093   0.491
 3368SOL    HW211004   1.483   6.087   0.363
 3369SOL     OW11005   4.435   2.864   1.288
 3369SOL    HW111006   4.368   2.890   1.358
 3369SOL    HW211007   4.401   2.785   1.237
 3370SOL     OW11008   0.428   5.608   2.523
 3370SOL    HW111009   0.404   5.577   2.615
 3370SOL    HW211010   0.503   5.675   2.529
 3371SOL     OW11011   2.015   2.824   3.197
 3371SOL    HW111012   2.105   2.833   3.241
 3371SOL    HW211013   1.990   2.911   3.155
 3372SOL     OW11014   6.680   3.928   1.535
 3372SOL    HW111015   6.663   4.024   1.511
 3372SOL    HW211016   6.605   3.895   1.593
 3373SOL     OW11017   0.307   2.841   1.250
 3373SOL    HW111018   0.272   2.875   1.338
 3373SOL    HW211019   0.400   2.875   1.236
 3374SOL     OW11020   0.231   0.284   4.173
 3374SOL    HW111021   0.175   0.211   4.213
 3374SOL    HW211022   0.289   0.324   4.245
 3375SOL     OW11023   6.664   5.135   6.321
 3375SOL    HW111024   6.645   5.153   6.418
 3375SOL    HW211025   6.733   5.064   6.313
 3376SOL     OW11026   2.505   3.770   5.312
 3376SOL    HW111027   2.604   3.757   5.310
 3376SOL    HW211028   2.483   3.863   5.283
 3377SOL     OW11029   5.927   4.702   3.209
 3377SOL    HW111030   5.930   4.605   3.185
 3377SOL    HW211031   6.010   4.726   3.260
 3378SOL     OW11032   1.022   6.397   0.282
 3378SOL    HW111033   0.964   6.356   0.352
 3378SOL    HW211034   1.118   6.378   0.303
 3379SOL     OW11035   6.888   4.205   3.801
 3379SOL    HW111036   6.789   4.213   3.811
 3379SOL    HW211037   6.914   4.109   3.802
 3380SOL     OW11038   3.698   4.166   6.413
 3380SOL    HW111039   3.610   4.153   6.368
 3380SOL    HW211040   3.684   4.205   6.504
 3381SOL     OW11041   1.470   4.019   0.988
 3381SOL    HW111042   1.386   4.073   0.988
 3381SOL    HW211043   1.475   3.963   1.071
 3382SOL     OW11044   0.203   2.518   1.308
 3382SOL    HW111045   0.273   2.473   1.254
 3382SOL    HW211046   0.179   2.606   1.266
 3383SOL     OW11047   5.177   5.256   0.001
 3383SOL    HW111048   5.271   5.277   0.029
 3383SOL    HW211049   5.138   5.335   6.980
 3384SOL     OW11050   2.485   4.541   0.100
 3384SOL    HW111051   2.541   4.571   0.177
 3384SOL    HW211052   2.398   4.507   0.134
 3385SOL     OW11053   0.592   1.735   3.607
 3385SOL    HW111054   0.611   1.645   3.646
 3385SOL    HW211055   0.614   1.806   3.674
 3386SOL     OW11056   6.808   4.665   6.094
 3386SOL    HW111057   6.760   4.630   6.175
 3386SOL    HW211058   6.851   4.588   6.046
 3387SOL     OW11059   6.406   0.215   3.772
 3387SOL    HW111060   6.318   0.187   3.734
 3387SOL    HW211061   6.395   0.295   3.830
 3388SOL     OW11062   6.252   3.305   1.361
 3388SOL    HW111063   6.249   3.401   1.333
 3388SOL    HW211064   6.346   3.279   1.383
 3389SOL     OW11065   6.179   6.308   0.876
 3389SOL    HW111066   6.195   6.219   0.835
 3389SOL    HW211067   6.094   6.307   0.928
 3390SOL     OW11068   3.627   6.929   6.145
 3390SOL    HW111069   3.682   6.993   6.199
 3390SOL    HW211070   3.562   6.883   6.205
 3391SOL     OW11071   5.518   2.934   4.018
 3391SOL    HW111072   5.434   2.904   3.972
 3391SOL    HW211073   5.495   2.998   4.091
 3392SOL     OW11074   4.202   6.908   5.647
 3392SOL    HW111075   4.296   6.883   5.624
 3392SOL    HW211076   4.172   6.985   5.589
 3393SOL     OW11077   5.249   6.380   1.523
 3393SOL    HW111078   5.236   6.370   1.622
 3393SOL    HW211079   5.343   6.409   1.505
 3394SOL     OW11080   3.097   5.583   1.452
 3394SOL    HW111081   3.015   5.572   1.396
 3394SOL    HW211082   3.079   5.551   1.545
 3395SOL     OW11083   2.874   0.514   3.376
 3395SOL    HW111084   2.774   0.502   3.376
 3395SOL    HW211085   2.909   0.505   3.283
 3396SOL     OW11086   4.397   1.806   4.373
 3396SOL    HW111087   4.430   1.899   4.387
 3396SOL    HW211088   4.445   1.765   4.295
 3397SOL     OW11089   2.154   5.742   0.039
 3397SOL    HW111090   2.098   5.667   0.075
 3397SOL    HW211091   2.241   5.705   0.005
 3398SOL     OW11092   0.078   1.466   4.390
 3398SOL    HW111093   0.057   1.431   4.481
 3398SOL    HW211094   0.130   1.398   4.339
 3399SOL     OW11095   6.654   5.111   2.382
 3399SOL    HW111096   6.733   5.172   2.387
 3399SOL    HW211097   6.600   5.133   2.301
 3400SOL     OW11098   5.553   1.972   6.149
 3400SOL    HW111099   5.501   1.984   6.064
 3400SOL    HW211100   5.647   2.005   6.135
 3401SOL     OW11101   6.984   3.312   5.485
 3401SOL    HW111102   6.986   3.308   5.385
 3401SOL    HW211103   0.019   3.243   5.523
 3402SOL     OW11104   6.628   4.182   1.509
 3402SOL    HW111105   6.709   4.202   1.454
 3402SOL    HW211106   6.572   4.264   1.516
 3403SOL     OW11107   4.220   6.631   6.818
 3403SOL    HW111108   4.204   6.638   6.916
 3403SOL    HW211109   4.157   6.565   6.778
 3404SOL     OW11110   5.214   3.983   4.926
 3404SOL    HW111111   5.311   4.009   4.929
 3404SOL    HW211112   5.204   3.903   4.867
 3405SOL     OW11113   5.425   5.972   5.740
 3405SOL    HW111114   5.500   5.907   5.735
 3405SOL    HW211115   5.441   6.036   5.815
 3406SOL     OW11116   1.959   4.806   1.888
 3406SOL    HW111117   2.029   4.788   1.956
 3406SOL    HW211118   1.995   4.787   1.797
 3407SOL     OW11119   1.504   4.093   0.281
 3407SOL    HW111120   1.553   4.073   0.366
 3407SOL    HW211121   1.436   4.164   0.298
 3408SOL     OW11122   4.792   2.396   4.119
 3408SOL    HW111123   4.867   2.341   4.156
 3408SOL    HW211124   4.804   2.406   4.020
 3409SOL     OW11125   4.710   0.353   0.850
 3409SOL    HW111126   4.641   0.425   0.861
 3409SOL    HW211127   4.711   0.296   0.932
 3410SOL     OW11128   4.964   0.268   2.639
 3410SOL    HW111129   4.998   0.342   2.697
 3410SOL    HW211130   4.974   0.293   2.543
 3411SOL     OW11131   6.780   2.454   0.478
 3411SOL    HW111132   6.687   2.483   0.498
 3411SOL    HW211133   6.832   2.447   0.563
 3412SOL     OW11134   5.362   3.318   1.416
 3412SOL    HW111135   5.320   3.333   1.326
 3412SOL    HW211136   5.424   3.394   1.436
 3413SOL     OW11137   0.145   2.359   6.000
 3413SOL    HW111138   0.157   2.306   6.084
 3413SOL    HW211139   0.233   2.400   5.974
 3414SOL     OW11140   3.202   3.915   0.928
 3414SOL    HW111141   3.117   3.874   0.962
 3414SOL    HW211142   3.188   3.948   0.835
 3415SOL     OW11143   2.049   2.862   5.376
 3415SOL    HW111144   1.991   2.855   5.457
 3415SOL    HW211145   2.136   2.904   5.401
 3416SOL     OW11146   5.777   6.908   6.713
 3416SOL    HW111147   5.873   6.913   6.739
 3416SOL    HW211148   5.743   6.999   6.690
 3417SOL     OW11149   6.482   0.085   2.795
 3417SOL    HW111150   6.450   7.026   2.754
 3417SOL    HW211151   6.542   0.064   2.873
 3418SOL     OW11152   5.079   4.789   0.870
 3418SOL    HW111153   5.178   4.804   0.872
 3418SOL    HW211154   5.057   4.721   0.799
 3419SOL     OW11155   3.504   6.196   5.876
 3419SOL    HW111156   3.470   6.106   5.849
 3419SOL    HW211157   3.549   6.190   5.965
 3420SOL     OW11158   4.227   2.206   3.366
 3420SOL    HW111159   4.309   2.250   3.403
 3420SOL    HW211160   4.181   2.156   3.439
 3421SOL     OW11161   6.268   2.197   3.276
 3421SOL    HW111162   6.354   2.161   3.312
 3421SOL    HW211163   6.219   2.246   3.349
 3422SOL     OW11164   2.299   6.918   1.000
 3422SOL    HW111165   2.217   6.891   0.949
 3422SOL    HW211166   2.294   6.881   1.092
 3423SOL     OW11167   0.879   4.944   6.022
 3423SOL    HW111168   0.965   4.959   6.071
 3423SOL    HW211169   0.899   4.906   5.932
 3424SOL     OW11170   4.844   0.452   1.968
 3424SOL    HW111171   4.770   0.517   1.951
 3424SOL    HW211172   4.845   0.383   1.897
 3425SOL     OW11173   5.511   3.618   1.118
 3425SOL    HW111174   5.482   3.713   1.109
 3425SOL    HW211175   5.611   3.614   1.125
 3426SOL     OW11176   5.361   3.040   6.778
 3426SOL    HW111177   5.402   2.953   6.803
 3426SOL    HW211178   5.296   3.068   6.849
 3427SOL     OW11179   0.903   2.818   0.461
 3427SOL    HW111180   0.817   2.838   0.414
 3427SOL    HW211181   0.908   2.720   0.481
 3428SOL     OW11182   4.747   5.730   6.252
 3428SOL    HW111183   4.844   5.751   6.241
 3428SOL    HW211184   4.696   5.815   6.266
 3429SOL     OW11185   6.517   0.411   0.921
 3429SOL    HW111186   6.609   0.388   0.954
 3429SOL    HW211187   6.505   0.510   0.922
 3430SOL     OW11188   1.966   4.589   5.498
 3430SOL    HW111189   2.009   4.547   5.578
 3430SOL    HW211190   1.926   4.518   5.441
 3431SOL     OW11191   2.135   5.805   3.056
 3431SOL    HW111192   2.088   5.871   3.114
 3431SOL    HW211193   2.140   5.839   2.963
 3432SOL     OW11194   2.015   4.576   0.963
 3432SOL    HW111195   2.012   4.674   0.941
 3432SOL    HW211196   1.922   4.540   0.963
 3433SOL     OW11197   2.372   1.375   0.021
 3433SOL    HW111198   2.450   1.388   0.083
 3433SOL    HW211199   2.313   1.302   0.056
 3434SOL     OW11200   2.830   2.582   1.179
 3434SOL    HW111201   2.808   2.527   1.260
 3434SOL    HW211202   2.872   2.668   1.208
 3435SOL     OW11203   2.400   0.484   0.188
 3435SOL    HW111204   2.451   0.477   0.102
 3435SOL    HW211205   2.410   0.577   0.225
 3436SOL     OW11206   3.222   5.937   0.345
 3436SOL    HW111207   3.130   5.905   0.367
 3436SOL    HW211208   3.225   6.037   0.349
 3437SOL     OW11209   1.600   6.439   6.606
 3437SOL    HW111210   1.585   6.537   6.615
 3437SOL    HW211211   1.668   6.422   6.535
 3438SOL     OW11212   1.081   4.010   1.469
 3438SOL    HW111213   0.996   4.055   1.498
 3438SOL    HW211214   1.092   3.925   1.520
 3439SOL     OW11215   2.472   5.784   2.011
 3439SOL    HW111216   2.495   5.801   1.915
 3439SOL    HW211217   2.526   5.707   2.045
 3440SOL     OW11218   3.801   3.601   4.434
 3440SOL    HW111219   3.808   3.513   4.481
 3440SOL    HW211220   3.876   3.609   4.367
 3441SOL     OW11221   5.412   5.091   5.641
 3441SOL    HW111222   5.444   5.065   5.733
 3441SOL    HW211223   5.447   5.025   5.574
 3442SOL     OW11224   3.423   3.315   0.724
 3442SOL    HW111225   3.343   3.374   0.728
 3442SOL    HW211226   3.501   3.361   0.766
 3443SOL     OW11227   1.756   6.334   1.910
 3443SOL    HW111228   1.712   6.342   1.821
 3443SOL    HW211229   1.687   6.326   1.981
 3444SOL     OW11230   6.099   3.590   0.399
 3444SOL    HW111231   6.018   3.646   0.383
 3444SOL    HW211232   6.072   3.495   0.412
 3445SOL     OW11233   5.943   4.604   2.897
 3445SOL    HW111234   5.965   4.544   2.973
 3445SOL    HW211235   5.944   4.699   2.928
 3446SOL     OW11236   5.081   1.380   1.141
 3446SOL    HW111237   4.997   1.356   1.093
 3446SOL    HW211238   5.094   1.320   1.220
 3447SOL     OW11239   5.516   1.327   7.007
 3447SOL    HW111240   5.582   1.259   6.978
 3447SOL    HW211241   5.451   1.285   0.045
 3448SOL     OW11242   1.395   5.984   4.762
 3448SOL    HW111243   1.484   5.948   4.791
 3448SOL    HW211244   1.327   5.910   4.766
 3449SOL     OW11245   6.078   3.617   5.044
 3449SOL    HW111246   6.132   3.574   5.118
 3449SOL    HW211247   6.126   3.698   5.011
 3450SOL     OW11248   1.358   6.249   1.054
 3450SOL    HW111249   1.349   6.245   1.154
 3450SOL    HW211250   1.323   6.336   1.020
 3451SOL     OW11251   2.396   0.762   1.170
 3451SOL    HW111252   2.327   0.760   1.243
 3451SOL    HW211253   2.476   0.813   1.201
 3452SOL     OW11254   4.707   0.178   5.031
 3452SOL    HW111255   4.773   0.105   5.052
 3452SOL    HW211256   4.655   0.200   5.114
 3453SOL     OW11257   4.782   6.418   6.296
 3453SOL    HW111258   4.804   6.327   6.261
 3453SOL    HW211259   4.848   6.485   6.261
 3454SOL     OW11260   1.177   2.824   1.635
 3454SOL    HW111261   1.149   2.860   1.724
 3454SOL    HW211262   1.244   2.750   1.649
 3455SOL     OW11263   0.655   3.431   5.801
 3455SOL    HW111264   0.753   3.414   5.793
 3455SOL    HW211265   0.639   3.525   5.828
 3456SOL     OW11266   5.408   4.232   2.325
 3456SOL    HW111267   5.416   4.215   2.423
 3456SOL    HW211268   5.481   4.184   2.277
 3457SOL     OW11269   3.769   5.271   5.773
 3457SOL    HW111270   3.802   5.229   5.688
 3457SOL    HW211271   3.706   5.208   5.819
 3458SOL     OW11272   3.895   1.351   2.662
 3458SOL    HW111273   3.878   1.443   2.698
 3458SOL    HW211274   3.994   1.337   2.655
 3459SOL     OW11275   4.664   6.509   3.164
 3459SOL    HW111276   4.600   6.525   3.088
 3459SOL    HW211277   4.683   6.411   3.171
 3460SOL     OW11278   4.231   1.487   5.394
 3460SOL    HW111279   4.171   1.484   5.475
 3460SOL    HW211280   4.322   1.453   5.419
 3461SOL     OW11281   5.934   5.221   5.428
 3461SOL    HW111282   5.920   5.163   5.508
 3461SOL    HW211283   5.845   5.251   5.392
 3462SOL     OW11284   2.016   4.348   6.668
 3462SOL    HW111285   2.066   4.327   6.752
 3462SOL    HW211286   1.971   4.265   6.634
 3463SOL     OW11287   6.137   4.114   1.067
 3463SOL    HW111288   6.057   4.151   1.115
 3463SOL    HW211289   6.212   4.101   1.133
 3464SOL     OW11290   0.029   4.762   6.281
 3464SOL    HW111291   0.120   4.736   6.310
 3464SOL    HW211292   6.991   4.689   6.301
 3465SOL     OW11293   1.928   0.525   1.135
 3465SOL    HW111294   1.852   0.465   1.163
 3465SOL    HW211295   1.918   0.614   1.178
 3466SOL     OW11296   6.438   3.998   5.126
 3466SOL    HW111297   6.376   4.026   5.200
 3466SOL    HW211298   6.420   3.902   5.103
 3467SOL     OW11299   1.949   2.189   6.939
 3467SOL    HW111300   1.982   2.199   6.846
 3467SOL    HW211301   1.939   2.279   6.982
 3468SOL     OW11302   2.703   0.306   4.298
 3468SOL    HW111303   2.682   0.280   4.393
 3468SOL    HW211304   2.800   0.328   4.290
 3469SOL     OW11305   5.919   2.502   3.085
 3469SOL    HW111306   5.871   2.454   3.011
 3469SOL    HW211307   6.002   2.452   3.109
 3470SOL     OW11308   0.152   5.839   1.202
 3470SOL    HW111309   0.227   5.904   1.213
 3470SOL    HW211310   0.180   5.750   1.236
 3471SOL     OW11311   3.505   6.374   4.565
 3471SOL    HW111312   3.419   6.337   4.532
 3471SOL    HW211313   3.527   6.459   4.516
 3472SOL     OW11314   3.053   1.112   5.381
 3472SOL    HW111315   3.070   1.067   5.293
 3472SOL    HW211316   2.992   1.055   5.436
 3473SOL     OW11317   5.072   0.665   6.480
 3473SOL    HW111318   5.017   0.726   6.423
 3473SOL    HW211319   5.125   0.604   6.422
 3474SOL     OW11320   5.035   5.570   1.117
 3474SOL    HW111321   4.963   5.578   1.186
 3474SOL    HW211322   5.092   5.652   1.118
 3475SOL     OW11323   1.254   5.858   4.217
 3475SOL    HW111324   1.192   5.936   4.207
 3475SOL    HW211325   1.335   5.873   4.161
 3476SOL     OW11326   5.019   0.732   4.517
 3476SOL    HW111327   4.980   0.689   4.436
 3476SOL    HW211328   4.947   0.781   4.567
 3477SOL     OW11329   3.873   6.539   1.293
 3477SOL    HW111330   3.878   6.490   1.206
 3477SOL    HW211331   3.854   6.474   1.367
 3478SOL     OW11332   4.117   5.077   0.653
 3478SOL    HW111333   4.159   5.097   0.742
 3478SOL    HW211334   4.188   5.067   0.584
 3479SOL     OW11335   0.865   0.567   2.231
 3479SOL    HW111336   0.773   0.603   2.215
 3479SOL    HW211337   0.925   0.596   2.156
 3480SOL     OW11338   0.816   1.477   3.312
 3480SOL    HW111339   0.878   1.429   3.250
 3480SOL    HW211340   0.865   1.502   3.395
 3481SOL     OW11341   2.393   6.298   6.888
 3481SOL    HW111342   2.391   6.212   6.835
 3481SOL    HW211343   2.368   6.374   6.828
 3482SOL     OW11344   0.496   2.337   0.213
 3482SOL    HW111345   0.472   2.309   0.120
 3482SOL    HW211346   0.467   2.432   0.228
 3483SOL     OW11347   3.064   0.290   1.239
 3483SOL    HW111348   2.977   0.297   1.288
 3483SOL    HW211349   3.140   0.295   1.304
 3484SOL     OW11350   3.960   3.965   3.443
 3484SOL    HW111351   3.909   3.999   3.364
 3484SOL    HW211352   4.040   4.023   3.460
 3485SOL     OW11353   1.105   2.407   5.101
 3485SOL    HW111354   1.132   2.459   5.020
 3485SOL    HW211355   1.176   2.340   5.123
 3486SOL     OW11356   4.237   1.677   1.974
 3486SOL    HW111357   4.218   1.768   2.008
 3486SOL    HW211358   4.173   1.655   1.900
 3487SOL     OW11359   6.384   1.085   6.808
 3487SOL    HW111360   6.445   1.063   6.732
 3487SOL    HW211361   6.366   1.183   6.810
 3488SOL     OW11362   5.162   3.381   3.752
 3488SOL    HW111363   5.237   3.317   3.769
 3488SOL    HW211364   5.192   3.474   3.775
 3489SOL     OW11365   3.525   0.443   1.320
 3489SOL    HW111366   3.451   0.496   1.362
 3489SOL    HW211367   3.583   0.504   1.265
 3490SOL     OW11368   3.891   4.319   6.818
 3490SOL    HW111369   3.924   4.406   6.855
 3490SOL    HW211370   3.824   4.279   6.881
 3491SOL     OW11371   0.273   3.044   4.707
 3491SOL    HW111372   0.362   3.080   4.679
 3491SOL    HW211373   0.230   2.999   4.628
 3492SOL     OW11374   6.713   4.276   6.909
 3492SOL    HW111375   6.700   4.260   7.007
 3492SOL    HW211376   6.698   4.373   6.889
 3493SOL     OW11377   6.583   4.564   0.624
 3493SOL    HW111378   6.537   4.606   0.546
 3493SOL    HW211379   6.548   4.603   0.709
 3494SOL     OW11380   3.269   0.223   0.493
 3494SOL    HW111381   3.306   0.305   0.538
 3494SOL    HW211382   3.329   0.145   0.511
 3495SOL     OW11383   4.901   4.993   0.610
 3495SOL    HW111384   4.963   5.038   0.674
 3495SOL    HW211385   4.948   4.978   0.523
 3496SOL     OW11386   2.231   2.959   0.911
 3496SOL    HW111387   2.329   2.978   0.912
 3496SOL    HW211388   2.209   2.894   0.983
 3497SOL     OW11389   4.483   0.386   4.079
 3497SOL    HW111390   4.523   0.441   4.152
 3497SOL    HW211391   4.495   0.433   3.991
 3498SOL     OW11392   2.645   1.623   1.902
 3498SOL    HW111393   2.721   1.687   1.895
 3498SOL    HW211394   2.680   1.532   1.924
 3499SOL     OW11395   6.546   3.068   3.787
 3499SOL    HW111396   6.511   3.143   3.730
 3499SOL    HW211397   6.526   2.981   3.743
 3500SOL     OW11398   6.360   3.773   6.931
 3500SOL    HW111399   6.459   3.774   6.919
 3500SOL    HW211400   6.337   3.729   7.018
 3501SOL     OW11401   1.514   4.228   4.594
 3501SOL    HW111402   1.432   4.273   4.628
 3501SOL    HW211403   1.532   4.258   4.500
 3502SOL     OW11404   0.966   3.291   1.289
 3502SOL    HW111405   1.063   3.275   1.305
 3502SOL    HW211406   0.912   3.221   1.337
 3503SOL     OW11407   4.906   6.050   4.861
 3503SOL    HW111408   4.820   5.999   4.858
 3503SOL    HW211409   4.949   6.048   4.771
 3504SOL     OW11410   2.165   3.375   1.672
 3504SOL    HW111411   2.234   3.409   1.736
 3504SOL    HW211412   2.136   3.450   1.613
 3505SOL     OW11413   5.114   4.945   5.344
 3505SOL    HW111414   5.177   5.017   5.313
 3505SOL    HW211415   5.049   4.984   5.410
 3506SOL     OW11416   4.839   5.633   3.137
 3506SOL    HW111417   4.929   5.590   3.135
 3506SOL    HW211418   4.772   5.572   3.095
 3507SOL     OW11419   1.009   6.726   6.391
 3507SOL    HW111420   1.109   6.723   6.400
 3507SOL    HW211421   0.971   6.783   6.464
 3508SOL     OW11422   5.829   3.520   6.669
 3508SOL    HW111423   5.756   3.585   6.647
 3508SOL    HW211424   5.869   3.544   6.757
 3509SOL     OW11425   6.598   6.731   0.910
 3509SOL    HW111426   6.600   6.632   0.921
 3509SOL    HW211427   6.673   6.760   0.851
 3510SOL     OW11428   2.193   2.874   2.114
 3510SOL    HW111429   2.189   2.932   2.196
 3510SOL    HW211430   2.250   2.794   2.133
 3511SOL     OW11431   0.866   2.082   6.228
 3511SOL    HW111432   0.960   2.048   6.229
 3511SOL    HW211433   0.843   2.114   6.136
 3512SOL     OW11434   2.371   3.275   0.971
 3512SOL    HW111435   2.400   3.193   1.019
 3512SOL    HW211436   2.373   3.353   1.034
 3513SOL     OW11437   6.228   4.921   1.144
 3513SOL    HW111438   6.156   4.866   1.100
 3513SOL    HW211439   6.190   4.968   1.223
 3514SOL     OW11440   0.400   6.064   1.448
 3514SOL    HW111441   0.497   6.061   1.471
 3514SOL    HW211442   0.346   6.083   1.529
 3515SOL     OW11443   2.818   6.033   3.827
 3515SOL    HW111444   2.842   6.127   3.806
 3515SOL    HW211445   2.719   6.023   3.833
 3516SOL     OW11446   3.216   1.207   1.220
 3516SOL    HW111447   3.168   1.122   1.202
 3516SOL    HW211448   3.283   1.224   1.148
 3517SOL     OW11449   1.111   0.884   6.327
 3517SOL    HW111450   1.193   0.942   6.320
 3517SOL    HW211451   1.116   0.813   6.257
 3518SOL     OW11452   4.412   2.894   5.935
 3518SOL    HW111453   4.326   2.851   5.906
 3518SOL    HW211454   4.397   2.992   5.948
 3519SOL     OW11455   2.011   6.237   0.410
 3519SOL    HW111456   2.043   6.152   0.368
 3519SOL    HW211457   1.934   6.217   0.470
 3520SOL     OW11458   4.099   6.107   1.227
 3520SOL    HW111459   4.133   6.201   1.224
 3520SOL    HW211460   4.093   6.071   1.134
 3521SOL     OW11461   6.149   2.562   0.619
 3521SOL    HW111462   6.197   2.512   0.692
 3521SOL    HW211463   6.164   2.660   0.630
 3522SOL     OW11464   2.853   4.880   2.333
 3522SOL    HW111465   2.914   4.946   2.290
 3522SOL    HW211466   2.813   4.821   2.263
 3523SOL     OW11467   2.216   4.570   5.353
 3523SOL    HW111468   2.300   4.550   5.404
 3523SOL    HW211469   2.143   4.591   5.418
 3524SOL     OW11470   3.056   0.404   0.280
 3524SOL    HW111471   2.963   0.397   0.245
 3524SOL    HW211472   3.053   0.432   0.376
 3525SOL     OW11473   0.796   2.528   2.727
 3525SOL    HW111474   0.843   2.443   2.748
 3525SOL    HW211475   0.829   2.600   2.788
 3526SOL     OW11476   1.784   1.270   2.251
 3526SOL    HW111477   1.864   1.327   2.271
 3526SOL    HW211478   1.750   1.230   2.336
 3527SOL     OW11479   5.361   2.546   5.693
 3527SOL    HW111480   5.334   2.453   5.715
 3527SOL    HW211481   5.423   2.580   5.763
 3528SOL     OW11482   0.260   6.680   4.924
 3528SOL    HW111483   0.217   6.770   4.918
 3528SOL    HW211484   0.194   6.609   4.900
 3529SOL     OW11485   3.646   6.112   6.440
 3529SOL    HW111486   3.657   6.034   6.501
 3529SOL    HW211487   3.734   6.156   6.425
 3530SOL     OW11488   1.801   5.603   3.682
 3530SOL    HW111489   1.838   5.510   3.685
 3530SOL    HW211490   1.869   5.664   3.641
 3531SOL     OW11491   5.587   3.786   6.878
 3531SOL    HW111492   5.660   3.729   6.917
 3531SOL    HW211493   5.498   3.746   6.901
 3532SOL     OW11494   1.999   6.605   6.912
 3532SOL    HW111495   2.041   6.695   6.896
 3532SOL    HW211496   2.048   6.558   6.985
 3533SOL     OW11497   1.569   1.196   3.105
 3533SOL    HW111498   1.472   1.173   3.109
 3533SOL    HW211499   1.610   1.186   3.196
 3534SOL     OW11500   5.161   0.785   4.917
 3534SOL    HW111501   5.086   0.852   4.924
 3534SOL    HW211502   5.124   0.693   4.925
 3535SOL     OW11503   5.395   5.035   6.225
 3535SOL    HW111504   5.326   4.966   6.245
 3535SOL    HW211505   5.389   5.109   6.292
 3536SOL     OW11506   0.851   3.801   3.661
 3536SOL    HW111507   0.781   3.758   3.604
 3536SOL    HW211508   0.921   3.842   3.603
 3537SOL     OW11509   2.649   5.410   1.025
 3537SOL    HW111510   2.708   5.341   1.067
 3537SOL    HW211511   2.669   5.500   1.064
 3538SOL     OW11512   2.580   0.862   4.271
 3538SOL    HW111513   2.594   0.842   4.173
 3538SOL    HW211514   2.669   0.863   4.317
 3539SOL     OW11515   5.031   5.373   5.764
 3539SOL    HW111516   5.039   5.393   5.666
 3539SOL    HW211517   5.122   5.353   5.801
 3540SOL     OW11518   3.133   3.401   6.559
 3540SOL    HW111519   3.112   3.497   6.538
 3540SOL    HW211520   3.216   3.374   6.511
 3541SOL     OW11521   3.417   2.702   0.760
 3541SOL    HW111522   3.359   2.731   0.684
 3541SOL    HW211523   3.415   2.602   0.767
 3542SOL     OW11524   5.489   2.292   6.181
 3542SOL    HW111525   5.483   2.372   6.241
 3542SOL    HW211526   5.522   2.214   6.233
 3543SOL     OW11527   1.083   2.962   3.568
 3543SOL    HW111528   1.093   2.922   3.659
 3543SOL    HW211529   1.166   2.946   3.515
 3544SOL     OW11530   2.716   4.542   6.066
 3544SOL    HW111531   2.640   4.606   6.059
 3544SOL    HW211532   2.769   4.562   6.149
 3545SOL     OW11533   3.329   7.004   1.629
 3545SOL    HW111534   3.388   7.015   1.549
 3545SOL    HW211535   3.293   6.910   1.631
 3546SOL     OW11536   0.135   3.725   3.374
 3546SOL    HW111537   0.137   3.635   3.332
 3546SOL    HW211538   0.079   3.721   3.457
 3547SOL     OW11539   0.631   4.288   5.781
 3547SOL    HW111540   0.646   4.281   5.880
 3547SOL    HW211541   0.681   4.215   5.735
 3548SOL     OW11542   5.959   0.278   5.300
 3548SOL    HW111543   6.055   0.260   5.320
 3548SOL    HW211544   5.941   0.376   5.306
 3549SOL     OW11545   2.640   5.936   0.056
 3549SOL    HW111546   2.701   5.858   0.067
 3549SOL    HW211547   2.683   6.018   0.093
 3550SOL     OW11548   5.595   1.019   5.266
 3550SOL    HW111549   5.656   1.095   5.291
 3550SOL    HW211550   5.553   0.982   5.349
 3551SOL     OW11551   4.119   1.846   4.428
 3551SOL    HW111552   4.212   1.808   4.436
 3551SOL    HW211553   4.088   1.838   4.334
 3552SOL     OW11554   0.713   6.314   3.051
 3552SOL    HW111555   0.675   6.267   3.131
 3552SOL    HW211556   0.648   6.309   2.975
 3553SOL     OW11557   4.315   5.423   0.241
 3553SOL    HW111558   4.412   5.402   0.256
 3553SOL    HW211559   4.279   5.362   0.171
 3554SOL     OW11560   4.883   3.473   1.082
 3554SOL    HW111561   4.893   3.390   1.028
 3554SOL    HW211562   4.921   3.551   1.032
 3555SOL     OW11563   2.578   2.086   5.193
 3555SOL    HW111564   2.547   2.016   5.257
 3555SOL    HW211565   2.658   2.133   5.231
 3556SOL     OW11566   4.934   0.674   5.632
 3556SOL    HW111567   4.868   0.693   5.705
 3556SOL    HW211568   4.944   0.755   5.575
 3557SOL     OW11569   6.555   0.983   1.370
 3557SOL    HW111570   6.489   0.908   1.377
 3557SOL    HW211571   6.508   1.065   1.338
 3558SOL     OW11572   3.490   5.830   2.035
 3558SOL    HW111573   3.504   5.922   2.071
 3558SOL    HW211574   3.509   5.763   2.108
 3559SOL     OW11575   3.957   6.061   4.810
 3559SOL    HW111576   3.896   6.032   4.737
 3559SOL    HW211577   3.973   5.985   4.873
 3560SOL     OW11578   2.441   5.934   4.326
 3560SOL    HW111579   2.399   5.865   4.266
 3560SOL    HW211580   2.527   5.898   4.362
 3561SOL     OW11581   4.940   4.013   5.439
 3561SOL    HW111582   4.986   4.102   5.430
 3561SOL    HW211583   4.916   3.998   5.535
 3562SOL     OW11584   2.383   1.358   5.677
 3562SOL    HW111585   2.354   1.391   5.767
 3562SOL    HW211586   2.457   1.416   5.643
 3563SOL     OW11587   5.592   2.326   5.390
 3563SOL    HW111588   5.608   2.307   5.293
 3563SOL    HW211589   5.504   2.374   5.400
 3564SOL     OW11590   6.447   4.444   1.886
 3564SOL    HW111591   6.546   4.440   1.898
 3564SOL    HW211592   6.402   4.407   1.968
 3565SOL     OW11593   3.682   5.670   3.278
 3565SOL    HW111594   3.715   5.620   3.197
 3565SOL    HW211595   3.726   5.633   3.359
 3566SOL     OW11596   1.629   0.676   5.509
 3566SOL    HW111597   1.624   0.576   5.515
 3566SOL    HW211598   1.547   0.710   5.462
 3567SOL     OW11599   0.638   4.196   6.405
 3567SOL    HW111600   0.636   4.190   6.305
 3567SOL    HW211601   0.556   4.151   6.442
 3568SOL     OW11602   6.338   3.662   5.879
 3568SOL    HW111603   6.286   3.723   5.938
 3568SOL    HW211604   6.307   3.674   5.784
 3569SOL     OW11605   1.611   1.802   5.338
 3569SOL    HW111606   1.547   1.827   5.411
 3569SOL    HW211607   1.685   1.869   5.335
 3570SOL     OW11608   6.300   1.661   4.050
 3570SOL    HW111609   6.276   1.752   4.017
 3570SOL    HW211610   6.384   1.666   4.105
 3571SOL     OW11611   6.459   5.764   5.914
 3571SOL    HW111612   6.395   5.726   5.981
 3571SOL    HW211613   6.464   5.703   5.834
 3572SOL     OW11614   5.442   4.247   4.889
 3572SOL    HW111615   5.539   4.256   4.864
 3572SOL    HW211616   5.385   4.275   4.812
 3573SOL     OW11617   1.163   3.133   3.266
 3573SOL    HW111618   1.174   3.038   3.295
 3573SOL    HW211619   1.081   3.141   3.209
 3574SOL     OW11620   0.679   4.096   0.627
 3574SOL    HW111621   0.579   4.095   0.631
 3574SOL    HW211622   0.715   4.011   0.666
 3575SOL     OW11623   5.773   4.620   2.024
 3575SOL    HW111624   5.777   4.556   2.101
 3575SOL    HW211625   5.854   4.609   1.966
 3576SOL     OW11626   0.598   1.089   6.265
 3576SOL    HW111627   0.592   1.186   6.291
 3576SOL    HW211628   0.527   1.069   6.198
 3577SOL     OW11629   0.837   3.268   6.833
 3577SOL    HW111630   0.932   3.278   6.862
 3577SOL    HW211631   0.833   3.253   6.735
 3578SOL     OW11632   3.219   4.883   0.822
 3578SOL    HW111633   3.208   4.903   0.920
 3578SOL    HW211634   3.243   4.967   0.774
 3579SOL     OW11635   6.872   3.773   4.653
 3579SOL    HW111636   6.876   3.865   4.612
 3579SOL    HW211637   6.776   3.747   4.665
 3580SOL     OW11638   6.110   1.916   2.068
 3580SOL    HW111639   6.175   1.980   2.026
 3580SOL    HW211640   6.148   1.881   2.153
 3581SOL     OW11641   0.587   0.465   2.988
 3581SOL    HW111642   0.648   0.512   3.052
 3581SOL    HW211643   0.585   0.367   3.010
 3582SOL     OW11644   1.534   6.985   6.313
 3582SOL    HW111645   1.497   6.927   6.240
 3582SOL    HW211646   1.493   0.049   6.307
 3583SOL     OW11647   1.322   5.590   6.757
 3583SOL    HW111648   1.401   5.627   6.708
 3583SOL    HW211649   1.290   5.657   6.823
 3584SOL     OW11650   5.265   5.966   6.617
 3584SOL    HW111651   5.231   5.973   6.711
 3584SOL    HW211652   5.188   5.964   6.553
 3585SOL     OW11653   3.154   4.912   4.026
 3585SOL    HW111654   3.130   4.817   4.047
 3585SOL    HW211655   3.126   4.971   4.102
 3586SOL     OW11656   6.625   3.529   5.626
 3586SOL    HW111657   6.549   3.478   5.666
 3586SOL    HW211658   6.603   3.553   5.531
 3587SOL     OW11659   4.346   6.603   0.166
 3587SOL    HW111660   4.446   6.603   0.164
 3587SOL    HW211661   4.313   6.696   0.150
 3588SOL     OW11662   1.167   2.461   5.979
 3588SOL    HW111663   1.258   2.446   6.018
 3588SOL    HW211664   1.172   2.531   5.908
 3589SOL     OW11665   2.896   0.939   5.517
 3589SOL    HW111666   2.914   0.927   5.615
 3589SOL    HW211667   2.798   0.933   5.500
 3590SOL     OW11668   1.484   5.320   5.843
 3590SOL    HW111669   1.491   5.394   5.777
 3590SOL    HW211670   1.473   5.233   5.795
 3591SOL     OW11671   5.127   2.236   6.006
 3591SOL    HW111672   5.039   2.263   6.045
 3591SOL    HW211673   5.168   2.164   6.062
 3592SOL     OW11674   5.180   2.950   2.856
 3592SOL    HW111675   5.170   2.956   2.955
 3592SOL    HW211676   5.132   3.026   2.813
 3593SOL     OW11677   1.306   6.663   3.946
 3593SOL    HW111678   1.273   6.692   3.856
 3593SOL    HW211679   1.349   6.741   3.992
 3594SOL     OW11680   2.725   1.168   4.164
 3594SOL    HW111681   2.741   1.140   4.259
 3594SOL    HW211682   2.653   1.237   4.161
 3595SOL     OW11683   2.877   6.493   6.094
 3595SOL    HW111684   2.859   6.527   6.186
 3595SOL    HW211685   2.901   6.570   6.034
 3596SOL     OW11686   6.364   1.701   1.999
 3596SOL    HW111687   6.459   1.728   2.014
 3596SOL    HW211688   6.332   1.646   2.076
 3597SOL     OW11689   3.450   5.920   3.996
 3597SOL    HW111690   3.381   5.918   4.068
 3597SOL    HW211691   3.521   5.852   4.017
 3598SOL     OW11692   1.532   6.828   5.940
 3598SOL    HW111693   1.581   6.780   5.867
 3598SOL    HW211694   1.527   6.770   6.021
 3599SOL     OW11695   0.205   1.737   5.059
 3599SOL    HW111696   0.106   1.749   5.072
 3599SOL    HW211697   0.249   1.826   5.054
 3600SOL     OW11698   5.865   2.397   0.764
 3600SOL    HW111699   5.842   2.492   0.746
 3600SOL    HW211700   5.893   2.352   0.679
 3601SOL     OW11701   0.244   3.840   6.907
 3601SOL    HW111702   0.328   3.828   6.854
 3601SOL    HW211703   0.212   3.750   6.939
 3602SOL     OW11704   2.150   1.207   6.562
 3602SOL    HW111705   2.222   1.263   6.604
 3602SOL    HW211706   2.134   1.126   6.618
 3603SOL     OW11707   4.129   4.769   3.635
 3603SOL    HW111708   4.221   4.782   3.597
 3603SOL    HW211709   4.136   4.736   3.729
 3604SOL     OW11710   0.331   2.206   2.684
 3604SOL    HW111711   0.325   2.124   2.741
 3604SOL    HW211712   0.397   2.270   2.723
 3605SOL     OW11713   6.086   3.485   6.193
 3605SOL    HW111714   6.025   3.511   6.119
 3605SOL    HW211715   6.035   3.484   6.279
 3606SOL     OW11716   6.689   4.253   5.693
 3606SOL    HW111717   6.630   4.201   5.631
 3606SOL    HW211718   6.765   4.195   5.723
 3607SOL     OW11719   5.141   6.741   0.750
 3607SOL    HW111720   5.169   6.717   0.657
 3607SOL    HW211721   5.168   6.669   0.813
 3608SOL     OW11722   0.520   2.120   1.610
 3608SOL    HW111723   0.588   2.165   1.552
 3608SOL    HW211724   0.533   2.021   1.607
 3609SOL     OW11725   6.529   0.764   4.901
 3609SOL    HW111726   6.445   0.784   4.850
 3609SOL    HW211727   6.603   0.743   4.836
 3610SOL     OW11728   1.477   6.325   6.085
 3610SOL    HW111729   1.490   6.296   6.180
 3610SOL    HW211730   1.438   6.417   6.084
 3611SOL     OW11731   3.563   5.298   5.337
 3611SOL    HW111732   3.571   5.359   5.416
 3611SOL    HW211733   3.653   5.263   5.312
 3612SOL     OW11734   1.247   6.480   0.923
 3612SOL    HW111735   1.331   6.469   0.869
 3612SOL    HW211736   1.208   6.571   0.904
 3613SOL     OW11737   5.570   4.791   0.260
 3613SOL    HW111738   5.608   4.707   0.221
 3613SOL    HW211739   5.496   4.767   0.323
 3614SOL     OW11740   3.758   3.301   2.865
 3614SOL    HW111741   3.670   3.288   2.910
 3614SOL    HW211742   3.786   3.215   2.821
 3615SOL     OW11743   5.569   5.389   5.528
 3615SOL    HW111744   5.628   5.368   5.449
 3615SOL    HW211745   5.519   5.307   5.554
 3616SOL     OW11746   6.772   2.174   5.726
 3616SOL    HW111747   6.859   2.194   5.772
 3616SOL    HW211748   6.790   2.128   5.639
 3617SOL     OW11749   6.721   1.929   6.098
 3617SOL    HW111750   6.739   1.926   6.000
 3617SOL    HW211751   6.656   2.002   6.118
 3618SOL     OW11752   2.065   1.696   5.938
 3618SOL    HW111753   2.007   1.691   5.857
 3618SOL    HW211754   2.155   1.731   5.913
 3619SOL     OW11755   5.654   1.762   3.799
 3619SOL    HW111756   5.726   1.756   3.868
 3619SOL    HW211757   5.615   1.671   3.783
 3620SOL     OW11758   5.848   0.547   5.567
 3620SOL    HW111759   5.868   0.463   5.619
 3620SOL    HW211760   5.859   0.529   5.470
 3621SOL     OW11761   2.698   2.753   5.926
 3621SOL    HW111762   2.635   2.781   5.853
 3621SOL    HW211763   2.792   2.760   5.892
 3622SOL     OW11764   1.151   1.971   2.233
 3622SOL    HW111765   1.072   1.922   2.269
 3622SOL    HW211766   1.127   2.068   2.221
 3623SOL     OW11767   5.075   5.022   3.876
 3623SOL    HW111768   5.020   4.972   3.809
 3623SOL    HW211769   5.162   4.973   3.890
 3624SOL     OW11770   2.520   6.958   3.042
 3624SOL    HW111771   2.516   6.927   2.947
 3624SOL    HW211772   2.612   6.992   3.062
 3625SOL     OW11773   6.288   2.939   5.654
 3625SOL    HW111774   6.302   2.955   5.752
 3625SOL    HW211775   6.192   2.914   5.638
 3626SOL     OW11776   1.837   3.723   5.692
 3626SOL    HW111777   1.862   3.694   5.599
 3626SOL    HW211778   1.909   3.782   5.729
 3627SOL     OW11779   3.487   3.789   3.486
 3627SOL    HW111780   3.396   3.827   3.469
 3627SOL    HW211781   3.556   3.848   3.446
 3628SOL     OW11782   2.342   5.598   2.374
 3628SOL    HW111783   2.418   5.654   2.408
 3628SOL    HW211784   2.256   5.632   2.411
 3629SOL     OW11785   5.766   1.934   5.175
 3629SOL    HW111786   5.741   1.937   5.079
 3629SOL    HW211787   5.853   1.886   5.186
 3630SOL     OW11788   5.899   2.176   4.401
 3630SOL    HW111789   5.835   2.206   4.330
 3630SOL    HW211790   5.852   2.176   4.490
 3631SOL     OW11791   2.270   0.126   4.264
 3631SOL    HW111792   2.190   0.165   4.217
 3631SOL    HW211793   2.257   0.028   4.275
 3632SOL     OW11794   5.069   0.867   0.757
 3632SOL    HW111795   5.124   0.841   0.678
 3632SOL    HW211796   5.119   0.934   0.812
 3633SOL     OW11797   3.154   2.647   6.157
 3633SOL    HW111798   3.110   2.618   6.072
 3633SOL    HW211799   3.188   2.567   6.207
 3634SOL     OW11800   1.834   6.456   4.795
 3634SOL    HW111801   1.774   6.378   4.813
 3634SOL    HW211802   1.915   6.425   4.746
 3635SOL     OW11803   2.597   1.514   5.606
 3635SOL    HW111804   2.635   1.447   5.670
 3635SOL    HW211805   2.671   1.552   5.550
 3636SOL     OW11806   0.126   6.009   5.719
 3636SOL    HW111807   0.153   6.008   5.623
 3636SOL    HW211808   0.107   6.103   5.747
 3637SOL     OW11809   5.634   1.638   1.738
 3637SOL    HW111810   5.696   1.715   1.723
 3637SOL    HW211811   5.598   1.642   1.831
 3638SOL     OW11812   6.788   4.491   4.176
 3638SOL    HW111813   6.821   4.468   4.084
 3638SOL    HW211814   6.735   4.576   4.172
 3639SOL     OW11815   2.881   4.058   0.836
 3639SOL    HW111816   2.810   4.126   0.820
 3639SOL    HW211817   2.866   3.979   0.777
 3640SOL     OW11818   3.074   6.151   0.873
 3640SOL    HW111819   3.150   6.087   0.878
 3640SOL    HW211820   3.048   6.180   0.966
 3641SOL     OW11821   3.317   1.378   4.843
 3641SOL    HW111822   3.276   1.409   4.757
 3641SOL    HW211823   3.249   1.329   4.898
 3642SOL     OW11824   4.682   0.511   5.179
 3642SOL    HW111825   4.686   0.542   5.084
 3642SOL    HW211826   4.680   0.591   5.240
 3643SOL     OW11827   3.112   5.238   4.920
 3643SOL    HW111828   3.203   5.220   4.958
 3643SOL    HW211829   3.059   5.154   4.919
 3644SOL     OW11830   6.595   2.641   0.804
 3644SOL    HW111831   6.554   2.660   0.893
 3644SOL    HW211832   6.613   2.727   0.757
 3645SOL     OW11833   4.513   1.528   3.416
 3645SOL    HW111834   4.591   1.590   3.425
 3645SOL    HW211835   4.463   1.524   3.502
 3646SOL     OW11836   0.198   5.011   5.750
 3646SOL    HW111837   0.231   5.035   5.841
 3646SOL    HW211838   0.271   4.965   5.699
 3647SOL     OW11839   1.181   2.860   0.402
 3647SOL    HW111840   1.086   2.832   0.417
 3647SOL    HW211841   1.190   2.899   0.310
 3648SOL     OW11842   3.897   5.414   2.150
 3648SOL    HW111843   3.826   5.364   2.100
 3648SOL    HW211844   3.908   5.373   2.240
 3649SOL     OW11845   4.295   3.937   1.041
 3649SOL    HW111846   4.230   3.878   0.993
 3649SOL    HW211847   4.355   3.881   1.098
 3650SOL     OW11848   7.022   6.404   1.249
 3650SOL    HW111849   0.087   6.435   1.220
 3650SOL    HW211850   6.953   6.463   1.206
 3651SOL     OW11851   0.906   6.241   2.239
 3651SOL    HW111852   0.837   6.171   2.256
 3651SOL    HW211853   0.976   6.205   2.178
 3652SOL     OW11854   4.731   6.313   3.467
 3652SOL    HW111855   4.795   6.365   3.524
 3652SOL    HW211856   4.642   6.309   3.512
 3653SOL     OW11857   6.059   1.280   3.205
 3653SOL    HW111858   5.987   1.339   3.241
 3653SOL    HW211859   6.148   1.313   3.236
 3654SOL     OW11860   2.515   6.552   0.465
 3654SOL    HW111861   2.594   6.579   0.519
 3654SOL    HW211862   2.476   6.469   0.503
 3655SOL     OW11863   1.662   0.232   4.557
 3655SOL    HW111864   1.613   0.150   4.527
 3655SOL    HW211865   1.669   0.233   4.656
 3656SOL     OW11866   2.052   2.453   2.072
 3656SOL    HW111867   2.129   2.477   2.131
 3656SOL    HW211868   2.081   2.456   1.976
 3657SOL     OW11869   3.841   6.170   0.298
 3657SOL    HW111870   3.926   6.188   0.250
 3657SOL    HW211871   3.826   6.072   0.306
 3658SOL     OW11872   1.218   5.423   5.031
 3658SOL    HW111873   1.137   5.474   5.062
 3658SOL    HW211874   1.297   5.484   5.029
 3659SOL     OW11875   2.844   4.693   0.304
 3659SOL    HW111876   2.841   4.593   0.298
 3659SOL    HW211877   2.859   4.721   0.399
 3660SOL     OW11878   4.930   6.188   1.808
 3660SOL    HW111879   4.856   6.255   1.816
 3660SOL    HW211880   4.921   6.120   1.880
 3661SOL     OW11881   5.248   1.995   0.825
 3661SOL    HW111882   5.282   1.929   0.758
 3661SOL    HW211883   5.156   1.970   0.854
 3662SOL     OW11884   3.527   0.202   5.350
 3662SOL    HW111885   3.589   0.129   5.379
 3662SOL    HW211886   3.435   0.183   5.385
 3663SOL     OW11887   1.620   2.145   0.142
 3663SOL    HW111888   1.677   2.158   0.223
 3663SOL    HW211889   1.656   2.069   0.087
 3664SOL     OW11890   4.921   1.403   0.330
 3664SOL    HW111891   4.991   1.399   0.259
 3664SOL    HW211892   4.926   1.322   0.388
 3665SOL     OW11893   0.934   6.974   5.095
 3665SOL    HW111894   0.938   6.991   5.193
 3665SOL    HW211895   0.841   6.990   5.063
 3666SOL     OW11896   1.435   4.602   3.831
 3666SOL    HW111897   1.497   4.532   3.796
 3666SOL    HW211898   1.340   4.577   3.808
 3667SOL     OW11899   6.371   0.746   6.500
 3667SOL    HW111900   6.302   0.786   6.441
 3667SOL    HW211901   6.424   0.819   6.544
 3668SOL     OW11902   1.339   6.953   2.776
 3668SOL    HW111903   1.408   6.947   2.704
 3668SOL    HW211904   1.385   6.953   2.865
 3669SOL     OW11905   5.797   1.903   4.519
 3669SOL    HW111906   5.773   1.990   4.561
 3669SOL    HW211907   5.897   1.891   4.521
 3670SOL     OW11908   1.906   5.449   6.904
 3670SOL    HW111909   1.995   5.423   6.865
 3670SOL    HW211910   1.920   5.481   6.998
 3671SOL     OW11911   0.116   0.591   3.241
 3671SOL    HW111912   0.102   0.571   3.144
 3671SOL    HW211913   0.172   0.674   3.250
 3672SOL     OW11914   6.711   2.239   0.282
 3672SOL    HW111915   6.680   2.150   0.316
 3672SOL    HW211916   6.772   2.281   0.349
 3673SOL     OW11917   4.101   1.393   6.500
 3673SOL    HW111918   4.048   1.461   6.449
 3673SOL    HW211919   4.047   1.310   6.512
 3674SOL     OW11920   0.311   6.678   6.843
 3674SOL    HW111921   0.220   6.718   6.834
 3674SOL    HW211922   0.380   6.750   6.834
 3675SOL     OW11923   1.552   2.590   5.807
 3675SOL    HW111924   1.544   2.548   5.717
 3675SOL    HW211925   1.642   2.569   5.846
 3676SOL     OW11926   3.558   5.410   4.021
 3676SOL    HW111927   3.608   5.341   3.968
 3676SOL    HW211928   3.619   5.485   4.046
 3677SOL     OW11929   0.243   6.742   3.131
 3677SOL    HW111930   0.316   6.758   3.065
 3677SOL    HW211931   0.283   6.721   3.221
 3678SOL     OW11932   1.766   2.602   3.803
 3678SOL    HW111933   1.838   2.553   3.754
 3678SOL    HW211934   1.795   2.618   3.897
 3679SOL     OW11935   0.463   1.195   2.589
 3679SOL    HW111936   0.415   1.249   2.520
 3679SOL    HW211937   0.561   1.198   2.573
 3680SOL     OW11938   6.225   2.711   3.595
 3680SOL    HW111939   6.141   2.747   3.554
 3680SOL    HW211940   6.251   2.769   3.673
 3681SOL     OW11941   1.216   0.319   6.197
 3681SOL    HW111942   1.126   0.276   6.197
 3681SOL    HW211943   1.209   0.409   6.241
 3682SOL     OW11944   6.815   1.651   5.413
 3682SOL    HW111945   6.795   1.749   5.409
 3682SOL    HW211946   6.762   1.603   5.343
 3683SOL     OW11947   6.238   6.557   4.336
 3683SOL    HW111948   6.195   6.559   4.426
 3683SOL    HW211949   6.182   6.609   4.272
 3684SOL     OW11950   2.052   3.129   1.720
 3684SOL    HW111951   2.095   3.219   1.712
 3684SOL    HW211952   2.109   3.071   1.779
 3685SOL     OW11953   6.354   5.736   6.227
 3685SOL    HW111954   6.443   5.704   6.192
 3685SOL    HW211955   6.368   5.785   6.313
 3686SOL     OW11956   6.300   4.701   2.310
 3686SOL    HW111957   6.230   4.769   2.289
 3686SOL    HW211958   6.370   4.701   2.238
 3687SOL     OW11959   2.654   6.700   6.844
 3687SOL    HW111960   2.675   6.657   6.932
 3687SOL    HW211961   2.635   6.797   6.858
 3688SOL     OW11962   1.063   3.499   0.133
 3688SOL    HW111963   1.122   3.419   0.142
 3688SOL    HW211964   1.078   3.560   0.211
 3689SOL     OW11965   1.586   1.091   5.402
 3689SOL    HW111966   1.613   1.158   5.471
 3689SOL    HW211967   1.538   1.015   5.446
 3690SOL     OW11968   5.056   0.634   6.055
 3690SOL    HW111969   4.969   0.679   6.075
 3690SOL    HW211970   5.114   0.696   6.002
 3691SOL     OW11971   2.708   3.698   6.889
 3691SOL    HW111972   2.694   3.746   6.802
 3691SOL    HW211973   2.721   3.601   6.871
 3692SOL     OW11974   0.868   5.751   5.012
 3692SOL    HW111975   0.873   5.842   4.971
 3692SOL    HW211976   0.817   5.755   5.098
 3693SOL     OW11977   2.122   2.174   3.471
 3693SOL    HW111978   2.159   2.266   3.465
 3693SOL    HW211979   2.186   2.116   3.521
 3694SOL     OW11980   0.714   5.767   3.179
 3694SOL    HW111981   0.813   5.773   3.195
 3694SOL    HW211982   0.667   5.745   3.264
 3695SOL     OW11983   1.513   2.249   2.835
 3695SOL    HW111984   1.440   2.182   2.826
 3695SOL    HW211985   1.550   2.247   2.927
 3696SOL     OW11986   4.373   6.083   5.666
 3696SOL    HW111987   4.342   6.009   5.725
 3696SOL    HW211988   4.398   6.163   5.722
 3697SOL     OW11989   6.584   6.670   3.612
 3697SOL    HW111990   6.600   6.679   3.710
 3697SOL    HW211991   6.671   6.656   3.564
 3698SOL     OW11992   3.520   0.576   5.334
 3698SOL    HW111993   3.494   0.645   5.267
 3698SOL    HW211994   3.440   0.551   5.389
 3699SOL     OW11995   6.915   3.347   2.863
 3699SOL    HW111996   6.843   3.354   2.932
 3699SOL    HW211997   6.971   3.430   2.864
 3700SOL     OW11998   6.097   6.892   4.355
 3700SOL    HW111999   6.170   6.880   4.422
 3700SOL    HW212000   6.114   6.832   4.276
 3701SOL     OW12001   0.047   0.875   3.813
 3701SOL    HW112002   6.998   0.861   3.750
 3701SOL    HW212003   0.114   0.802   3.804
 3702SOL     OW12004   4.039   0.314   1.713
 3702SOL    HW112005   3.942   0.293   1.706
 3702SOL    HW212006   4.060   0.346   1.805
 3703SOL     OW12007   4.011   4.163   5.843
 3703SOL    HW112008   4.012   4.261   5.862
 3703SOL    HW212009   3.917   4.131   5.837
 3704SOL     OW12010   2.842   1.182   2.261
 3704SOL    HW112011   2.837   1.212   2.356
 3704SOL    HW212012   2.928   1.214   2.221
 3705SOL     OW12013   4.696   0.730   4.014
 3705SOL    HW112014   4.603   0.709   3.985
 3705SOL    HW212015   4.696   0.760   4.109
 3706SOL     OW12016   1.612   3.165   4.625
 3706SOL    HW112017   1.562   3.250   4.642
 3706SOL    HW212018   1.620   3.114   4.710
 3707SOL     OW12019   5.204   2.333   5.785
 3707SOL    HW112020   5.130   2.364   5.725
 3707SOL    HW212021   5.165   2.303   5.872
 3708SOL     OW12022   6.478   0.665   6.746
 3708SOL    HW112023   6.575   0.686   6.732
 3708SOL    HW212024   6.434   0.655   6.657
 3709SOL     OW12025   3.880   0.610   6.015
 3709SOL    HW112026   3.826   0.589   6.097
 3709SOL    HW212027   3.915   0.703   6.022
 3710SOL     OW12028   6.453   5.537   0.237
 3710SOL    HW112029   6.356   5.510   0.231
 3710SOL    HW212030   6.460   5.636   0.225
 3711SOL     OW12031   0.505   6.169   2.234
 3711SOL    HW112032   0.524   6.234   2.160
 3711SOL    HW212033   0.408   6.170   2.255
 3712SOL     OW12034   0.476   6.533   6.629
 3712SOL    HW112035   0.570   6.540   6.664
 3712SOL    HW212036   0.412   6.559   6.701
 3713SOL     OW12037   2.310   5.878   5.002
 3713SOL    HW112038   2.286   5.936   5.079
 3713SOL    HW212039   2.389   5.822   5.025
 3714SOL     OW12040   4.664   6.702   4.134
 3714SOL    HW112041   4.697   6.720   4.227
 3714SOL    HW212042   4.729   6.645   4.085
 3715SOL     OW12043   5.844   4.826   4.169
 3715SOL    HW112044   5.780   4.876   4.228
 3715SOL    HW212045   5.938   4.839   4.202
 3716SOL     OW12046   6.257   0.385   4.302
 3716SOL    HW112047   6.335   0.365   4.243
 3716SOL    HW212048   6.195   0.306   4.303
 3717SOL     OW12049   6.413   5.759   0.826
 3717SOL    HW112050   6.443   5.855   0.831
 3717SOL    HW212051   6.391   5.736   0.732
 3718SOL     OW12052   1.111   6.859   6.605
 3718SOL    HW112053   1.135   6.901   6.692
 3718SOL    HW212054   1.169   6.897   6.533
 3719SOL     OW12055   5.314   4.774   0.376
 3719SOL    HW112056   5.321   4.837   0.454
 3719SOL    HW212057   5.223   4.732   0.375
 3720SOL     OW12058   6.610   1.779   6.407
 3720SOL    HW112059   6.695   1.828   6.430
 3720SOL    HW212060   6.532   1.830   6.442
 3721SOL     OW12061   6.303   4.768   6.712
 3721SOL    HW112062   6.234   4.770   6.785
 3721SOL    HW212063   6.272   4.826   6.636
 3722SOL     OW12064   6.990   6.008   2.562
 3722SOL    HW112065   6.940   6.050   2.487
 3722SOL    HW212066   0.039   5.953   2.525
 3723SOL     OW12067   5.709   6.473   2.053
 3723SOL    HW112068   5.742   6.398   2.110
 3723SOL    HW212069   5.749   6.560   2.084
 3724SOL     OW12070   1.241   4.968   0.229
 3724SOL    HW112071   1.286   4.888   0.189
 3724SOL    HW212072   1.142   4.951   0.235
 3725SOL     OW12073   6.459   6.580   6.911
 3725SOL    HW112074   6.442   6.538   6.822
 3725SOL    HW212075   6.380   6.636   6.938
 3726SOL     OW12076   6.451   4.077   1.978
 3726SOL    HW112077   6.484   4.074   2.072
 3726SOL    HW212078   6.351   4.077   1.978
 3727SOL     OW12079   0.547   3.070   5.552
 3727SOL    HW112080   0.547   3.164   5.519
 3727SOL    HW212081   0.641   3.043   5.576
 3728SOL     OW12082   2.084   3.151   0.608
 3728SOL    HW112083   2.104   3.192   0.519
 3728SOL    HW212084   2.149   3.186   0.676
 3729SOL     OW12085   0.952   2.325   2.868
 3729SOL    HW112086   0.898   2.372   2.937
 3729SOL    HW212087   0.925   2.229   2.863
 3730SOL     OW12088   3.044   0.804   6.762
 3730SOL    HW112089   3.065   0.881   6.702
 3730SOL    HW212090   2.945   0.792   6.767
 3731SOL     OW12091   4.627   1.849   1.121
 3731SOL    HW112092   4.583   1.922   1.174
 3731SOL    HW212093   4.560   1.805   1.062
 3732SOL     OW12094   2.393   3.353   5.781
 3732SOL    HW112095   2.304   3.373   5.822
 3732SOL    HW212096   2.460   3.420   5.813
 3733SOL     OW12097   2.387   3.985   1.635
 3733SOL    HW112098   2.481   3.977   1.665
 3733SOL    HW212099   2.335   4.041   1.699
 3734SOL     OW12100   4.464   1.117   2.625
 3734SOL    HW112101   4.526   1.182   2.670
 3734SOL    HW212102   4.475   1.125   2.526
 3735SOL     OW12103   1.485   2.501   2.765
 3735SOL    HW112104   1.455   2.558   2.842
 3735SOL    HW212105   1.494   2.406   2.795
 3736SOL     OW12106   0.051   2.999   0.952
 3736SOL    HW112107   0.008   3.083   0.988
 3736SOL    HW212108   7.007   2.928   0.943
 3737SOL     OW12109   5.096   0.171   3.070
 3737SOL    HW112110   5.119   0.268   3.074
 3737SOL    HW212111   5.149   0.127   2.998
 3738SOL     OW12112   6.197   5.988   3.254
 3738SOL    HW112113   6.174   6.041   3.173
 3738SOL    HW212114   6.177   6.042   3.336
 3739SOL     OW12115   1.643   3.771   2.585
 3739SOL    HW112116   1.636   3.747   2.488
 3739SOL    HW212117   1.613   3.693   2.641
 3740SOL     OW12118   4.884   1.159   0.065
 3740SOL    HW112119   4.834   1.110   7.020
 3740SOL    HW212120   4.826   1.169   0.146
 3741SOL     OW12121   4.264   3.663   0.934
 3741SOL    HW112122   4.296   3.569   0.919
 3741SOL    HW212123   4.187   3.681   0.872
 3742SOL     OW12124   3.182   2.086   6.166
 3742SOL    HW112125   3.130   2.116   6.246
 3742SOL    HW212126   3.255   2.152   6.147
 3743SOL     OW12127   6.639   5.207   0.276
 3743SOL    HW112128   6.716   5.143   0.275
 3743SOL    HW212129   6.674   5.301   0.267
 3744SOL     OW12130   0.642   5.047   4.087
 3744SOL    HW112131   0.742   5.046   4.092
 3744SOL    HW212132   0.613   5.022   3.995
 3745SOL     OW12133   3.619   5.151   2.546
 3745SOL    HW112134   3.582   5.225   2.602
 3745SOL    HW212135   3.592   5.063   2.583
 3746SOL     OW12136   4.562   1.894   1.650
 3746SOL    HW112137   4.563   1.877   1.748
 3746SOL    HW212138   4.584   1.809   1.601
 3747SOL     OW12139   3.229   6.424   6.826
 3747SOL    HW112140   3.131   6.438   6.814
 3747SOL    HW212141   3.268   6.389   6.741
 3748SOL     OW12142   6.013   1.057   1.334
 3748SOL    HW112143   6.089   1.108   1.294
 3748SOL    HW212144   5.932   1.117   1.340
 3749SOL     OW12145   1.488   6.832   4.100
 3749SOL    HW112146   1.584   6.815   4.080
 3749SOL    HW212147   1.468   6.807   4.196
 3750SOL     OW12148   0.471   3.781   0.329
 3750SOL    HW112149   0.419   3.855   0.373
 3750SOL    HW212150   0.483   3.706   0.393
 3751SOL     OW12151   0.147   4.122   3.150
 3751SOL    HW112152   0.091   4.150   3.072
 3751SOL    HW212153   0.087   4.094   3.225
 3752SOL     OW12154   5.931   0.984   5.855
 3752SOL    HW112155   5.841   1.027   5.845
 3752SOL    HW212156   5.995   1.052   5.891
 3753SOL     OW12157   6.261   1.396   4.055
 3753SOL    HW112158   6.217   1.366   3.970
 3753SOL    HW212159   6.249   1.494   4.065
 3754SOL     OW12160   2.268   1.542   2.332
 3754SOL    HW112161   2.233   1.614   2.272
 3754SOL    HW212162   2.195   1.509   2.391
 3755SOL     OW12163   2.945   4.760   4.157
 3755SOL    HW112164   2.879   4.752   4.231
 3755SOL    HW212165   2.901   4.736   4.070
 3756SOL     OW12166   2.110   6.012   0.313
 3756SOL    HW112167   2.114   5.934   0.376
 3756SOL    HW212168   2.171   5.996   0.235
 3757SOL     OW12169   6.301   4.627   1.740
 3757SOL    HW112170   6.370   4.557   1.756
 3757SOL    HW212171   6.277   4.671   1.827
 3758SOL     OW12172   1.737   0.576   3.450
 3758SOL    HW112173   1.650   0.620   3.431
 3758SOL    HW212174   1.765   0.520   3.372
 3759SOL     OW12175   5.255   0.450   4.080
 3759SOL    HW112176   5.266   0.510   4.160
 3759SOL    HW212177   5.286   0.358   4.103
 3760SOL     OW12178   6.768   0.576   3.850
 3760SOL    HW112179   6.701   0.589   3.777
 3760SOL    HW212180   6.820   0.493   3.834
 3761SOL     OW12181   5.404   1.137   4.556
 3761SOL    HW112182   5.357   1.109   4.640
 3761SOL    HW212183   5.391   1.235   4.542
 3762SOL     OW12184   1.116   3.965   2.814
 3762SOL    HW112185   1.092   3.914   2.731
 3762SOL    HW212186   1.168   4.047   2.788
 3763SOL     OW12187   6.984   4.360   0.321
 3763SOL    HW112188   6.998   4.351   0.222
 3763SOL    HW212189   7.025   4.447   0.352
 3764SOL     OW12190   1.800   0.434   3.235
 3764SOL    HW112191   1.889   0.449   3.279
 3764SOL    HW212192   1.796   0.485   3.149
 3765SOL     OW12193   6.067   1.819   1.322
 3765SOL    HW112194   6.133   1.777   1.384
 3765SOL    HW212195   6.090   1.795   1.227
 3766SOL     OW12196   1.865   3.301   3.736
 3766SOL    HW112197   1.820   3.227   3.787
 3766SOL    HW212198   1.917   3.358   3.799
 3767SOL     OW12199   3.174   4.632   6.098
 3767SOL    HW112200   3.269   4.660   6.103
 3767SOL    HW212201   3.163   4.542   6.140
 3768SOL     OW12202   1.570   0.253   4.861
 3768SOL    HW112203   1.556   0.156   4.881
 3768SOL    HW212204   1.501   0.285   4.796
 3769SOL     OW12205   4.685   5.909   4.770
 3769SOL    HW112206   4.622   5.901   4.846
 3769SOL    HW212207   4.633   5.912   4.684
 3770SOL     OW12208   1.298   1.318   0.683
 3770SOL    HW112209   1.213   1.268   0.666
 3770SOL    HW212210   1.312   1.385   0.610
 3771SOL     OW12211   0.093   4.698   0.549
 3771SOL    HW112212   0.175   4.642   0.541
 3771SOL    HW212213   0.112   4.777   0.608
 3772SOL     OW12214   1.080   6.268   0.611
 3772SOL    HW112215   1.058   6.248   0.707
 3772SOL    HW212216   1.108   6.184   0.566
 3773SOL     OW12217   5.964   3.131   6.123
 3773SOL    HW112218   5.905   3.052   6.105
 3773SOL    HW212219   5.915   3.215   6.101
 3774SOL     OW12220   5.497   6.236   1.294
 3774SOL    HW112221   5.526   6.296   1.368
 3774SOL    HW212222   5.562   6.160   1.285
 3775SOL     OW12223   4.092   4.984   3.230
 3775SOL    HW112224   4.188   4.958   3.217
 3775SOL    HW212225   4.044   4.910   3.277
 3776SOL     OW12226   3.489   3.039   6.805
 3776SOL    HW112227   3.460   3.098   6.881
 3776SOL    HW212228   3.537   3.095   6.737
 3777SOL     OW12229   2.683   6.150   4.527
 3777SOL    HW112230   2.669   6.174   4.623
 3777SOL    HW212231   2.758   6.084   4.520
 3778SOL     OW12232   2.991   5.475   4.957
 3778SOL    HW112233   2.895   5.486   4.929
 3778SOL    HW212234   3.030   5.397   4.908
 3779SOL     OW12235   0.079   5.306   0.534
 3779SOL    HW112236   0.008   5.275   0.597
 3779SOL    HW212237   0.167   5.268   0.562
 3780SOL     OW12238   6.435   2.865   1.449
 3780SOL    HW112239   6.380   2.862   1.533
 3780SOL    HW212240   6.452   2.960   1.424
 3781SOL     OW12241   2.035   6.520   5.242
 3781SOL    HW112242   2.087   6.532   5.326
 3781SOL    HW212243   1.950   6.470   5.262
 3782SOL     OW12244   4.983   6.195   1.554
 3782SOL    HW112245   4.960   6.233   1.644
 3782SOL    HW212246   5.082   6.195   1.542
 3783SOL     OW12247   5.545   4.889   6.018
 3783SOL    HW112248   5.596   4.961   5.972
 3783SOL    HW212249   5.497   4.927   6.097
 3784SOL     OW12250   5.216   2.343   3.848
 3784SOL    HW112251   5.288   2.279   3.820
 3784SOL    HW212252   5.179   2.389   3.768
 3785SOL     OW12253   1.047   3.474   4.518
 3785SOL    HW112254   1.094   3.423   4.590
 3785SOL    HW212255   0.949   3.478   4.539
 3786SOL     OW12256   2.400   2.454   4.578
 3786SOL    HW112257   2.423   2.472   4.482
 3786SOL    HW212258   2.337   2.376   4.583
 3787SOL     OW12259   4.203   0.201   3.397
 3787SOL    HW112260   4.226   0.143   3.319
 3787SOL    HW212261   4.117   0.249   3.379
 3788SOL     OW12262   0.345   3.142   5.137
 3788SOL    HW112263   0.387   3.182   5.055
 3788SOL    HW212264   0.328   3.214   5.204
 3789SOL     OW12265   1.694   2.645   2.671
 3789SOL    HW112266   1.731   2.695   2.749
 3789SOL    HW212267   1.613   2.593   2.699
 3790SOL     OW12268   0.571   6.876   0.801
 3790SOL    HW112269   0.480   6.855   0.836
 3790SOL    HW212270   0.614   6.944   0.860
 3791SOL     OW12271   5.759   0.811   5.984
 3791SOL    HW112272   5.813   0.860   5.915
 3791SOL    HW212273   5.695   0.750   5.939
 3792SOL     OW12274   0.681   0.987   3.868
 3792SOL    HW112275   0.709   0.934   3.948
 3792SOL    HW212276   0.618   0.932   3.812
 3793SOL     OW12277   6.437   6.504   0.330
 3793SOL    HW112278   6.526   6.473   0.296
 3793SOL    HW212279   6.450   6.554   0.415
 3794SOL     OW12280   2.142   4.374   0.823
 3794SOL    HW112281   2.105   4.455   0.869
 3794SOL    HW212282   2.204   4.326   0.884
 3795SOL     OW12283   2.773   5.763   1.095
 3795SOL    HW112284   2.702   5.765   1.165
 3795SOL    HW212285   2.848   5.703   1.125
 3796SOL     OW12286   4.192   1.709   0.220
 3796SOL    HW112287   4.116   1.723   0.284
 3796SOL    HW212288   4.159   1.662   0.139
 3797SOL     OW12289   0.713   4.373   3.151
 3797SOL    HW112290   0.793   4.319   3.178
 3797SOL    HW212291   0.640   4.361   3.218
 3798SOL     OW12292   2.326   6.418   2.987
 3798SOL    HW112293   2.300   6.336   2.937
 3798SOL    HW212294   2.244   6.470   3.010
 3799SOL     OW12295   6.532   2.376   3.140
 3799SOL    HW112296   6.518   2.290   3.091
 3799SOL    HW212297   6.560   2.356   3.234
 3800SOL     OW12298   5.571   1.867   3.169
 3800SOL    HW112299   5.539   1.774   3.149
 3800SOL    HW212300   5.671   1.868   3.169
 3801SOL     OW12301   5.516   6.945   2.177
 3801SOL    HW112302   5.546   6.914   2.267
 3801SOL    HW212303   5.581   7.012   2.142
 3802SOL     OW12304   6.276   2.101   1.972
 3802SOL    HW112305   6.333   2.120   2.052
 3802SOL    HW212306   6.335   2.086   1.893
 3803SOL     OW12307   2.995   3.823   4.160
 3803SOL    HW112308   2.957   3.813   4.069
 3803SOL    HW212309   3.045   3.910   4.166
 3804SOL     OW12310   3.776   0.199   4.885
 3804SOL    HW112311   3.706   0.215   4.815
 3804SOL    HW212312   3.852   0.147   4.845
 3805SOL     OW12313   2.080   3.205   0.330
 3805SOL    HW112314   1.988   3.166   0.320
 3805SOL    HW212315   2.147   3.143   0.291
 3806SOL     OW12316   4.420   4.349   6.457
 3806SOL    HW112317   4.494   4.411   6.429
 3806SOL    HW212318   4.426   4.264   6.406
 3807SOL     OW12319   1.149   5.289   4.023
 3807SOL    HW112320   1.159   5.388   4.028
 3807SOL    HW212321   1.225   5.244   4.069
 3808SOL     OW12322   5.060   6.797   6.186
 3808SOL    HW112323   5.033   6.886   6.221
 3808SOL    HW212324   5.128   6.810   6.113
 3809SOL     OW12325   5.451   2.044   1.303
 3809SOL    HW112326   5.356   2.058   1.277
 3809SOL    HW212327   5.500   2.000   1.228
 3810SOL     OW12328   6.610   2.357   2.443
 3810SOL    HW112329   6.654   2.317   2.363
 3810SOL    HW212330   6.555   2.287   2.489
 3811SOL     OW12331   6.885   5.196   5.148
 3811SOL    HW112332   6.851   5.107   5.115
 3811SOL    HW212333   6.941   5.238   5.076
 3812SOL     OW12334   3.856   6.059   6.934
 3812SOL    HW112335   3.877   6.078   0.003
 3812SOL    HW212336   3.940   6.030   6.887
 3813SOL     OW12337   6.609   3.483   1.016
 3813SOL    HW112338   6.545   3.414   1.050
 3813SOL    HW212339   6.572   3.526   0.934
 3814SOL     OW12340   6.561   0.061   4.684
 3814SOL    HW112341   6.531   0.021   4.771
 3814SOL    HW212342   6.653   0.097   4.694
 3815SOL     OW12343   4.841   3.197   0.488
 3815SOL    HW112344   4.775   3.272   0.495
 3815SOL    HW212345   4.803   3.115   0.530
 3816SOL     OW12346   1.304   6.042   5.664
 3816SOL    HW112347   1.321   5.954   5.620
 3816SOL    HW212348   1.307   6.115   5.595
 3817SOL     OW12349   4.933   3.560   2.497
 3817SOL    HW112350   5.033   3.559   2.501
 3817SOL    HW212351   4.902   3.628   2.431
 3818SOL     OW12352   0.433   0.945   1.884
 3818SOL    HW112353   0.385   0.877   1.828
 3818SOL    HW212354   0.525   0.959   1.847
 3819SOL     OW12355   6.613   4.547   3.373
 3819SOL    HW112356   6.708   4.575   3.386
 3819SOL    HW212357   6.557   4.584   3.448
 3820SOL     OW12358   5.721   6.648   4.423
 3820SOL    HW112359   5.634   6.609   4.393
 3820SOL    HW212360   5.727   6.643   4.522
 3821SOL     OW12361   0.459   6.903   6.691
 3821SOL    HW112362   0.419   6.990   6.722
 3821SOL    HW212363   0.553   6.896   6.724
 3822SOL     OW12364   3.765   1.018   0.254
 3822SOL    HW112365   3.819   1.031   0.338
 3822SOL    HW212366   3.693   0.951   0.270
 3823SOL     OW12367   4.974   4.832   6.115
 3823SOL    HW112368   4.885   4.856   6.154
 3823SOL    HW212369   4.991   4.888   6.034
 3824SOL     OW12370   1.510   3.368   0.121
 3824SOL    HW112371   1.555   3.312   0.051
 3824SOL    HW212372   1.573   3.385   0.196
 3825SOL     OW12373   1.587   4.191   6.823
 3825SOL    HW112374   1.679   4.208   6.861
 3825SOL    HW212375   1.594   4.122   6.751
 3826SOL     OW12376   6.269   4.327   2.083
 3826SOL    HW112377   6.234   4.238   2.053
 3826SOL    HW212378   6.321   4.315   2.167
 3827SOL     OW12379   0.681   0.888   1.510
 3827SOL    HW112380   0.757   0.824   1.521
 3827SOL    HW212381   0.596   0.837   1.499
 3828SOL     OW12382   3.565   4.146   4.515
 3828SOL    HW112383   3.572   4.114   4.610
 3828SOL    HW212384   3.634   4.099   4.459
 3829SOL     OW12385   0.117   4.759   2.409
 3829SOL    HW112386   0.168   4.769   2.495
 3829SOL    HW212387   0.096   4.663   2.393
 3830SOL     OW12388   0.703   0.219   5.011
 3830SOL    HW112389   0.634   0.148   5.002
 3830SOL    HW212390   0.729   0.230   5.107
 3831SOL     OW12391   4.702   1.690   3.315
 3831SOL    HW112392   4.800   1.707   3.304
 3831SOL    HW212393   4.657   1.693   3.226
 3832SOL     OW12394   0.463   0.418   2.285
 3832SOL    HW112395   0.509   0.415   2.197
 3832SOL    HW212396   0.498   0.344   2.343
 3833SOL     OW12397   1.237   6.557   6.227
 3833SOL    HW112398   1.220   6.486   6.295
 3833SOL    HW212399   1.199   6.529   6.139
 3834SOL     OW12400   4.509   4.260   1.128
 3834SOL    HW112401   4.554   4.345   1.154
 3834SOL    HW212402   4.488   4.262   1.030
 3835SOL     OW12403   3.313   5.731   5.643
 3835SOL    HW112404   3.216   5.726   5.666
 3835SOL    HW212405   3.324   5.717   5.544
 3836SOL     OW12406   0.540   5.341   6.577
 3836SOL    HW112407   0.552   5.324   6.479
 3836SOL    HW212408   0.613   5.399   6.610
 3837SOL     OW12409   3.951   4.835   5.137
 3837SOL    HW112410   3.923   4.819   5.232
 3837SOL    HW212411   3.904   4.916   5.102
 3838SOL     OW12412   2.087   1.123   3.190
 3838SOL    HW112413   2.181   1.131   3.221
 3838SOL    HW212414   2.043   1.046   3.237
 3839SOL     OW12415   4.515   0.069   3.310
 3839SOL    HW112416   4.438   0.075   3.247
 3839SOL    HW212417   4.505   7.014   3.367
 3840SOL     OW12418   2.549   0.399   6.969
 3840SOL    HW112419   2.527   0.317   6.916
 3840SOL    HW212420   2.522   0.480   6.918
 3841SOL     OW12421   6.663   4.741   4.151
 3841SOL    HW112422   6.603   4.743   4.231
 3841SOL    HW212423   6.755   4.770   4.178
 3842SOL     OW12424   2.240   2.649   4.709
 3842SOL    HW112425   2.150   2.669   4.670
 3842SOL    HW212426   2.289   2.585   4.650
 3843SOL     OW12427   5.154   3.008   0.773
 3843SOL    HW112428   5.150   3.037   0.868
 3843SOL    HW212429   5.229   2.943   0.761
 3844SOL     OW12430   1.131   5.257   0.603
 3844SOL    HW112431   1.167   5.228   0.515
 3844SOL    HW212432   1.062   5.328   0.588
 3845SOL     OW12433   2.030   5.738   0.411
 3845SOL    HW112434   2.094   5.685   0.467
 3845SOL    HW212435   1.982   5.804   0.469
 3846SOL     OW12436   0.573   3.033   4.520
 3846SOL    HW112437   0.595   2.944   4.560
 3846SOL    HW212438   0.584   3.104   4.589
 3847SOL     OW12439   5.514   1.535   5.027
 3847SOL    HW112440   5.449   1.603   5.063
 3847SOL    HW212441   5.472   1.488   4.949
 3848SOL     OW12442   4.850   3.047   2.530
 3848SOL    HW112443   4.813   3.035   2.438
 3848SOL    HW212444   4.810   2.979   2.591
 3849SOL     OW12445   0.715   6.364   5.895
 3849SOL    HW112446   0.657   6.331   5.821
 3849SOL    HW212447   0.690   6.459   5.917
 3850SOL     OW12448   2.774   2.660   1.545
 3850SOL    HW112449   2.853   2.694   1.596
 3850SOL    HW212450   2.701   2.728   1.548
 3851SOL     OW12451   0.137   5.080   3.562
 3851SOL    HW112452   0.047   5.122   3.556
 3851SOL    HW212453   0.190   5.124   3.635
 3852SOL     OW12454   2.724   6.765   4.334
 3852SOL    HW112455   2.626   6.745   4.328
 3852SOL    HW212456   2.759   6.783   4.242
 3853SOL     OW12457   2.165   1.594   4.111
 3853SOL    HW112458   2.196   1.542   4.190
 3853SOL    HW212459   2.089   1.546   4.067
 3854SOL     OW12460   1.656   2.992   2.982
 3854SOL    HW112461   1.589   3.059   2.950
 3854SOL    HW212462   1.617   2.938   3.056
 3855SOL     OW12463   4.416   6.518   0.416
 3855SOL    HW112464   4.355   6.564   0.351
 3855SOL    HW212465   4.456   6.585   0.478
 3856SOL     OW12466   0.710   1.924   6.380
 3856SOL    HW112467   0.663   1.992   6.436
 3856SOL    HW212468   0.751   1.970   6.300
 3857SOL     OW12469   2.410   6.527   5.779
 3857SOL    HW112470   2.340   6.565   5.718
 3857SOL    HW212471   2.366   6.493   5.862
 3858SOL     OW12472   3.828   1.367   5.795
 3858SOL    HW112473   3.793   1.452   5.757
 3858SOL    HW212474   3.756   1.322   5.849
 3859SOL     OW12475   5.837   0.945   1.166
 3859SOL    HW112476   5.899   0.950   1.244
 3859SOL    HW212477   5.742   0.958   1.197
 3860SOL     OW12478   2.030   0.459   4.544
 3860SOL    HW112479   1.982   0.446   4.458
 3860SOL    HW212480   2.121   0.418   4.538
 3861SOL     OW12481   4.032   5.633   2.893
 3861SOL    HW112482   4.042   5.725   2.929
 3861SOL    HW212483   4.076   5.627   2.803
 3862SOL     OW12484   0.704   0.469   4.028
 3862SOL    HW112485   0.729   0.440   3.935
 3862SOL    HW212486   0.708   0.390   4.089
 3863SOL     OW12487   5.521   0.870   0.196
 3863SOL    HW112488   5.547   0.873   0.293
 3863SOL    HW212489   5.467   0.788   0.179
 3864SOL     OW12490   2.549   0.764   4.901
 3864SOL    HW112491   2.465   0.787   4.852
 3864SOL    HW212492   2.545   0.668   4.930
 3865SOL     OW12493   4.640   0.779   0.501
 3865SOL    HW112494   4.624   0.836   0.420
 3865SOL    HW212495   4.707   0.708   0.479
 3866SOL     OW12496   3.783   1.664   6.794
 3866SOL    HW112497   3.811   1.578   6.752
 3866SOL    HW212498   3.848   1.736   6.767
 3867SOL     OW12499   1.220   4.647   3.206
 3867SOL    HW112500   1.308   4.694   3.214
 3867SOL    HW212501   1.227   4.577   3.134
 3868SOL     OW12502   4.116   0.152   6.697
 3868SOL    HW112503   4.164   0.144   6.610
 3868SOL    HW212504   4.181   0.141   6.772
 3869SOL     OW12505   6.729   3.281   3.865
 3869SOL    HW112506   6.650   3.339   3.885
 3869SOL    HW212507   6.698   3.195   3.823
 3870SOL     OW12508   6.636   6.873   2.456
 3870SOL    HW112509   6.717   6.931   2.459
 3870SOL    HW212510   6.562   6.916   2.507
 3871SOL     OW12511   2.910   6.780   3.568
 3871SOL    HW112512   3.001   6.817   3.583
 3871SOL    HW212513   2.908   6.684   3.597
 3872SOL     OW12514   3.184   3.063   3.826
 3872SOL    HW112515   3.086   3.082   3.831
 3872SOL    HW212516   3.206   3.023   3.737
 3873SOL     OW12517   4.817   4.007   0.677
 3873SOL    HW112518   4.855   4.022   0.585
 3873SOL    HW212519   4.777   4.092   0.710
 3874SOL     OW12520   4.432   0.485   0.387
 3874SOL    HW112521   4.459   0.429   0.309
 3874SOL    HW212522   4.513   0.508   0.441
 3875SOL     OW12523   2.058   3.046   3.895
 3875SOL    HW112524   2.091   3.123   3.840
 3875SOL    HW212525   2.135   2.991   3.926
 3876SOL     OW12526   3.739   5.664   1.093
 3876SOL    HW112527   3.690   5.580   1.070
 3876SOL    HW212528   3.680   5.721   1.150
 3877SOL     OW12529   6.284   2.362   0.788
 3877SOL    HW112530   6.276   2.296   0.714
 3877SOL    HW212531   6.369   2.414   0.777
 3878SOL     OW12532   4.926   6.811   4.758
 3878SOL    HW112533   5.010   6.761   4.776
 3878SOL    HW212534   4.847   6.751   4.773
 3879SOL     OW12535   6.010   4.788   0.254
 3879SOL    HW112536   5.955   4.739   0.187
 3879SOL    HW212537   5.968   4.780   0.344
 3880SOL     OW12538   4.850   3.952   4.519
 3880SOL    HW112539   4.813   3.929   4.429
 3880SOL    HW212540   4.949   3.938   4.519
 3881SOL     OW12541   1.481   3.807   1.204
 3881SOL    HW112542   1.478   3.815   1.303
 3881SOL    HW212543   1.392   3.778   1.169
 3882SOL     OW12544   1.420   1.540   7.020
 3882SOL    HW112545   1.419   1.482   6.938
 3882SOL    HW212546   1.471   1.493   0.066
 3883SOL     OW12547   4.454   0.871   2.760
 3883SOL    HW112548   4.365   0.828   2.747
 3883SOL    HW212549   4.461   0.951   2.700
 3884SOL     OW12550   0.635   5.801   2.502
 3884SOL    HW112551   0.722   5.754   2.483
 3884SOL    HW212552   0.640   5.844   2.592
 3885SOL     OW12553   5.804   6.392   3.408
 3885SOL    HW112554   5.893   6.424   3.378
 3885SOL    HW212555   5.816   6.320   3.476
 3886SOL     OW12556   4.441   5.828   5.341
 3886SOL    HW112557   4.364   5.859   5.285
 3886SOL    HW212558   4.407   5.786   5.425
 3887SOL     OW12559   0.934   6.617   0.154
 3887SOL    HW112560   0.924   6.687   0.225
 3887SOL    HW212561   0.971   6.534   0.195
 3888SOL     OW12562   6.322   6.330   4.635
 3888SOL    HW112563   6.223   6.332   4.622
 3888SOL    HW212564   6.346   6.252   4.693
 3889SOL     OW12565   6.583   2.513   6.924
 3889SOL    HW112566   6.501   2.556   6.887
 3889SOL    HW212567   6.560   2.467   7.010
 3890SOL     OW12568   5.609   4.314   3.877
 3890SOL    HW112569   5.695   4.310   3.826
 3890SOL    HW212570   5.599   4.405   3.917
 3891SOL     OW12571   4.943   3.917   3.513
 3891SOL    HW112572   4.911   3.830   3.474
 3891SOL    HW212573   4.907   3.993   3.460
 3892SOL     OW12574   0.569   2.905   1.184
 3892SOL    HW112575   0.640   2.973   1.163
 3892SOL    HW212576   0.600   2.815   1.154
 3893SOL     OW12577   3.989   4.399   1.333
 3893SOL    HW112578   3.978   4.427   1.237
 3893SOL    HW212579   4.055   4.324   1.338
 3894SOL     OW12580   5.598   0.801   6.592
 3894SOL    HW112581   5.584   0.710   6.631
 3894SOL    HW212582   5.517   0.857   6.610
 3895SOL     OW12583   1.897   0.102   5.282
 3895SOL    HW112584   1.845   0.148   5.354
 3895SOL    HW212585   1.931   0.015   5.316
 3896SOL     OW12586   0.835   1.255   6.548
 3896SOL    HW112587   0.831   1.185   6.618
 3896SOL    HW212588   0.860   1.343   6.589
 3897SOL     OW12589   4.171   5.628   2.643
 3897SOL    HW112590   4.227   5.568   2.584
 3897SOL    HW212591   4.228   5.666   2.715
 3898SOL     OW12592   3.470   2.115   7.004
 3898SOL    HW112593   3.426   2.056   6.936
 3898SOL    HW212594   3.428   2.102   0.067
 3899SOL     OW12595   4.556   6.771   5.979
 3899SOL    HW112596   4.621   6.749   6.051
 3899SOL    HW212597   4.466   6.736   6.003
 3900SOL     OW12598   4.729   2.822   3.792
 3900SOL    HW112599   4.660   2.786   3.855
 3900SOL    HW212600   4.814   2.772   3.804
 3901SOL     OW12601   3.311   0.726   6.158
 3901SOL    HW112602   3.284   0.659   6.228
 3901SOL    HW212603   3.373   0.793   6.199
 3902SOL     OW12604   6.372   2.840   2.074
 3902SOL    HW112605   6.301   2.836   2.004
 3902SOL    HW212606   6.330   2.845   2.165
 3903SOL     OW12607   3.682   6.867   0.302
 3903SOL    HW112608   3.720   6.869   0.394
 3903SOL    HW212609   3.745   6.818   0.241
 3904SOL     OW12610   1.865   0.615   6.808
 3904SOL    HW112611   1.801   0.626   6.732
 3904SOL    HW212612   1.896   0.520   6.811
 3905SOL     OW12613   6.587   6.751   5.934
 3905SOL    HW112614   6.619   6.748   5.840
 3905SOL    HW212615   6.533   6.834   5.948
 3906SOL     OW12616   5.909   6.571   5.947
 3906SOL    HW112617   5.847   6.628   6.001
 3906SOL    HW212618   5.981   6.628   5.908
 3907SOL     OW12619   5.746   0.869   4.133
 3907SOL    HW112620   5.664   0.824   4.169
 3907SOL    HW212621   5.802   0.902   4.210
 3908SOL     OW12622   0.582   2.703   6.766
 3908SOL    HW112623   0.643   2.721   6.842
 3908SOL    HW212624   0.621   2.632   6.707
 3909SOL     OW12625   5.889   6.028   4.537
 3909SOL    HW112626   5.902   6.010   4.635
 3909SOL    HW212627   5.978   6.025   4.492
 3910SOL     OW12628   3.360   3.578   2.281
 3910SOL    HW112629   3.452   3.609   2.258
 3910SOL    HW212630   3.364   3.518   2.360
 3911SOL     OW12631   6.018   1.544   5.141
 3911SOL    HW112632   5.939   1.552   5.080
 3911SOL    HW212633   6.049   1.449   5.144
 3912SOL     OW12634   5.737   0.139   5.448
 3912SOL    HW112635   5.757   0.041   5.437
 3912SOL    HW212636   5.808   0.193   5.404
 3913SOL     OW12637   2.618   6.373   6.169
 3913SOL    HW112638   2.718   6.371   6.182
 3913SOL    HW212639   2.587   6.281   6.144
 3914SOL     OW12640   2.722   0.753   1.520
 3914SOL    HW112641   2.758   0.711   1.604
 3914SOL    HW212642   2.798   0.783   1.463
 3915SOL     OW12643   5.401   6.321   1.020
 3915SOL    HW112644   5.423   6.332   1.116
 3915SOL    HW212645   5.471   6.266   0.974
 3916SOL     OW12646   0.966   6.957   3.823
 3916SOL    HW112647   1.019   0.001   3.870
 3916SOL    HW212648   0.886   6.933   3.878
 3917SOL     OW12649   6.732   6.451   6.601
 3917SOL    HW112650   6.728   6.516   6.676
 3917SOL    HW212651   6.786   6.490   6.526
 3918SOL     OW12652   5.726   5.438   1.101
 3918SOL    HW112653   5.753   5.534   1.100
 3918SOL    HW212654   5.643   5.428   1.157
 3919SOL     OW12655   4.761   6.652   0.443
 3919SOL    HW112656   4.827   6.593   0.398
 3919SOL    HW212657   4.792   6.747   0.436
 3920SOL     OW12658   2.766   3.532   0.383
 3920SOL    HW112659   2.808   3.623   0.390
 3920SOL    HW212660   2.807   3.482   0.307
 3921SOL     OW12661   0.217   3.446   1.581
 3921SOL    HW112662   0.145   3.410   1.640
 3921SOL    HW212663   0.220   3.394   1.496
 3922SOL     OW12664   6.659   3.830   1.941
 3922SOL    HW112665   6.711   3.899   1.890
 3922SOL    HW212666   6.576   3.872   1.977
 3923SOL     OW12667   0.616   1.376   0.402
 3923SOL    HW112668   0.601   1.456   0.460
 3923SOL    HW212669   0.551   1.377   0.326
 3924SOL     OW12670   5.482   5.075   3.791
 3924SOL    HW112671   5.509   5.138   3.865
 3924SOL    HW212672   5.425   5.124   3.726
 3925SOL     OW12673   2.028   5.322   0.993
 3925SOL    HW112674   2.063   5.273   0.914
 3925SOL    HW212675   2.007   5.257   1.066
 3926SOL     OW12676   5.801   4.994   2.286
 3926SOL    HW112677   5.794   5.091   2.309
 3926SOL    HW212678   5.726   4.944   2.330
 3927SOL     OW12679   6.043   2.623   4.931
 3927SOL    HW112680   6.122   2.684   4.925
 3927SOL    HW212681   6.031   2.576   4.844
 3928SOL     OW12682   3.956   5.979   6.588
 3928SOL    HW112683   3.998   5.952   6.675
 3928SOL    HW212684   4.025   5.976   6.516
 3929SOL     OW12685   0.469   0.589   4.633
 3929SOL    HW112686   0.459   0.494   4.602
 3929SOL    HW212687   0.387   0.640   4.611
 3930SOL     OW12688   2.933   2.244   4.344
 3930SOL    HW112689   2.849   2.267   4.392
 3930SOL    HW212690   2.915   2.240   4.245
 3931SOL     OW12691   1.557   1.743   1.353
 3931SOL    HW112692   1.628   1.710   1.416
 3931SOL    HW212693   1.469   1.702   1.376
 3932SOL     OW12694   1.076   4.192   3.925
 3932SOL    HW112695   1.049   4.103   3.962
 3932SOL    HW212696   1.063   4.192   3.826
 3933SOL     OW12697   1.889   6.230   6.807
 3933SOL    HW112698   1.829   6.187   6.739
 3933SOL    HW212699   1.984   6.227   6.774
 3934SOL     OW12700   0.301   0.998   0.114
 3934SOL    HW112701   0.325   1.088   0.150
 3934SOL    HW212702   0.234   0.955   0.175
 3935SOL     OW12703   2.928   6.916   6.656
 3935SOL    HW112704   2.984   6.943   6.735
 3935SOL    HW212705   2.964   6.960   6.573
 3936SOL     OW12706   6.622   5.085   5.523
 3936SOL    HW112707   6.594   5.035   5.441
 3936SOL    HW212708   6.687   5.029   5.575
 3937SOL     OW12709   0.341   1.507   2.898
 3937SOL    HW112710   0.382   1.519   2.807
 3937SOL    HW212711   0.413   1.509   2.967
 3938SOL     OW12712   0.241   2.263   3.190
 3938SOL    HW112713   0.162   2.298   3.139
 3938SOL    HW212714   0.222   2.266   3.288
 3939SOL     OW12715   1.932   3.023   3.040
 3939SOL    HW112716   1.840   3.022   3.002
 3939SOL    HW212717   1.948   3.110   3.088
 3940SOL     OW12718   4.895   4.566   1.267
 3940SOL    HW112719   4.902   4.661   1.234
 3940SOL    HW212720   4.977   4.515   1.239
 3941SOL     OW12721   5.315   3.515   5.271
 3941SOL    HW112722   5.296   3.529   5.174
 3941SOL    HW212723   5.230   3.510   5.323
 3942SOL     OW12724   0.307   6.793   6.242
 3942SOL    HW112725   0.211   6.767   6.225
 3942SOL    HW212726   0.352   6.720   6.294
 3943SOL     OW12727   6.982   2.633   3.024
 3943SOL    HW112728   6.890   2.597   3.004
 3943SOL    HW212729   6.988   2.654   3.122
 3944SOL     OW12730   4.609   2.393   4.867
 3944SOL    HW112731   4.606   2.459   4.942
 3944SOL    HW212732   4.562   2.309   4.894
 3945SOL     OW12733   0.917   2.310   0.049
 3945SOL    HW112734   0.939   2.402   0.082
 3945SOL    HW212735   0.848   2.269   0.108
 3946SOL     OW12736   5.215   4.782   4.426
 3946SOL    HW112737   5.245   4.841   4.351
 3946SOL    HW212738   5.116   4.791   4.438
 3947SOL     OW12739   5.208   6.497   6.956
 3947SOL    HW112740   5.230   6.402   6.933
 3947SOL    HW212741   5.258   6.524   0.012
 3948SOL     OW12742   0.083   5.113   2.381
 3948SOL    HW112743   0.131   5.039   2.426
 3948SOL    HW212744   0.147   5.168   2.327
 3949SOL     OW12745   4.977   6.807   3.274
 3949SOL    HW112746   4.941   6.891   3.314
 3949SOL    HW212747   4.978   6.734   3.342
 3950SOL     OW12748   1.981   4.663   0.562
 3950SOL    HW112749   1.939   4.700   0.645
 3950SOL    HW212750   1.914   4.665   0.487
 3951SOL     OW12751   4.346   0.258   1.307
 3951SOL    HW112752   4.390   0.198   1.375
 3951SOL    HW212753   4.255   0.285   1.340
 3952SOL     OW12754   6.794   2.459   2.100
 3952SOL    HW112755   6.856   2.508   2.038
 3952SOL    HW212756   6.833   2.458   2.192
 3953SOL     OW12757   4.025   4.921   1.135
 3953SOL    HW112758   4.064   4.836   1.100
 3953SOL    HW212759   3.926   4.913   1.141
 3954SOL     OW12760   3.928   5.261   5.321
 3954SOL    HW112761   3.910   5.251   5.223
 3954SOL    HW212762   4.019   5.300   5.334
 3955SOL     OW12763   2.885   0.039   6.097
 3955SOL    HW112764   2.800   7.013   6.109
 3955SOL    HW212765   2.963   7.004   6.107
 3956SOL     OW12766   1.086   0.995   2.899
 3956SOL    HW112767   1.006   0.994   2.839
 3956SOL    HW212768   1.162   0.949   2.855
 3957SOL     OW12769   4.917   6.818   3.910
 3957SOL    HW112770   4.988   6.836   3.978
 3957SOL    HW212771   4.867   6.735   3.936
 3958SOL     OW12772   5.822   1.281   4.730
 3958SOL    HW112773   5.840   1.307   4.825
 3958SOL    HW212774   5.832   1.183   4.719
 3959SOL     OW12775   4.633   6.737   0.167
 3959SOL    HW112776   4.672   6.695   0.249
 3959SOL    HW212777   4.671   6.694   0.085
 3960SOL     OW12778   5.191   1.057   6.258
 3960SOL    HW112779   5.271   0.998   6.272
 3960SOL    HW212780   5.221   1.153   6.253
 3961SOL     OW12781   5.503   1.352   2.362
 3961SOL    HW112782   5.494   1.257   2.390
 3961SOL    HW212783   5.504   1.411   2.442
 3962SOL     OW12784   2.564   5.008   6.699
 3962SOL    HW112785   2.657   5.044   6.702
 3962SOL    HW212786   2.500   5.075   6.736
 3963SOL     OW12787   4.695   5.427   3.039
 3963SOL    HW112788   4.710   5.328   3.034
 3963SOL    HW212789   4.631   5.455   2.967
 3964SOL     OW12790   4.384   4.985   3.295
 3964SOL    HW112791   4.335   5.071   3.309
 3964SOL    HW212792   4.465   5.001   3.239
 3965SOL     OW12793   4.840   3.049   4.299
 3965SOL    HW112794   4.855   3.143   4.328
 3965SOL    HW212795   4.826   2.991   4.380
 3966SOL     OW12796   4.244   6.040   6.466
 3966SOL    HW112797   4.303   6.084   6.533
 3966SOL    HW212798   4.258   5.941   6.470
 3967SOL     OW12799   2.093   3.970   2.338
 3967SOL    HW112800   2.114   3.917   2.421
 3967SOL    HW212801   2.129   3.922   2.258
 3968SOL     OW12802   4.595   0.715   0.863
 3968SOL    HW112803   4.613   0.799   0.810
 3968SOL    HW212804   4.605   0.636   0.803
 3969SOL     OW12805   0.713   4.383   2.146
 3969SOL    HW112806   0.767   4.417   2.069
 3969SOL    HW212807   0.773   4.356   2.221
 3970SOL     OW12808   5.457   6.494   3.153
 3970SOL    HW112809   5.381   6.529   3.208
 3970SOL    HW212810   5.421   6.450   3.070
 3971SOL     OW12811   3.229   5.164   3.802
 3971SOL    HW112812   3.179   5.079   3.793
 3971SOL    HW212813   3.310   5.161   3.743
 3972SOL     OW12814   1.573   4.016   0.523
 3972SOL    HW112815   1.634   3.937   0.533
 3972SOL    HW212816   1.613   4.096   0.568
 3973SOL     OW12817   1.732   5.526   6.302
 3973SOL    HW112818   1.799   5.589   6.342
 3973SOL    HW212819   1.709   5.556   6.210
 3974SOL     OW12820   2.164   6.774   5.210
 3974SOL    HW112821   2.198   6.810   5.123
 3974SOL    HW212822   2.108   6.693   5.193
 3975SOL     OW12823   5.340   1.327   6.090
 3975SOL    HW112824   5.340   1.372   6.179
 3975SOL    HW212825   5.434   1.307   6.062
 3976SOL     OW12826   1.616   6.048   2.160
 3976SOL    HW112827   1.694   6.046   2.098
 3976SOL    HW212828   1.611   6.137   2.205
 3977SOL     OW12829   1.998   3.378   6.021
 3977SOL    HW112830   2.063   3.347   6.090
 3977SOL    HW212831   1.938   3.447   6.061
 3978SOL     OW12832   5.909   5.465   3.429
 3978SOL    HW112833   5.928   5.443   3.333
 3978SOL    HW212834   5.963   5.406   3.488
 3979SOL     OW12835   3.982   1.076   0.028
 3979SOL    HW112836   3.922   1.070   0.108
 3979SOL    HW212837   3.945   1.020   6.981
 3980SOL     OW12838   5.741   6.268   6.671
 3980SOL    HW112839   5.674   6.199   6.642
 3980SOL    HW212840   5.815   6.271   6.604
 3981SOL     OW12841   3.471   6.998   0.453
 3981SOL    HW112842   3.517   0.047   0.499
 3981SOL    HW212843   3.532   6.959   0.384
 3982SOL     OW12844   2.531   6.489   3.441
 3982SOL    HW112845   2.522   6.509   3.343
 3982SOL    HW212846   2.622   6.451   3.459
 3983SOL     OW12847   4.938   4.833   4.408
 3983SOL    HW112848   4.865   4.777   4.447
 3983SOL    HW212849   4.899   4.911   4.360
 3984SOL     OW12850   6.609   1.098   1.942
 3984SOL    HW112851   6.605   1.018   1.882
 3984SOL    HW212852   6.689   1.153   1.917
 3985SOL     OW12853   2.931   4.665   6.656
 3985SOL    HW112854   2.917   4.603   6.733
 3985SOL    HW212855   2.843   4.702   6.626
 3986SOL     OW12856   5.096   1.275   2.524
 3986SOL    HW112857   5.062   1.368   2.510
 3986SOL    HW212858   5.100   1.227   2.436
 3987SOL     OW12859   3.865   4.918   3.629
 3987SOL    HW112860   3.944   4.873   3.668
 3987SOL    HW212861   3.892   5.006   3.590
 3988SOL     OW12862   3.063   4.895   6.933
 3988SOL    HW112863   3.047   4.848   6.846
 3988SOL    HW212864   3.091   4.829   7.002
 3989SOL     OW12865   6.750   2.409   6.703
 3989SOL    HW112866   6.823   2.476   6.712
 3989SOL    HW212867   6.680   2.426   6.773
 3990SOL     OW12868   4.344   2.316   2.608
 3990SOL    HW112869   4.431   2.307   2.657
 3990SOL    HW212870   4.362   2.334   2.512
 3991SOL     OW12871   6.805   1.311   2.227
 3991SOL    HW112872   6.734   1.247   2.256
 3991SOL    HW212873   6.810   1.312   2.127
 3992SOL     OW12874   3.423   1.411   0.083
 3992SOL    HW112875   3.448   1.476   0.011
 3992SOL    HW212876   3.466   1.440   0.169
 3993SOL     OW12877   1.247   2.881   1.914
 3993SOL    HW112878   1.345   2.863   1.910
 3993SOL    HW212879   1.232   2.979   1.931
 3994SOL     OW12880   2.403   6.801   6.270
 3994SOL    HW112881   2.318   6.764   6.232
 3994SOL    HW212882   2.431   6.881   6.218
 3995SOL     OW12883   2.169   4.182   6.095
 3995SOL    HW112884   2.178   4.122   6.015
 3995SOL    HW212885   2.072   4.191   6.118
 3996SOL     OW12886   0.398   6.351   4.971
 3996SOL    HW112887   0.349   6.390   4.893
 3996SOL    HW212888   0.367   6.396   5.055
 3997SOL     OW12889   5.858   1.843   3.155
 3997SOL    HW112890   5.945   1.889   3.138
 3997SOL    HW212891   5.847   1.767   3.091
 3998SOL     OW12892   3.876   1.156   3.833
 3998SOL    HW112893   3.899   1.239   3.884
 3998SOL    HW212894   3.886   1.076   3.893
 3999SOL     OW12895   6.124   2.306   4.025
 3999SOL    HW112896   6.135   2.362   3.942
 3999SOL    HW212897   6.061   2.352   4.087
 4000SOL     OW12898   3.136   0.137   3.516
 4000SOL    HW112899   3.163   0.218   3.569
 4000SOL    HW212900   3.177   0.143   3.425
 4001SOL     OW12901   2.567   1.635   4.056
 4001SOL    HW112902   2.484   1.690   4.044
 4001SOL    HW212903   2.647   1.695   4.051
 4002SOL     OW12904   3.223   4.138   1.250
 4002SOL    HW112905   3.243   4.234   1.230
 4002SOL    HW212906   3.142   4.109   1.200
 4003SOL     OW12907   3.095   0.298   3.925
 4003SOL    HW112908   3.014   0.351   3.947
 4003SOL    HW212909   3.119   0.311   3.829
 4004SOL     OW12910   5.647   1.981   4.289
 4004SOL    HW112911   5.548   1.975   4.304
 4004SOL    HW212912   5.694   1.978   4.378
 4005SOL     OW12913   5.189   5.382   6.755
 4005SOL    HW112914   5.129   5.449   6.799
 4005SOL    HW212915   5.141   5.295   6.745
 4006SOL     OW12916   4.334   5.209   2.327
 4006SOL    HW112917   4.412   5.243   2.274
 4006SOL    HW212918   4.302   5.123   2.288
 4007SOL     OW12919   0.153   2.774   0.017
 4007SOL    HW112920   0.148   2.688   6.993
 4007SOL    HW212921   0.078   2.833   7.015
 4008SOL     OW12922   2.709   2.073   4.913
 4008SOL    HW112923   2.711   2.101   5.009
 4008SOL    HW212924   2.679   2.150   4.857
 4009SOL     OW12925   4.780   3.043   1.367
 4009SOL    HW112926   4.796   3.096   1.451
 4009SOL    HW212927   4.698   3.079   1.321
 4010SOL     OW12928   2.516   2.965   1.403
 4010SOL    HW112929   2.613   2.940   1.410
 4010SOL    HW212930   2.462   2.884   1.379
 4011SOL     OW12931   1.258   1.614   2.145
 4011SOL    HW112932   1.233   1.589   2.051
 4011SOL    HW212933   1.355   1.639   2.148
 4012SOL     OW12934   6.732   4.475   1.935
 4012SOL    HW112935   6.729   4.375   1.934
 4012SOL    HW212936   6.807   4.506   1.994
 4013SOL     OW12937   3.655   1.653   4.986
 4013SOL    HW112938   3.655   1.737   5.041
 4013SOL    HW212939   3.750   1.627   4.967
 4014SOL     OW12940   5.802   6.303   2.263
 4014SOL    HW112941   5.726   6.305   2.327
 4014SOL    HW212942   5.853   6.217   2.274
 4015SOL     OW12943   5.168   4.631   6.193
 4015SOL    HW112944   5.075   4.620   6.159
 4015SOL    HW212945   5.230   4.650   6.117
 4016SOL     OW12946   2.529   6.124   6.104
 4016SOL    HW112947   2.442   6.075   6.103
 4016SOL    HW212948   2.603   6.062   6.129
 4017SOL     OW12949   6.843   6.385   0.575
 4017SOL    HW112950   6.808   6.295   0.549
 4017SOL    HW212951   6.937   6.376   0.609
 4018SOL     OW12952   4.032   5.870   2.216
 4018SOL    HW112953   4.005   5.803   2.147
 4018SOL    HW212954   4.122   5.908   2.193
 4019SOL     OW12955   5.404   4.596   3.042
 4019SOL    HW112956   5.423   4.567   3.136
 4019SOL    HW212957   5.306   4.615   3.031
 4020SOL     OW12958   4.421   1.994   5.333
 4020SOL    HW112959   4.364   2.010   5.413
 4020SOL    HW212960   4.394   2.057   5.260
 4021SOL     OW12961   3.252   5.060   6.773
 4021SOL    HW112962   3.292   5.117   6.845
 4021SOL    HW212963   3.162   5.027   6.802
 4022SOL     OW12964   4.633   1.768   6.819
 4022SOL    HW112965   4.663   1.800   6.909
 4022SOL    HW212966   4.592   1.677   6.829
 4023SOL     OW12967   6.428   2.055   4.733
 4023SOL    HW112968   6.498   2.035   4.664
 4023SOL    HW212969   6.407   1.971   4.783
 4024SOL     OW12970   3.855   5.944   4.593
 4024SOL    HW112971   3.756   5.954   4.583
 4024SOL    HW212972   3.878   5.849   4.611
 4025SOL     OW12973   0.836   3.571   3.285
 4025SOL    HW112974   0.925   3.528   3.272
 4025SOL    HW212975   0.773   3.505   3.325
 4026SOL     OW12976   5.184   6.058   4.141
 4026SOL    HW112977   5.205   6.097   4.231
 4026SOL    HW212978   5.199   5.959   4.143
 4027SOL     OW12979   3.636   4.170   1.663
 4027SOL    HW112980   3.710   4.137   1.721
 4027SOL    HW212981   3.657   4.149   1.567
 4028SOL     OW12982   2.070   2.150   4.193
 4028SOL    HW112983   2.074   2.234   4.246
 4028SOL    HW212984   2.033   2.076   4.249
 4029SOL     OW12985   1.992   3.690   5.435
 4029SOL    HW112986   1.993   3.590   5.440
 4029SOL    HW212987   2.078   3.723   5.395
 4030SOL     OW12988   0.572   1.843   5.735
 4030SOL    HW112989   0.590   1.801   5.825
 4030SOL    HW212990   0.576   1.942   5.743
 4031SOL     OW12991   4.432   5.541   3.710
 4031SOL    HW112992   4.425   5.517   3.614
 4031SOL    HW212993   4.349   5.590   3.738
 4032SOL     OW12994   5.654   6.993   3.826
 4032SOL    HW112995   5.660   6.898   3.794
 4032SOL    HW212996   5.664   0.028   3.748
 4033SOL     OW12997   2.962   3.322   4.275
 4033SOL    HW112998   3.054   3.290   4.254
 4033SOL    HW212999   2.918   3.353   4.190
 4034SOL     OW13000   6.427   1.406   4.509
 4034SOL    HW113001   6.441   1.355   4.593
 4034SOL    HW213002   6.512   1.409   4.456
 4035SOL     OW13003   0.462   4.149   6.651
 4035SOL    HW113004   0.559   4.123   6.644
 4035SOL    HW213005   0.454   4.234   6.702
 4036SOL     OW13006   6.231   6.375   2.818
 4036SOL    HW113007   6.201   6.352   2.725
 4036SOL    HW213008   6.218   6.296   2.878
 4037SOL     OW13009   1.009   3.561   6.415
 4037SOL    HW113010   1.098   3.601   6.432
 4037SOL    HW213011   1.004   3.470   6.458
 4038SOL     OW13012   5.422   4.526   3.307
 4038SOL    HW113013   5.323   4.516   3.311
 4038SOL    HW213014   5.455   4.568   3.391
 4039SOL     OW13015   5.548   6.437   0.379
 4039SOL    HW113016   5.645   6.445   0.399
 4039SOL    HW213017   5.508   6.365   0.435
 4040SOL     OW13018   3.080   6.918   1.290
 4040SOL    HW113019   3.066   7.014   1.317
 4040SOL    HW213020   3.147   6.876   1.351
 4041SOL     OW13021   1.327   6.371   3.605
 4041SOL    HW113022   1.231   6.388   3.628
 4041SOL    HW213023   1.386   6.420   3.669
 4042SOL     OW13024   5.912   5.492   1.582
 4042SOL    HW113025   5.874   5.400   1.592
 4042SOL    HW213026   5.839   5.556   1.555
 4043SOL     OW13027   5.406   2.046   2.549
 4043SOL    HW113028   5.388   2.053   2.647
 4043SOL    HW213029   5.425   2.136   2.512
 4044SOL     OW13030   5.919   0.102   3.207
 4044SOL    HW113031   5.991   0.040   3.177
 4044SOL    HW213032   5.957   0.194   3.217
 4045SOL     OW13033   1.507   5.226   6.634
 4045SOL    HW113034   1.558   5.179   6.707
 4045SOL    HW213035   1.570   5.284   6.582
 4046SOL     OW13036   0.811   2.891   1.584
 4046SOL    HW113037   0.735   2.854   1.637
 4046SOL    HW213038   0.887   2.913   1.646
 4047SOL     OW13039   2.885   3.695   1.694
 4047SOL    HW113040   2.939   3.617   1.661
 4047SOL    HW213041   2.854   3.676   1.788
 4048SOL     OW13042   5.181   0.346   0.999
 4048SOL    HW113043   5.274   0.327   1.030
 4048SOL    HW213044   5.129   0.261   0.995
 4049SOL     OW13045   5.401   6.691   5.558
 4049SOL    HW113046   5.426   6.620   5.624
 4049SOL    HW213047   5.322   6.660   5.505
 4050SOL     OW13048   1.467   6.415   0.759
 4050SOL    HW113049   1.547   6.451   0.808
 4050SOL    HW213050   1.491   6.400   0.663
 4051SOL     OW13051   3.005   4.355   0.863
 4051SOL    HW113052   3.101   4.362   0.839
 4051SOL    HW213053   2.995   4.297   0.944
 4052SOL     OW13054   0.658   0.804   0.436
 4052SOL    HW113055   0.709   0.855   0.505
 4052SOL    HW213056   0.599   0.867   0.385
 4053SOL     OW13057   3.640   4.926   3.483
 4053SOL    HW113058   3.717   4.941   3.545
 4053SOL    HW213059   3.578   4.858   3.522
 4054SOL     OW13060   3.545   2.314   1.061
 4054SOL    HW113061   3.446   2.317   1.078
 4054SOL    HW213062   3.588   2.394   1.102
 4055SOL     OW13063   3.713   1.906   6.061
 4055SOL    HW113064   3.619   1.940   6.054
 4055SOL    HW213065   3.748   1.925   6.153
 4056SOL     OW13066   3.795   3.410   0.054
 4056SOL    HW113067   3.736   3.490   0.050
 4056SOL    HW213068   3.753   3.339   0.112
 4057SOL     OW13069   4.501   2.888   6.528
 4057SOL    HW113070   4.560   2.843   6.460
 4057SOL    HW213071   4.422   2.830   6.546
 4058SOL     OW13072   2.220   1.165   5.754
 4058SOL    HW113073   2.231   1.169   5.853
 4058SOL    HW213074   2.275   1.236   5.711
 4059SOL     OW13075   1.392   2.021   5.288
 4059SOL    HW113076   1.348   1.935   5.262
 4059SOL    HW213077   1.449   2.006   5.369
 4060SOL     OW13078   4.226   5.142   4.461
 4060SOL    HW113079   4.305   5.204   4.456
 4060SOL    HW213080   4.180   5.155   4.549
 4061SOL     OW13081   2.946   3.699   2.187
 4061SOL    HW113082   3.001   3.779   2.212
 4061SOL    HW213083   2.938   3.638   2.266
 4062SOL     OW13084   3.060   0.745   3.161
 4062SOL    HW113085   3.079   0.840   3.187
 4062SOL    HW213086   3.047   0.741   3.062
 4063SOL     OW13087   2.749   5.265   5.992
 4063SOL    HW113088   2.701   5.210   6.061
 4063SOL    HW213089   2.707   5.250   5.902
 4064SOL     OW13090   6.534   1.032   3.536
 4064SOL    HW113091   6.581   1.063   3.619
 4064SOL    HW213092   6.566   1.084   3.457
 4065SOL     OW13093   6.679   6.968   0.306
 4065SOL    HW113094   6.675   6.947   0.403
 4065SOL    HW213095   6.763   7.019   0.286
 4066SOL     OW13096   5.988   4.313   1.729
 4066SOL    HW113097   5.949   4.223   1.749
 4066SOL    HW213098   6.081   4.301   1.692
 4067SOL     OW13099   6.303   1.659   2.575
 4067SOL    HW113100   6.311   1.751   2.614
 4067SOL    HW213101   6.207   1.631   2.573
 4068SOL     OW13102   5.943   0.280   3.605
 4068SOL    HW113103   5.850   0.244   3.613
 4068SOL    HW213104   5.967   0.288   3.508
 4069SOL     OW13105   5.477   5.234   0.881
 4069SOL    HW113106   5.524   5.221   0.968
 4069SOL    HW213107   5.545   5.241   0.808
 4070SOL     OW13108   1.923   3.476   3.917
 4070SOL    HW113109   1.926   3.561   3.864
 4070SOL    HW213110   1.877   3.493   4.004
 4071SOL     OW13111   1.133   0.101   3.952
 4071SOL    HW113112   1.163   0.164   3.880
 4071SOL    HW213113   1.213   0.065   3.999
 4072SOL     OW13114   1.569   6.999   4.920
 4072SOL    HW113115   1.609   6.967   4.834
 4072SOL    HW213116   1.639   6.996   4.991
 4073SOL     OW13117   2.362   5.963   0.144
 4073SOL    HW113118   2.454   5.974   0.107
 4073SOL    HW213119   2.310   5.900   0.087
 4074SOL     OW13120   1.389   2.725   0.755
 4074SOL    HW113121   1.472   2.780   0.744
 4074SOL    HW213122   1.405   2.655   0.825
 4075SOL     OW13123   4.963   1.779   3.280
 4075SOL    HW113124   5.012   1.849   3.331
 4075SOL    HW213125   4.984   1.789   3.182
 4076SOL     OW13126   1.867   3.647   4.400
 4076SOL    HW113127   1.892   3.732   4.353
 4076SOL    HW213128   1.938   3.578   4.386
 4077SOL     OW13129   3.694   1.050   1.055
 4077SOL    HW113130   3.653   0.959   1.066
 4077SOL    HW213131   3.689   1.099   1.142
 4078SOL     OW13132   6.153   3.821   1.256
 4078SOL    HW113133   6.086   3.880   1.211
 4078SOL    HW213134   6.202   3.874   1.325
 4079SOL     OW13135   0.438   0.819   3.785
 4079SOL    HW113136   0.363   0.767   3.827
 4079SOL    HW213137   0.401   0.891   3.728
 4080SOL     OW13138   3.425   3.653   1.901
 4080SOL    HW113139   3.379   3.576   1.855
 4080SOL    HW213140   3.457   3.718   1.832
 4081SOL     OW13141   1.925   1.992   5.627
 4081SOL    HW113142   1.840   2.031   5.662
 4081SOL    HW213143   1.999   2.011   5.691
 4082SOL     OW13144   1.293   2.838   4.664
 4082SOL    HW113145   1.365   2.770   4.651
 4082SOL    HW213146   1.211   2.810   4.614
 4083SOL     OW13147   5.338   5.036   2.909
 4083SOL    HW113148   5.323   4.965   2.840
 4083SOL    HW213149   5.399   5.106   2.873
 4084SOL     OW13150   4.412   1.001   3.652
 4084SOL    HW113151   4.345   0.977   3.581
 4084SOL    HW213152   4.499   1.023   3.609
 4085SOL     OW13153   2.980   5.091   1.920
 4085SOL    HW113154   2.883   5.117   1.915
 4085SOL    HW213155   3.030   5.138   1.848
 4086SOL     OW13156   6.274   5.376   6.079
 4086SOL    HW113157   6.295   5.292   6.029
 4086SOL    HW213158   6.353   5.405   6.132
 4087SOL     OW13159   2.857   0.141   2.438
 4087SOL    HW113160   2.802   0.069   2.395
 4087SOL    HW213161   2.934   0.100   2.487
 4088SOL     OW13162   0.518   1.600   5.626
 4088SOL    HW113163   0.534   1.688   5.672
 4088SOL    HW213164   0.606   1.556   5.609
 4089SOL     OW13165   0.296   6.907   3.939
 4089SOL    HW113166   0.208   6.888   3.896
 4089SOL    HW213167   0.302   7.004   3.962
 4090SOL     OW13168   2.950   0.471   5.771
 4090SOL    HW113169   2.897   0.522   5.704
 4090SOL    HW213170   2.950   0.374   5.747
 4091SOL     OW13171   2.128   5.585   1.471
 4091SOL    HW113172   2.054   5.556   1.410
 4091SOL    HW213173   2.170   5.505   1.513
 4092SOL     OW13174   4.889   3.285   3.807
 4092SOL    HW113175   4.979   3.326   3.792
 4092SOL    HW213176   4.819   3.356   3.806
 4093SOL     OW13177   4.139   5.320   2.847
 4093SOL    HW113178   4.119   5.415   2.871
 4093SOL    HW213179   4.088   5.259   2.908
 4094SOL     OW13180   6.801   5.732   6.785
 4094SOL    HW113181   6.804   5.766   6.691
 4094SOL    HW213182   6.886   5.683   6.806
 4095SOL     OW13183   0.415   5.085   6.883
 4095SOL    HW113184   0.515   5.092   6.889
 4095SOL    HW213185   0.381   5.151   6.816
 4096SOL     OW13186   1.494   1.782   6.512
 4096SOL    HW113187   1.449   1.694   6.502
 4096SOL    HW213188   1.468   1.823   6.600
 4097SOL     OW13189   6.946   4.616   4.749
 4097SOL    HW113190   6.955   4.571   4.839
 4097SOL    HW213191   0.003   4.665   4.728
 4098SOL     OW13192   2.124   4.754   3.187
 4098SOL    HW113193   2.025   4.768   3.188
 4098SOL    HW213194   2.154   4.736   3.093
 4099SOL     OW13195   4.489   4.688   6.172
 4099SOL    HW113196   4.555   4.717   6.241
 4099SOL    HW213197   4.465   4.766   6.114
 4100SOL     OW13198   1.191   0.231   3.715
 4100SOL    HW113199   1.149   0.215   3.625
 4100SOL    HW213200   1.146   0.308   3.760
 4101SOL     OW13201   6.240   0.294   0.629
 4101SOL    HW113202   6.174   0.328   0.696
 4101SOL    HW213203   6.280   0.372   0.580
 4102SOL     OW13204   1.440   0.837   0.017
 4102SOL    HW113205   1.532   0.798   0.021
 4102SOL    HW213206   1.447   0.937   0.015
 4103SOL     OW13207   1.509   6.642   2.350
 4103SOL    HW113208   1.449   6.562   2.352
 4103SOL    HW213209   1.493   6.699   2.431
 4104SOL     OW13210   0.479   5.895   4.228
 4104SOL    HW113211   0.564   5.856   4.193
 4104SOL    HW213212   0.465   5.986   4.189
 4105SOL     OW13213   4.803   1.184   1.077
 4105SOL    HW113214   4.779   1.137   1.162
 4105SOL    HW213215   4.821   1.117   1.005
 4106SOL     OW13216   7.001   2.432   3.899
 4106SOL    HW113217   6.919   2.474   3.936
 4106SOL    HW213218   6.977   2.371   3.824
 4107SOL     OW13219   0.147   6.607   6.502
 4107SOL    HW113220   0.123   6.699   6.533
 4107SOL    HW213221   0.107   6.539   6.564
 4108SOL     OW13222   6.405   5.310   3.897
 4108SOL    HW113223   6.419   5.346   3.990
 4108SOL    HW213224   6.323   5.253   3.896
 4109SOL     OW13225   6.052   6.611   2.877
 4109SOL    HW113226   6.152   6.617   2.877
 4109SOL    HW213227   6.024   6.518   2.856
 4110SOL     OW13228   4.475   4.093   0.173
 4110SOL    HW113229   4.375   4.097   0.172
 4110SOL    HW213230   4.513   4.179   0.139
 4111SOL     OW13231   6.467   4.076   3.946
 4111SOL    HW113232   6.559   4.114   3.937
 4111SOL    HW213233   6.455   4.037   4.037
 4112SOL     OW13234   4.886   6.698   5.583
 4112SOL    HW113235   4.923   6.768   5.644
 4112SOL    HW213236   4.819   6.739   5.521
 4113SOL     OW13237   4.079   4.926   4.821
 4113SOL    HW113238   3.989   4.886   4.803
 4113SOL    HW213239   4.149   4.854   4.821
 4114SOL     OW13240   0.493   1.734   2.061
 4114SOL    HW113241   0.472   1.799   1.988
 4114SOL    HW213242   0.554   1.663   2.027
 4115SOL     OW13243   3.849   4.906   4.177
 4115SOL    HW113244   3.797   4.966   4.239
 4115SOL    HW213245   3.814   4.918   4.084
 4116SOL     OW13246   5.424   2.526   3.508
 4116SOL    HW113247   5.420   2.596   3.437
 4116SOL    HW213248   5.404   2.567   3.597
 4117SOL     OW13249   1.241   2.339   3.023
 4117SOL    HW113250   1.297   2.350   2.941
 4117SOL    HW213251   1.239   2.242   3.048
 4118SOL     OW13252   7.014   6.478   6.138
 4118SOL    HW113253   0.001   6.573   6.167
 4118SOL    HW213254   0.005   6.471   6.040
 4119SOL     OW13255   2.115   1.521   3.636
 4119SOL    HW113256   2.166   1.467   3.702
 4119SOL    HW213257   2.030   1.474   3.612
 4120SOL     OW13258   1.910   1.247   6.452
 4120SOL    HW113259   1.853   1.182   6.502
 4120SOL    HW213260   2.004   1.243   6.486
 4121SOL     OW13261   6.782   6.741   1.562
 4121SOL    HW113262   6.837   6.662   1.534
 4121SOL    HW213263   6.784   6.810   1.489
 4122SOL     OW13264   6.484   4.908   3.967
 4122SOL    HW113265   6.521   4.971   3.898
 4122SOL    HW213266   6.557   4.883   4.031
 4123SOL     OW13267   3.795   4.872   2.404
 4123SOL    HW113268   3.838   4.903   2.489
 4123SOL    HW213269   3.863   4.828   2.346
 4124SOL     OW13270   6.888   5.673   0.254
 4124SOL    HW113271   6.913   5.761   0.294
 4124SOL    HW213272   6.826   5.687   0.176
 4125SOL     OW13273   5.530   1.684   2.109
 4125SOL    HW113274   5.622   1.719   2.094
 4125SOL    HW213275   5.527   1.586   2.089
 4126SOL     OW13276   1.547   3.617   2.374
 4126SOL    HW113277   1.555   3.540   2.437
 4126SOL    HW213278   1.454   3.621   2.337
 4127SOL     OW13279   3.847   1.823   3.902
 4127SOL    HW113280   3.854   1.917   3.935
 4127SOL    HW213281   3.853   1.823   3.802
 4128SOL     OW13282   6.957   3.344   0.772
 4128SOL    HW113283   7.009   3.425   0.798
 4128SOL    HW213284   6.961   3.277   0.845
 4129SOL     OW13285   2.363   2.513   0.398
 4129SOL    HW113286   2.385   2.607   0.424
 4129SOL    HW213287   2.320   2.512   0.308
 4130SOL     OW13288   5.331   2.902   1.289
 4130SOL    HW113289   5.370   2.810   1.279
 4130SOL    HW213290   5.324   2.945   1.199
 4131SOL     OW13291   4.603   0.589   2.702
 4131SOL    HW113292   4.529   0.646   2.738
 4131SOL    HW213293   4.609   0.504   2.754
 4132SOL     OW13294   6.905   4.478   3.908
 4132SOL    HW113295   7.003   4.495   3.913
 4132SOL    HW213296   6.887   4.401   3.847
 4133SOL     OW13297   5.695   0.139   2.196
 4133SOL    HW113298   5.602   0.138   2.232
 4133SOL    HW213299   5.750   0.206   2.247
 4134SOL     OW13300   2.038   3.171   0.966
 4134SOL    HW113301   1.970   3.178   0.892
 4134SOL    HW213302   2.116   3.118   0.934
 4135SOL     OW13303   0.213   1.517   2.395
 4135SOL    HW113304   0.218   1.585   2.322
 4135SOL    HW213305   0.272   1.439   2.372
 4136SOL     OW13306   1.416   4.653   1.989
 4136SOL    HW113307   1.407   4.670   2.087
 4136SOL    HW213308   1.512   4.637   1.966
 4137SOL     OW13309   1.940   2.437   0.065
 4137SOL    HW113310   2.017   2.496   0.090
 4137SOL    HW213311   1.923   2.372   0.139
 4138SOL     OW13312   4.764   6.555   0.732
 4138SOL    HW113313   4.823   6.482   0.767
 4138SOL    HW213314   4.820   6.634   0.709
 4139SOL     OW13315   2.082   2.694   2.748
 4139SOL    HW113316   2.115   2.700   2.653
 4139SOL    HW213317   1.992   2.736   2.754
 4140SOL     OW13318   2.614   2.421   5.452
 4140SOL    HW113319   2.604   2.437   5.551
 4140SOL    HW213320   2.654   2.331   5.437
 4141SOL     OW13321   4.858   6.789   6.486
 4141SOL    HW113322   4.782   6.803   6.423
 4141SOL    HW213323   4.901   6.701   6.467
 4142SOL     OW13324   6.930   4.417   3.171
 4142SOL    HW113325   6.853   4.365   3.208
 4142SOL    HW213326   6.945   4.391   3.075
 4143SOL     OW13327   5.875   3.099   0.417
 4143SOL    HW113328   5.810   3.024   0.423
 4143SOL    HW213329   5.964   3.064   0.388
 4144SOL     OW13330   5.783   2.114   0.800
 4144SOL    HW113331   5.847   2.191   0.807
 4144SOL    HW213332   5.706   2.128   0.863
 4145SOL     OW13333   0.210   7.014   1.765
 4145SOL    HW113334   0.299   0.033   1.766
 4145SOL    HW213335   0.224   6.915   1.761
 4146SOL     OW13336   5.278   6.565   3.314
 4146SOL    HW113337   5.278   6.609   3.404
 4146SOL    HW213338   5.188   6.526   3.296
 4147SOL     OW13339   5.023   4.111   5.788
 4147SOL    HW113340   5.018   4.196   5.735
 4147SOL    HW213341   4.974   4.122   5.874
 4148SOL     OW13342   3.095   1.121   6.031
 4148SOL    HW113343   3.136   1.135   6.121
 4148SOL    HW213344   3.071   1.025   6.021
 4149SOL     OW13345   2.045   2.827   0.281
 4149SOL    HW113346   2.062   2.903   0.218
 4149SOL    HW213347   2.098   2.747   0.253
 4150SOL     OW13348   6.036   2.268   6.076
 4150SOL    HW113349   6.096   2.325   6.132
 4150SOL    HW213350   5.960   2.324   6.041
 4151SOL     OW13351   2.461   6.680   4.352
 4151SOL    HW113352   2.392   6.644   4.416
 4151SOL    HW213353   2.499   6.605   4.299
 4152SOL     OW13354   2.961   5.068   1.155
 4152SOL    HW113355   2.879   5.068   1.096
 4152SOL    HW213356   2.956   4.990   1.217
 4153SOL     OW13357   6.650   4.891   1.354
 4153SOL    HW113358   6.743   4.929   1.360
 4153SOL    HW213359   6.647   4.804   1.403
 4154SOL     OW13360   1.279   6.211   4.469
 4154SOL    HW113361   1.305   6.115   4.483
 4154SOL    HW213362   1.209   6.236   4.536
 4155SOL     OW13363   0.682   2.196   1.394
 4155SOL    HW113364   0.750   2.165   1.328
 4155SOL    HW213365   0.617   2.257   1.350
 4156SOL     OW13366   6.634   4.993   5.257
 4156SOL    HW113367   6.720   4.981   5.208
 4156SOL    HW213368   6.574   5.054   5.204
 4157SOL     OW13369   6.800   6.295   2.119
 4157SOL    HW113370   6.792   6.340   2.208
 4157SOL    HW213371   6.825   6.199   2.132
 4158SOL     OW13372   1.250   2.902   2.341
 4158SOL    HW113373   1.336   2.852   2.348
 4158SOL    HW213374   1.174   2.842   2.363
 4159SOL     OW13375   3.015   1.333   3.898
 4159SOL    HW113376   2.933   1.279   3.878
 4159SOL    HW213377   3.007   1.374   3.988
 4160SOL     OW13378   6.476   0.193   6.445
 4160SOL    HW113379   6.451   0.134   6.368
 4160SOL    HW213380   6.513   0.138   6.520
 4161SOL     OW13381   3.039   2.414   1.352
 4161SOL    HW113382   3.110   2.484   1.345
 4161SOL    HW213383   3.077   2.326   1.325
 4162SOL     OW13384   6.067   6.017   1.587
 4162SOL    HW113385   5.998   6.085   1.610
 4162SOL    HW213386   6.156   6.061   1.577
 4163SOL     OW13387   3.589   6.688   1.265
 4163SOL    HW113388   3.565   6.618   1.198
 4163SOL    HW213389   3.688   6.690   1.277
 4164SOL     OW13390   6.513   6.930   4.911
 4164SOL    HW113391   6.539   6.984   4.992
 4164SOL    HW213392   6.593   6.880   4.878
 4165SOL     OW13393   4.953   1.273   5.504
 4165SOL    HW113394   4.945   1.327   5.588
 4165SOL    HW213395   4.999   1.326   5.434
 4166SOL     OW13396   6.128   1.008   2.164
 4166SOL    HW113397   6.056   1.043   2.224
 4166SOL    HW213398   6.170   0.928   2.206
 4167SOL     OW13399   4.145   5.181   5.563
 4167SOL    HW113400   4.206   5.156   5.638
 4167SOL    HW213401   4.050   5.175   5.594
 4168SOL     OW13402   5.116   4.432   6.922
 4168SOL    HW113403   5.105   4.333   6.909
 4168SOL    HW213404   5.097   4.479   6.836
 4169SOL     OW13405   4.882   3.876   5.040
 4169SOL    HW113406   4.863   3.779   5.026
 4169SOL    HW213407   4.897   3.921   4.952
 4170SOL     OW13408   6.100   3.643   4.659
 4170SOL    HW113409   6.043   3.722   4.682
 4170SOL    HW213410   6.054   3.588   4.589
 4171SOL     OW13411   0.938   3.607   0.815
 4171SOL    HW113412   0.863   3.623   0.751
 4171SOL    HW213413   1.023   3.592   0.764
 4172SOL     OW13414   2.673   4.214   0.771
 4172SOL    HW113415   2.624   4.288   0.818
 4172SOL    HW213416   2.606   4.152   0.730
 4173SOL     OW13417   4.842   2.945   4.900
 4173SOL    HW113418   4.780   2.905   4.833
 4173SOL    HW213419   4.935   2.946   4.863
 4174SOL     OW13420   4.527   0.524   4.305
 4174SOL    HW113421   4.515   0.485   4.397
 4174SOL    HW213422   4.606   0.586   4.305
 4175SOL     OW13423   1.928   4.741   6.471
 4175SOL    HW113424   1.899   4.673   6.538
 4175SOL    HW213425   2.028   4.747   6.471
 4176SOL     OW13426   5.013   6.546   6.422
 4176SOL    HW113427   5.006   6.499   6.335
 4176SOL    HW213428   5.100   6.596   6.427
 4177SOL     OW13429   4.454   4.594   3.668
 4177SOL    HW113430   4.421   4.644   3.749
 4177SOL    HW213431   4.440   4.649   3.586
 4178SOL     OW13432   3.644   5.645   2.162
 4178SOL    HW113433   3.576   5.612   2.228
 4178SOL    HW213434   3.718   5.579   2.156
 4179SOL     OW13435   4.934   3.292   4.453
 4179SOL    HW113436   4.904   3.328   4.542
 4179SOL    HW213437   4.944   3.368   4.388
 4180SOL     OW13438   5.177   3.499   7.010
 4180SOL    HW113439   5.224   3.450   0.058
 4180SOL    HW213440   5.092   3.451   6.987
 4181SOL     OW13441   5.090   0.055   5.535
 4181SOL    HW113442   5.153   0.032   5.460
 4181SOL    HW213443   5.068   6.999   5.586
 4182SOL     OW13444   7.015   6.422   4.001
 4182SOL    HW113445   6.971   6.505   3.966
 4182SOL    HW213446   0.088   6.435   4.002
 4183SOL     OW13447   3.070   1.562   1.916
 4183SOL    HW113448   3.142   1.531   1.977
 4183SOL    HW213449   3.003   1.489   1.903
 4184SOL     OW13450   3.122   5.788   3.552
 4184SOL    HW113451   3.092   5.827   3.639
 4184SOL    HW213452   3.050   5.801   3.484
 4185SOL     OW13453   6.340   3.715   3.470
 4185SOL    HW113454   6.400   3.793   3.452
 4185SOL    HW213455   6.245   3.747   3.477
 4186SOL     OW13456   1.434   5.991   0.187
 4186SOL    HW113457   1.471   5.907   0.147
 4186SOL    HW213458   1.448   6.067   0.124
 4187SOL     OW13459   1.875   3.821   6.883
 4187SOL    HW113460   1.777   3.841   6.883
 4187SOL    HW213461   1.926   3.906   6.897
 4188SOL     OW13462   4.721   0.265   6.775
 4188SOL    HW113463   4.706   0.186   6.715
 4188SOL    HW213464   4.808   0.255   6.823
 4189SOL     OW13465   4.604   5.780   3.086
 4189SOL    HW113466   4.596   5.877   3.065
 4189SOL    HW213467   4.698   5.751   3.074
 4190SOL     OW13468   0.384   0.156   1.048
 4190SOL    HW113469   0.359   0.060   1.063
 4190SOL    HW213470   0.366   0.180   0.952
 4191SOL     OW13471   4.356   4.411   5.949
 4191SOL    HW113472   4.291   4.380   6.018
 4191SOL    HW213473   4.442   4.438   5.993
 4192SOL     OW13474   1.605   2.377   2.137
 4192SOL    HW113475   1.664   2.383   2.057
 4192SOL    HW213476   1.510   2.394   2.109
 4193SOL     OW13477   6.450   0.679   0.967
 4193SOL    HW113478   6.383   0.717   1.031
 4193SOL    HW213479   6.411   0.677   0.875
 4194SOL     OW13480   4.487   0.988   5.493
 4194SOL    HW113481   4.586   0.993   5.500
 4194SOL    HW213482   4.457   0.893   5.496
 4195SOL     OW13483   4.648   5.897   1.798
 4195SOL    HW113484   4.611   5.958   1.728
 4195SOL    HW213485   4.744   5.922   1.816
 4196SOL     OW13486   6.862   2.147   3.248
 4196SOL    HW113487   6.923   2.203   3.305
 4196SOL    HW213488   6.894   2.150   3.153
 4197SOL     OW13489   3.592   6.581   6.305
 4197SOL    HW113490   3.570   6.617   6.214
 4197SOL    HW213491   3.508   6.567   6.357
 4198SOL     OW13492   6.801   0.863   2.274
 4198SOL    HW113493   6.847   0.851   2.362
 4198SOL    HW213494   6.775   0.958   2.262
 4199SOL     OW13495   1.279   4.243   6.283
 4199SOL    HW113496   1.277   4.342   6.288
 4199SOL    HW213497   1.368   4.213   6.248
 4200SOL     OW13498   4.679   0.707   4.968
 4200SOL    HW113499   4.744   0.674   4.899
 4200SOL    HW213500   4.608   0.761   4.923
 4201SOL     OW13501   5.683   0.262   3.633
 4201SOL    HW113502   5.602   0.227   3.680
 4201SOL    HW213503   5.660   0.346   3.585
 4202SOL     OW13504   4.054   5.784   0.340
 4202SOL    HW113505   4.115   5.821   0.410
 4202SOL    HW213506   3.961   5.777   0.377
 4203SOL     OW13507   5.855   5.443   0.075
 4203SOL    HW113508   5.757   5.457   0.067
 4203SOL    HW213509   5.901   5.479   7.021
 4204SOL     OW13510   3.237   3.743   5.698
 4204SOL    HW113511   3.279   3.657   5.727
 4204SOL    HW213512   3.138   3.730   5.691
 4205SOL     OW13513   3.738   5.525   5.236
 4205SOL    HW113514   3.805   5.472   5.289
 4205SOL    HW213515   3.695   5.465   5.168
 4206SOL     OW13516   1.915   2.088   4.927
 4206SOL    HW113517   1.872   2.078   4.838
 4206SOL    HW213518   1.914   2.001   4.975
 4207SOL     OW13519   2.065   2.323   1.757
 4207SOL    HW113520   2.024   2.237   1.726
 4207SOL    HW213521   2.065   2.389   1.682
 4208SOL     OW13522   1.861   3.914   4.891
 4208SOL    HW113523   1.932   3.898   4.960
 4208SOL    HW213524   1.902   3.908   4.800
 4209SOL     OW13525   0.293   6.062   2.826
 4209SOL    HW113526   0.306   6.030   2.920
 4209SOL    HW213527   0.210   6.117   2.821
 4210SOL     OW13528   4.088   3.403   4.786
 4210SOL    HW113529   4.047   3.317   4.817
 4210SOL    HW213530   4.160   3.431   4.850
 4211SOL     OW13531   3.687   2.116   5.335
 4211SOL    HW113532   3.767   2.172   5.311
 4211SOL    HW213533   3.607   2.175   5.346
 4212SOL     OW13534   6.779   1.617   3.469
 4212SOL    HW113535   6.733   1.697   3.506
 4212SOL    HW213536   6.852   1.589   3.531
 4213SOL     OW13537   3.090   1.007   2.876
 4213SOL    HW113538   3.002   1.025   2.920
 4213SOL    HW213539   3.109   0.909   2.879
 4214SOL     OW13540   1.038   4.984   4.305
 4214SOL    HW113541   1.100   5.063   4.312
 4214SOL    HW213542   0.999   4.981   4.213
 4215SOL     OW13543   4.803   6.562   5.067
 4215SOL    HW113544   4.854   6.515   4.995
 4215SOL    HW213545   4.792   6.502   5.146
 4216SOL     OW13546   2.286   0.056   2.629
 4216SOL    HW113547   2.202   0.096   2.664
 4216SOL    HW213548   2.364   0.093   2.679
 4217SOL     OW13549   1.232   0.499   2.076
 4217SOL    HW113550   1.311   0.508   2.136
 4217SOL    HW213551   1.209   0.402   2.067
 4218SOL     OW13552   3.330   1.549   1.176
 4218SOL    HW113553   3.232   1.533   1.174
 4218SOL    HW213554   3.356   1.593   1.262
 4219SOL     OW13555   4.147   6.662   4.340
 4219SOL    HW113556   4.089   6.604   4.283
 4219SOL    HW213557   4.092   6.706   4.411
 4220SOL     OW13558   4.630   2.160   1.621
 4220SOL    HW113559   4.613   2.223   1.545
 4220SOL    HW213560   4.608   2.067   1.593
 4221SOL     OW13561   6.553   5.569   6.460
 4221SOL    HW113562   6.475   5.609   6.413
 4221SOL    HW213563   6.545   5.585   6.559
 4222SOL     OW13564   5.281   1.859   3.692
 4222SOL    HW113565   5.301   1.953   3.720
 4222SOL    HW213566   5.342   1.833   3.617
 4223SOL     OW13567   3.956   4.232   1.647
 4223SOL    HW113568   4.054   4.248   1.638
 4223SOL    HW213569   3.914   4.308   1.697
 4224SOL     OW13570   5.035   4.198   4.839
 4224SOL    HW113571   5.082   4.123   4.887
 4224SOL    HW213572   5.053   4.284   4.888
 4225SOL     OW13573   0.944   2.140   5.211
 4225SOL    HW113574   1.002   2.219   5.192
 4225SOL    HW213575   0.848   2.169   5.213
 4226SOL     OW13576   0.920   5.597   4.653
 4226SOL    HW113577   0.998   5.541   4.681
 4226SOL    HW213578   0.862   5.544   4.592
 4227SOL     OW13579   5.097   5.761   1.974
 4227SOL    HW113580   5.136   5.846   2.011
 4227SOL    HW213581   5.164   5.718   1.914
 4228SOL     OW13582   1.072   5.834   4.529
 4228SOL    HW113583   1.033   5.754   4.575
 4228SOL    HW213584   1.028   5.917   4.563
 4229SOL     OW13585   5.675   5.426   6.264
 4229SOL    HW113586   5.635   5.376   6.187
 4229SOL    HW213587   5.761   5.384   6.290
 4230SOL     OW13588   1.704   0.309   2.608
 4230SOL    HW113589   1.770   0.234   2.613
 4230SOL    HW213590   1.620   0.276   2.566
 4231SOL     OW13591   5.469   0.913   5.467
 4231SOL    HW113592   5.383   0.962   5.483
 4231SOL    HW213593   5.450   0.815   5.462
 4232SOL     OW13594   1.939   5.328   3.695
 4232SOL    HW113595   1.995   5.352   3.615
 4232SOL    HW213596   1.975   5.245   3.737
 4233SOL     OW13597   5.939   6.372   3.779
 4233SOL    HW113598   5.870   6.410   3.841
 4233SOL    HW213599   5.988   6.447   3.734
 4234SOL     OW13600   2.148   5.453   5.476
 4234SOL    HW113601   2.171   5.360   5.505
 4234SOL    HW213602   2.232   5.506   5.465
 4235SOL     OW13603   6.526   4.593   5.564
 4235SOL    HW113604   6.458   4.635   5.503
 4235SOL    HW213605   6.558   4.508   5.522
 4236SOL     OW13606   0.516   5.233   2.420
 4236SOL    HW113607   0.499   5.278   2.333
 4236SOL    HW213608   0.585   5.284   2.472
 4237SOL     OW13609   6.517   3.833   4.093
 4237SOL    HW113610   6.603   3.852   4.140
 4237SOL    HW213611   6.535   3.782   4.009
 4238SOL     OW13612   1.650   0.858   2.934
 4238SOL    HW113613   1.731   0.910   2.958
 4238SOL    HW213614   1.580   0.871   3.004
 4239SOL     OW13615   4.140   0.983   3.063
 4239SOL    HW113616   4.223   1.018   3.020
 4239SOL    HW213617   4.061   1.035   3.030
 4240SOL     OW13618   1.423   5.018   0.482
 4240SOL    HW113619   1.390   5.112   0.485
 4240SOL    HW213620   1.445   4.993   0.388
 4241SOL     OW13621   0.054   2.084   0.679
 4241SOL    HW113622   6.990   2.049   0.657
 4241SOL    HW213623   0.076   2.063   0.775
 4242SOL     OW13624   2.602   2.091   4.276
 4242SOL    HW113625   2.512   2.094   4.319
 4242SOL    HW213626   2.660   2.163   4.314
 4243SOL     OW13627   5.060   0.799   2.797
 4243SOL    HW113628   5.003   0.880   2.782
 4243SOL    HW213629   5.001   0.718   2.803
 4244SOL     OW13630   3.809   3.619   2.094
 4244SOL    HW113631   3.716   3.639   2.126
 4244SOL    HW213632   3.805   3.557   2.016
 4245SOL     OW13633   7.016   1.834   5.911
 4245SOL    HW113634   6.928   1.858   5.869
 4245SOL    HW213635   0.064   1.874   5.858
 4246SOL     OW13636   6.533   3.903   3.316
 4246SOL    HW113637   6.499   3.969   3.249
 4246SOL    HW213638   6.544   3.814   3.273
 4247SOL     OW13639   6.887   6.079   4.922
 4247SOL    HW113640   6.973   6.062   4.873
 4247SOL    HW213641   6.896   6.160   4.979
 4248SOL     OW13642   1.525   2.491   5.565
 4248SOL    HW113643   1.571   2.512   5.479
 4248SOL    HW213644   1.473   2.406   5.555
 4249SOL     OW13645   6.675   3.018   5.451
 4249SOL    HW113646   6.681   3.104   5.401
 4249SOL    HW213647   6.721   3.027   5.539
 4250SOL     OW13648   6.760   4.976   3.479
 4250SOL    HW113649   6.786   4.880   3.475
 4250SOL    HW213650   6.841   5.033   3.468
 4251SOL     OW13651   5.704   4.100   0.497
 4251SOL    HW113652   5.673   4.026   0.556
 4251SOL    HW213653   5.799   4.083   0.469
 4252SOL     OW13654   6.529   5.774   4.988
 4252SOL    HW113655   6.590   5.699   5.016
 4252SOL    HW213656   6.579   5.860   4.992
 4253SOL     OW13657   4.527   0.948   1.581
 4253SOL    HW113658   4.499   1.042   1.562
 4253SOL    HW213659   4.508   0.927   1.677
 4254SOL     OW13660   1.701   3.188   1.445
 4254SOL    HW113661   1.671   3.258   1.379
 4254SOL    HW213662   1.690   3.098   1.404
 4255SOL     OW13663   5.957   2.462   3.679
 4255SOL    HW113664   6.050   2.461   3.715
 4255SOL    HW213665   5.911   2.376   3.701
 4256SOL     OW13666   1.336   6.774   1.464
 4256SOL    HW113667   1.281   6.832   1.524
 4256SOL    HW213668   1.407   6.728   1.517
 4257SOL     OW13669   3.263   1.634   5.268
 4257SOL    HW113670   3.245   1.539   5.291
 4257SOL    HW213671   3.304   1.639   5.176
 4258SOL     OW13672   5.806   6.696   2.147
 4258SOL    HW113673   5.788   6.782   2.195
 4258SOL    HW213674   5.855   6.634   2.208
 4259SOL     OW13675   2.430   1.436   6.806
 4259SOL    HW113676   2.407   1.414   6.901
 4259SOL    HW213677   2.372   1.511   6.775
 4260SOL     OW13678   4.175   5.823   3.544
 4260SOL    HW113679   4.097   5.886   3.547
 4260SOL    HW213680   4.255   5.872   3.508
 4261SOL     OW13681   2.526   6.626   1.714
 4261SOL    HW113682   2.463   6.698   1.744
 4261SOL    HW213683   2.485   6.576   1.638
 4262SOL     OW13684   1.784   5.224   5.846
 4262SOL    HW113685   1.838   5.239   5.763
 4262SOL    HW213686   1.715   5.296   5.854
 4263SOL     OW13687   2.395   6.274   4.695
 4263SOL    HW113688   2.347   6.204   4.748
 4263SOL    HW213689   2.404   6.244   4.600
 4264SOL     OW13690   6.824   2.023   0.590
 4264SOL    HW113691   6.876   2.038   0.506
 4264SOL    HW213692   6.751   2.091   0.597
 4265SOL     OW13693   6.595   2.001   0.306
 4265SOL    HW113694   6.520   2.063   0.327
 4265SOL    HW213695   6.559   1.911   0.282
 4266SOL     OW13696   2.882   5.724   0.062
 4266SOL    HW113697   2.926   5.794   0.118
 4266SOL    HW213698   2.868   5.641   0.117
 4267SOL     OW13699   2.081   3.805   5.033
 4267SOL    HW113700   2.143   3.882   5.048
 4267SOL    HW213701   2.096   3.736   5.104
 4268SOL     OW13702   1.530   6.539   0.293
 4268SOL    HW113703   1.515   6.636   0.276
 4268SOL    HW213704   1.584   6.500   0.218
 4269SOL     OW13705   2.486   2.354   0.155
 4269SOL    HW113706   2.454   2.336   0.249
 4269SOL    HW213707   2.565   2.414   0.158
 4270SOL     OW13708   3.678   3.041   4.501
 4270SOL    HW113709   3.769   3.075   4.522
 4270SOL    HW213710   3.663   3.043   4.402
 4271SOL     OW13711   0.254   0.071   5.242
 4271SOL    HW113712   0.269   0.113   5.331
 4271SOL    HW213713   0.341   0.045   5.201
 4272SOL     OW13714   6.851   4.932   5.083
 4272SOL    HW113715   6.902   4.943   4.998
 4272SOL    HW213716   6.902   4.872   5.145
 4273SOL     OW13717   4.641   6.184   4.661
 4273SOL    HW113718   4.678   6.100   4.701
 4273SOL    HW213719   4.687   6.203   4.575
 4274SOL     OW13720   1.114   6.705   3.259
 4274SOL    HW113721   1.067   6.634   3.205
 4274SOL    HW213722   1.060   6.789   3.257
 4275SOL     OW13723   0.069   0.771   5.716
 4275SOL    HW113724   0.011   0.818   5.649
 4275SOL    HW213725   0.013   0.722   5.781
 4276SOL     OW13726   1.635   5.137   2.823
 4276SOL    HW113727   1.648   5.186   2.737
 4276SOL    HW213728   1.550   5.085   2.820
 4277SOL     OW13729   6.838   4.947   3.968
 4277SOL    HW113730   6.907   5.013   3.999
 4277SOL    HW213731   6.771   4.993   3.910
 4278SOL     OW13732   6.835   6.624   4.937
 4278SOL    HW113733   6.743   6.601   4.904
 4278SOL    HW213734   6.830   6.662   5.029
 4279SOL     OW13735   3.674   6.569   5.318
 4279SOL    HW113736   3.656   6.545   5.414
 4279SOL    HW213737   3.612   6.518   5.259
 4280SOL     OW13738   6.457   1.618   5.159
 4280SOL    HW113739   6.389   1.549   5.136
 4280SOL    HW213740   6.418   1.682   5.225
 4281SOL     OW13741   1.686   4.600   4.633
 4281SOL    HW113742   1.622   4.530   4.602
 4281SOL    HW213743   1.743   4.629   4.556
 4282SOL     OW13744   2.884   2.627   0.007
 4282SOL    HW113745   2.968   2.675   0.030
 4282SOL    HW213746   2.861   2.563   0.080
 4283SOL     OW13747   1.448   0.337   3.664
 4283SOL    HW113748   1.501   0.379   3.737
 4283SOL    HW213749   1.358   0.310   3.699
 4284SOL     OW13750   5.507   0.285   2.652
 4284SOL    HW113751   5.529   0.372   2.697
 4284SOL    HW213752   5.531   0.209   2.712
 4285SOL     OW13753   0.059   6.939   5.791
 4285SOL    HW113754   0.124   7.011   5.812
 4285SOL    HW213755   0.107   6.864   5.745
 4286SOL     OW13756   4.767   5.469   6.834
 4286SOL    HW113757   4.760   5.411   6.915
 4286SOL    HW213758   4.693   5.446   6.770
 4287SOL     OW13759   5.797   0.190   5.104
 4287SOL    HW113760   5.868   0.226   5.165
 4287SOL    HW213761   5.769   0.099   5.136
 4288SOL     OW13762   0.707   6.919   3.830
 4288SOL    HW113763   0.657   6.841   3.867
 4288SOL    HW213764   0.703   6.916   3.730
 4289SOL     OW13765   5.268   2.239   1.981
 4289SOL    HW113766   5.298   2.220   2.075
 4289SOL    HW213767   5.280   2.157   1.925
 4290SOL     OW13768   2.215   6.905   1.568
 4290SOL    HW113769   2.125   6.942   1.589
 4290SOL    HW213770   2.263   6.967   1.506
 4291SOL     OW13771   5.036   3.117   1.012
 4291SOL    HW113772   4.985   3.199   0.985
 4291SOL    HW213773   4.984   3.066   1.080
 4292SOL     OW13774   6.307   4.498   5.244
 4292SOL    HW113775   6.334   4.584   5.286
 4292SOL    HW213776   6.235   4.515   5.176
 4293SOL     OW13777   0.064   3.708   6.494
 4293SOL    HW113778   0.016   3.777   6.548
 4293SOL    HW213779   0.079   3.744   6.401
 4294SOL     OW13780   4.011   2.766   6.881
 4294SOL    HW113781   3.914   2.786   6.898
 4294SOL    HW213782   4.065   2.848   6.899
 4295SOL     OW13783   3.477   0.074   4.739
 4295SOL    HW113784   3.449   0.160   4.781
 4295SOL    HW213785   3.510   0.011   4.809
 4296SOL     OW13786   2.922   1.983   0.404
 4296SOL    HW113787   2.890   2.002   0.312
 4296SOL    HW213788   2.950   1.887   0.410
 4297SOL     OW13789   4.592   6.751   5.108
 4297SOL    HW113790   4.673   6.704   5.073
 4297SOL    HW213791   4.512   6.691   5.098
 4298SOL     OW13792   1.251   5.782   0.723
 4298SOL    HW113793   1.291   5.870   0.748
 4298SOL    HW213794   1.217   5.737   0.806
 4299SOL     OW13795   1.305   3.511   6.124
 4299SOL    HW113796   1.322   3.509   6.025
 4299SOL    HW213797   1.211   3.541   6.141
 4300SOL     OW13798   2.809   1.020   6.300
 4300SOL    HW113799   2.724   1.034   6.349
 4300SOL    HW213800   2.790   0.982   6.209
 4301SOL     OW13801   2.416   1.797   0.442
 4301SOL    HW113802   2.469   1.730   0.389
 4301SOL    HW213803   2.413   1.884   0.392
 4302SOL     OW13804   1.511   5.891   6.113
 4302SOL    HW113805   1.493   5.822   6.183
 4302SOL    HW213806   1.435   5.956   6.111
 4303SOL     OW13807   6.374   4.137   3.274
 4303SOL    HW113808   6.369   4.171   3.180
 4303SOL    HW213809   6.294   4.082   3.294
 4304SOL     OW13810   3.263   3.603   4.184
 4304SOL    HW113811   3.179   3.614   4.236
 4304SOL    HW213812   3.341   3.606   4.246
 4305SOL     OW13813   6.175   1.325   3.518
 4305SOL    HW113814   6.247   1.352   3.455
 4305SOL    HW213815   6.138   1.236   3.491
 4306SOL     OW13816   0.182   4.009   6.257
 4306SOL    HW113817   0.251   3.943   6.227
 4306SOL    HW213818   0.206   4.043   6.348
 4307SOL     OW13819   4.639   4.127   5.611
 4307SOL    HW113820   4.585   4.048   5.639
 4307SOL    HW213821   4.598   4.210   5.648
 4308SOL     OW13822   4.734   5.765   5.733
 4308SOL    HW113823   4.749   5.801   5.825
 4308SOL    HW213824   4.652   5.707   5.733
 4309SOL     OW13825   1.236   0.561   0.379
 4309SOL    HW113826   1.209   0.471   0.415
 4309SOL    HW213827   1.156   0.621   0.376
 4310SOL     OW13828   2.087   2.695   3.504
 4310SOL    HW113829   2.100   2.698   3.603
 4310SOL    HW213830   1.991   2.680   3.483
 4311SOL     OW13831   1.255   6.166   2.779
 4311SOL    HW113832   1.167   6.125   2.757
 4311SOL    HW213833   1.247   6.217   2.865
 4312SOL     OW13834   1.524   5.380   1.882
 4312SOL    HW113835   1.445   5.325   1.856
 4312SOL    HW213836   1.569   5.414   1.799
 4313SOL     OW13837   5.725   1.147   1.668
 4313SOL    HW113838   5.695   1.160   1.574
 4313SOL    HW213839   5.823   1.128   1.670
 4314SOL     OW13840   4.732   2.853   2.709
 4314SOL    HW113841   4.696   2.843   2.802
 4314SOL    HW213842   4.680   2.794   2.647
 4315SOL     OW13843   2.648   0.794   2.096
 4315SOL    HW113844   2.642   0.766   2.192
 4315SOL    HW213845   2.555   0.802   2.058
 4316SOL     OW13846   4.904   0.096   0.877
 4316SOL    HW113847   4.975   0.083   0.946
 4316SOL    HW213848   4.830   0.151   0.916
 4317SOL     OW13849   3.327   1.195   5.484
 4317SOL    HW113850   3.364   1.145   5.405
 4317SOL    HW213851   3.238   1.158   5.508
 4318SOL     OW13852   1.141   3.752   3.955
 4318SOL    HW113853   1.203   3.826   3.931
 4318SOL    HW213854   1.134   3.744   4.054
 4319SOL     OW13855   2.429   3.730   6.678
 4319SOL    HW113856   2.368   3.687   6.611
 4319SOL    HW213857   2.451   3.664   6.750
 4320SOL     OW13858   1.544   6.274   2.407
 4320SOL    HW113859   1.538   6.230   2.496
 4320SOL    HW213860   1.465   6.334   2.394
 4321SOL     OW13861   6.010   0.741   4.692
 4321SOL    HW113862   6.058   0.821   4.657
 4321SOL    HW213863   6.019   0.665   4.627
 4322SOL     OW13864   6.749   1.337   6.544
 4322SOL    HW113865   6.725   1.434   6.539
 4322SOL    HW213866   6.848   1.327   6.531
 4323SOL     OW13867   5.446   2.957   2.173
 4323SOL    HW113868   5.475   2.985   2.264
 4323SOL    HW213869   5.526   2.944   2.114
 4324SOL     OW13870   5.872   4.168   6.234
 4324SOL    HW113871   5.936   4.210   6.297
 4324SOL    HW213872   5.906   4.077   6.208
 4325SOL     OW13873   2.201   0.763   0.161
 4325SOL    HW113874   2.216   0.774   0.259
 4325SOL    HW213875   2.279   0.801   0.111
 4326SOL     OW13876   6.500   3.092   5.046
 4326SOL    HW113877   6.593   3.088   5.008
 4326SOL    HW213878   6.475   3.003   5.085
 4327SOL     OW13879   5.330   5.039   2.242
 4327SOL    HW113880   5.323   5.050   2.341
 4327SOL    HW213881   5.292   4.951   2.215
 4328SOL     OW13882   4.413   4.889   6.023
 4328SOL    HW113883   4.366   4.948   6.089
 4328SOL    HW213884   4.475   4.944   5.967
 4329SOL     OW13885   3.399   1.702   6.003
 4329SOL    HW113886   3.480   1.649   5.976
 4329SOL    HW213887   3.343   1.649   6.066
 4330SOL     OW13888   2.656   0.284   5.762
 4330SOL    HW113889   2.699   0.370   5.792
 4330SOL    HW213890   2.727   0.215   5.747
 4331SOL     OW13891   5.216   3.347   0.549
 4331SOL    HW113892   5.143   3.387   0.605
 4331SOL    HW213893   5.187   3.257   0.517
 4332SOL     OW13894   5.212   3.597   2.092
 4332SOL    HW113895   5.250   3.555   2.010
 4332SOL    HW213896   5.216   3.531   2.167
 4333SOL     OW13897   5.294   1.561   5.409
 4333SOL    HW113898   5.311   1.478   5.356
 4333SOL    HW213899   5.354   1.562   5.489
 4334SOL     OW13900   2.864   2.072   1.880
 4334SOL    HW113901   2.863   2.157   1.933
 4334SOL    HW213902   2.793   2.075   1.810
 4335SOL     OW13903   2.928   3.703   3.910
 4335SOL    HW113904   2.894   3.703   3.816
 4335SOL    HW213905   3.028   3.703   3.910
 4336SOL     OW13906   1.386   6.176   5.429
 4336SOL    HW113907   1.348   6.128   5.350
 4336SOL    HW213908   1.419   6.266   5.400
 4337SOL     OW13909   0.690   5.282   0.162
 4337SOL    HW113910   0.659   5.375   0.144
 4337SOL    HW213911   0.748   5.251   0.088
 4338SOL     OW13912   5.284   5.346   4.876
 4338SOL    HW113913   5.200   5.387   4.913
 4338SOL    HW213914   5.363   5.380   4.926
 4339SOL     OW13915   5.662   2.718   4.745
 4339SOL    HW113916   5.717   2.697   4.826
 4339SOL    HW213917   5.608   2.638   4.719
 4340SOL     OW13918   6.733   3.112   2.312
 4340SOL    HW113919   6.738   3.037   2.246
 4340SOL    HW213920   6.756   3.198   2.266
 4341SOL     OW13921   1.522   3.961   2.092
 4341SOL    HW113922   1.576   3.923   2.017
 4341SOL    HW213923   1.577   4.029   2.141
 4342SOL     OW13924   6.987   2.707   3.322
 4342SOL    HW113925   6.943   2.649   3.390
 4342SOL    HW213926   0.013   2.778   3.369
 4343SOL     OW13927   3.928   0.765   0.104
 4343SOL    HW113928   3.874   0.848   0.085
 4343SOL    HW213929   4.005   0.789   0.164
 4344SOL     OW13930   1.621   4.984   3.137
 4344SOL    HW113931   1.556   4.990   3.212
 4344SOL    HW213932   1.658   5.075   3.117
 4345SOL     OW13933   1.709   3.151   5.479
 4345SOL    HW113934   1.773   3.135   5.404
 4345SOL    HW213935   1.678   3.246   5.477
 4346SOL     OW13936   2.444   3.087   1.733
 4346SOL    HW113937   2.517   3.155   1.733
 4346SOL    HW213938   2.372   3.115   1.669
 4347SOL     OW13939   6.777   0.905   1.717
 4347SOL    HW113940   6.832   0.862   1.645
 4347SOL    HW213941   6.805   0.869   1.806
 4348SOL     OW13942   0.416   3.550   1.992
 4348SOL    HW113943   0.503   3.523   1.950
 4348SOL    HW213944   0.434   3.605   2.074
 4349SOL     OW13945   0.493   1.520   3.120
 4349SOL    HW113946   0.573   1.562   3.078
 4349SOL    HW213947   0.437   1.590   3.164
 4350SOL     OW13948   5.025   2.021   4.705
 4350SOL    HW113949   4.967   2.101   4.689
 4350SOL    HW213950   4.988   1.967   4.781
 4351SOL     OW13951   2.498   6.285   1.934
 4351SOL    HW113952   2.429   6.293   1.862
 4351SOL    HW213953   2.537   6.193   1.932
 4352SOL     OW13954   0.536   2.301   1.822
 4352SOL    HW113955   0.604   2.373   1.804
 4352SOL    HW213956   0.550   2.226   1.758
 4353SOL     OW13957   2.169   5.538   1.057
 4353SOL    HW113958   2.256   5.567   1.017
 4353SOL    HW213959   2.145   5.447   1.022
 4354SOL     OW13960   2.381   6.562   6.807
 4354SOL    HW113961   2.325   6.636   6.845
 4354SOL    HW213962   2.475   6.594   6.797
 4355SOL     OW13963   4.161   0.683   1.565
 4355SOL    HW113964   4.172   0.739   1.482
 4355SOL    HW213965   4.236   0.618   1.571
 4356SOL     OW13966   4.559   4.088   1.656
 4356SOL    HW113967   4.502   4.018   1.612
 4356SOL    HW213968   4.502   4.143   1.717
 4357SOL     OW13969   6.147   0.715   0.318
 4357SOL    HW113970   6.067   0.766   0.288
 4357SOL    HW213971   6.230   0.760   0.283
 4358SOL     OW13972   0.034   6.763   1.048
 4358SOL    HW113973   0.009   6.752   1.144
 4358SOL    HW213974   0.059   6.674   1.009
 4359SOL     OW13975   1.481   2.415   4.611
 4359SOL    HW113976   1.455   2.480   4.682
 4359SOL    HW213977   1.505   2.464   4.527
 4360SOL     OW13978   0.523   4.035   2.393
 4360SOL    HW113979   0.603   3.998   2.346
 4360SOL    HW213980   0.542   4.129   2.422
 4361SOL     OW13981   3.815   2.898   1.806
 4361SOL    HW113982   3.903   2.909   1.758
 4361SOL    HW213983   3.758   2.834   1.755
 4362SOL     OW13984   5.988   3.337   5.466
 4362SOL    HW113985   5.973   3.436   5.466
 4362SOL    HW213986   6.017   3.308   5.375
 4363SOL     OW13987   4.550   2.303   5.697
 4363SOL    HW113988   4.644   2.309   5.732
 4363SOL    HW213989   4.504   2.225   5.738
 4364SOL     OW13990   3.029   3.896   5.216
 4364SOL    HW113991   3.047   3.971   5.279
 4364SOL    HW213992   3.113   3.875   5.165
 4365SOL     OW13993   3.470   1.858   2.384
 4365SOL    HW113994   3.556   1.907   2.378
 4365SOL    HW213995   3.410   1.888   2.309
 4366SOL     OW13996   6.311   6.425   1.245
 4366SOL    HW113997   6.322   6.326   1.245
 4366SOL    HW213998   6.340   6.462   1.157
 4367SOL     OW13999   1.101   4.652   5.377
 4367SOL    HW114000   1.084   4.745   5.411
 4367SOL    HW214001   1.178   4.654   5.314
 4368SOL     OW14002   4.203   5.325   1.327
 4368SOL    HW114003   4.300   5.312   1.346
 4368SOL    HW214004   4.156   5.237   1.334
 4369SOL     OW14005   4.930   5.349   2.310
 4369SOL    HW114006   4.846   5.296   2.303
 4369SOL    HW214007   5.007   5.295   2.274
 4370SOL     OW14008   6.056   4.820   2.987
 4370SOL    HW114009   6.017   4.816   3.079
 4370SOL    HW214010   6.146   4.864   2.990
 4371SOL     OW14011   6.364   0.903   1.776
 4371SOL    HW114012   6.284   0.952   1.739
 4371SOL    HW214013   6.430   0.887   1.703
 4372SOL     OW14014   4.512   0.910   3.189
 4372SOL    HW114015   4.521   0.837   3.257
 4372SOL    HW214016   4.531   0.998   3.232
 4373SOL     OW14017   6.502   2.901   6.355
 4373SOL    HW114018   6.556   2.926   6.275
 4373SOL    HW214019   6.458   2.812   6.340
 4374SOL     OW14020   1.709   1.965   1.734
 4374SOL    HW114021   1.640   1.899   1.703
 4374SOL    HW214022   1.681   2.004   1.822
 4375SOL     OW14023   2.409   6.968   3.826
 4375SOL    HW114024   2.429   7.023   3.745
 4375SOL    HW214025   2.490   6.966   3.886
 4376SOL     OW14026   6.551   0.201   2.457
 4376SOL    HW114027   6.510   0.276   2.509
 4376SOL    HW214028   6.503   0.189   2.370
 4377SOL     OW14029   5.443   3.517   0.294
 4377SOL    HW114030   5.436   3.598   0.236
 4377SOL    HW214031   5.380   3.447   0.260
 4378SOL     OW14032   2.281   0.595   3.551
 4378SOL    HW114033   2.218   0.613   3.627
 4378SOL    HW214034   2.246   0.637   3.468
 4379SOL     OW14035   2.647   1.211   4.929
 4379SOL    HW114036   2.628   1.176   5.021
 4379SOL    HW214037   2.673   1.135   4.869
 4380SOL     OW14038   1.317   0.998   1.361
 4380SOL    HW114039   1.332   1.094   1.386
 4380SOL    HW214040   1.390   0.968   1.299
 4381SOL     OW14041   1.144   5.417   4.768
 4381SOL    HW114042   1.210   5.397   4.696
 4381SOL    HW214043   1.184   5.396   4.858
 4382SOL     OW14044   6.381   3.396   5.665
 4382SOL    HW114045   6.358   3.364   5.757
 4382SOL    HW214046   6.338   3.337   5.597
 4383SOL     OW14047   5.918   3.162   6.388
 4383SOL    HW114048   5.824   3.141   6.417
 4383SOL    HW214049   5.935   3.122   6.298
 4384SOL     OW14050   6.761   1.078   3.391
 4384SOL    HW114051   6.860   1.063   3.400
 4384SOL    HW214052   6.738   1.169   3.425
 4385SOL     OW14053   4.733   2.080   4.583
 4385SOL    HW114054   4.743   2.152   4.514
 4385SOL    HW214055   4.759   1.992   4.543
 4386SOL     OW14056   0.934   4.250   6.198
 4386SOL    HW114057   0.848   4.300   6.188
 4386SOL    HW214058   1.009   4.310   6.169
 4387SOL     OW14059   5.980   3.071   1.000
 4387SOL    HW114060   5.889   3.055   0.964
 4387SOL    HW214061   5.992   3.019   1.085
 4388SOL     OW14062   5.480   1.693   6.184
 4388SOL    HW114063   5.509   1.788   6.174
 4388SOL    HW214064   5.560   1.634   6.195
 4389SOL     OW14065   0.036   3.252   1.686
 4389SOL    HW114066   7.004   3.231   1.764
 4389SOL    HW214067   7.009   3.299   1.616
 4390SOL     OW14068   5.520   6.884   0.775
 4390SOL    HW114069   5.483   6.936   0.852
 4390SOL    HW214070   5.620   6.891   0.774
 4391SOL     OW14071   1.671   5.470   6.563
 4391SOL    HW114072   1.661   5.491   6.465
 4391SOL    HW214073   1.757   5.421   6.578
 4392SOL     OW14074   0.803   1.664   4.132
 4392SOL    HW114075   0.902   1.679   4.130
 4392SOL    HW214076   0.756   1.752   4.123
 4393SOL     OW14077   6.263   0.631   1.702
 4393SOL    HW114078   6.185   0.681   1.665
 4393SOL    HW214079   6.347   0.679   1.678
 4394SOL     OW14080   1.196   0.447   1.380
 4394SOL    HW114081   1.246   0.477   1.300
 4394SOL    HW214082   1.250   0.464   1.462
 4395SOL     OW14083   1.983   7.018   2.034
 4395SOL    HW114084   2.054   0.062   2.040
 4395SOL    HW214085   2.007   6.942   2.093
 4396SOL     OW14086   1.669   1.486   3.590
 4396SOL    HW114087   1.592   1.547   3.573
 4396SOL    HW214088   1.737   1.497   3.517
 4397SOL     OW14089   2.303   2.537   3.765
 4397SOL    HW114090   2.340   2.448   3.737
 4397SOL    HW214091   2.368   2.582   3.827
 4398SOL     OW14092   2.378   3.615   6.198
 4398SOL    HW114093   2.315   3.689   6.175
 4398SOL    HW214094   2.462   3.625   6.144
 4399SOL     OW14095   1.995   6.462   1.858
 4399SOL    HW114096   2.054   6.458   1.938
 4399SOL    HW214097   1.907   6.419   1.878
 4400SOL     OW14098   1.215   6.817   3.725
 4400SOL    HW114099   1.298   6.866   3.752
 4400SOL    HW214100   1.138   6.880   3.722
 4401SOL     OW14101   3.756   6.269   5.373
 4401SOL    HW114102   3.660   6.289   5.394
 4401SOL    HW214103   3.764   6.175   5.341
 4402SOL     OW14104   1.302   0.861   2.789
 4402SOL    HW114105   1.264   0.769   2.774
 4402SOL    HW214106   1.401   0.855   2.799
 4403SOL     OW14107   0.905   5.294   1.227
 4403SOL    HW114108   0.967   5.349   1.284
 4403SOL    HW214109   0.812   5.301   1.263
 4404SOL     OW14110   1.246   5.433   5.599
 4404SOL    HW114111   1.234   5.358   5.534
 4404SOL    HW214112   1.342   5.441   5.624
 4405SOL     OW14113   2.808   4.706   3.369
 4405SOL    HW114114   2.868   4.630   3.343
 4405SOL    HW214115   2.717   4.692   3.331
 4406SOL     OW14116   6.223   3.191   1.820
 4406SOL    HW114117   6.169   3.200   1.737
 4406SOL    HW214118   6.315   3.225   1.804
 4407SOL     OW14119   0.226   5.879   2.200
 4407SOL    HW114120   0.229   5.901   2.297
 4407SOL    HW214121   0.319   5.872   2.164
 4408SOL     OW14122   3.580   6.603   6.716
 4408SOL    HW114123   3.663   6.651   6.687
 4408SOL    HW214124   3.596   6.505   6.714
 4409SOL     OW14125   3.887   0.710   2.943
 4409SOL    HW114126   3.838   0.785   2.988
 4409SOL    HW214127   3.898   0.731   2.846
 4410SOL     OW14128   0.263   6.383   1.058
 4410SOL    HW114129   0.284   6.289   1.032
 4410SOL    HW214130   0.347   6.437   1.060
 4411SOL     OW14131   3.434   4.590   5.810
 4411SOL    HW114132   3.496   4.586   5.731
 4411SOL    HW214133   3.340   4.581   5.779
 4412SOL     OW14134   5.241   6.565   4.183
 4412SOL    HW114135   5.168   6.625   4.151
 4412SOL    HW214136   5.306   6.548   4.109
 4413SOL     OW14137   2.977   6.951   4.405
 4413SOL    HW114138   3.073   6.945   4.378
 4413SOL    HW214139   2.920   6.913   4.333
 4414SOL     OW14140   5.093   5.194   1.665
 4414SOL    HW114141   5.033   5.159   1.737
 4414SOL    HW214142   5.039   5.217   1.584
 4415SOL     OW14143   3.316   3.976   1.625
 4415SOL    HW114144   3.260   3.895   1.606
 4415SOL    HW214145   3.371   3.999   1.546
 4416SOL     OW14146   4.060   1.406   4.347
 4416SOL    HW114147   4.043   1.437   4.254
 4416SOL    HW214148   3.989   1.440   4.408
 4417SOL     OW14149   6.895   2.784   3.976
 4417SOL    HW114150   6.973   2.743   4.023
 4417SOL    HW214151   6.877   2.875   4.014
 4418SOL     OW14152   6.507   1.407   1.832
 4418SOL    HW114153   6.503   1.366   1.923
 4418SOL    HW214154   6.602   1.407   1.800
 4419SOL     OW14155   6.551   6.253   5.452
 4419SOL    HW114156   6.508   6.258   5.542
 4419SOL    HW214157   6.644   6.218   5.461
 4420SOL     OW14158   3.907   2.324   1.607
 4420SOL    HW114159   3.868   2.232   1.607
 4420SOL    HW214160   3.940   2.346   1.515
 4421SOL     OW14161   1.340   2.950   4.907
 4421SOL    HW114162   1.265   2.922   4.967
 4421SOL    HW214163   1.328   2.907   4.818
 4422SOL     OW14164   0.991   4.901   0.238
 4422SOL    HW114165   0.903   4.932   0.274
 4422SOL    HW214166   0.976   4.833   0.166
 4423SOL     OW14167   6.416   4.542   5.970
 4423SOL    HW114168   6.340   4.496   6.017
 4423SOL    HW214169   6.490   4.477   5.955
 4424SOL     OW14170   4.708   5.773   4.298
 4424SOL    HW114171   4.790   5.731   4.337
 4424SOL    HW214172   4.734   5.850   4.239
 4425SOL     OW14173   1.984   5.177   1.218
 4425SOL    HW114174   2.055   5.150   1.283
 4425SOL    HW214175   1.894   5.166   1.261
 4426SOL     OW14176   1.097   0.091   4.236
 4426SOL    HW114177   1.013   0.039   4.255
 4426SOL    HW214178   1.105   0.106   4.138
 4427SOL     OW14179   3.423   6.558   2.934
 4427SOL    HW114180   3.433   6.506   2.850
 4427SOL    HW214181   3.475   6.513   3.007
 4428SOL     OW14182   5.294   0.442   4.448
 4428SOL    HW114183   5.388   0.416   4.429
 4428SOL    HW214184   5.289   0.485   4.538
 4429SOL     OW14185   2.787   6.367   3.157
 4429SOL    HW114186   2.791   6.400   3.062
 4429SOL    HW214187   2.695   6.334   3.176
 4430SOL     OW14188   5.520   4.576   3.897
 4430SOL    HW114189   5.596   4.594   3.960
 4430SOL    HW214190   5.464   4.659   3.887
 4431SOL     OW14191   3.642   0.543   3.785
 4431SOL    HW114192   3.723   0.551   3.727
 4431SOL    HW214193   3.632   0.448   3.815
 4432SOL     OW14194   1.860   4.148   6.582
 4432SOL    HW114195   1.767   4.168   6.553
 4432SOL    HW214196   1.893   4.067   6.532
 4433SOL     OW14197   0.884   1.963   4.540
 4433SOL    HW114198   0.875   1.878   4.489
 4433SOL    HW214199   0.980   1.978   4.564
 4434SOL     OW14200   0.075   1.866   1.616
 4434SOL    HW114201   0.072   1.957   1.657
 4434SOL    HW214202   0.170   1.835   1.611
 4435SOL     OW14203   2.829   3.812   0.705
 4435SOL    HW114204   2.868   3.807   0.613
 4435SOL    HW214205   2.731   3.794   0.700
 4436SOL     OW14206   4.478   2.357   0.604
 4436SOL    HW114207   4.451   2.264   0.628
 4436SOL    HW214208   4.407   2.421   0.632
 4437SOL     OW14209   0.247   3.544   2.470
 4437SOL    HW114210   0.173   3.509   2.412
 4437SOL    HW214211   0.211   3.615   2.530
 4438SOL     OW14212   4.304   6.493   5.644
 4438SOL    HW114213   4.394   6.529   5.620
 4438SOL    HW214214   4.314   6.411   5.700
 4439SOL     OW14215   1.490   6.835   2.991
 4439SOL    HW114216   1.474   6.761   2.925
 4439SOL    HW214217   1.458   6.807   3.081
 4440SOL     OW14218   1.912   4.832   0.774
 4440SOL    HW114219   1.915   4.911   0.713
 4440SOL    HW214220   1.859   4.855   0.856
 4441SOL     OW14221   1.241   1.812   0.639
 4441SOL    HW114222   1.228   1.864   0.554
 4441SOL    HW214223   1.339   1.808   0.660
 4442SOL     OW14224   1.478   5.106   5.634
 4442SOL    HW114225   1.511   5.167   5.562
 4442SOL    HW214226   1.550   5.041   5.658
 4443SOL     OW14227   0.723   4.681   6.368
 4443SOL    HW114228   0.723   4.734   6.453
 4443SOL    HW214229   0.658   4.605   6.377
 4444SOL     OW14230   4.799   4.494   0.835
 4444SOL    HW114231   4.814   4.418   0.898
 4444SOL    HW214232   4.728   4.554   0.871
 4445SOL     OW14233   0.290   5.443   6.621
 4445SOL    HW114234   0.313   5.539   6.639
 4445SOL    HW214235   0.372   5.395   6.591
 4446SOL     OW14236   4.981   1.627   0.856
 4446SOL    HW114237   4.905   1.641   0.920
 4446SOL    HW214238   5.010   1.532   0.859
 4447SOL     OW14239   5.231   4.409   4.992
 4447SOL    HW114240   5.251   4.433   5.087
 4447SOL    HW214241   5.299   4.345   4.958
 4448SOL     OW14242   2.958   6.409   1.474
 4448SOL    HW114243   2.965   6.317   1.512
 4448SOL    HW214244   2.997   6.474   1.538
 4449SOL     OW14245   4.378   1.165   6.287
 4449SOL    HW114246   4.314   1.225   6.239
 4449SOL    HW214247   4.330   1.118   6.361
 4450SOL     OW14248   4.255   1.091   0.083
 4450SOL    HW114249   4.290   1.024   0.018
 4450SOL    HW214250   4.158   1.108   0.064
 4451SOL     OW14251   4.943   4.945   3.635
 4451SOL    HW114252   4.937   5.022   3.572
 4451SOL    HW214253   4.926   4.860   3.586
 4452SOL     OW14254   5.393   6.248   4.580
 4452SOL    HW114255   5.409   6.346   4.572
 4452SOL    HW214256   5.475   6.204   4.617
 4453SOL     OW14257   0.513   3.407   1.059
 4453SOL    HW114258   0.559   3.466   1.125
 4453SOL    HW214259   0.572   3.392   0.979
 4454SOL     OW14260   0.760   1.812   0.101
 4454SOL    HW114261   0.672   1.842   0.065
 4454SOL    HW214262   0.753   1.801   0.200
 4455SOL     OW14263   5.930   5.482   4.931
 4455SOL    HW114264   5.928   5.438   4.841
 4455SOL    HW214265   5.981   5.568   4.925
 4456SOL     OW14266   1.640   6.686   3.648
 4456SOL    HW114267   1.733   6.690   3.612
 4456SOL    HW214268   1.592   6.771   3.626
 4457SOL     OW14269   1.148   2.031   4.570
 4457SOL    HW114270   1.242   2.062   4.586
 4457SOL    HW214271   1.125   2.042   4.474
 4458SOL     OW14272   2.131   3.658   1.796
 4458SOL    HW114273   2.127   3.744   1.847
 4458SOL    HW214274   2.189   3.593   1.846
 4459SOL     OW14275   1.400   2.152   4.591
 4459SOL    HW114276   1.479   2.099   4.559
 4459SOL    HW214277   1.430   2.245   4.612
 4460SOL     OW14278   0.224   2.921   4.136
 4460SOL    HW114279   0.129   2.943   4.154
 4460SOL    HW214280   0.255   2.970   4.055
 4461SOL     OW14281   2.671   0.827   1.809
 4461SOL    HW114282   2.655   0.856   1.903
 4461SOL    HW214283   2.645   0.900   1.746
 4462SOL     OW14284   6.600   3.569   1.889
 4462SOL    HW114285   6.611   3.668   1.897
 4462SOL    HW214286   6.504   3.545   1.901
 4463SOL     OW14287   5.743   1.516   0.983
 4463SOL    HW114288   5.761   1.417   0.983
 4463SOL    HW214289   5.679   1.538   0.909
 4464SOL     OW14290   0.626   5.447   0.582
 4464SOL    HW114291   0.617   5.534   0.533
 4464SOL    HW214292   0.536   5.405   0.592
 4465SOL     OW14293   2.256   6.354   0.661
 4465SOL    HW114294   2.345   6.352   0.706
 4465SOL    HW214295   2.268   6.348   0.562
 4466SOL     OW14296   2.260   2.032   4.023
 4466SOL    HW114297   2.188   2.069   4.080
 4466SOL    HW214298   2.223   2.009   3.933
 4467SOL     OW14299   2.827   5.659   3.887
 4467SOL    HW114300   2.918   5.673   3.846
 4467SOL    HW214301   2.822   5.710   3.973
 4468SOL     OW14302   1.202   3.242   1.419
 4468SOL    HW114303   1.288   3.216   1.375
 4468SOL    HW214304   1.185   3.181   1.496
 4469SOL     OW14305   2.859   6.745   1.338
 4469SOL    HW114306   2.801   6.751   1.257
 4469SOL    HW214307   2.941   6.801   1.326
 4470SOL     OW14308   0.959   0.709   2.454
 4470SOL    HW114309   0.921   0.653   2.381
 4470SOL    HW214310   0.992   0.650   2.528
 4471SOL     OW14311   2.436   2.182   6.522
 4471SOL    HW114312   2.459   2.263   6.575
 4471SOL    HW214313   2.519   2.129   6.504
 4472SOL     OW14314   1.876   3.174   1.178
 4472SOL    HW114315   1.918   3.189   1.268
 4472SOL    HW214316   1.945   3.183   1.107
 4473SOL     OW14317   0.292   2.803   3.872
 4473SOL    HW114318   0.291   2.902   3.887
 4473SOL    HW214319   0.308   2.784   3.775
 4474SOL     OW14320   3.274   0.847   2.217
 4474SOL    HW114321   3.254   0.925   2.277
 4474SOL    HW214322   3.279   0.879   2.122
 4475SOL     OW14323   1.070   3.625   2.119
 4475SOL    HW114324   0.988   3.682   2.124
 4475SOL    HW214325   1.044   3.529   2.119
 4476SOL     OW14326   5.456   1.330   4.192
 4476SOL    HW114327   5.515   1.411   4.201
 4476SOL    HW214328   5.394   1.326   4.271
 4477SOL     OW14329   3.029   6.817   5.541
 4477SOL    HW114330   3.001   6.796   5.447
 4477SOL    HW214331   3.030   6.917   5.553
 4478SOL     OW14332   1.108   0.064   0.423
 4478SOL    HW114333   1.080   0.148   0.469
 4478SOL    HW214334   1.208   0.061   0.419
 4479SOL     OW14335   0.744   2.278   6.849
 4479SOL    HW114336   0.813   2.292   6.919
 4479SOL    HW214337   0.770   2.330   6.767
 4480SOL     OW14338   6.767   4.904   4.725
 4480SOL    HW114339   6.862   4.926   4.748
 4480SOL    HW214340   6.752   4.806   4.735
 4481SOL     OW14341   2.241   4.759   5.641
 4481SOL    HW114342   2.328   4.750   5.690
 4481SOL    HW214343   2.165   4.750   5.705
 4482SOL     OW14344   2.843   5.145   6.299
 4482SOL    HW114345   2.766   5.147   6.234
 4482SOL    HW214346   2.818   5.196   6.381
 4483SOL     OW14347   0.665   3.155   2.240
 4483SOL    HW114348   0.641   3.242   2.197
 4483SOL    HW214349   0.668   3.083   2.170
 4484SOL     OW14350   2.485   3.402   0.127
 4484SOL    HW114351   2.386   3.389   0.124
 4484SOL    HW214352   2.516   3.441   0.041
 4485SOL     OW14353   4.507   2.527   4.661
 4485SOL    HW114354   4.562   2.555   4.582
 4485SOL    HW214355   4.566   2.487   4.731
 4486SOL     OW14356   5.486   4.380   5.312
 4486SOL    HW114357   5.392   4.414   5.320
 4486SOL    HW214358   5.531   4.382   5.401
 4487SOL     OW14359   1.758   2.783   0.234
 4487SOL    HW114360   1.852   2.815   0.227
 4487SOL    HW214361   1.739   2.716   0.162
 4488SOL     OW14362   0.862   4.726   4.017
 4488SOL    HW114363   0.921   4.678   4.083
 4488SOL    HW214364   0.838   4.664   3.943
 4489SOL     OW14365   4.286   5.441   5.344
 4489SOL    HW114366   4.243   5.439   5.434
 4489SOL    HW214367   4.266   5.529   5.299
 4490SOL     OW14368   5.600   2.133   0.987
 4490SOL    HW114369   5.501   2.147   0.992
 4490SOL    HW214370   5.636   2.113   1.079
 4491SOL     OW14371   1.058   3.063   2.904
 4491SOL    HW114372   1.055   2.966   2.927
 4491SOL    HW214373   1.055   3.074   2.804
 4492SOL     OW14374   5.566   0.579   1.735
 4492SOL    HW114375   5.642   0.631   1.696
 4492SOL    HW214376   5.483   0.598   1.683
 4493SOL     OW14377   5.399   6.752   5.178
 4493SOL    HW114378   5.371   6.845   5.152
 4493SOL    HW214379   5.322   6.705   5.222
 4494SOL     OW14380   0.718   0.567   6.713
 4494SOL    HW114381   0.682   0.556   6.620
 4494SOL    HW214382   0.693   0.658   6.747
 4495SOL     OW14383   3.911   6.075   1.958
 4495SOL    HW114384   3.843   6.015   1.915
 4495SOL    HW214385   4.000   6.031   1.955
 4496SOL     OW14386   4.520   6.489   6.253
 4496SOL    HW114387   4.617   6.484   6.278
 4496SOL    HW214388   4.485   6.397   6.236
 4497SOL     OW14389   4.167   1.973   6.896
 4497SOL    HW114390   4.200   1.879   6.896
 4497SOL    HW214391   4.244   2.036   6.903
 4498SOL     OW14392   0.006   5.229   5.837
 4498SOL    HW114393   0.078   5.282   5.792
 4498SOL    HW214394   0.046   5.169   5.906
 4499SOL     OW14395   6.557   1.704   2.776
 4499SOL    HW114396   6.583   1.612   2.747
 4499SOL    HW214397   6.598   1.724   2.865
 4500SOL     OW14398   3.935   5.207   0.482
 4500SOL    HW114399   4.005   5.170   0.543
 4500SOL    HW214400   3.976   5.273   0.420
 4501SOL     OW14401   6.233   1.915   1.710
 4501SOL    HW114402   6.319   1.958   1.737
 4501SOL    HW214403   6.237   1.817   1.731
 4502SOL     OW14404   1.165   3.301   6.824
 4502SOL    HW114405   1.192   3.391   6.858
 4502SOL    HW214406   1.209   3.283   6.737
 4503SOL     OW14407   3.033   0.355   2.440
 4503SOL    HW114408   2.999   0.432   2.385
 4503SOL    HW214409   2.961   0.286   2.448
 4504SOL     OW14410   0.278   2.174   3.543
 4504SOL    HW114411   0.361   2.207   3.588
 4504SOL    HW214412   0.256   2.083   3.578
 4505SOL     OW14413   6.372   4.427   2.710
 4505SOL    HW114414   6.325   4.343   2.740
 4505SOL    HW214415   6.392   4.483   2.790
 4506SOL     OW14416   5.133   2.339   4.593
 4506SOL    HW114417   5.069   2.354   4.668
 4506SOL    HW214418   5.165   2.428   4.559
 4507SOL     OW14419   6.458   3.308   3.634
 4507SOL    HW114420   6.451   3.387   3.695
 4507SOL    HW214421   6.427   3.335   3.542
 4508SOL     OW14422   0.604   5.064   0.682
 4508SOL    HW114423   0.560   4.974   0.671
 4508SOL    HW214424   0.613   5.108   0.593
 4509SOL     OW14425   4.416   1.701   2.555
 4509SOL    HW114426   4.359   1.774   2.592
 4509SOL    HW214427   4.465   1.735   2.475
 4510SOL     OW14428   4.569   1.669   4.200
 4510SOL    HW114429   4.633   1.721   4.144
 4510SOL    HW214430   4.618   1.622   4.273
 4511SOL     OW14431   0.026   4.616   1.076
 4511SOL    HW114432   7.000   4.625   0.991
 4511SOL    HW214433   0.008   4.696   1.134
 4512SOL     OW14434   3.747   1.994   5.593
 4512SOL    HW114435   3.706   2.045   5.517
 4512SOL    HW214436   3.674   1.958   5.652
 4513SOL     OW14437   1.549   5.929   6.477
 4513SOL    HW114438   1.492   6.008   6.455
 4513SOL    HW214439   1.528   5.855   6.413
 4514SOL     OW14440   3.358   3.100   6.245
 4514SOL    HW114441   3.327   3.007   6.223
 4514SOL    HW214442   3.347   3.117   6.343
 4515SOL     OW14443   5.635   6.887   4.924
 4515SOL    HW114444   5.729   6.920   4.923
 4515SOL    HW214445   5.634   6.788   4.937
 4516SOL     OW14446   3.241   1.794   5.795
 4516SOL    HW114447   3.157   1.743   5.809
 4516SOL    HW214448   3.312   1.761   5.857
 4517SOL     OW14449   4.451   0.569   6.063
 4517SOL    HW114450   4.446   0.668   6.080
 4517SOL    HW214451   4.547   0.540   6.066
 4518SOL     OW14452   1.946   0.000   1.336
 4518SOL    HW114453   1.853   0.035   1.333
 4518SOL    HW214454   1.946   6.930   1.360
 4519SOL     OW14455   5.735   6.688   0.259
 4519SOL    HW114456   5.671   6.764   0.244
 4519SOL    HW214457   5.714   6.643   0.345
 4520SOL     OW14458   4.273   6.399   5.142
 4520SOL    HW114459   4.302   6.493   5.125
 4520SOL    HW214460   4.291   6.343   5.061
 4521SOL     OW14461   5.036   2.534   5.143
 4521SOL    HW114462   5.014   2.471   5.217
 4521SOL    HW214463   5.133   2.526   5.120
 4522SOL     OW14464   5.351   3.203   3.459
 4522SOL    HW114465   5.263   3.249   3.474
 4522SOL    HW214466   5.425   3.270   3.464
 4523SOL     OW14467   0.531   3.481   6.564
 4523SOL    HW114468   0.444   3.528   6.551
 4523SOL    HW214469   0.515   3.388   6.597
 4524SOL     OW14470   0.356   3.122   2.856
 4524SOL    HW114471   0.332   3.158   2.946
 4524SOL    HW214472   0.328   3.188   2.786
 4525SOL     OW14473   2.509   2.513   5.735
 4525SOL    HW114474   2.483   2.428   5.781
 4525SOL    HW214475   2.429   2.573   5.730
 4526SOL     OW14476   0.687   6.988   6.134
 4526SOL    HW114477   0.688   6.897   6.175
 4526SOL    HW214478   0.779   7.012   6.103
 4527SOL     OW14479   6.604   0.063   3.053
 4527SOL    HW114480   6.680   0.004   3.025
 4527SOL    HW214481   6.635   0.126   3.124
 4528SOL     OW14482   4.277   1.170   5.556
 4528SOL    HW114483   4.298   1.249   5.498
 4528SOL    HW214484   4.336   1.094   5.530
 4529SOL     OW14485   2.656   0.761   5.418
 4529SOL    HW114486   2.598   0.821   5.472
 4529SOL    HW214487   2.676   0.803   5.329
 4530SOL     OW14488   2.525   6.136   5.107
 4530SOL    HW114489   2.519   6.236   5.105
 4530SOL    HW214490   2.444   6.099   5.153
 4531SOL     OW14491   1.282   5.111   6.511
 4531SOL    HW114492   1.268   5.205   6.543
 4531SOL    HW214493   1.373   5.080   6.536
 4532SOL     OW14494   5.551   0.539   2.768
 4532SOL    HW114495   5.485   0.612   2.785
 4532SOL    HW214496   5.607   0.525   2.850
 4533SOL     OW14497   2.227   0.572   2.182
 4533SOL    HW114498   2.132   0.551   2.206
 4533SOL    HW214499   2.252   0.661   2.221
 4534SOL     OW14500   4.591   1.690   4.778
 4534SOL    HW114501   4.523   1.738   4.723
 4534SOL    HW214502   4.552   1.604   4.811
 4535SOL     OW14503   3.267   2.282   1.096
 4535SOL    HW114504   3.180   2.318   1.131
 4535SOL    HW214505   3.256   2.253   1.001
 4536SOL     OW14506   2.677   1.592   5.905
 4536SOL    HW114507   2.633   1.646   5.833
 4536SOL    HW214508   2.690   1.499   5.874
 4537SOL     OW14509   3.401   3.845   4.395
 4537SOL    HW114510   3.349   3.838   4.480
 4537SOL    HW214511   3.383   3.933   4.351
 4538SOL     OW14512   6.885   2.547   1.434
 4538SOL    HW114513   6.789   2.521   1.443
 4538SOL    HW214514   6.912   2.539   1.338
 4539SOL     OW14515   1.615   5.499   5.193
 4539SOL    HW114516   1.635   5.481   5.289
 4539SOL    HW214517   1.697   5.533   5.148
 4540SOL     OW14518   0.052   1.021   0.763
 4540SOL    HW114519   0.014   0.976   0.682
 4540SOL    HW214520   0.019   0.976   0.846
 4541SOL     OW14521   4.147   1.844   6.218
 4541SOL    HW114522   4.197   1.921   6.178
 4541SOL    HW214523   4.149   1.767   6.154
 4542SOL     OW14524   6.996   2.553   0.942
 4542SOL    HW114525   6.976   2.515   1.032
 4542SOL    HW214526   0.050   2.612   0.947
 4543SOL     OW14527   3.833   2.191   0.103
 4543SOL    HW114528   3.789   2.218   0.189
 4543SOL    HW214529   3.765   2.192   0.029
 4544SOL     OW14530   5.629   5.017   0.489
 4544SOL    HW114531   5.620   4.943   0.422
 4544SOL    HW214532   5.629   4.979   0.581
 4545SOL     OW14533   1.156   3.907   4.939
 4545SOL    HW114534   1.067   3.903   4.894
 4545SOL    HW214535   1.223   3.947   4.877
 4546SOL     OW14536   2.500   0.922   5.554
 4546SOL    HW114537   2.400   0.929   5.550
 4546SOL    HW214538   2.538   1.010   5.585
 4547SOL     OW14539   6.285   0.536   0.475
 4547SOL    HW114540   6.235   0.586   0.405
 4547SOL    HW214541   6.383   0.535   0.453
 4548SOL     OW14542   2.189   3.072   2.640
 4548SOL    HW114543   2.235   3.034   2.721
 4548SOL    HW214544   2.109   3.124   2.669
 4549SOL     OW14545   5.821   4.421   2.217
 4549SOL    HW114546   5.891   4.381   2.159
 4549SOL    HW214547   5.853   4.424   2.312
 4550SOL     OW14548   0.500   4.610   2.891
 4550SOL    HW114549   0.464   4.518   2.874
 4550SOL    HW214550   0.588   4.603   2.936
 4551SOL     OW14551   1.720   3.654   5.372
 4551SOL    HW114552   1.813   3.693   5.377
 4551SOL    HW214553   1.653   3.727   5.387
 4552SOL     OW14554   6.001   1.333   1.527
 4552SOL    HW114555   5.992   1.419   1.576
 4552SOL    HW214556   6.055   1.269   1.581
 4553SOL     OW14557   5.538   4.749   6.331
 4553SOL    HW114558   5.623   4.798   6.351
 4553SOL    HW214559   5.523   4.680   6.402
 4554SOL     OW14560   0.463   6.364   1.581
 4554SOL    HW114561   0.516   6.279   1.573
 4554SOL    HW214562   0.465   6.395   1.676
 4555SOL     OW14563   1.348   1.286   6.555
 4555SOL    HW114564   1.324   1.344   6.476
 4555SOL    HW214565   1.339   1.340   6.639
 4556SOL     OW14566   5.897   3.075   5.853
 4556SOL    HW114567   5.913   3.043   5.760
 4556SOL    HW214568   5.983   3.074   5.905
 4557SOL     OW14569   6.052   5.254   3.530
 4557SOL    HW114570   6.027   5.169   3.483
 4557SOL    HW214571   6.150   5.252   3.551
 4558SOL     OW14572   6.246   2.972   5.305
 4558SOL    HW114573   6.248   3.068   5.333
 4558SOL    HW214574   6.335   2.930   5.322
 4559SOL     OW14575   0.700   3.017   3.009
 4559SOL    HW114576   0.760   3.085   3.051
 4559SOL    HW214577   0.668   3.051   2.920
 4560SOL     OW14578   6.634   4.835   1.890
 4560SOL    HW114579   6.623   4.740   1.861
 4560SOL    HW214580   6.692   4.883   1.825
 4561SOL     OW14581   3.199   2.184   4.407
 4561SOL    HW114582   3.109   2.228   4.410
 4561SOL    HW214583   3.219   2.156   4.313
 4562SOL     OW14584   1.706   0.342   1.113
 4562SOL    HW114585   1.649   0.423   1.126
 4562SOL    HW214586   1.660   0.279   1.050
 4563SOL     OW14587   0.464   2.888   1.560
 4563SOL    HW114588   0.468   2.973   1.508
 4563SOL    HW214589   0.466   2.909   1.658
 4564SOL     OW14590   0.171   4.516   1.967
 4564SOL    HW114591   0.195   4.423   1.938
 4564SOL    HW214592   0.219   4.538   2.052
 4565SOL     OW14593   2.000   6.942   4.923
 4565SOL    HW114594   2.088   6.973   4.960
 4565SOL    HW214595   1.996   6.842   4.927
 4566SOL     OW14596   6.857   4.236   1.368
 4566SOL    HW114597   6.849   4.294   1.287
 4566SOL    HW214598   6.916   4.158   1.348
 4567SOL     OW14599   6.950   0.041   6.035
 4567SOL    HW114600   6.994   7.005   6.099
 4567SOL    HW214601   6.852   0.042   6.052
 4568SOL     OW14602   0.944   4.991   4.058
 4568SOL    HW114603   0.915   4.908   4.012
 4568SOL    HW214604   0.997   5.047   3.994
 4569SOL     OW14605   2.999   1.360   3.057
 4569SOL    HW114606   3.094   1.359   3.026
 4569SOL    HW214607   2.997   1.360   3.157
 4570SOL     OW14608   6.511   5.551   1.211
 4570SOL    HW114609   6.482   5.470   1.262
 4570SOL    HW214610   6.478   5.633   1.256
 4571SOL     OW14611   3.951   3.019   6.503
 4571SOL    HW114612   3.869   3.021   6.446
 4571SOL    HW214613   3.943   3.085   6.577
 4572SOL     OW14614   2.701   2.706   0.346
 4572SOL    HW114615   2.774   2.770   0.368
 4572SOL    HW214616   2.634   2.705   0.420
 4573SOL     OW14617   0.811   6.449   1.079
 4573SOL    HW114618   0.887   6.386   1.092
 4573SOL    HW214619   0.752   6.415   1.006
 4574SOL     OW14620   6.319   3.344   0.368
 4574SOL    HW114621   6.301   3.247   0.351
 4574SOL    HW214622   6.414   3.355   0.399
 4575SOL     OW14623   6.355   1.007   4.351
 4575SOL    HW114624   6.294   1.049   4.419
 4575SOL    HW214625   6.346   1.056   4.264
 4576SOL     OW14626   2.762   5.089   4.949
 4576SOL    HW114627   2.792   5.097   5.044
 4576SOL    HW214628   2.671   5.130   4.940
 4577SOL     OW14629   1.964   1.836   3.058
 4577SOL    HW114630   1.922   1.926   3.046
 4577SOL    HW214631   2.043   1.828   2.996
 4578SOL     OW14632   1.786   0.563   2.609
 4578SOL    HW114633   1.883   0.579   2.627
 4578SOL    HW214634   1.768   0.465   2.602
 4579SOL     OW14635   4.033   0.210   1.974
 4579SOL    HW114636   4.117   0.263   1.971
 4579SOL    HW214637   4.030   0.158   2.059
 4580SOL     OW14638   6.376   3.544   0.155
 4580SOL    HW114639   6.443   3.611   0.184
 4580SOL    HW214640   6.354   3.483   0.231
 4581SOL     OW14641   3.333   6.700   1.959
 4581SOL    HW114642   3.247   6.731   2.001
 4581SOL    HW214643   3.399   6.775   1.959
 4582SOL     OW14644   5.345   0.772   2.822
 4582SOL    HW114645   5.367   0.764   2.919
 4582SOL    HW214646   5.245   0.770   2.811
 4583SOL     OW14647   1.836   0.158   6.659
 4583SOL    HW114648   1.907   0.088   6.657
 4583SOL    HW214649   1.847   0.215   6.741
 4584SOL     OW14650   1.830   6.757   6.082
 4584SOL    HW114651   1.844   6.852   6.110
 4584SOL    HW214652   1.825   6.753   5.982
 4585SOL     OW14653   1.158   4.317   3.405
 4585SOL    HW114654   1.085   4.381   3.432
 4585SOL    HW214655   1.241   4.337   3.457
 4586SOL     OW14656   5.028   4.202   0.180
 4586SOL    HW114657   4.993   4.113   0.151
 4586SOL    HW214658   4.966   4.274   0.149
 4587SOL     OW14659   3.252   3.569   4.670
 4587SOL    HW114660   3.286   3.663   4.661
 4587SOL    HW214661   3.152   3.569   4.663
 4588SOL     OW14662   2.884   3.885   5.870
 4588SOL    HW114663   2.828   3.931   5.939
 4588SOL    HW214664   2.959   3.836   5.915
 4589SOL     OW14665   5.453   5.907   2.471
 4589SOL    HW114666   5.500   5.968   2.534
 4589SOL    HW214667   5.355   5.924   2.475
 4590SOL     OW14668   3.635   5.567   1.884
 4590SOL    HW114669   3.639   5.614   1.971
 4590SOL    HW214670   3.664   5.629   1.811
 4591SOL     OW14671   2.505   0.017   5.179
 4591SOL    HW114672   2.484   6.960   5.229
 4591SOL    HW214673   2.601   0.042   5.194
 4592SOL     OW14674   2.511   1.383   4.721
 4592SOL    HW114675   2.496   1.475   4.757
 4592SOL    HW214676   2.564   1.330   4.788
 4593SOL     OW14677   0.136   6.149   3.267
 4593SOL    HW114678   0.124   6.197   3.180
 4593SOL    HW214679   0.050   6.106   3.293
 4594SOL     OW14680   2.483   0.237   3.154
 4594SOL    HW114681   2.461   0.168   3.085
 4594SOL    HW214682   2.536   0.195   3.228
 4595SOL     OW14683   4.979   1.530   6.249
 4595SOL    HW114684   5.069   1.573   6.240
 4595SOL    HW214685   4.911   1.600   6.271
 4596SOL     OW14686   0.872   1.035   2.262
 4596SOL    HW114687   0.938   1.037   2.186
 4596SOL    HW214688   0.786   1.078   2.232
 4597SOL     OW14689   2.307   5.448   0.032
 4597SOL    HW114690   2.335   5.356   0.057
 4597SOL    HW214691   2.339   5.513   0.101
 4598SOL     OW14692   1.903   5.240   0.182
 4598SOL    HW114693   1.960   5.321   0.197
 4598SOL    HW214694   1.874   5.204   0.270
 4599SOL     OW14695   1.451   4.202   2.885
 4599SOL    HW114696   1.487   4.164   2.970
 4599SOL    HW214697   1.527   4.233   2.827
 4600SOL     OW14698   0.310   6.402   5.592
 4600SOL    HW114699   0.257   6.383   5.510
 4600SOL    HW214700   0.300   6.498   5.617
 4601SOL     OW14701   0.494   0.864   4.498
 4601SOL    HW114702   0.407   0.819   4.516
 4601SOL    HW214703   0.493   0.903   4.406
 4602SOL     OW14704   3.080   0.534   6.660
 4602SOL    HW114705   3.076   0.619   6.712
 4602SOL    HW214706   3.095   0.457   6.722
 4603SOL     OW14707   4.660   5.846   1.447
 4603SOL    HW114708   4.735   5.907   1.473
 4603SOL    HW214709   4.622   5.874   1.359
 4604SOL     OW14710   4.900   6.788   5.919
 4604SOL    HW114711   4.820   6.787   5.859
 4604SOL    HW214712   4.870   6.794   6.015
 4605SOL     OW14713   2.535   0.005   1.834
 4605SOL    HW114714   2.562   0.009   1.930
 4605SOL    HW214715   2.476   6.952   1.818
 4606SOL     OW14716   0.138   6.699   2.742
 4606SOL    HW114717   0.237   6.715   2.749
 4606SOL    HW214718   0.113   6.686   2.646
 4607SOL     OW14719   1.702   3.741   3.235
 4607SOL    HW114720   1.677   3.677   3.162
 4607SOL    HW214721   1.687   3.697   3.324
 4608SOL     OW14722   6.911   3.086   4.776
 4608SOL    HW114723   6.914   2.986   4.778
 4608SOL    HW214724   6.920   3.117   4.681
 4609SOL     OW14725   4.119   6.541   6.470
 4609SOL    HW114726   4.173   6.624   6.488
 4609SOL    HW214727   4.025   6.566   6.450
 4610SOL     OW14728   5.533   1.900   0.550
 4610SOL    HW114729   5.562   1.934   0.640
 4610SOL    HW214730   5.458   1.956   0.516
 4611SOL     OW14731   1.066   0.687   5.936
 4611SOL    HW114732   1.002   0.642   5.998
 4611SOL    HW214733   1.061   0.786   5.950
 4612SOL     OW14734   2.287   6.423   2.367
 4612SOL    HW114735   2.369   6.477   2.384
 4612SOL    HW214736   2.312   6.334   2.331
 4613SOL     OW14737   1.674   4.670   1.900
 4613SOL    HW114738   1.744   4.736   1.927
 4613SOL    HW214739   1.700   4.628   1.813
 4614SOL     OW14740   6.011   3.084   4.371
 4614SOL    HW114741   5.963   2.998   4.352
 4614SOL    HW214742   6.064   3.074   4.455
 4615SOL     OW14743   1.064   1.219   1.244
 4615SOL    HW114744   1.089   1.310   1.277
 4615SOL    HW214745   1.145   1.172   1.209
 4616SOL     OW14746   6.160   2.902   4.898
 4616SOL    HW114747   6.195   2.996   4.894
 4616SOL    HW214748   6.068   2.903   4.939
 4617SOL     OW14749   0.214   2.674   1.959
 4617SOL    HW114750   0.258   2.595   1.918
 4617SOL    HW214751   0.129   2.645   2.004
 4618SOL     OW14752   2.376   3.962   5.594
 4618SOL    HW114753   2.414   3.873   5.616
 4618SOL    HW214754   2.438   4.011   5.532
 4619SOL     OW14755   2.930   6.015   4.589
 4619SOL    HW114756   3.008   6.009   4.652
 4619SOL    HW214757   2.916   5.927   4.544
 4620SOL     OW14758   0.826   5.352   1.797
 4620SOL    HW114759   0.877   5.435   1.773
 4620SOL    HW214760   0.880   5.271   1.772
 4621SOL     OW14761   5.047   0.442   2.829
 4621SOL    HW114762   5.101   0.431   2.912
 4621SOL    HW214763   4.966   0.498   2.850
 4622SOL     OW14764   4.282   5.509   1.133
 4622SOL    HW114765   4.204   5.541   1.079
 4622SOL    HW214766   4.259   5.423   1.179
 4623SOL     OW14767   3.353   5.232   1.234
 4623SOL    HW114768   3.394   5.304   1.177
 4623SOL    HW214769   3.299   5.171   1.176
 4624SOL     OW14770   3.561   1.329   3.231
 4624SOL    HW114771   3.521   1.247   3.192
 4624SOL    HW214772   3.659   1.333   3.208
 4625SOL     OW14773   1.834   5.300   1.613
 4625SOL    HW114774   1.830   5.221   1.675
 4625SOL    HW214775   1.773   5.372   1.646
 4626SOL     OW14776   3.868   4.012   1.919
 4626SOL    HW114777   3.902   4.053   1.834
 4626SOL    HW214778   3.935   3.946   1.953
 4627SOL     OW14779   6.628   6.049   4.987
 4627SOL    HW114780   6.723   6.075   4.967
 4627SOL    HW214781   6.589   6.112   5.054
 4628SOL     OW14782   4.850   5.271   3.456
 4628SOL    HW114783   4.830   5.229   3.368
 4628SOL    HW214784   4.769   5.269   3.514
 4629SOL     OW14785   1.736   5.621   6.754
 4629SOL    HW114786   1.713   5.560   6.678
 4629SOL    HW214787   1.807   5.578   6.810
 4630SOL     OW14788   1.398   4.624   2.663
 4630SOL    HW114789   1.439   4.639   2.574
 4630SOL    HW214790   1.339   4.543   2.660
 4631SOL     OW14791   6.920   0.338   3.912
 4631SOL    HW114792   6.853   0.289   3.967
 4631SOL    HW214793   6.990   0.377   3.972
 4632SOL     OW14794   2.969   5.126   2.687
 4632SOL    HW114795   2.966   5.143   2.588
 4632SOL    HW214796   3.042   5.061   2.707
 4633SOL     OW14797   4.978   1.326   4.118
 4633SOL    HW114798   5.000   1.244   4.065
 4633SOL    HW214799   4.915   1.302   4.192
 4634SOL     OW14800   2.989   3.567   4.662
 4634SOL    HW114801   2.980   3.489   4.600
 4634SOL    HW214802   2.950   3.544   4.751
 4635SOL     OW14803   5.247   5.717   0.675
 4635SOL    HW114804   5.181   5.771   0.726
 4635SOL    HW214805   5.232   5.620   0.694
 4636SOL     OW14806   2.422   5.201   0.439
 4636SOL    HW114807   2.405   5.127   0.504
 4636SOL    HW214808   2.429   5.288   0.489
 4637SOL     OW14809   1.744   0.103   2.211
 4637SOL    HW114810   1.811   0.061   2.150
 4637SOL    HW214811   1.678   0.034   2.241
 4638SOL     OW14812   3.720   4.847   0.866
 4638SOL    HW114813   3.818   4.851   0.851
 4638SOL    HW214814   3.700   4.867   0.962
 4639SOL     OW14815   2.069   2.496   0.541
 4639SOL    HW114816   2.157   2.525   0.501
 4639SOL    HW214817   2.056   2.543   0.629
 4640SOL     OW14818   6.026   2.827   5.696
 4640SOL    HW114819   5.939   2.787   5.669
 4640SOL    HW214820   6.068   2.771   5.768
 4641SOL     OW14821   0.610   5.979   3.865
 4641SOL    HW114822   0.665   5.895   3.874
 4641SOL    HW214823   0.659   6.055   3.907
 4642SOL     OW14824   1.655   1.847   3.437
 4642SOL    HW114825   1.667   1.900   3.520
 4642SOL    HW214826   1.598   1.767   3.457
 4643SOL     OW14827   7.002   2.277   0.021
 4643SOL    HW114828   6.977   2.370   0.047
 4643SOL    HW214829   0.039   2.239   0.089
 4644SOL     OW14830   1.796   1.370   0.067
 4644SOL    HW114831   1.893   1.390   0.055
 4644SOL    HW214832   1.785   1.272   0.086
 4645SOL     OW14833   1.019   1.069   3.680
 4645SOL    HW114834   0.983   1.081   3.587
 4645SOL    HW214835   1.051   0.974   3.690
 4646SOL     OW14836   2.106   5.524   4.120
 4646SOL    HW114837   2.011   5.537   4.090
 4646SOL    HW214838   2.125   5.426   4.130
 4647SOL     OW14839   1.967   6.375   2.791
 4647SOL    HW114840   1.873   6.360   2.760
 4647SOL    HW214841   1.996   6.299   2.848
 4648SOL     OW14842   3.296   1.322   3.988
 4648SOL    HW114843   3.249   1.342   4.074
 4648SOL    HW214844   3.276   1.394   3.922
 4649SOL     OW14845   6.013   0.795   0.723
 4649SOL    HW114846   5.958   0.758   0.798
 4649SOL    HW214847   6.109   0.774   0.739
 4650SOL     OW14848   5.224   6.180   1.257
 4650SOL    HW114849   5.158   6.245   1.219
 4650SOL    HW214850   5.317   6.213   1.243
 4651SOL     OW14851   6.833   3.477   6.087
 4651SOL    HW114852   6.892   3.558   6.090
 4651SOL    HW214853   6.856   3.423   6.006
 4652SOL     OW14854   0.015   6.296   4.684
 4652SOL    HW114855   6.995   6.362   4.625
 4652SOL    HW214856   7.024   6.204   4.650
 4653SOL     OW14857   5.062   5.837   0.819
 4653SOL    HW114858   5.076   5.805   0.913
 4653SOL    HW214859   5.023   5.929   0.821
 4654SOL     OW14860   0.062   6.489   4.875
 4654SOL    HW114861   0.039   6.411   4.817
 4654SOL    HW214862   7.007   6.519   4.924
 4655SOL     OW14863   4.801   2.379   0.954
 4655SOL    HW114864   4.824   2.372   1.051
 4655SOL    HW214865   4.884   2.373   0.899
 4656SOL     OW14866   0.684   0.966   1.770
 4656SOL    HW114867   0.693   0.945   1.672
 4656SOL    HW214868   0.762   1.022   1.799
 4657SOL     OW14869   5.253   6.497   2.346
 4657SOL    HW114870   5.295   6.554   2.276
 4657SOL    HW214871   5.225   6.553   2.424
 4658SOL     OW14872   2.574   2.707   5.467
 4658SOL    HW114873   2.490   2.739   5.424
 4658SOL    HW214874   2.577   2.607   5.464
 4659SOL     OW14875   3.412   4.591   1.044
 4659SOL    HW114876   3.509   4.598   1.019
 4659SOL    HW214877   3.356   4.592   0.961
 4660SOL     OW14878   0.924   6.319   4.307
 4660SOL    HW114879   1.003   6.363   4.349
 4660SOL    HW214880   0.901   6.368   4.222
 4661SOL     OW14881   2.150   4.033   5.777
 4661SOL    HW114882   2.220   3.997   5.715
 4661SOL    HW214883   2.117   4.121   5.743
 4662SOL     OW14884   2.999   6.246   4.739
 4662SOL    HW114885   2.966   6.186   4.667
 4662SOL    HW214886   3.008   6.339   4.703
 4663SOL     OW14887   1.152   0.242   6.858
 4663SOL    HW114888   1.076   0.306   6.869
 4663SOL    HW214889   1.217   0.254   6.933
 4664SOL     OW14890   6.403   6.928   0.658
 4664SOL    HW114891   6.403   6.931   0.758
 4664SOL    HW214892   6.496   6.936   0.624
 4665SOL     OW14893   2.333   0.518   5.709
 4665SOL    HW114894   2.365   0.605   5.747
 4665SOL    HW214895   2.323   0.526   5.610
 4666SOL     OW14896   1.819   2.583   6.565
 4666SOL    HW114897   1.739   2.617   6.614
 4666SOL    HW214898   1.790   2.524   6.490
 4667SOL     OW14899   6.820   3.483   1.996
 4667SOL    HW114900   6.843   3.570   2.039
 4667SOL    HW214901   6.756   3.498   1.921
 4668SOL     OW14902   4.049   2.161   4.808
 4668SOL    HW114903   4.129   2.205   4.766
 4668SOL    HW214904   4.009   2.096   4.743
 4669SOL     OW14905   5.468   6.914   0.301
 4669SOL    HW114906   5.534   6.989   0.308
 4669SOL    HW214907   5.466   6.864   0.388
 4670SOL     OW14908   1.258   3.269   0.219
 4670SOL    HW114909   1.279   3.223   0.306
 4670SOL    HW214910   1.343   3.303   0.178
 4671SOL     OW14911   0.781   3.482   0.212
 4671SOL    HW114912   0.788   3.429   0.296
 4671SOL    HW214913   0.872   3.491   0.171
 4672SOL     OW14914   3.640   4.208   5.752
 4672SOL    HW114915   3.600   4.259   5.828
 4672SOL    HW214916   3.669   4.118   5.784
 4673SOL     OW14917   5.311   0.746   6.990
 4673SOL    HW114918   5.361   0.722   0.047
 4673SOL    HW214919   5.369   0.804   6.933
 4674SOL     OW14920   0.350   1.588   0.374
 4674SOL    HW114921   0.285   1.594   0.450
 4674SOL    HW214922   0.436   1.631   0.401
 4675SOL     OW14923   3.506   6.118   0.259
 4675SOL    HW114924   3.449   6.046   0.298
 4675SOL    HW214925   3.450   6.175   0.198
 4676SOL     OW14926   0.932   6.384   4.671
 4676SOL    HW114927   0.976   6.453   4.612
 4676SOL    HW214928   0.923   6.421   4.763
 4677SOL     OW14929   3.661   0.210   6.909
 4677SOL    HW114930   3.623   0.159   6.986
 4677SOL    HW214931   3.591   0.224   6.839
 4678SOL     OW14932   1.844   5.000   1.024
 4678SOL    HW114933   1.816   5.093   1.050
 4678SOL    HW214934   1.901   4.962   1.097
 4679SOL     OW14935   2.414   0.540   6.380
 4679SOL    HW114936   2.488   0.522   6.444
 4679SOL    HW214937   2.354   0.611   6.418
 4680SOL     OW14938   1.533   5.054   1.381
 4680SOL    HW114939   1.539   5.052   1.281
 4680SOL    HW214940   1.501   4.966   1.415
 4681SOL     OW14941   0.437   5.306   5.609
 4681SOL    HW114942   0.491   5.362   5.672
 4681SOL    HW214943   0.478   5.310   5.518
 4682SOL     OW14944   3.884   6.442   0.082
 4682SOL    HW114945   3.804   6.382   0.091
 4682SOL    HW214946   3.857   6.527   0.038
 4683SOL     OW14947   6.288   3.911   2.440
 4683SOL    HW114948   6.325   3.824   2.409
 4683SOL    HW214949   6.252   3.901   2.533
 4684SOL     OW14950   1.400   2.573   4.842
 4684SOL    HW114951   1.445   2.512   4.908
 4684SOL    HW214952   1.431   2.666   4.855
 4685SOL     OW14953   5.849   5.197   4.011
 4685SOL    HW114954   5.792   5.252   4.071
 4685SOL    HW214955   5.882   5.253   3.935
 4686SOL     OW14956   5.042   5.524   6.988
 4686SOL    HW114957   4.970   5.519   0.030
 4686SOL    HW214958   5.037   5.613   6.941
 4687SOL     OW14959   6.664   4.109   4.540
 4687SOL    HW114960   6.627   4.105   4.448
 4687SOL    HW214961   6.594   4.143   4.603
 4688SOL     OW14962   0.536   3.533   6.985
 4688SOL    HW114963   0.596   3.543   6.906
 4688SOL    HW214964   0.563   3.597   0.030
 4689SOL     OW14965   0.029   6.571   5.666
 4689SOL    HW114966   0.004   6.505   5.596
 4689SOL    HW214967   0.026   6.528   5.756
 4690SOL     OW14968   1.422   1.335   6.837
 4690SOL    HW114969   1.504   1.375   6.796
 4690SOL    HW214970   1.449   1.265   6.904
 4691SOL     OW14971   2.489   4.438   0.904
 4691SOL    HW114972   2.423   4.372   0.940
 4691SOL    HW214973   2.551   4.467   0.977
 4692SOL     OW14974   0.276   4.656   3.087
 4692SOL    HW114975   0.347   4.614   3.144
 4692SOL    HW214976   0.309   4.745   3.054
 4693SOL     OW14977   0.853   1.250   4.663
 4693SOL    HW114978   0.905   1.270   4.580
 4693SOL    HW214979   0.757   1.236   4.639
 4694SOL     OW14980   2.232   1.697   0.031
 4694SOL    HW114981   2.318   1.701   0.082
 4694SOL    HW214982   2.210   1.789   7.023
 4695SOL     OW14983   4.063   2.975   1.682
 4695SOL    HW114984   4.148   2.927   1.661
 4695SOL    HW214985   4.079   3.074   1.680
 4696SOL     OW14986   0.418   3.628   6.114
 4696SOL    HW114987   0.342   3.609   6.176
 4696SOL    HW214988   0.390   3.611   6.020
 4697SOL     OW14989   1.678   4.006   0.085
 4697SOL    HW114990   1.615   4.048   0.149
 4697SOL    HW214991   1.728   4.077   0.035
 4698SOL     OW14992   5.406   4.478   1.495
 4698SOL    HW114993   5.441   4.572   1.489
 4698SOL    HW214994   5.370   4.462   1.587
 4699SOL     OW14995   0.371   0.469   2.661
 4699SOL    HW114996   0.406   0.518   2.582
 4699SOL    HW214997   0.366   0.531   2.740
 4700SOL     OW14998   5.251   1.791   1.301
 4700SOL    HW114999   5.224   1.849   1.378
 4700SOL    HW215000   5.187   1.807   1.225
 4701SOL     OW15001   1.074   1.524   0.325
 4701SOL    HW115002   1.105   1.531   0.230
 4701SOL    HW215003   1.001   1.590   0.341
 4702SOL     OW15004   3.462   4.122   6.761
 4702SOL    HW115005   3.403   4.097   6.837
 4702SOL    HW215006   3.410   4.113   6.675
 4703SOL     OW15007   1.998   1.188   2.867
 4703SOL    HW115008   2.009   1.166   2.770
 4703SOL    HW215009   2.080   1.160   2.917
 4704SOL     OW15010   0.605   0.152   1.230
 4704SOL    HW115011   0.674   0.197   1.173
 4704SOL    HW215012   0.521   0.141   1.178
 4705SOL     OW15013   3.473   2.894   4.188
 4705SOL    HW115014   3.464   2.795   4.178
 4705SOL    HW215015   3.568   2.917   4.207
 4706SOL     OW15016   3.850   6.311   6.852
 4706SOL    HW115017   3.849   6.212   6.870
 4706SOL    HW215018   3.806   6.359   6.927
 4707SOL     OW15019   1.873   5.504   1.347
 4707SOL    HW115020   1.855   5.523   1.251
 4707SOL    HW215021   1.862   5.406   1.364
 4708SOL     OW15022   3.391   2.887   0.950
 4708SOL    HW115023   3.477   2.899   1.000
 4708SOL    HW215024   3.406   2.824   0.874
 4709SOL     OW15025   4.242   4.873   5.539
 4709SOL    HW115026   4.229   4.934   5.461
 4709SOL    HW215027   4.153   4.847   5.577
 4710SOL     OW15028   5.080   0.993   0.175
 4710SOL    HW115029   5.024   1.072   0.148
 4710SOL    HW215030   5.096   0.935   0.095
 4711SOL     OW15031   3.128   0.007   2.506
 4711SOL    HW115032   3.118   6.982   2.591
 4711SOL    HW215033   3.217   7.015   2.465
 4712SOL     OW15034   1.658   4.841   0.966
 4712SOL    HW115035   1.737   4.897   0.991
 4712SOL    HW215036   1.610   4.885   0.889
 4713SOL     OW15037   2.426   5.476   1.377
 4713SOL    HW115038   2.362   5.550   1.355
 4713SOL    HW215039   2.420   5.405   1.307
 4714SOL     OW15040   2.727   1.413   1.632
 4714SOL    HW115041   2.642   1.389   1.678
 4714SOL    HW215042   2.707   1.454   1.543
 4715SOL     OW15043   6.439   3.060   2.385
 4715SOL    HW115044   6.461   2.993   2.455
 4715SOL    HW215045   6.522   3.087   2.336
 4716SOL     OW15046   3.502   5.577   6.980
 4716SOL    HW115047   3.414   5.539   7.008
 4716SOL    HW215048   3.539   5.523   6.904
 4717SOL     OW15049   1.252   5.672   2.694
 4717SOL    HW115050   1.289   5.613   2.622
 4717SOL    HW215051   1.327   5.702   2.754
 4718SOL     OW15052   5.518   1.396   6.546
 4718SOL    HW115053   5.510   1.431   6.639
 4718SOL    HW215054   5.601   1.341   6.538
 4719SOL     OW15055   5.609   3.636   2.113
 4719SOL    HW115056   5.587   3.677   2.025
 4719SOL    HW215057   5.667   3.555   2.098
 4720SOL     OW15058   2.721   6.704   5.629
 4720SOL    HW115059   2.630   6.667   5.649
 4720SOL    HW215060   2.790   6.633   5.641
 4721SOL     OW15061   1.510   2.320   0.854
 4721SOL    HW115062   1.585   2.331   0.789
 4721SOL    HW215063   1.423   2.317   0.805
 4722SOL     OW15064   1.389   6.690   0.505
 4722SOL    HW115065   1.476   6.708   0.461
 4722SOL    HW215066   1.400   6.695   0.605
 4723SOL     OW15067   2.662   6.561   6.605
 4723SOL    HW115068   2.646   6.634   6.672
 4723SOL    HW215069   2.592   6.567   6.533
 4724SOL     OW15070   3.764   6.529   2.422
 4724SOL    HW115071   3.790   6.616   2.380
 4724SOL    HW215072   3.730   6.467   2.351
 4725SOL     OW15073   5.338   6.350   2.909
 4725SOL    HW115074   5.313   6.445   2.929
 4725SOL    HW215075   5.262   6.289   2.933
 4726SOL     OW15076   1.314   4.094   6.667
 4726SOL    HW115077   1.281   4.185   6.691
 4726SOL    HW215078   1.263   4.060   6.588
 4727SOL     OW15079   0.219   5.759   0.554
 4727SOL    HW115080   0.162   5.682   0.526
 4727SOL    HW215081   0.162   5.840   0.566
 4728SOL     OW15082   6.598   0.941   6.601
 4728SOL    HW115083   6.586   1.035   6.568
 4728SOL    HW215084   6.633   0.942   6.694
 4729SOL     OW15085   2.931   6.940   2.088
 4729SOL    HW115086   3.027   6.967   2.081
 4729SOL    HW215087   2.882   6.967   2.004
 4730SOL     OW15088   2.576   6.182   5.548
 4730SOL    HW115089   2.582   6.281   5.563
 4730SOL    HW215090   2.571   6.135   5.635
 4731SOL     OW15091   5.784   0.945   5.037
 4731SOL    HW115092   5.721   0.903   4.972
 4731SOL    HW215093   5.733   0.976   5.118
 4732SOL     OW15094   6.824   3.184   6.805
 4732SOL    HW115095   6.761   3.146   6.873
 4732SOL    HW215096   6.795   3.155   6.714
 4733SOL     OW15097   6.931   3.257   3.330
 4733SOL    HW115098   6.858   3.311   3.373
 4733SOL    HW215099   6.891   3.173   3.291
 4734SOL     OW15100   4.390   3.708   0.147
 4734SOL    HW115101   4.411   3.616   0.115
 4734SOL    HW215102   4.472   3.765   0.139
 4735SOL     OW15103   0.718   4.623   3.791
 4735SOL    HW115104   0.800   4.604   3.737
 4735SOL    HW215105   0.645   4.560   3.764
 4736SOL     OW15106   1.044   1.171   0.118
 4736SOL    HW115107   1.086   1.168   0.028
 4736SOL    HW215108   1.108   1.135   0.186
 4737SOL     OW15109   2.566   4.964   1.995
 4737SOL    HW115110   2.617   4.878   2.006
 4737SOL    HW215111   2.628   5.041   2.007
 4738SOL     OW15112   6.966   6.732   1.782
 4738SOL    HW115113   6.971   6.636   1.808
 4738SOL    HW215114   6.884   6.746   1.725
 4739SOL     OW15115   4.127   0.466   2.707
 4739SOL    HW115116   4.141   0.415   2.622
 4739SOL    HW215117   4.175   0.554   2.702
 4740SOL     OW15118   0.715   2.052   2.595
 4740SOL    HW115119   0.794   1.991   2.592
 4740SOL    HW215120   0.715   2.102   2.682
 4741SOL     OW15121   4.287   3.389   1.732
 4741SOL    HW115122   4.301   3.450   1.654
 4741SOL    HW215123   4.359   3.320   1.734
 4742SOL     OW15124   2.833   6.874   0.324
 4742SOL    HW115125   2.902   6.898   0.392
 4742SOL    HW215126   2.743   6.901   0.357
 4743SOL     OW15127   2.063   4.787   1.609
 4743SOL    HW115128   2.022   4.724   1.542
 4743SOL    HW215129   2.162   4.770   1.613
 4744SOL     OW15130   2.076   6.787   0.865
 4744SOL    HW115131   1.997   6.818   0.813
 4744SOL    HW215132   2.052   6.705   0.918
 4745SOL     OW15133   1.942   4.348   0.655
 4745SOL    HW115134   1.915   4.442   0.634
 4745SOL    HW215135   2.010   4.348   0.728
 4746SOL     OW15136   4.656   5.313   4.339
 4746SOL    HW115137   4.724   5.240   4.346
 4746SOL    HW215138   4.698   5.392   4.295
 4747SOL     OW15139   1.687   2.716   0.685
 4747SOL    HW115140   1.749   2.765   0.625
 4747SOL    HW215141   1.647   2.639   0.635
 4748SOL     OW15142   2.062   6.486   3.034
 4748SOL    HW115143   2.010   6.480   2.948
 4748SOL    HW215144   2.057   6.399   3.082
 4749SOL     OW15145   1.632   0.327   0.450
 4749SOL    HW115146   1.550   0.279   0.416
 4749SOL    HW215147   1.711   0.297   0.397
 4750SOL     OW15148   5.488   3.796   5.272
 4750SOL    HW115149   5.460   3.735   5.197
 4750SOL    HW215150   5.551   3.747   5.333
 4751SOL     OW15151   4.872   0.994   2.733
 4751SOL    HW115152   4.819   0.978   2.817
 4751SOL    HW215153   4.861   1.089   2.705
 4752SOL     OW15154   4.328   2.210   0.070
 4752SOL    HW115155   4.239   2.168   0.085
 4752SOL    HW215156   4.318   2.290   0.011
 4753SOL     OW15157   2.778   6.125   4.980
 4753SOL    HW115158   2.699   6.114   5.041
 4753SOL    HW215159   2.749   6.172   4.896
 4754SOL     OW15160   4.439   4.737   6.715
 4754SOL    HW115161   4.532   4.738   6.752
 4754SOL    HW215162   4.386   4.665   6.760
 4755SOL     OW15163   1.228   0.698   1.692
 4755SOL    HW115164   1.185   0.608   1.695
 4755SOL    HW215165   1.304   0.697   1.626
 4756SOL     OW15166   6.513   4.466   6.469
 4756SOL    HW115167   6.494   4.392   6.534
 4756SOL    HW215168   6.519   4.553   6.519
 4757SOL     OW15169   2.004   3.213   1.428
 4757SOL    HW115170   1.991   3.310   1.446
 4757SOL    HW215171   2.092   3.184   1.465
 4758SOL     OW15172   2.208   6.977   2.956
 4758SOL    HW115173   2.204   0.041   3.000
 4758SOL    HW215174   2.299   6.963   2.917
 4759SOL     OW15175   0.886   5.075   1.700
 4759SOL    HW115176   0.981   5.061   1.673
 4759SOL    HW215177   0.844   4.986   1.719
 4760SOL     OW15178   1.777   6.708   1.151
 4760SOL    HW115179   1.813   6.763   1.226
 4760SOL    HW215180   1.802   6.612   1.165
 4761SOL     OW15181   0.278   6.868   0.868
 4761SOL    HW115182   0.263   6.780   0.823
 4761SOL    HW215183   0.234   6.868   0.958
 4762SOL     OW15184   2.003   5.400   2.308
 4762SOL    HW115185   1.968   5.343   2.382
 4762SOL    HW215186   2.078   5.353   2.262
 4763SOL     OW15187   4.894   5.951   1.949
 4763SOL    HW115188   4.851   5.982   2.034
 4763SOL    HW215189   4.935   5.861   1.964
 4764SOL     OW15190   4.414   3.841   6.151
 4764SOL    HW115191   4.477   3.850   6.074
 4764SOL    HW215192   4.416   3.746   6.184
 4765SOL     OW15193   3.843   1.528   5.254
 4765SOL    HW115194   3.863   1.623   5.230
 4765SOL    HW215195   3.810   1.525   5.349
 4766SOL     OW15196   6.534   0.110   4.334
 4766SOL    HW115197   6.515   0.103   4.432
 4766SOL    HW215198   6.608   0.048   4.309
 4767SOL     OW15199   2.223   5.460   4.617
 4767SOL    HW115200   2.308   5.408   4.608
 4767SOL    HW215201   2.243   5.555   4.637
 4768SOL     OW15202   4.532   2.569   6.996
 4768SOL    HW115203   4.622   2.530   7.016
 4768SOL    HW215204   4.527   2.595   6.900
 4769SOL     OW15205   3.440   5.783   1.061
 4769SOL    HW115206   3.471   5.878   1.061
 4769SOL    HW215207   3.388   5.764   1.144
 4770SOL     OW15208   0.614   1.285   5.455
 4770SOL    HW115209   0.676   1.341   5.510
 4770SOL    HW215210   0.533   1.339   5.431
 4771SOL     OW15211   2.450   6.519   4.910
 4771SOL    HW115212   2.441   6.497   5.007
 4771SOL    HW215213   2.538   6.565   4.894
 4772SOL     OW15214   2.296   5.879   0.859
 4772SOL    HW115215   2.277   5.954   0.922
 4772SOL    HW215216   2.299   5.915   0.765
 4773SOL     OW15217   2.273   5.169   5.099
 4773SOL    HW115218   2.223   5.239   5.047
 4773SOL    HW215219   2.368   5.197   5.110
 4774SOL     OW15220   1.603   3.831   6.935
 4774SOL    HW115221   1.611   3.903   7.003
 4774SOL    HW215222   1.562   3.750   6.976
 4775SOL     OW15223   5.697   6.653   5.153
 4775SOL    HW115224   5.759   6.649   5.231
 4775SOL    HW215225   5.609   6.690   5.182
 4776SOL     OW15226   1.196   0.552   6.323
 4776SOL    HW115227   1.128   0.599   6.267
 4776SOL    HW215228   1.155   0.521   6.408
 4777SOL     OW15229   0.617   6.194   1.024
 4777SOL    HW115230   0.552   6.189   0.948
 4777SOL    HW215231   0.589   6.266   1.087
 4778SOL     OW15232   1.318   2.636   5.448
 4778SOL    HW115233   1.261   2.695   5.505
 4778SOL    HW215234   1.397   2.605   5.501
 4779SOL     OW15235   5.469   1.089   3.436
 4779SOL    HW115236   5.520   1.004   3.432
 4779SOL    HW215237   5.447   1.111   3.531
 4780SOL     OW15238   6.422   2.342   5.161
 4780SOL    HW115239   6.402   2.420   5.220
 4780SOL    HW215240   6.455   2.374   5.072
 4781SOL     OW15241   2.069   5.713   2.574
 4781SOL    HW115242   2.147   5.773   2.591
 4781SOL    HW215243   2.090   5.621   2.608
 4782SOL     OW15244   5.654   4.770   4.919
 4782SOL    HW115245   5.556   4.783   4.933
 4782SOL    HW215246   5.699   4.859   4.923
 4783SOL     OW15247   6.478   2.715   1.083
 4783SOL    HW115248   6.525   2.638   1.126
 4783SOL    HW215249   6.393   2.734   1.131
 4784SOL     OW15250   5.628   2.164   6.385
 4784SOL    HW115251   5.570   2.096   6.430
 4784SOL    HW215252   5.619   2.251   6.433
 4785SOL     OW15253   0.854   6.100   3.299
 4785SOL    HW115254   0.916   6.174   3.275
 4785SOL    HW215255   0.860   6.081   3.397
 4786SOL     OW15256   2.718   6.675   0.633
 4786SOL    HW115257   2.678   6.623   0.709
 4786SOL    HW215258   2.669   6.761   0.623
 4787SOL     OW15259   3.638   1.511   4.637
 4787SOL    HW115260   3.647   1.603   4.675
 4787SOL    HW215261   3.624   1.446   4.712
 4788SOL     OW15262   6.198   6.322   6.544
 4788SOL    HW115263   6.109   6.316   6.499
 4788SOL    HW215264   6.186   6.318   6.643
 4789SOL     OW15265   5.003   0.345   2.379
 4789SOL    HW115266   5.051   0.423   2.340
 4789SOL    HW215267   4.949   0.300   2.308
 4790SOL     OW15268   5.627   2.258   5.116
 4790SOL    HW115269   5.584   2.184   5.065
 4790SOL    HW215270   5.718   2.277   5.078
 4791SOL     OW15271   6.603   2.907   0.551
 4791SOL    HW115272   6.577   2.846   0.476
 4791SOL    HW215273   6.523   2.957   0.583
 4792SOL     OW15274   2.108   3.352   4.144
 4792SOL    HW115275   2.123   3.288   4.069
 4792SOL    HW215276   2.111   3.303   4.231
 4793SOL     OW15277   0.895   3.495   6.030
 4793SOL    HW115278   0.955   3.543   6.094
 4793SOL    HW215279   0.825   3.558   5.996
 4794SOL     OW15280   4.446   0.857   4.245
 4794SOL    HW115281   4.417   0.952   4.247
 4794SOL    HW215282   4.375   0.801   4.201
 4795SOL     OW15283   0.749   0.794   5.570
 4795SOL    HW115284   0.757   0.893   5.569
 4795SOL    HW215285   0.658   0.768   5.536
 4796SOL     OW15286   3.574   1.581   5.705
 4796SOL    HW115287   3.562   1.657   5.641
 4796SOL    HW215288   3.606   1.616   5.793
 4797SOL     OW15289   0.760   5.452   4.458
 4797SOL    HW115290   0.686   5.459   4.391
 4797SOL    HW215291   0.845   5.426   4.412
 4798SOL     OW15292   5.005   4.933   6.425
 4798SOL    HW115293   5.103   4.923   6.407
 4798SOL    HW215294   4.969   5.010   6.372
 4799SOL     OW15295   3.633   3.200   0.177
 4799SOL    HW115296   3.614   3.232   0.270
 4799SOL    HW215297   3.577   3.120   0.158
 4800SOL     OW15298   1.688   4.789   0.103
 4800SOL    HW115299   1.602   4.824   0.139
 4800SOL    HW215300   1.747   4.865   0.078
 4801SOL     OW15301   4.955   2.491   1.847
 4801SOL    HW115302   4.910   2.552   1.782
 4801SOL    HW215303   5.041   2.533   1.877
 4802SOL     OW15304   6.946   6.888   2.271
 4802SOL    HW115305   6.848   6.907   2.270
 4802SOL    HW215306   6.973   6.845   2.185
 4803SOL     OW15307   5.613   4.195   6.155
 4803SOL    HW115308   5.568   4.111   6.125
 4803SOL    HW215309   5.707   4.176   6.181
 4804SOL     OW15310   5.545   1.322   0.644
 4804SOL    HW115311   5.510   1.406   0.686
 4804SOL    HW215312   5.486   1.295   0.568
 4805SOL     OW15313   6.166   2.376   1.249
 4805SOL    HW115314   6.157   2.285   1.291
 4805SOL    HW215315   6.204   2.440   1.316
 4806SOL     OW15316   1.032   2.412   3.243
 4806SOL    HW115317   0.949   2.355   3.243
 4806SOL    HW215318   1.093   2.381   3.171
 4807SOL     OW15319   1.547   3.047   6.678
 4807SOL    HW115320   1.489   3.011   6.604
 4807SOL    HW215321   1.512   3.013   6.765
 4808SOL     OW15322   4.116   5.920   0.806
 4808SOL    HW115323   4.034   5.969   0.778
 4808SOL    HW215324   4.117   5.913   0.906
 4809SOL     OW15325   3.626   5.019   1.692
 4809SOL    HW115326   3.704   5.081   1.698
 4809SOL    HW215327   3.562   5.051   1.622
 4810SOL     OW15328   1.252   4.394   3.956
 4810SOL    HW115329   1.186   4.319   3.954
 4810SOL    HW215330   1.240   4.446   4.040
 4811SOL     OW15331   2.997   3.810   4.543
 4811SOL    HW115332   2.970   3.732   4.600
 4811SOL    HW215333   3.024   3.776   4.452
 4812SOL     OW15334   0.336   0.053   2.297
 4812SOL    HW115335   0.351   0.092   2.207
 4812SOL    HW215336   0.401   7.005   2.313
 4813SOL     OW15337   6.163   1.538   6.836
 4813SOL    HW115338   6.187   1.458   6.890
 4813SOL    HW215339   6.247   1.587   6.809
 4814SOL     OW15340   0.144   3.689   1.473
 4814SOL    HW115341   0.210   3.759   1.445
 4814SOL    HW215342   0.194   3.610   1.510
 4815SOL     OW15343   5.955   5.001   2.591
 4815SOL    HW115344   5.973   5.020   2.494
 4815SOL    HW215345   6.041   4.979   2.637
 4816SOL     OW15346   1.539   0.284   2.105
 4816SOL    HW115347   1.539   0.288   2.005
 4816SOL    HW215348   1.612   0.223   2.136
 4817SOL     OW15349   4.109   1.188   1.379
 4817SOL    HW115350   4.109   1.269   1.321
 4817SOL    HW215351   4.141   1.109   1.326
 4818SOL     OW15352   3.153   0.466   4.967
 4818SOL    HW115353   3.121   0.556   4.996
 4818SOL    HW215354   3.194   0.418   5.045
 4819SOL     OW15355   3.534   0.839   1.095
 4819SOL    HW115356   3.608   0.783   1.133
 4819SOL    HW215357   3.469   0.861   1.167
 4820SOL     OW15358   6.706   4.261   2.237
 4820SOL    HW115359   6.646   4.181   2.240
 4820SOL    HW215360   6.773   4.251   2.163
 4821SOL     OW15361   6.276   5.176   1.574
 4821SOL    HW115362   6.271   5.212   1.667
 4821SOL    HW215363   6.218   5.095   1.566
 4822SOL     OW15364   1.784   4.132   3.502
 4822SOL    HW115365   1.850   4.205   3.520
 4822SOL    HW215366   1.704   4.170   3.456
 4823SOL     OW15367   0.960   0.476   4.556
 4823SOL    HW115368   0.960   0.482   4.656
 4823SOL    HW215369   0.866   0.467   4.524
 4824SOL     OW15370   5.021   2.283   2.648
 4824SOL    HW115371   5.047   2.353   2.581
 4824SOL    HW215372   5.042   2.193   2.611
 4825SOL     OW15373   1.757   3.459   3.301
 4825SOL    HW115374   1.724   3.372   3.337
 4825SOL    HW215375   1.752   3.529   3.372
 4826SOL     OW15376   0.150   6.667   0.393
 4826SOL    HW115377   0.158   6.615   0.308
 4826SOL    HW215378   0.171   6.763   0.375
 4827SOL     OW15379   4.851   1.042   0.845
 4827SOL    HW115380   4.924   0.989   0.801
 4827SOL    HW215381   4.762   1.006   0.817
 4828SOL     OW15382   4.811   3.418   1.853
 4828SOL    HW115383   4.873   3.473   1.797
 4828SOL    HW215384   4.862   3.369   1.923
 4829SOL     OW15385   3.081   0.830   6.054
 4829SOL    HW115386   3.172   0.812   6.093
 4829SOL    HW215387   3.068   0.773   5.972
 4830SOL     OW15388   4.954   6.457   3.543
 4830SOL    HW115389   5.051   6.447   3.568
 4830SOL    HW215390   4.926   6.552   3.558
 4831SOL     OW15391   6.638   4.360   5.443
 4831SOL    HW115392   6.695   4.373   5.524
 4831SOL    HW215393   6.606   4.266   5.439
 4832SOL     OW15394   3.105   2.947   5.869
 4832SOL    HW115395   3.114   2.949   5.770
 4832SOL    HW215396   3.024   2.895   5.894
 4833SOL     OW15397   4.276   1.274   3.424
 4833SOL    HW115398   4.176   1.273   3.423
 4833SOL    HW215399   4.309   1.358   3.382
 4834SOL     OW15400   4.480   1.432   1.912
 4834SOL    HW115401   4.411   1.484   1.862
 4834SOL    HW215402   4.516   1.487   1.987
 4835SOL     OW15403   2.262   0.068   6.753
 4835SOL    HW115404   2.164   0.089   6.751
 4835SOL    HW215405   2.286   0.016   6.671
 4836SOL     OW15406   5.047   1.985   4.049
 4836SOL    HW115407   4.994   1.937   4.120
 4836SOL    HW215408   5.139   1.946   4.044
 4837SOL     OW15409   2.625   2.505   0.817
 4837SOL    HW115410   2.665   2.425   0.860
 4837SOL    HW215411   2.561   2.477   0.745
 4838SOL     OW15412   3.579   4.891   2.239
 4838SOL    HW115413   3.637   4.863   2.316
 4838SOL    HW215414   3.608   4.844   2.156
 4839SOL     OW15415   0.191   5.388   5.696
 4839SOL    HW115416   0.284   5.352   5.693
 4839SOL    HW215417   0.157   5.401   5.602
 4840SOL     OW15418   6.230   6.368   0.001
 4840SOL    HW115419   6.286   6.295   0.039
 4840SOL    HW215420   6.283   6.452   7.022
 4841SOL     OW15421   3.132   5.597   1.989
 4841SOL    HW115422   3.152   5.677   2.046
 4841SOL    HW215423   3.188   5.520   2.020
 4842SOL     OW15424   4.224   6.204   1.786
 4842SOL    HW115425   4.319   6.236   1.775
 4842SOL    HW215426   4.222   6.129   1.853
 4843SOL     OW15427   7.024   3.804   0.181
 4843SOL    HW115428   6.958   3.784   0.108
 4843SOL    HW215429   0.061   3.874   0.149
 4844SOL     OW15430   6.577   2.737   6.607
 4844SOL    HW115431   6.566   2.640   6.588
 4844SOL    HW215432   6.488   2.778   6.624
 4845SOL     OW15433   5.919   5.620   3.749
 4845SOL    HW115434   5.911   5.698   3.811
 4845SOL    HW215435   5.972   5.647   3.669
 4846SOL     OW15436   1.605   3.056   0.945
 4846SOL    HW115437   1.650   3.112   1.014
 4846SOL    HW215438   1.672   2.994   0.903
 4847SOL     OW15439   3.347   2.018   5.372
 4847SOL    HW115440   3.254   1.981   5.373
 4847SOL    HW215441   3.370   2.048   5.280
 4848SOL     OW15442   1.996   1.398   3.204
 4848SOL    HW115443   2.000   1.456   3.123
 4848SOL    HW215444   2.013   1.303   3.178
 4849SOL     OW15445   1.457   0.218   0.245
 4849SOL    HW115446   1.536   0.207   0.184
 4849SOL    HW215447   1.375   0.232   0.191
 4850SOL     OW15448   4.384   0.480   1.560
 4850SOL    HW115449   4.447   0.550   1.525
 4850SOL    HW215450   4.400   0.394   1.512
 4851SOL     OW15451   4.135   6.202   5.614
 4851SOL    HW115452   4.095   6.117   5.579
 4851SOL    HW215453   4.231   6.187   5.637
 4852SOL     OW15454   2.096   0.762   6.905
 4852SOL    HW115455   2.094   0.734   7.001
 4852SOL    HW215456   2.027   0.711   6.854
 4853SOL     OW15457   3.517   1.428   2.762
 4853SOL    HW115458   3.463   1.433   2.846
 4853SOL    HW215459   3.543   1.520   2.733
 4854SOL     OW15460   4.789   6.001   2.185
 4854SOL    HW115461   4.825   6.032   2.273
 4854SOL    HW215462   4.690   5.989   2.192
 4855SOL     OW15463   6.075   1.636   2.014
 4855SOL    HW115464   6.108   1.730   2.003
 4855SOL    HW215465   6.104   1.581   1.937
 4856SOL     OW15466   2.783   4.756   3.928
 4856SOL    HW115467   2.695   4.709   3.932
 4856SOL    HW215468   2.814   4.762   3.833
 4857SOL     OW15469   0.946   2.139   5.947
 4857SOL    HW115470   0.933   2.221   5.891
 4857SOL    HW215471   0.916   2.058   5.896
 4858SOL     OW15472   1.798   2.458   4.469
 4858SOL    HW115473   1.771   2.403   4.548
 4858SOL    HW215474   1.748   2.427   4.388
 4859SOL     OW15475   1.676   5.904   4.802
 4859SOL    HW115476   1.746   5.976   4.798
 4859SOL    HW215477   1.663   5.875   4.897
 4860SOL     OW15478   4.769   5.446   1.526
 4860SOL    HW115479   4.819   5.431   1.611
 4860SOL    HW215480   4.678   5.482   1.546
 4861SOL     OW15481   4.929   4.681   6.464
 4861SOL    HW115482   5.004   4.616   6.452
 4861SOL    HW215483   4.964   4.774   6.451
 4862SOL     OW15484   1.156   5.151   2.834
 4862SOL    HW115485   1.175   5.187   2.743
 4862SOL    HW215486   1.083   5.204   2.877
 4863SOL     OW15487   5.637   3.993   0.192
 4863SOL    HW115488   5.633   3.921   0.262
 4863SOL    HW215489   5.547   4.003   0.151
 4864SOL     OW15490   2.616   1.134   3.509
 4864SOL    HW115491   2.608   1.224   3.552
 4864SOL    HW215492   2.701   1.090   3.539
 4865SOL     OW15493   2.473   5.503   4.924
 4865SOL    HW115494   2.390   5.450   4.940
 4865SOL    HW215495   2.455   5.573   4.855
 4866SOL     OW15496   0.159   3.876   1.179
 4866SOL    HW115497   0.077   3.916   1.219
 4866SOL    HW215498   0.227   3.859   1.250
 4867SOL     OW15499   4.597   5.939   2.446
 4867SOL    HW115500   4.589   5.927   2.545
 4867SOL    HW215501   4.629   6.031   2.426
 4868SOL     OW15502   6.269   4.171   1.661
 4868SOL    HW115503   6.297   4.141   1.753
 4868SOL    HW215504   6.306   4.262   1.643
 4869SOL     OW15505   1.040   1.495   6.418
 4869SOL    HW115506   0.971   1.520   6.486
 4869SOL    HW215507   1.012   1.411   6.371
 4870SOL     OW15508   0.692   6.384   2.102
 4870SOL    HW115509   0.718   6.479   2.116
 4870SOL    HW215510   0.769   6.325   2.128
 4871SOL     OW15511   1.524   1.089   4.517
 4871SOL    HW115512   1.450   1.116   4.578
 4871SOL    HW215513   1.491   1.086   4.423
 4872SOL     OW15514   6.750   6.426   3.086
 4872SOL    HW115515   6.761   6.385   3.176
 4872SOL    HW215516   6.831   6.479   3.063
 4873SOL     OW15517   6.531   5.816   4.677
 4873SOL    HW115518   6.628   5.837   4.688
 4873SOL    HW215519   6.495   5.776   4.761
 4874SOL     OW15520   4.742   2.383   3.560
 4874SOL    HW115521   4.815   2.409   3.497
 4874SOL    HW215522   4.715   2.288   3.545
 4875SOL     OW15523   5.146   6.742   6.857
 4875SOL    HW115524   5.192   6.768   6.772
 4875SOL    HW215525   5.177   6.651   6.885
 4876SOL     OW15526   1.621   1.632   3.137
 4876SOL    HW115527   1.639   1.669   3.046
 4876SOL    HW215528   1.561   1.694   3.188
 4877SOL     OW15529   0.411   1.972   4.883
 4877SOL    HW115530   0.486   1.953   4.947
 4877SOL    HW215531   0.342   2.028   4.929
 4878SOL     OW15532   6.821   2.018   1.866
 4878SOL    HW115533   6.903   2.060   1.828
 4878SOL    HW215534   6.742   2.076   1.846
 4879SOL     OW15535   4.806   1.524   2.549
 4879SOL    HW115536   4.902   1.534   2.523
 4879SOL    HW215537   4.762   1.457   2.490
 4880SOL     OW15538   6.331   3.190   6.695
 4880SOL    HW115539   6.319   3.259   6.624
 4880SOL    HW215540   6.389   3.116   6.660
 4881SOL     OW15541   1.651   2.737   1.554
 4881SOL    HW115542   1.625   2.708   1.462
 4881SOL    HW215543   1.667   2.657   1.612
 4882SOL     OW15544   4.072   1.992   5.069
 4882SOL    HW115545   4.064   1.950   4.979
 4882SOL    HW215546   4.058   1.921   5.139
 4883SOL     OW15547   5.378   3.742   1.366
 4883SOL    HW115548   5.418   3.807   1.301
 4883SOL    HW215549   5.298   3.698   1.325
 4884SOL     OW15550   1.209   5.999   1.216
 4884SOL    HW115551   1.219   6.007   1.117
 4884SOL    HW215552   1.128   5.944   1.237
 4885SOL     OW15553   2.531   5.066   1.696
 4885SOL    HW115554   2.508   5.099   1.787
 4885SOL    HW215555   2.516   4.967   1.691
 4886SOL     OW15556   3.265   0.400   2.259
 4886SOL    HW115557   3.268   0.495   2.292
 4886SOL    HW215558   3.183   0.355   2.294
 4887SOL     OW15559   1.522   6.621   1.630
 4887SOL    HW115560   1.539   6.599   1.534
 4887SOL    HW215561   1.436   6.578   1.659
 4888SOL     OW15562   2.812   6.547   2.894
 4888SOL    HW115563   2.713   6.545   2.880
 4888SOL    HW215564   2.840   6.638   2.924
 4889SOL     OW15565   6.746   1.842   4.200
 4889SOL    HW115566   6.764   1.939   4.181
 4889SOL    HW215567   6.829   1.800   4.236
 4890SOL     OW15568   1.093   0.864   5.649
 4890SOL    HW115569   1.084   0.896   5.744
 4890SOL    HW215570   1.085   0.943   5.587
 4891SOL     OW15571   2.357   5.179   6.180
 4891SOL    HW115572   2.330   5.112   6.249
 4891SOL    HW215573   2.399   5.133   6.103
 4892SOL     OW15574   5.662   6.853   2.405
 4892SOL    HW115575   5.601   6.816   2.475
 4892SOL    HW215576   5.723   6.921   2.445
 4893SOL     OW15577   0.322   3.249   2.079
 4893SOL    HW115578   0.247   3.206   2.028
 4893SOL    HW215579   0.311   3.348   2.076
 4894SOL     OW15580   3.498   0.189   2.280
 4894SOL    HW115581   3.431   0.263   2.289
 4894SOL    HW215582   3.476   0.116   2.345
 4895SOL     OW15583   0.093   4.813   3.188
 4895SOL    HW115584   0.154   4.738   3.161
 4895SOL    HW215585   0.144   4.879   3.243
 4896SOL     OW15586   1.341   5.439   3.638
 4896SOL    HW115587   1.354   5.516   3.700
 4896SOL    HW215588   1.404   5.447   3.561
 4897SOL     OW15589   1.828   5.873   5.505
 4897SOL    HW115590   1.793   5.955   5.550
 4897SOL    HW215591   1.884   5.820   5.569
 4898SOL     OW15592   4.016   0.970   4.790
 4898SOL    HW115593   4.085   0.960   4.718
 4898SOL    HW215594   4.018   0.890   4.849
 4899SOL     OW15595   6.172   5.184   2.057
 4899SOL    HW115596   6.145   5.115   1.991
 4899SOL    HW215597   6.106   5.259   2.056
 4900SOL     OW15598   4.355   6.141   5.404
 4900SOL    HW115599   4.388   6.235   5.398
 4900SOL    HW215600   4.407   6.092   5.473
 4901SOL     OW15601   0.924   2.404   5.853
 4901SOL    HW115602   0.992   2.418   5.925
 4901SOL    HW215603   0.937   2.472   5.781
 4902SOL     OW15604   2.116   0.474   6.567
 4902SOL    HW115605   2.136   0.492   6.664
 4902SOL    HW215606   2.018   0.467   6.554
 4903SOL     OW15607   4.661   5.441   1.126
 4903SOL    HW115608   4.742   5.463   1.180
 4903SOL    HW215609   4.605   5.523   1.115
 4904SOL     OW15610   2.027   0.768   6.557
 4904SOL    HW115611   2.005   0.708   6.634
 4904SOL    HW215612   1.974   0.740   6.477
 4905SOL     OW15613   3.025   0.210   2.813
 4905SOL    HW115614   3.102   0.256   2.769
 4905SOL    HW215615   2.942   0.266   2.802
 4906SOL     OW15616   4.871   3.373   5.269
 4906SOL    HW115617   4.800   3.342   5.331
 4906SOL    HW215618   4.834   3.444   5.209
 4907SOL     OW15619   4.433   1.554   0.226
 4907SOL    HW115620   4.417   1.466   0.180
 4907SOL    HW215621   4.359   1.617   0.203
 4908SOL     OW15622   4.846   0.194   0.159
 4908SOL    HW115623   4.876   0.133   0.085
 4908SOL    HW215624   4.758   0.163   0.193
 4909SOL     OW15625   6.136   4.106   3.502
 4909SOL    HW115626   6.121   4.203   3.522
 4909SOL    HW215627   6.064   4.052   3.545
 4910SOL     OW15628   5.569   0.840   4.893
 4910SOL    HW115629   5.523   0.755   4.917
 4910SOL    HW215630   5.591   0.839   4.795
 4911SOL     OW15631   1.860   2.424   2.590
 4911SOL    HW115632   1.828   2.404   2.498
 4911SOL    HW215633   1.797   2.487   2.635
 4912SOL     OW15634   5.421   1.945   5.896
 4912SOL    HW115635   5.493   1.880   5.872
 4912SOL    HW215636   5.403   2.005   5.818
 4913SOL     OW15637   5.404   2.511   5.414
 4913SOL    HW115638   5.367   2.588   5.361
 4913SOL    HW215639   5.395   2.531   5.511
 4914SOL     OW15640   4.815   0.460   4.795
 4914SOL    HW115641   4.724   0.423   4.813
 4914SOL    HW215642   4.836   0.452   4.697
 4915SOL     OW15643   2.809   5.792   4.960
 4915SOL    HW115644   2.857   5.712   4.995
 4915SOL    HW215645   2.774   5.847   5.036
 4916SOL     OW15646   6.303   0.766   4.463
 4916SOL    HW115647   6.351   0.775   4.550
 4916SOL    HW215648   6.308   0.852   4.413
 4917SOL     OW15649   3.503   6.229   0.814
 4917SOL    HW115650   3.438   6.175   0.760
 4917SOL    HW215651   3.592   6.230   0.769
 4918SOL     OW15652   6.445   5.446   2.102
 4918SOL    HW115653   6.521   5.446   2.037
 4918SOL    HW215654   6.368   5.498   2.064
 4919SOL     OW15655   4.154   3.252   1.929
 4919SOL    HW115656   4.202   3.288   1.849
 4919SOL    HW215657   4.166   3.313   2.007
 4920SOL     OW15658   5.776   0.291   5.715
 4920SOL    HW115659   5.719   0.226   5.666
 4920SOL    HW215660   5.729   0.323   5.797
 4921SOL     OW15661   0.594   6.492   0.784
 4921SOL    HW115662   0.682   6.508   0.739
 4921SOL    HW215663   0.539   6.431   0.727
 4922SOL     OW15664   3.004   1.982   5.070
 4922SOL    HW115665   3.025   2.062   5.127
 4922SOL    HW215666   2.980   2.013   4.978
 4923SOL     OW15667   3.258   2.176   3.038
 4923SOL    HW115668   3.314   2.096   3.014
 4923SOL    HW215669   3.303   2.227   3.111
 4924SOL     OW15670   2.712   1.339   5.792
 4924SOL    HW115671   2.740   1.250   5.828
 4924SOL    HW215672   2.783   1.373   5.729
 4925SOL     OW15673   4.369   6.609   3.395
 4925SOL    HW115674   4.272   6.635   3.393
 4925SOL    HW215675   4.425   6.690   3.375
 4926SOL     OW15676   5.443   1.651   1.495
 4926SOL    HW115677   5.461   1.555   1.518
 4926SOL    HW215678   5.420   1.658   1.398
 4927SOL     OW15679   3.023   2.026   6.558
 4927SOL    HW115680   3.021   1.944   6.615
 4927SOL    HW215681   2.948   2.087   6.584
 4928SOL     OW15682   1.166   1.700   1.157
 4928SOL    HW115683   1.149   1.772   1.224
 4928SOL    HW215684   1.177   1.612   1.203
 4929SOL     OW15685   0.081   0.256   3.730
 4929SOL    HW115686   0.016   0.228   3.801
 4929SOL    HW215687   0.160   0.299   3.774
 4930SOL     OW15688   5.881   0.193   1.982
 4930SOL    HW115689   5.800   0.148   2.020
 4930SOL    HW215690   5.853   0.274   1.930
 4931SOL     OW15691   6.528   6.737   1.672
 4931SOL    HW115692   6.468   6.696   1.604
 4931SOL    HW215693   6.624   6.725   1.645
 4932SOL     OW15694   3.287   4.134   3.175
 4932SOL    HW115695   3.224   4.113   3.250
 4932SOL    HW215696   3.245   4.109   3.088
 4933SOL     OW15697   2.365   6.165   4.448
 4933SOL    HW115698   2.285   6.198   4.398
 4933SOL    HW215699   2.390   6.074   4.415
 4934SOL     OW15700   3.259   6.001   2.960
 4934SOL    HW115701   3.175   6.053   2.972
 4934SOL    HW215702   3.329   6.034   3.024
 4935SOL     OW15703   1.299   2.037   6.660
 4935SOL    HW115704   1.253   1.976   6.596
 4935SOL    HW215705   1.285   2.003   6.753
 4936SOL     OW15706   2.151   4.254   1.260
 4936SOL    HW115707   2.117   4.343   1.231
 4936SOL    HW215708   2.081   4.206   1.312
 4937SOL     OW15709   4.833   3.221   4.936
 4937SOL    HW115710   4.868   3.131   4.962
 4937SOL    HW215711   4.736   3.228   4.962
 4938SOL     OW15712   3.764   5.567   5.751
 4938SOL    HW115713   3.829   5.582   5.677
 4938SOL    HW215714   3.767   5.471   5.780
 4939SOL     OW15715   4.849   3.145   5.846
 4939SOL    HW115716   4.949   3.153   5.843
 4939SOL    HW215717   4.821   3.062   5.797
 4940SOL     OW15718   1.950   6.653   4.937
 4940SOL    HW115719   2.048   6.639   4.926
 4940SOL    HW215720   1.901   6.583   4.885
 4941SOL     OW15721   4.498   1.235   6.650
 4941SOL    HW115722   4.477   1.205   6.743
 4941SOL    HW215723   4.509   1.154   6.591
 4942SOL     OW15724   5.083   3.731   5.451
 4942SOL    HW115725   5.177   3.757   5.471
 4942SOL    HW215726   5.079   3.633   5.429
 4943SOL     OW15727   4.230   2.392   0.851
 4943SOL    HW115728   4.177   2.308   0.840
 4943SOL    HW215729   4.272   2.394   0.941
 4944SOL     OW15730   2.225   4.484   3.306
 4944SOL    HW115731   2.261   4.508   3.215
 4944SOL    HW215732   2.139   4.533   3.321
 4945SOL     OW15733   0.503   6.757   3.945
 4945SOL    HW115734   0.483   6.661   3.925
 4945SOL    HW215735   0.419   6.810   3.939
 4946SOL     OW15736   1.570   3.231   1.990
 4946SOL    HW115737   1.518   3.316   1.988
 4946SOL    HW215738   1.609   3.218   2.081
 4947SOL     OW15739   0.887   6.902   0.344
 4947SOL    HW115740   0.944   6.978   0.375
 4947SOL    HW215741   0.904   6.822   0.402
 4948SOL     OW15742   2.417   1.329   2.320
 4948SOL    HW115743   2.382   1.423   2.330
 4948SOL    HW215744   2.431   1.289   2.411
 4949SOL     OW15745   5.493   0.186   5.326
 4949SOL    HW115746   5.589   0.186   5.356
 4949SOL    HW215747   5.476   0.269   5.272
 4950SOL     OW15748   2.496   5.658   5.150
 4950SOL    HW115749   2.528   5.584   5.090
 4950SOL    HW215750   2.521   5.637   5.244
 4951SOL     OW15751   4.354   1.750   4.637
 4951SOL    HW115752   4.261   1.715   4.647
 4951SOL    HW215753   4.381   1.747   4.541
 4952SOL     OW15754   0.222   6.843   5.380
 4952SOL    HW115755   0.157   6.800   5.317
 4952SOL    HW215756   0.245   6.935   5.346
 4953SOL     OW15757   1.733   5.758   1.435
 4953SOL    HW115758   1.747   5.674   1.384
 4953SOL    HW215759   1.772   5.749   1.527
 4954SOL     OW15760   5.436   5.268   0.071
 4954SOL    HW115761   5.493   5.347   0.049
 4954SOL    HW215762   5.493   5.195   0.107
 4955SOL     OW15763   1.583   6.586   1.359
 4955SOL    HW115764   1.635   6.672   1.360
 4955SOL    HW215765   1.517   6.588   1.284
 4956SOL     OW15766   4.191   6.966   4.899
 4956SOL    HW115767   4.287   6.990   4.915
 4956SOL    HW215768   4.186   6.894   4.830
 4957SOL     OW15769   0.973   1.086   3.974
 4957SOL    HW115770   0.955   0.988   3.981
 4957SOL    HW215771   0.960   1.116   3.879
 4958SOL     OW15772   0.465   6.416   6.192
 4958SOL    HW115773   0.410   6.444   6.271
 4958SOL    HW215774   0.525   6.490   6.165
 4959SOL     OW15775   0.765   0.967   0.629
 4959SOL    HW115776   0.796   1.002   0.541
 4959SOL    HW215777   0.844   0.944   0.685
 4960SOL     OW15778   3.445   6.174   4.228
 4960SOL    HW115779   3.366   6.119   4.257
 4960SOL    HW215780   3.499   6.121   4.163
 4961SOL     OW15781   5.056   0.223   4.884
 4961SOL    HW115782   4.977   0.227   4.823
 4961SOL    HW215783   5.102   0.135   4.873
 4962SOL     OW15784   5.787   2.514   1.731
 4962SOL    HW115785   5.784   2.416   1.749
 4962SOL    HW215786   5.755   2.564   1.811
 4963SOL     OW15787   0.774   5.228   1.510
 4963SOL    HW115788   0.798   5.178   1.593
 4963SOL    HW215789   0.803   5.323   1.519
 4964SOL     OW15790   3.287   6.551   3.368
 4964SOL    HW115791   3.313   6.635   3.415
 4964SOL    HW215792   3.351   6.534   3.293
 4965SOL     OW15793   0.057   0.070   4.528
 4965SOL    HW115794   0.002   0.153   4.519
 4965SOL    HW215795   0.134   0.088   4.590
 4966SOL     OW15796   3.066   5.735   5.209
 4966SOL    HW115797   3.163   5.734   5.231
 4966SOL    HW215798   3.048   5.807   5.141
 4967SOL     OW15799   3.747   2.739   6.924
 4967SOL    HW115800   3.648   2.744   6.909
 4967SOL    HW215801   3.776   2.643   6.926
 4968SOL     OW15802   5.043   2.890   3.976
 4968SOL    HW115803   4.996   2.919   3.892
 4968SOL    HW215804   5.056   2.969   4.036
 4969SOL     OW15805   1.857   1.508   1.268
 4969SOL    HW115806   1.792   1.513   1.192
 4969SOL    HW215807   1.949   1.530   1.235
 4970SOL     OW15808   1.227   2.042   4.842
 4970SOL    HW115809   1.180   2.041   4.754
 4970SOL    HW215810   1.317   1.999   4.832
 4971SOL     OW15811   6.333   6.604   2.941
 4971SOL    HW115812   6.366   6.585   3.033
 4971SOL    HW215813   6.310   6.518   2.895
 4972SOL     OW15814   1.704   3.806   0.618
 4972SOL    HW115815   1.692   3.725   0.675
 4972SOL    HW215816   1.679   3.785   0.524
 4973SOL     OW15817   6.215   6.035   2.613
 4973SOL    HW115818   6.270   6.007   2.534
 4973SOL    HW215819   6.118   6.024   2.591
 4974SOL     OW15820   5.590   6.086   2.678
 4974SOL    HW115821   5.599   6.115   2.774
 4974SOL    HW215822   5.671   6.113   2.627
 4975SOL     OW15823   6.209   6.381   0.372
 4975SOL    HW115824   6.294   6.421   0.336
 4975SOL    HW215825   6.133   6.442   0.351
 4976SOL     OW15826   3.332   0.904   4.963
 4976SOL    HW115827   3.403   0.960   4.920
 4976SOL    HW215828   3.261   0.885   4.895
 4977SOL     OW15829   4.189   3.897   0.720
 4977SOL    HW115830   4.275   3.899   0.668
 4977SOL    HW215831   4.167   3.990   0.750
 4978SOL     OW15832   5.672   3.584   5.808
 4978SOL    HW115833   5.707   3.598   5.716
 4978SOL    HW215834   5.727   3.515   5.855
 4979SOL     OW15835   0.780   0.640   5.992
 4979SOL    HW115836   0.793   0.630   5.893
 4979SOL    HW215837   0.683   0.655   6.011
 4980SOL     OW15838   3.895   5.285   2.420
 4980SOL    HW115839   3.921   5.282   2.516
 4980SOL    HW215840   3.841   5.367   2.402
 4981SOL     OW15841   4.563   0.018   5.393
 4981SOL    HW115842   4.542   0.097   5.336
 4981SOL    HW215843   4.571   0.047   5.488
 4982SOL     OW15844   2.225   2.308   7.008
 4982SOL    HW115845   2.291   2.249   0.029
 4982SOL    HW215846   2.145   2.254   6.982
 4983SOL     OW15847   5.400   2.570   4.121
 4983SOL    HW115848   5.463   2.547   4.047
 4983SOL    HW215849   5.436   2.649   4.172
 4984SOL     OW15850   5.096   4.174   4.437
 4984SOL    HW115851   5.010   4.204   4.479
 4984SOL    HW215852   5.119   4.083   4.471
 4985SOL     OW15853   5.220   4.877   2.660
 4985SOL    HW115854   5.184   4.797   2.708
 4985SOL    HW215855   5.146   4.942   2.643
 4986SOL     OW15856   5.537   4.633   3.548
 4986SOL    HW115857   5.633   4.662   3.549
 4986SOL    HW215858   5.510   4.605   3.641
 4987SOL     OW15859   0.186   3.170   1.239
 4987SOL    HW115860   0.190   3.085   1.291
 4987SOL    HW215861   0.219   3.154   1.146
 4988SOL     OW15862   0.373   1.138   4.167
 4988SOL    HW115863   0.454   1.080   4.171
 4988SOL    HW215864   0.374   1.192   4.083
 4989SOL     OW15865   7.007   1.452   0.789
 4989SOL    HW115866   0.021   1.542   0.779
 4989SOL    HW215867   6.908   1.460   0.800
 4990SOL     OW15868   0.392   2.642   5.366
 4990SOL    HW115869   0.393   2.739   5.387
 4990SOL    HW215870   0.460   2.594   5.421
 4991SOL     OW15871   0.803   2.915   4.342
 4991SOL    HW115872   0.709   2.905   4.310
 4991SOL    HW215873   0.835   2.828   4.379
 4992SOL     OW15874   3.425   1.024   5.280
 4992SOL    HW115875   3.511   1.038   5.230
 4992SOL    HW215876   3.350   1.011   5.214
 4993SOL     OW15877   2.898   6.023   4.224
 4993SOL    HW115878   2.828   5.953   4.206
 4993SOL    HW215879   2.952   5.996   4.303
 4994SOL     OW15880   0.623   6.979   2.874
 4994SOL    HW115881   0.628   7.014   2.780
 4994SOL    HW215882   0.710   6.936   2.897
 4995SOL     OW15883   6.598   2.750   6.095
 4995SOL    HW115884   6.499   2.747   6.106
 4995SOL    HW215885   6.621   2.796   6.010
 4996SOL     OW15886   0.862   1.860   2.257
 4996SOL    HW115887   0.851   1.773   2.209
 4996SOL    HW215888   0.779   1.916   2.244
 4997SOL     OW15889   6.717   2.565   2.952
 4997SOL    HW115890   6.641   2.628   2.968
 4997SOL    HW215891   6.683   2.472   2.940
 4998SOL     OW15892   1.328   5.384   4.572
 4998SOL    HW115893   1.422   5.359   4.592
 4998SOL    HW215894   1.297   5.336   4.490
 4999SOL     OW15895   5.645   5.545   0.824
 4999SOL    HW115896   5.662   5.500   0.736
 4999SOL    HW215897   5.673   5.484   0.898
 5000SOL     OW15898   0.713   0.639   4.495
 5000SOL    HW115899   0.638   0.639   4.561
 5000SOL    HW215900   0.770   0.719   4.509
 5001SOL     OW15901   3.135   4.380   5.352
 5001SOL    HW115902   3.142   4.404   5.449
 5001SOL    HW215903   3.051   4.419   5.314
 5002SOL     OW15904   2.206   1.311   2.114
 5002SOL    HW115905   2.152   1.394   2.098
 5002SOL    HW215906   2.281   1.332   2.178
 5003SOL     OW15907   6.823   6.416   2.364
 5003SOL    HW115908   6.869   6.483   2.306
 5003SOL    HW215909   6.776   6.463   2.438
 5004SOL     OW15910   2.296   5.809   6.451
 5004SOL    HW115911   2.320   5.755   6.370
 5004SOL    HW215912   2.306   5.906   6.430
 5005SOL     OW15913   4.371   3.167   0.379
 5005SOL    HW115914   4.436   3.109   0.329
 5005SOL    HW215915   4.386   3.156   0.478
 5006SOL     OW15916   5.413   6.461   5.066
 5006SOL    HW115917   5.410   6.549   5.018
 5006SOL    HW215918   5.473   6.468   5.145
 5007SOL     OW15919   4.428   1.072   5.925
 5007SOL    HW115920   4.454   1.169   5.918
 5007SOL    HW215921   4.511   1.016   5.926
 5008SOL     OW15922   5.803   1.215   3.525
 5008SOL    HW115923   5.760   1.155   3.593
 5008SOL    HW215924   5.890   1.175   3.496
 5009SOL     OW15925   0.798   6.792   2.305
 5009SOL    HW115926   0.839   6.705   2.279
 5009SOL    HW215927   0.867   6.849   2.351
 5010SOL     OW15928   4.013   3.911   3.769
 5010SOL    HW115929   4.044   3.824   3.731
 5010SOL    HW215930   4.092   3.971   3.783
 5011SOL     OW15931   1.159   3.113   2.221
 5011SOL    HW115932   1.089   3.162   2.271
 5011SOL    HW215933   1.196   3.040   2.278
 5012SOL     OW15934   6.684   2.305   6.072
 5012SOL    HW115935   6.715   2.400   6.061
 5012SOL    HW215936   6.665   2.266   5.983
 5013SOL     OW15937   4.431   1.350   5.986
 5013SOL    HW115938   4.360   1.337   6.055
 5013SOL    HW215939   4.485   1.431   6.008
 5014SOL     OW15940   6.069   6.282   0.577
 5014SOL    HW115941   6.111   6.312   0.491
 5014SOL    HW215942   6.047   6.184   0.570
 5015SOL     OW15943   4.293   2.383   3.768
 5015SOL    HW115944   4.366   2.443   3.801
 5015SOL    HW215945   4.306   2.365   3.671
 5016SOL     OW15946   2.346   0.452   2.525
 5016SOL    HW115947   2.381   0.456   2.619
 5016SOL    HW215948   2.345   0.544   2.486
 5017SOL     OW15949   2.640   1.987   0.747
 5017SOL    HW115950   2.604   2.001   0.655
 5017SOL    HW215951   2.620   2.068   0.803
 5018SOL     OW15952   6.542   4.927   3.331
 5018SOL    HW115953   6.614   4.955   3.394
 5018SOL    HW215954   6.571   4.845   3.280
 5019SOL     OW15955   2.112   4.279   0.383
 5019SOL    HW115956   2.196   4.260   0.433
 5019SOL    HW215957   2.035   4.283   0.447
 5020SOL     OW15958   4.301   5.109   6.610
 5020SOL    HW115959   4.350   5.135   6.693
 5020SOL    HW215960   4.343   5.154   6.531
 5021SOL     OW15961   1.894   4.850   5.504
 5021SOL    HW115962   1.934   4.761   5.521
 5021SOL    HW215963   1.895   4.870   5.406
 5022SOL     OW15964   1.788   6.297   0.621
 5022SOL    HW115965   1.753   6.250   0.702
 5022SOL    HW215966   1.712   6.331   0.566
 5023SOL     OW15967   5.798   2.831   0.901
 5023SOL    HW115968   5.755   2.852   0.989
 5023SOL    HW215969   5.894   2.809   0.915
 5024SOL     OW15970   6.098   3.580   3.955
 5024SOL    HW115971   6.054   3.527   4.027
 5024SOL    HW215972   6.083   3.677   3.971
 5025SOL     OW15973   4.952   2.212   3.376
 5025SOL    HW115974   5.047   2.241   3.387
 5025SOL    HW215975   4.926   2.153   3.452
 5026SOL     OW15976   6.554   5.850   4.206
 5026SOL    HW115977   6.488   5.778   4.183
 5026SOL    HW215978   6.645   5.810   4.216
 5027SOL     OW15979   0.641   6.878   3.557
 5027SOL    HW115980   0.550   6.912   3.581
 5027SOL    HW215981   0.634   6.783   3.524
 5028SOL     OW15982   0.531   6.553   3.189
 5028SOL    HW115983   0.606   6.521   3.131
 5028SOL    HW215984   0.448   6.501   3.167
 5029SOL     OW15985   0.347   2.236   1.423
 5029SOL    HW115986   0.389   2.211   1.511
 5029SOL    HW215987   0.397   2.312   1.383
 5030SOL     OW15988   6.774   0.682   6.746
 5030SOL    HW115989   6.842   0.694   6.673
 5030SOL    HW215990   6.747   0.586   6.750
 5031SOL     OW15991   5.796   0.404   4.372
 5031SOL    HW115992   5.853   0.326   4.397
 5031SOL    HW215993   5.813   0.428   4.276
 5032SOL     OW15994   1.511   5.093   1.100
 5032SOL    HW115995   1.517   5.020   1.032
 5032SOL    HW215996   1.583   5.160   1.082
 5033SOL     OW15997   2.467   4.438   5.414
 5033SOL    HW115998   2.424   4.390   5.339
 5033SOL    HW215999   2.565   4.415   5.417
 5034SOL     OW16000   6.523   2.452   2.001
 5034SOL    HW116001   6.615   2.459   2.039
 5034SOL    HW216002   6.456   2.476   2.071
 5035SOL     OW16003   5.363   5.776   0.428
 5035SOL    HW116004   5.298   5.745   0.497
 5035SOL    HW216005   5.339   5.736   0.339
 5036SOL     OW16006   1.285   0.054   1.314
 5036SOL    HW116007   1.289   0.063   1.214
 5036SOL    HW216008   1.345   0.123   1.356
 5037SOL     OW16009   4.374   1.624   3.659
 5037SOL    HW116010   4.449   1.687   3.677
 5037SOL    HW216011   4.286   1.671   3.670
 5038SOL     OW16012   0.868   5.846   5.574
 5038SOL    HW116013   0.936   5.848   5.502
 5038SOL    HW216014   0.824   5.756   5.577
 5039SOL     OW16015   2.377   2.775   5.287
 5039SOL    HW116016   2.382   2.718   5.204
 5039SOL    HW216017   2.388   2.871   5.262
 5040SOL     OW16018   3.091   4.119   6.033
 5040SOL    HW116019   3.085   4.105   5.934
 5040SOL    HW216020   3.150   4.196   6.053
 5041SOL     OW16021   0.975   3.450   1.845
 5041SOL    HW116022   0.990   3.420   1.939
 5041SOL    HW216023   0.894   3.405   1.809
 5042SOL     OW16024   5.744   2.955   6.303
 5042SOL    HW116025   5.649   2.981   6.317
 5042SOL    HW216026   5.756   2.922   6.210
 5043SOL     OW16027   3.875   0.487   3.621
 5043SOL    HW116028   3.831   0.423   3.559
 5043SOL    HW216029   3.966   0.511   3.586
 5044SOL     OW16030   6.106   5.619   3.042
 5044SOL    HW116031   6.090   5.544   3.107
 5044SOL    HW216032   6.046   5.607   2.963
 5045SOL     OW16033   6.322   2.637   6.847
 5045SOL    HW116034   6.329   2.724   6.895
 5045SOL    HW216035   6.235   2.633   6.797
 5046SOL     OW16036   3.485   3.108   5.202
 5046SOL    HW116037   3.531   3.118   5.114
 5046SOL    HW216038   3.399   3.057   5.190
 5047SOL     OW16039   6.940   0.876   2.509
 5047SOL    HW116040   6.920   0.956   2.565
 5047SOL    HW216041   6.990   0.809   2.564
 5048SOL     OW16042   0.078   2.312   1.439
 5048SOL    HW116043   0.106   2.405   1.418
 5048SOL    HW216044   0.154   2.249   1.419
 5049SOL     OW16045   1.335   2.355   2.007
 5049SOL    HW116046   1.282   2.431   1.970
 5049SOL    HW216047   1.276   2.297   2.063
 5050SOL     OW16048   0.783   3.105   1.426
 5050SOL    HW116049   0.795   3.029   1.489
 5050SOL    HW216050   0.691   3.143   1.437
 5051SOL     OW16051   2.895   4.577   0.795
 5051SOL    HW116052   2.828   4.593   0.867
 5051SOL    HW216053   2.949   4.496   0.816
 5052SOL     OW16054   4.871   5.060   1.093
 5052SOL    HW116055   4.863   5.119   1.013
 5052SOL    HW216056   4.908   5.113   1.169
 5053SOL     OW16057   2.529   3.933   1.365
 5053SOL    HW116058   2.610   3.886   1.331
 5053SOL    HW216059   2.508   3.900   1.457
 5054SOL     OW16060   3.657   5.736   4.945
 5054SOL    HW116061   3.706   5.776   5.023
 5054SOL    HW216062   3.687   5.642   4.932
 5055SOL     OW16063   1.189   1.858   5.192
 5055SOL    HW116064   1.177   1.925   5.119
 5055SOL    HW216065   1.220   1.772   5.153
 5056SOL     OW16066   0.479   3.410   5.553
 5056SOL    HW116067   0.533   3.413   5.638
 5056SOL    HW216068   0.383   3.400   5.575
 5057SOL     OW16069   0.318   5.917   3.902
 5057SOL    HW116070   0.318   5.819   3.925
 5057SOL    HW216071   0.412   5.952   3.909
 5058SOL     OW16072   4.680   4.297   6.112
 5058SOL    HW116073   4.658   4.386   6.072
 5058SOL    HW216074   4.616   4.229   6.078
 5059SOL     OW16075   3.502   2.048   4.876
 5059SOL    HW116076   3.499   2.070   4.778
 5059SOL    HW216077   3.417   2.003   4.903
 5060SOL     OW16078   0.383   2.930   5.360
 5060SOL    HW116079   0.384   2.989   5.279
 5060SOL    HW216080   0.430   2.976   5.435
 5061SOL     OW16081   3.670   2.867   4.747
 5061SOL    HW116082   3.592   2.810   4.773
 5061SOL    HW216083   3.666   2.886   4.649
 5062SOL     OW16084   4.852   0.749   3.126
 5062SOL    HW116085   4.791   0.809   3.074
 5062SOL    HW216086   4.863   0.785   3.219
 5063SOL     OW16087   1.467   0.231   2.512
 5063SOL    HW116088   1.420   0.319   2.502
 5063SOL    HW216089   1.425   0.164   2.450
 5064SOL     OW16090   4.833   5.733   0.658
 5064SOL    HW116091   4.860   5.703   0.567
 5064SOL    HW216092   4.912   5.771   0.706
 5065SOL     OW16093   2.709   0.074   3.330
 5065SOL    HW116094   2.702   7.005   3.356
 5065SOL    HW216095   2.776   0.084   3.256
 5066SOL     OW16096   1.766   4.532   1.660
 5066SOL    HW116097   1.854   4.515   1.616
 5066SOL    HW216098   1.696   4.549   1.590
 5067SOL     OW16099   4.287   2.834   1.606
 5067SOL    HW116100   4.329   2.745   1.623
 5067SOL    HW216101   4.336   2.904   1.658
 5068SOL     OW16102   3.623   6.672   0.811
 5068SOL    HW116103   3.667   6.753   0.772
 5068SOL    HW216104   3.648   6.591   0.757
 5069SOL     OW16105   2.979   4.858   6.031
 5069SOL    HW116106   2.901   4.842   5.970
 5069SOL    HW216107   3.021   4.771   6.054
 5070SOL     OW16108   5.958   3.308   3.956
 5070SOL    HW116109   5.888   3.378   3.947
 5070SOL    HW216110   6.034   3.344   4.011
 5071SOL     OW16111   3.500   0.936   3.829
 5071SOL    HW116112   3.474   0.997   3.903
 5071SOL    HW216113   3.530   0.990   3.750
 5072SOL     OW16114   1.744   1.160   0.865
 5072SOL    HW116115   1.676   1.151   0.938
 5072SOL    HW216116   1.828   1.113   0.892
 5073SOL     OW16117   2.467   6.637   2.461
 5073SOL    HW116118   2.417   6.723   2.456
 5073SOL    HW216119   2.563   6.655   2.482
 5074SOL     OW16120   3.768   2.101   1.719
 5074SOL    HW116121   3.709   2.021   1.709
 5074SOL    HW216122   3.725   2.167   1.780
 5075SOL     OW16123   1.714   3.472   6.623
 5075SOL    HW116124   1.710   3.557   6.572
 5075SOL    HW216125   1.623   3.450   6.659
 5076SOL     OW16126   5.722   0.597   0.389
 5076SOL    HW116127   5.814   0.583   0.426
 5076SOL    HW216128   5.675   0.669   0.440
 5077SOL     OW16129   1.106   5.150   3.801
 5077SOL    HW116130   1.135   5.196   3.885
 5077SOL    HW216131   1.186   5.112   3.754
 5078SOL     OW16132   7.001   1.185   3.829
 5078SOL    HW116133   7.022   1.093   3.863
 5078SOL    HW216134   6.911   1.184   3.785
 5079SOL     OW16135   2.169   2.215   6.033
 5079SOL    HW116136   2.077   2.255   6.031
 5079SOL    HW216137   2.199   2.205   6.128
 5080SOL     OW16138   6.326   5.093   5.977
 5080SOL    HW116139   6.396   5.132   5.917
 5080SOL    HW216140   6.368   5.027   6.039
 5081SOL     OW16141   3.730   6.190   5.657
 5081SOL    HW116142   3.787   6.247   5.599
 5081SOL    HW216143   3.749   6.211   5.753
 5082SOL     OW16144   4.968   6.739   1.529
 5082SOL    HW116145   5.060   6.760   1.561
 5082SOL    HW216146   4.935   6.814   1.472
 5083SOL     OW16147   2.556   0.623   3.051
 5083SOL    HW116148   2.465   0.609   3.090
 5083SOL    HW216149   2.564   0.717   3.018
 5084SOL     OW16150   0.824   4.992   5.144
 5084SOL    HW116151   0.838   5.090   5.157
 5084SOL    HW216152   0.749   4.961   5.202
 5085SOL     OW16153   1.217   3.752   6.469
 5085SOL    HW116154   1.292   3.707   6.421
 5085SOL    HW216155   1.216   3.849   6.446
 5086SOL     OW16156   1.206   4.436   2.357
 5086SOL    HW116157   1.174   4.529   2.376
 5086SOL    HW216158   1.192   4.415   2.260
 5087SOL     OW16159   6.731   5.274   2.870
 5087SOL    HW116160   6.779   5.234   2.948
 5087SOL    HW216161   6.779   5.252   2.785
 5088SOL     OW16162   4.001   6.123   2.490
 5088SOL    HW116163   3.940   6.080   2.423
 5088SOL    HW216164   4.065   6.184   2.443
 5089SOL     OW16165   5.417   4.571   4.530
 5089SOL    HW116166   5.365   4.655   4.549
 5089SOL    HW216167   5.373   4.494   4.575
 5090SOL     OW16168   2.343   0.319   4.432
 5090SOL    HW116169   2.319   0.246   4.368
 5090SOL    HW216170   2.299   0.302   4.520
 5091SOL     OW16171   6.310   0.059   0.466
 5091SOL    HW116172   6.330   7.014   0.532
 5091SOL    HW216173   6.291   0.145   0.513
 5092SOL     OW16174   3.722   3.884   4.847
 5092SOL    HW116175   3.773   3.958   4.804
 5092SOL    HW216176   3.737   3.887   4.946
 5093SOL     OW16177   1.956   1.560   2.974
 5093SOL    HW116178   1.919   1.650   2.998
 5093SOL    HW216179   1.883   1.502   2.939
 5094SOL     OW16180   2.269   5.371   6.599
 5094SOL    HW116181   2.257   5.274   6.579
 5094SOL    HW216182   2.228   5.425   6.525
 5095SOL     OW16183   0.284   1.248   3.006
 5095SOL    HW116184   0.281   1.343   2.977
 5095SOL    HW216185   0.343   1.196   2.944
 5096SOL     OW16186   5.274   3.138   6.202
 5096SOL    HW116187   5.185   3.112   6.240
 5096SOL    HW216188   5.268   3.230   6.163
 5097SOL     OW16189   6.752   6.562   6.131
 5097SOL    HW116190   6.724   6.571   6.036
 5097SOL    HW216191   6.837   6.508   6.136
 5098SOL     OW16192   3.485   2.052   1.974
 5098SOL    HW116193   3.446   2.035   1.884
 5098SOL    HW216194   3.552   2.127   1.968
 5099SOL     OW16195   0.701   5.711   1.860
 5099SOL    HW116196   0.794   5.730   1.830
 5099SOL    HW216197   0.698   5.710   1.960
 5100SOL     OW16198   5.244   4.265   2.696
 5100SOL    HW116199   5.323   4.326   2.697
 5100SOL    HW216200   5.193   4.277   2.611
 5101SOL     OW16201   4.366   0.326   5.547
 5101SOL    HW116202   4.305   0.389   5.498
 5101SOL    HW216203   4.460   0.344   5.519
 5102SOL     OW16204   5.470   5.266   4.002
 5102SOL    HW116205   5.378   5.241   3.972
 5102SOL    HW216206   5.473   5.363   4.023
 5103SOL     OW16207   0.718   0.340   5.678
 5103SOL    HW116208   0.787   0.404   5.711
 5103SOL    HW216209   0.644   0.334   5.745
 5104SOL     OW16210   3.946   5.090   1.358
 5104SOL    HW116211   3.854   5.122   1.334
 5104SOL    HW216212   3.994   5.062   1.276
 5105SOL     OW16213   3.490   3.315   6.936
 5105SOL    HW116214   3.443   3.240   6.984
 5105SOL    HW216215   3.576   3.335   6.982
 5106SOL     OW16216   4.206   2.959   0.664
 5106SOL    HW116217   4.246   2.933   0.752
 5106SOL    HW216218   4.110   2.931   0.662
 5107SOL     OW16219   4.880   2.365   1.267
 5107SOL    HW116220   4.882   2.269   1.236
 5107SOL    HW216221   4.921   2.371   1.358
 5108SOL     OW16222   4.532   3.593   6.821
 5108SOL    HW116223   4.443   3.635   6.835
 5108SOL    HW216224   4.603   3.653   6.859
 5109SOL     OW16225   1.823   3.111   0.703
 5109SOL    HW116226   1.912   3.108   0.658
 5109SOL    HW216227   1.813   3.033   0.764
 5110SOL     OW16228   5.839   0.058   6.103
 5110SOL    HW116229   5.834   0.100   6.194
 5110SOL    HW216230   5.918   0.094   6.054
 5111SOL     OW16231   1.341   6.059   5.160
 5111SOL    HW116232   1.345   5.965   5.124
 5111SOL    HW216233   1.284   6.115   5.100
 5112SOL     OW16234   0.140   0.761   3.533
 5112SOL    HW116235   0.155   0.780   3.436
 5112SOL    HW216236   0.042   0.747   3.549
 5113SOL     OW16237   2.395   5.280   0.882
 5113SOL    HW116238   2.297   5.263   0.875
 5113SOL    HW216239   2.413   5.332   0.966
 5114SOL     OW16240   3.959   6.774   0.469
 5114SOL    HW116241   4.008   6.775   0.557
 5114SOL    HW216242   3.980   6.857   0.418
 5115SOL     OW16243   1.821   4.052   1.736
 5115SOL    HW116244   1.894   4.119   1.720
 5115SOL    HW216245   1.811   3.994   1.655
 5116SOL     OW16246   2.712   0.022   6.731
 5116SOL    HW116247   2.789   6.991   6.701
 5116SOL    HW216248   2.626   7.004   6.709
 5117SOL     OW16249   1.471   2.584   4.339
 5117SOL    HW116250   1.539   2.619   4.404
 5117SOL    HW216251   1.396   2.649   4.332
 5118SOL     OW16252   6.278   6.757   0.153
 5118SOL    HW116253   6.355   6.710   0.196
 5118SOL    HW216254   6.209   6.779   0.222
 5119SOL     OW16255   5.325   2.032   0.393
 5119SOL    HW116256   5.237   1.993   0.369
 5119SOL    HW216257   5.325   2.130   0.373
 5120SOL     OW16258   5.551   0.484   4.781
 5120SOL    HW116259   5.458   0.448   4.787
 5120SOL    HW216260   5.615   0.420   4.824
 5121SOL     OW16261   2.971   3.869   6.737
 5121SOL    HW116262   2.903   3.803   6.706
 5121SOL    HW216263   3.012   3.913   6.658
 5122SOL     OW16264   4.406   5.440   3.452
 5122SOL    HW116265   4.468   5.474   3.382
 5122SOL    HW216266   4.366   5.353   3.422
 5123SOL     OW16267   4.374   2.069   2.270
 5123SOL    HW116268   4.360   2.053   2.172
 5123SOL    HW216269   4.457   2.123   2.284
 5124SOL     OW16270   1.787   6.276   3.611
 5124SOL    HW116271   1.762   6.320   3.698
 5124SOL    HW216272   1.732   6.194   3.599
 5125SOL     OW16273   0.616   2.255   3.886
 5125SOL    HW116274   0.610   2.352   3.906
 5125SOL    HW216275   0.576   2.237   3.795
 5126SOL     OW16276   1.675   6.905   0.995
 5126SOL    HW116277   1.726   6.833   1.041
 5126SOL    HW216278   1.605   6.942   1.057
 5127SOL     OW16279   2.110   5.419   0.212
 5127SOL    HW116280   2.198   5.411   0.165
 5127SOL    HW216281   2.124   5.452   0.305
 5128SOL     OW16282   6.639   6.166   1.937
 5128SOL    HW116283   6.699   6.228   1.987
 5128SOL    HW216284   6.550   6.161   1.983
 5129SOL     OW16285   4.650   6.922   1.383
 5129SOL    HW116286   4.610   6.854   1.444
 5129SOL    HW216287   4.702   6.877   1.311
 5130SOL     OW16288   6.294   4.544   3.490
 5130SOL    HW116289   6.234   4.507   3.561
 5130SOL    HW216290   6.381   4.571   3.531
 5131SOL     OW16291   1.263   2.883   3.390
 5131SOL    HW116292   1.341   2.835   3.430
 5131SOL    HW216293   1.224   2.828   3.317
 5132SOL     OW16294   3.352   4.832   6.677
 5132SOL    HW116295   3.315   4.909   6.730
 5132SOL    HW216296   3.297   4.750   6.694
 5133SOL     OW16297   3.677   5.890   6.590
 5133SOL    HW116298   3.768   5.914   6.625
 5133SOL    HW216299   3.647   5.804   6.630
 5134SOL     OW16300   0.750   3.843   1.396
 5134SOL    HW116301   0.843   3.850   1.360
 5134SOL    HW216302   0.703   3.766   1.355
 5135SOL     OW16303   7.009   1.728   4.627
 5135SOL    HW116304   7.015   1.827   4.610
 5135SOL    HW216305   0.061   1.699   4.681
 5136SOL     OW16306   5.213   0.187   4.335
 5136SOL    HW116307   5.220   0.279   4.375
 5136SOL    HW216308   5.131   0.182   4.278
 5137SOL     OW16309   4.953   4.016   6.417
 5137SOL    HW116310   4.923   4.011   6.512
 5137SOL    HW216311   4.873   4.022   6.357
 5138SOL     OW16312   2.867   3.698   6.429
 5138SOL    HW116313   2.850   3.614   6.377
 5138SOL    HW216314   2.949   3.742   6.395
 5139SOL     OW16315   1.164   6.539   4.180
 5139SOL    HW116316   1.235   6.579   4.122
 5139SOL    HW216317   1.191   6.545   4.275
 5140SOL     OW16318   3.166   3.043   0.848
 5140SOL    HW116319   3.226   2.990   0.909
 5140SOL    HW216320   3.071   3.021   0.868
 5141SOL     OW16321   5.745   3.559   0.632
 5141SOL    HW116322   5.737   3.566   0.533
 5141SOL    HW216323   5.784   3.469   0.656
 5142SOL     OW16324   5.678   3.044   4.428
 5142SOL    HW116325   5.606   3.021   4.494
 5142SOL    HW216326   5.734   2.963   4.411
 5143SOL     OW16327   0.160   4.837   4.175
 5143SOL    HW116328   0.116   4.829   4.086
 5143SOL    HW216329   0.158   4.749   4.222
 5144SOL     OW16330   1.633   6.833   6.546
 5144SOL    HW116331   1.718   6.799   6.507
 5144SOL    HW216332   1.577   6.875   6.474
 5145SOL     OW16333   2.340   4.862   5.419
 5145SOL    HW116334   2.256   4.873   5.366
 5145SOL    HW216335   2.318   4.821   5.508
 5146SOL     OW16336   3.583   3.660   6.825
 5146SOL    HW116337   3.535   3.608   6.755
 5146SOL    HW216338   3.599   3.753   6.792
 5147SOL     OW16339   6.639   4.325   0.849
 5147SOL    HW116340   6.616   4.228   0.847
 5147SOL    HW216341   6.601   4.370   0.768
 5148SOL     OW16342   0.060   6.218   1.424
 5148SOL    HW116343   0.044   6.133   1.373
 5148SOL    HW216344   0.048   6.296   1.363
 5149SOL     OW16345   6.096   1.056   3.065
 5149SOL    HW116346   6.068   1.134   3.120
 5149SOL    HW216347   6.196   1.054   3.058
 5150SOL     OW16348   1.383   6.105   3.633
 5150SOL    HW116349   1.349   6.192   3.597
 5150SOL    HW216350   1.307   6.040   3.642
 5151SOL     OW16351   4.886   1.355   6.039
 5151SOL    HW116352   4.917   1.404   6.121
 5151SOL    HW216353   4.869   1.260   6.062
 5152SOL     OW16354   1.344   4.495   6.982
 5152SOL    HW116355   1.363   4.402   7.013
 5152SOL    HW216356   1.360   4.501   6.883
 5153SOL     OW16357   2.023   2.288   0.726
 5153SOL    HW116358   2.076   2.372   0.720
 5153SOL    HW216359   2.054   2.224   0.655
 5154SOL     OW16360   1.872   3.646   6.068
 5154SOL    HW116361   1.957   3.697   6.052
 5154SOL    HW216362   1.816   3.695   6.135
 5155SOL     OW16363   4.154   6.286   2.312
 5155SOL    HW116364   4.243   6.282   2.267
 5155SOL    HW216365   4.083   6.256   2.248
 5156SOL     OW16366   6.618   2.394   5.797
 5156SOL    HW116367   6.537   2.372   5.741
 5156SOL    HW216368   6.692   2.330   5.774
 5157SOL     OW16369   4.983   2.655   3.823
 5157SOL    HW116370   5.019   2.731   3.878
 5157SOL    HW216371   5.053   2.622   3.761
 5158SOL     OW16372   3.730   0.925   1.459
 5158SOL    HW116373   3.798   0.996   1.445
 5158SOL    HW216374   3.736   0.857   1.386
 5159SOL     OW16375   0.673   2.707   3.781
 5159SOL    HW116376   0.681   2.769   3.703
 5159SOL    HW216377   0.637   2.758   3.859
 5160SOL     OW16378   1.224   3.657   4.728
 5160SOL    HW116379   1.225   3.731   4.660
 5160SOL    HW216380   1.131   3.621   4.735
 5161SOL     OW16381   1.045   3.589   5.671
 5161SOL    HW116382   1.123   3.611   5.612
 5161SOL    HW216383   1.027   3.666   5.733
 5162SOL     OW16384   6.828   5.780   4.003
 5162SOL    HW116385   6.860   5.686   4.012
 5162SOL    HW216386   6.754   5.784   3.934
 5163SOL     OW16387   5.456   5.309   0.515
 5163SOL    HW116388   5.377   5.276   0.463
 5163SOL    HW216389   5.517   5.232   0.535
 5164SOL     OW16390   5.640   2.793   5.178
 5164SOL    HW116391   5.559   2.784   5.236
 5164SOL    HW216392   5.713   2.837   5.229
 5165SOL     OW16393   6.294   4.739   4.507
 5165SOL    HW116394   6.213   4.708   4.557
 5165SOL    HW216395   6.275   4.829   4.467
 5166SOL     OW16396   1.103   4.671   2.144
 5166SOL    HW116397   1.149   4.585   2.123
 5166SOL    HW216398   1.064   4.667   2.236
 5167SOL     OW16399   6.640   6.778   6.242
 5167SOL    HW116400   6.680   6.704   6.188
 5167SOL    HW216401   6.677   6.866   6.211
 5168SOL     OW16402   4.102   2.275   3.132
 5168SOL    HW116403   4.150   2.302   3.049
 5168SOL    HW216404   4.164   2.282   3.210
 5169SOL     OW16405   3.300   3.911   6.240
 5169SOL    HW116406   3.360   3.983   6.205
 5169SOL    HW216407   3.210   3.918   6.196
 5170SOL     OW16408   6.448   4.256   4.670
 5170SOL    HW116409   6.351   4.279   4.675
 5170SOL    HW216410   6.478   4.221   4.759
 5171SOL     OW16411   2.490   4.907   4.054
 5171SOL    HW116412   2.522   4.817   4.023
 5171SOL    HW216413   2.563   4.953   4.104
 5172SOL     OW16414   0.237   3.990   1.762
 5172SOL    HW116415   0.243   4.037   1.850
 5172SOL    HW216416   0.320   4.006   1.709
 5173SOL     OW16417   5.516   3.404   6.130
 5173SOL    HW116418   5.469   3.318   6.114
 5173SOL    HW216419   5.574   3.397   6.211
 5174SOL     OW16420   1.651   4.727   5.223
 5174SOL    HW116421   1.733   4.726   5.166
 5174SOL    HW216422   1.627   4.634   5.250
 5175SOL     OW16423   1.824   4.426   0.132
 5175SOL    HW116424   1.731   4.464   0.133
 5175SOL    HW216425   1.843   4.383   0.220
 5176SOL     OW16426   4.126   4.142   1.078
 5176SOL    HW116427   4.189   4.072   1.045
 5176SOL    HW216428   4.173   4.202   1.143
 5177SOL     OW16429   4.359   6.327   5.891
 5177SOL    HW116430   4.394   6.249   5.943
 5177SOL    HW216431   4.279   6.365   5.937
 5178SOL     OW16432   3.151   2.857   1.512
 5178SOL    HW116433   3.101   2.792   1.570
 5178SOL    HW216434   3.125   2.951   1.536
 5179SOL     OW16435   4.090   6.646   5.700
 5179SOL    HW116436   4.184   6.613   5.691
 5179SOL    HW216437   4.085   6.740   5.666
 5180SOL     OW16438   3.619   1.847   0.408
 5180SOL    HW116439   3.612   1.947   0.420
 5180SOL    HW216440   3.532   1.812   0.374
 5181SOL     OW16441   4.295   0.022   2.818
 5181SOL    HW116442   4.343   0.037   2.905
 5181SOL    HW216443   4.209   7.000   2.835
 5182SOL     OW16444   5.805   4.518   1.720
 5182SOL    HW116445   5.743   4.471   1.657
 5182SOL    HW216446   5.878   4.456   1.748
 5183SOL     OW16447   4.354   6.914   2.380
 5183SOL    HW116448   4.312   6.843   2.437
 5183SOL    HW216449   4.417   6.968   2.436
 5184SOL     OW16450   1.114   1.458   3.539
 5184SOL    HW116451   1.134   1.526   3.469
 5184SOL    HW216452   1.184   1.387   3.536
 5185SOL     OW16453   3.384   6.973   2.404
 5185SOL    HW116454   3.420   6.909   2.336
 5185SOL    HW216455   3.404   6.938   2.496
 5186SOL     OW16456   6.767   4.110   1.092
 5186SOL    HW116457   6.778   4.040   1.162
 5186SOL    HW216458   6.854   4.122   1.044
 5187SOL     OW16459   6.303   1.898   3.464
 5187SOL    HW116460   6.210   1.892   3.428
 5187SOL    HW216461   6.334   1.806   3.490
 5188SOL     OW16462   0.542   5.050   6.615
 5188SOL    HW116463   0.520   5.143   6.642
 5188SOL    HW216464   0.628   5.049   6.564
 5189SOL     OW16465   5.440   4.633   6.785
 5189SOL    HW116466   5.391   4.688   6.717
 5189SOL    HW216467   5.389   4.631   6.870
 5190SOL     OW16468   0.885   2.240   3.975
 5190SOL    HW116469   0.800   2.235   3.923
 5190SOL    HW216470   0.873   2.193   4.063
 5191SOL     OW16471   3.389   1.194   2.004
 5191SOL    HW116472   3.451   1.238   1.938
 5191SOL    HW216473   3.375   1.099   1.978
 5192SOL     OW16474   5.522   5.581   2.352
 5192SOL    HW116475   5.570   5.499   2.320
 5192SOL    HW216476   5.520   5.581   2.452
 5193SOL     OW16477   4.848   4.486   3.730
 5193SOL    HW116478   4.760   4.444   3.750
 5193SOL    HW216479   4.880   4.537   3.811
 5194SOL     OW16480   5.541   0.728   5.834
 5194SOL    HW116481   5.498   0.818   5.839
 5194SOL    HW216482   5.474   0.658   5.859
 5195SOL     OW16483   6.521   6.655   5.266
 5195SOL    HW116484   6.464   6.718   5.320
 5195SOL    HW216485   6.478   6.638   5.178
 5196SOL     OW16486   0.448   4.329   1.692
 5196SOL    HW116487   0.447   4.248   1.634
 5196SOL    HW216488   0.358   4.343   1.733
 5197SOL     OW16489   2.036   6.356   4.678
 5197SOL    HW116490   2.051   6.277   4.619
 5197SOL    HW216491   2.106   6.358   4.749
 5198SOL     OW16492   3.635   5.993   5.280
 5198SOL    HW116493   3.725   6.023   5.248
 5198SOL    HW216494   3.576   5.975   5.201
 5199SOL     OW16495   2.173   5.745   1.725
 5199SOL    HW116496   2.110   5.682   1.680
 5199SOL    HW216497   2.215   5.805   1.657
 5200SOL     OW16498   0.816   1.710   4.485
 5200SOL    HW116499   0.856   1.660   4.408
 5200SOL    HW216500   0.853   1.672   4.570
 5201SOL     OW16501   5.374   4.821   3.884
 5201SOL    HW116502   5.433   4.893   3.848
 5201SOL    HW216503   5.305   4.797   3.816
 5202SOL     OW16504   4.393   3.269   6.205
 5202SOL    HW116505   4.451   3.213   6.265
 5202SOL    HW216506   4.423   3.255   6.110
 5203SOL     OW16507   1.975   0.513   0.436
 5203SOL    HW116508   1.898   0.532   0.375
 5203SOL    HW216509   1.950   0.440   0.499
 5204SOL     OW16510   3.398   0.792   6.626
 5204SOL    HW116511   3.462   0.800   6.702
 5204SOL    HW216512   3.307   0.823   6.655
 5205SOL     OW16513   0.269   6.109   0.995
 5205SOL    HW116514   0.297   6.053   1.073
 5205SOL    HW216515   0.342   6.111   0.926
 5206SOL     OW16516   0.397   4.608   5.183
 5206SOL    HW116517   0.405   4.528   5.124
 5206SOL    HW216518   0.478   4.617   5.240
 5207SOL     OW16519   0.495   0.659   4.934
 5207SOL    HW116520   0.426   0.729   4.950
 5207SOL    HW216521   0.475   0.612   4.847
 5208SOL     OW16522   4.780   2.361   0.275
 5208SOL    HW116523   4.817   2.269   0.258
 5208SOL    HW216524   4.686   2.365   0.240
 5209SOL     OW16525   4.741   6.313   2.861
 5209SOL    HW116526   4.723   6.412   2.864
 5209SOL    HW216527   4.655   6.264   2.844
 5210SOL     OW16528   4.877   4.056   0.386
 5210SOL    HW116529   4.977   4.061   0.376
 5210SOL    HW216530   4.837   4.143   0.359
 5211SOL     OW16531   4.660   2.616   4.007
 5211SOL    HW116532   4.708   2.554   4.069
 5211SOL    HW216533   4.632   2.698   4.056
 5212SOL     OW16534   1.140   3.392   0.811
 5212SOL    HW116535   1.209   3.325   0.840
 5212SOL    HW216536   1.102   3.437   0.892
 5213SOL     OW16537   4.133   3.295   2.595
 5213SOL    HW116538   4.144   3.305   2.694
 5213SOL    HW216539   4.069   3.221   2.576
 5214SOL     OW16540   5.590   4.121   6.471
 5214SOL    HW116541   5.560   4.191   6.407
 5214SOL    HW216542   5.518   4.104   6.538
 5215SOL     OW16543   6.629   3.652   4.782
 5215SOL    HW116544   6.535   3.668   4.752
 5215SOL    HW216545   6.660   3.730   4.837
 5216SOL     OW16546   5.623   4.646   0.644
 5216SOL    HW116547   5.572   4.574   0.690
 5216SOL    HW216548   5.615   4.731   0.697
 5217SOL     OW16549   3.860   5.819   4.177
 5217SOL    HW116550   3.871   5.910   4.215
 5217SOL    HW216551   3.920   5.809   4.097
 5218SOL     OW16552   0.768   0.483   0.816
 5218SOL    HW116553   0.679   0.527   0.809
 5218SOL    HW216554   0.840   0.552   0.814
 5219SOL     OW16555   2.117   2.152   5.110
 5219SOL    HW116556   2.076   2.171   5.199
 5219SOL    HW216557   2.044   2.141   5.042
 5220SOL     OW16558   1.835   4.382   3.203
 5220SOL    HW116559   1.788   4.333   3.276
 5220SOL    HW216560   1.879   4.317   3.141
 5221SOL     OW16561   6.874   0.558   1.688
 5221SOL    HW116562   6.921   0.581   1.603
 5221SOL    HW216563   6.877   0.636   1.750
 5222SOL     OW16564   4.697   5.030   1.589
 5222SOL    HW116565   4.717   4.932   1.583
 5222SOL    HW216566   4.724   5.064   1.679
 5223SOL     OW16567   0.470   2.985   0.795
 5223SOL    HW116568   0.478   3.063   0.733
 5223SOL    HW216569   0.416   3.012   0.875
 5224SOL     OW16570   0.539   2.241   3.609
 5224SOL    HW116571   0.585   2.174   3.551
 5224SOL    HW216572   0.581   2.331   3.597
 5225SOL     OW16573   0.401   1.507   5.324
 5225SOL    HW116574   0.356   1.474   5.240
 5225SOL    HW216575   0.332   1.537   5.389
 5226SOL     OW16576   0.063   6.155   4.044
 5226SOL    HW116577   0.027   6.247   4.029
 5226SOL    HW216578   0.074   6.109   3.957
 5227SOL     OW16579   6.933   2.753   5.057
 5227SOL    HW116580   6.993   2.678   5.082
 5227SOL    HW216581   6.967   2.838   5.097
 5228SOL     OW16582   1.988   3.145   5.702
 5228SOL    HW116583   1.981   3.226   5.644
 5228SOL    HW216584   2.084   3.118   5.710
 5229SOL     OW16585   4.165   0.560   6.777
 5229SOL    HW116586   4.143   0.638   6.837
 5229SOL    HW216587   4.151   0.587   6.682
 5230SOL     OW16588   6.914   0.349   1.917
 5230SOL    HW116589   6.840   0.407   1.881
 5230SOL    HW216590   6.920   0.359   2.016
 5231SOL     OW16591   6.023   1.657   2.438
 5231SOL    HW116592   5.965   1.632   2.361
 5231SOL    HW216593   6.080   1.735   2.413
 5232SOL     OW16594   1.712   3.570   5.874
 5232SOL    HW116595   1.778   3.559   5.948
 5232SOL    HW216596   1.750   3.631   5.804
 5233SOL     OW16597   3.198   0.355   2.659
 5233SOL    HW116598   3.127   0.337   2.592
 5233SOL    HW216599   3.275   0.400   2.614
 5234SOL     OW16600   2.006   2.505   1.076
 5234SOL    HW116601   1.914   2.542   1.084
 5234SOL    HW216602   2.001   2.411   1.040
 5235SOL     OW16603   2.755   2.201   1.170
 5235SOL    HW116604   2.813   2.132   1.213
 5235SOL    HW216605   2.701   2.248   1.240
 5236SOL     OW16606   3.110   5.443   2.339
 5236SOL    HW116607   3.041   5.515   2.354
 5236SOL    HW216608   3.107   5.413   2.244
 5237SOL     OW16609   2.067   2.396   4.359
 5237SOL    HW116610   2.117   2.426   4.440
 5237SOL    HW216611   1.969   2.412   4.373
 5238SOL     OW16612   1.012   5.732   2.892
 5238SOL    HW116613   0.962   5.814   2.864
 5238SOL    HW216614   1.071   5.702   2.817
 5239SOL     OW16615   3.160   3.527   1.388
 5239SOL    HW116616   3.082   3.464   1.388
 5239SOL    HW216617   3.150   3.590   1.465
 5240SOL     OW16618   2.786   3.020   5.855
 5240SOL    HW116619   2.766   2.940   5.911
 5240SOL    HW216620   2.705   3.045   5.802
 5241SOL     OW16621   1.189   6.170   2.365
 5241SOL    HW116622   1.142   6.125   2.441
 5241SOL    HW216623   1.280   6.130   2.355
 5242SOL     OW16624   5.052   0.818   6.961
 5242SOL    HW116625   5.042   0.864   6.873
 5242SOL    HW216626   5.143   0.777   6.967
 5243SOL     OW16627   1.806   6.068   1.988
 5243SOL    HW116628   1.786   6.166   1.980
 5243SOL    HW216629   1.786   6.023   1.901
 5244SOL     OW16630   4.806   3.612   0.070
 5244SOL    HW116631   4.904   3.612   0.088
 5244SOL    HW216632   4.756   3.616   0.157
 5245SOL     OW16633   3.880   4.169   0.957
 5245SOL    HW116634   3.977   4.164   0.981
 5245SOL    HW216635   3.861   4.258   0.915
 5246SOL     OW16636   5.757   3.099   1.273
 5246SOL    HW116637   5.681   3.077   1.334
 5246SOL    HW216638   5.832   3.138   1.326
 5247SOL     OW16639   4.036   2.260   6.045
 5247SOL    HW116640   3.942   2.239   6.072
 5247SOL    HW216641   4.038   2.347   5.996
 5248SOL     OW16642   6.177   1.540   3.257
 5248SOL    HW116643   6.086   1.519   3.294
 5248SOL    HW216644   6.240   1.558   3.332
 5249SOL     OW16645   0.328   4.778   6.412
 5249SOL    HW116646   0.361   4.862   6.454
 5249SOL    HW216647   0.365   4.699   6.460
 5250SOL     OW16648   2.004   5.697   0.802
 5250SOL    HW116649   2.002   5.734   0.895
 5250SOL    HW216650   2.095   5.662   0.781
 5251SOL     OW16651   0.742   4.243   1.076
 5251SOL    HW116652   0.657   4.291   1.055
 5251SOL    HW216653   0.776   4.272   1.166
 5252SOL     OW16654   3.701   0.041   2.607
 5252SOL    HW116655   3.705   0.108   2.533
 5252SOL    HW216656   3.608   0.035   2.643
 5253SOL     OW16657   6.066   4.627   4.600
 5253SOL    HW116658   6.012   4.655   4.679
 5253SOL    HW216659   6.006   4.611   4.522
 5254SOL     OW16660   5.931   0.261   2.682
 5254SOL    HW116661   5.936   0.297   2.776
 5254SOL    HW216662   5.872   0.181   2.680
 5255SOL     OW16663   6.167   1.128   4.930
 5255SOL    HW116664   6.256   1.146   4.971
 5255SOL    HW216665   6.179   1.073   4.847
 5256SOL     OW16666   5.697   0.837   3.129
 5256SOL    HW116667   5.753   0.758   3.105
 5256SOL    HW216668   5.702   0.905   3.056
 5257SOL     OW16669   4.477   0.465   6.573
 5257SOL    HW116670   4.491   0.373   6.536
 5257SOL    HW216671   4.384   0.495   6.552
 5258SOL     OW16672   4.521   1.832   2.355
 5258SOL    HW116673   4.607   1.868   2.390
 5258SOL    HW216674   4.454   1.905   2.347
 5259SOL     OW16675   5.224   5.070   3.541
 5259SOL    HW116676   5.179   4.992   3.584
 5259SOL    HW216677   5.269   5.040   3.457
 5260SOL     OW16678   2.235   0.335   0.006
 5260SOL    HW116679   2.285   0.270   6.975
 5260SOL    HW216680   2.299   0.378   0.071
 5261SOL     OW16681   6.563   4.786   0.195
 5261SOL    HW116682   6.479   4.764   0.146
 5261SOL    HW216683   6.618   4.849   0.139
 5262SOL     OW16684   2.629   0.711   2.369
 5262SOL    HW116685   2.538   0.737   2.403
 5262SOL    HW216686   2.629   0.614   2.347
 5263SOL     OW16687   1.930   1.259   3.508
 5263SOL    HW116688   1.887   1.241   3.420
 5263SOL    HW216689   1.963   1.173   3.548
 5264SOL     OW16690   0.328   2.493   1.763
 5264SOL    HW116691   0.354   2.544   1.681
 5264SOL    HW216692   0.406   2.439   1.795
 5265SOL     OW16693   5.644   3.447   4.641
 5265SOL    HW116694   5.670   3.352   4.656
 5265SOL    HW216695   5.580   3.476   4.714
 5266SOL     OW16696   2.403   0.169   0.657
 5266SOL    HW116697   2.415   0.268   0.655
 5266SOL    HW216698   2.414   0.137   0.751
 5267SOL     OW16699   4.342   2.201   4.526
 5267SOL    HW116700   4.354   2.293   4.488
 5267SOL    HW216701   4.326   2.208   4.624
 5268SOL     OW16702   5.713   0.864   6.326
 5268SOL    HW116703   5.690   0.840   6.420
 5268SOL    HW216704   5.750   0.957   6.323
 5269SOL     OW16705   0.493   6.558   2.805
 5269SOL    HW116706   0.587   6.592   2.814
 5269SOL    HW216707   0.429   6.630   2.835
 5270SOL     OW16708   0.173   1.859   6.756
 5270SOL    HW116709   0.153   1.800   6.678
 5270SOL    HW216710   0.271   1.857   6.776
 5271SOL     OW16711   6.206   5.742   3.911
 5271SOL    HW116712   6.200   5.687   3.827
 5271SOL    HW216713   6.278   5.810   3.900
 5272SOL     OW16714   4.212   0.130   0.024
 5272SOL    HW116715   4.241   0.038   7.024
 5272SOL    HW216716   4.236   0.146   0.120
 5273SOL     OW16717   1.037   3.090   2.620
 5273SOL    HW116718   1.135   3.073   2.607
 5273SOL    HW216719   0.988   3.070   2.536
 5274SOL     OW16720   4.596   6.197   2.374
 5274SOL    HW116721   4.540   6.251   2.311
 5274SOL    HW216722   4.651   6.259   2.430
 5275SOL     OW16723   3.455   0.933   0.047
 5275SOL    HW116724   3.458   1.033   0.043
 5275SOL    HW216725   3.373   0.901   7.025
 5276SOL     OW16726   3.235   6.286   2.148
 5276SOL    HW116727   3.253   6.285   2.050
 5276SOL    HW216728   3.241   6.379   2.182
 5277SOL     OW16729   1.875   1.290   1.977
 5277SOL    HW116730   1.823   1.270   2.060
 5277SOL    HW216731   1.946   1.358   1.998
 5278SOL     OW16732   4.501   5.359   1.769
 5278SOL    HW116733   4.495   5.459   1.776
 5278SOL    HW216734   4.464   5.318   1.853
 5279SOL     OW16735   2.977   4.934   1.403
 5279SOL    HW116736   2.924   4.992   1.466
 5279SOL    HW216737   2.995   4.846   1.445
 5280SOL     OW16738   3.579   5.896   4.653
 5280SOL    HW116739   3.518   5.827   4.615
 5280SOL    HW216740   3.565   5.902   4.752
 5281SOL     OW16741   1.038   1.854   1.923
 5281SOL    HW116742   1.127   1.889   1.896
 5281SOL    HW216743   1.023   1.872   2.020
 5282SOL     OW16744   3.385   1.816   3.755
 5282SOL    HW116745   3.289   1.814   3.728
 5282SOL    HW216746   3.411   1.728   3.794
 5283SOL     OW16747   5.115   5.696   6.781
 5283SOL    HW116748   5.089   5.791   6.801
 5283SOL    HW216749   5.138   5.688   6.684
 5284SOL     OW16750   5.637   3.379   2.743
 5284SOL    HW116751   5.596   3.447   2.682
 5284SOL    HW216752   5.728   3.355   2.710
 5285SOL     OW16753   3.124   4.863   3.520
 5285SOL    HW116754   3.102   4.853   3.617
 5285SOL    HW216755   3.133   4.960   3.498
 5286SOL     OW16756   1.538   4.232   1.642
 5286SOL    HW116757   1.570   4.222   1.547
 5286SOL    HW216758   1.604   4.288   1.693
 5287SOL     OW16759   2.513   2.087   0.324
 5287SOL    HW116760   2.586   2.057   0.261
 5287SOL    HW216761   2.550   2.156   0.386
 5288SOL     OW16762   3.450   0.187   1.208
 5288SOL    HW116763   3.484   0.275   1.241
 5288SOL    HW216764   3.376   0.202   1.143
 5289SOL     OW16765   1.182   5.389   1.685
 5289SOL    HW116766   1.226   5.308   1.725
 5289SOL    HW216767   1.129   5.362   1.605
 5290SOL     OW16768   4.417   6.008   0.753
 5290SOL    HW116769   4.484   5.935   0.734
 5290SOL    HW216770   4.329   5.967   0.776
 5291SOL     OW16771   1.864   5.267   5.575
 5291SOL    HW116772   1.866   5.210   5.493
 5291SOL    HW216773   1.841   5.361   5.549
 5292SOL     OW16774   4.860   2.749   5.913
 5292SOL    HW116775   4.877   2.806   5.993
 5292SOL    HW216776   4.815   2.803   5.842
 5293SOL     OW16777   0.524   0.668   4.282
 5293SOL    HW116778   0.579   0.709   4.209
 5293SOL    HW216779   0.576   0.669   4.367
 5294SOL     OW16780   6.333   2.764   6.144
 5294SOL    HW116781   6.263   2.835   6.149
 5294SOL    HW216782   6.317   2.696   6.216
 5295SOL     OW16783   6.587   1.193   2.450
 5295SOL    HW116784   6.601   1.142   2.365
 5295SOL    HW216785   6.665   1.178   2.510
 5296SOL     OW16786   0.412   4.665   1.210
 5296SOL    HW116787   0.388   4.630   1.120
 5296SOL    HW216788   0.511   4.654   1.225
 5297SOL     OW16789   2.210   2.019   1.090
 5297SOL    HW116790   2.155   1.957   1.147
 5297SOL    HW216791   2.303   2.024   1.127
 5298SOL     OW16792   0.636   5.680   1.602
 5298SOL    HW116793   0.657   5.699   1.698
 5298SOL    HW216794   0.538   5.662   1.593
 5299SOL     OW16795   2.954   0.518   2.043
 5299SOL    HW116796   2.879   0.453   2.025
 5299SOL    HW216797   3.035   0.489   1.993
 5300SOL     OW16798   6.365   5.801   3.673
 5300SOL    HW116799   6.443   5.824   3.732
 5300SOL    HW216800   6.389   5.724   3.615
 5301SOL     OW16801   3.890   1.505   0.119
 5301SOL    HW116802   3.900   1.571   0.045
 5301SOL    HW216803   3.828   1.432   0.090
 5302SOL     OW16804   5.942   4.173   2.716
 5302SOL    HW116805   5.869   4.236   2.744
 5302SOL    HW216806   5.909   4.116   2.641
 5303SOL     OW16807   6.682   4.243   3.282
 5303SOL    HW116808   6.664   4.182   3.205
 5303SOL    HW216809   6.599   4.294   3.304
 5304SOL     OW16810   5.460   1.580   5.950
 5304SOL    HW116811   5.427   1.487   5.964
 5304SOL    HW216812   5.437   1.636   6.030
 5305SOL     OW16813   2.258   0.925   2.902
 5305SOL    HW116814   2.348   0.883   2.903
 5305SOL    HW216815   2.190   0.859   2.934
 5306SOL     OW16816   2.956   0.216   5.669
 5306SOL    HW116817   2.993   0.230   5.578
 5306SOL    HW216818   2.991   0.131   5.708
 5307SOL     OW16819   4.849   6.912   6.808
 5307SOL    HW116820   4.861   6.983   6.877
 5307SOL    HW216821   4.913   6.837   6.825
 5308SOL     OW16822   0.513   1.878   2.635
 5308SOL    HW116823   0.476   1.870   2.542
 5308SOL    HW216824   0.579   1.954   2.637
 5309SOL     OW16825   3.456   4.125   3.610
 5309SOL    HW116826   3.417   4.047   3.660
 5309SOL    HW216827   3.481   4.197   3.674
 5310SOL     OW16828   5.011   2.406   0.620
 5310SOL    HW116829   4.990   2.500   0.594
 5310SOL    HW216830   4.932   2.348   0.603
 5311SOL     OW16831   1.519   5.749   6.673
 5311SOL    HW116832   1.527   5.813   6.597
 5311SOL    HW216833   1.609   5.710   6.693
 5312SOL     OW16834   0.414   4.102   3.082
 5312SOL    HW116835   0.320   4.115   3.114
 5312SOL    HW216836   0.416   4.025   3.018
 5313SOL     OW16837   1.173   5.908   0.275
 5313SOL    HW116838   1.095   5.965   0.250
 5313SOL    HW216839   1.257   5.948   0.239
 5314SOL     OW16840   3.928   5.327   0.933
 5314SOL    HW116841   4.003   5.274   0.893
 5314SOL    HW216842   3.841   5.285   0.908
 5315SOL     OW16843   5.649   2.652   1.920
 5315SOL    HW116844   5.645   2.731   1.981
 5315SOL    HW216845   5.561   2.604   1.923
 5316SOL     OW16846   6.495   4.527   3.794
 5316SOL    HW116847   6.568   4.581   3.836
 5316SOL    HW216848   6.533   4.444   3.753
 5317SOL     OW16849   5.470   6.536   2.613
 5317SOL    HW116850   5.568   6.529   2.595
 5317SOL    HW216851   5.438   6.453   2.659
 5318SOL     OW16852   0.752   2.534   4.535
 5318SOL    HW116853   0.782   2.512   4.443
 5318SOL    HW216854   0.710   2.454   4.577
 5319SOL     OW16855   5.034   0.462   0.629
 5319SOL    HW116856   5.102   0.389   0.631
 5319SOL    HW216857   4.993   0.471   0.720
 5320SOL     OW16858   5.844   2.874   6.054
 5320SOL    HW116859   5.885   2.791   6.017
 5320SOL    HW216860   5.784   2.916   5.986
 5321SOL     OW16861   2.396   5.326   5.597
 5321SOL    HW116862   2.381   5.424   5.607
 5321SOL    HW216863   2.312   5.277   5.623
 5322SOL     OW16864   3.352   6.182   0.050
 5322SOL    HW116865   3.283   6.249   0.077
 5322SOL    HW216866   3.344   6.164   6.978
 5323SOL     OW16867   5.353   2.821   0.831
 5323SOL    HW116868   5.407   2.770   0.764
 5323SOL    HW216869   5.326   2.761   0.906
 5324SOL     OW16870   3.902   3.412   1.457
 5324SOL    HW116871   3.884   3.394   1.360
 5324SOL    HW216872   3.821   3.451   1.499
 5325SOL     OW16873   5.101   5.734   2.968
 5325SOL    HW116874   5.112   5.816   2.913
 5325SOL    HW216875   5.179   5.725   3.030
 5326SOL     OW16876   6.951   6.340   1.694
 5326SOL    HW116877   6.901   6.253   1.692
 5326SOL    HW216878   6.934   6.386   1.782
 5327SOL     OW16879   6.453   0.808   3.944
 5327SOL    HW116880   6.438   0.791   3.846
 5327SOL    HW216881   6.415   0.732   3.997
 5328SOL     OW16882   4.104   4.438   0.268
 5328SOL    HW116883   4.024   4.405   0.317
 5328SOL    HW216884   4.119   4.535   0.289
 5329SOL     OW16885   0.296   5.093   0.113
 5329SOL    HW116886   0.340   5.016   0.159
 5329SOL    HW216887   0.319   5.092   0.016
 5330SOL     OW16888   4.774   4.177   1.144
 5330SOL    HW116889   4.819   4.179   1.055
 5330SOL    HW216890   4.677   4.199   1.134
 5331SOL     OW16891   4.714   3.760   6.891
 5331SOL    HW116892   4.755   3.707   6.966
 5331SOL    HW216893   4.786   3.793   6.830
 5332SOL     OW16894   6.008   3.417   0.123
 5332SOL    HW116895   6.029   3.393   0.029
 5332SOL    HW216896   6.027   3.514   0.137
 5333SOL     OW16897   1.932   1.462   4.015
 5333SOL    HW116898   1.978   1.407   3.946
 5333SOL    HW216899   1.859   1.515   3.973
 5334SOL     OW16900   4.340   4.949   2.158
 5334SOL    HW116901   4.358   4.853   2.178
 5334SOL    HW216902   4.409   4.983   2.094
 5335SOL     OW16903   6.677   4.633   1.465
 5335SOL    HW116904   6.719   4.573   1.397
 5335SOL    HW216905   6.728   4.628   1.550
 5336SOL     OW16906   1.077   3.437   4.246
 5336SOL    HW116907   1.079   3.459   4.343
 5336SOL    HW216908   1.170   3.442   4.208
 5337SOL     OW16909   6.725   4.372   0.394
 5337SOL    HW116910   6.681   4.454   0.429
 5337SOL    HW216911   6.824   4.387   0.387
 5338SOL     OW16912   6.868   3.216   1.006
 5338SOL    HW116913   6.903   3.242   1.096
 5338SOL    HW216914   6.768   3.211   1.009
 5339SOL     OW16915   5.722   2.947   3.134
 5339SOL    HW116916   5.707   2.931   3.231
 5339SOL    HW216917   5.635   2.973   3.091
 5340SOL     OW16918   5.553   2.611   2.207
 5340SOL    HW116919   5.482   2.680   2.197
 5340SOL    HW216920   5.585   2.610   2.302
 5341SOL     OW16921   4.201   5.673   3.775
 5341SOL    HW116922   4.125   5.609   3.791
 5341SOL    HW216923   4.180   5.731   3.697
 5342SOL     OW16924   5.942   6.741   3.931
 5342SOL    HW116925   5.923   6.765   3.836
 5342SOL    HW216926   5.872   6.782   3.990
 5343SOL     OW16927   3.995   3.948   6.795
 5343SOL    HW116928   4.031   3.893   6.720
 5343SOL    HW216929   4.059   3.946   6.872
 5344SOL     OW16930   1.384   1.590   5.807
 5344SOL    HW116931   1.376   1.493   5.783
 5344SOL    HW216932   1.456   1.632   5.752
 5345SOL     OW16933   5.031   2.449   0.312
 5345SOL    HW116934   4.932   2.432   0.304
 5345SOL    HW216935   5.047   2.527   0.372
 5346SOL     OW16936   3.129   5.670   3.828
 5346SOL    HW116937   3.113   5.767   3.848
 5346SOL    HW216938   3.212   5.640   3.875
 5347SOL     OW16939   5.688   1.057   3.703
 5347SOL    HW116940   5.631   0.984   3.740
 5347SOL    HW216941   5.761   1.079   3.768
 5348SOL     OW16942   5.237   1.878   3.117
 5348SOL    HW116943   5.293   1.818   3.060
 5348SOL    HW216944   5.230   1.967   3.074
 5349SOL     OW16945   6.820   3.615   2.704
 5349SOL    HW116946   6.801   3.547   2.775
 5349SOL    HW216947   6.751   3.687   2.707
 5350SOL     OW16948   1.568   6.131   6.980
 5350SOL    HW116949   1.534   6.213   6.935
 5350SOL    HW216950   1.664   6.117   6.955
 5351SOL     OW16951   6.949   5.831   1.992
 5351SOL    HW116952   6.997   5.757   1.944
 5351SOL    HW216953   6.857   5.800   2.017
 5352SOL     OW16954   1.657   3.540   5.124
 5352SOL    HW116955   1.637   3.631   5.088
 5352SOL    HW216956   1.718   3.549   5.203
 5353SOL     OW16957   3.998   5.471   3.835
 5353SOL    HW116958   4.060   5.443   3.762
 5353SOL    HW216959   3.961   5.390   3.881
 5354SOL     OW16960   4.536   5.920   1.224
 5354SOL    HW116961   4.437   5.933   1.224
 5354SOL    HW216962   4.576   5.971   1.147
 5355SOL     OW16963   4.867   4.510   5.222
 5355SOL    HW116964   4.878   4.579   5.150
 5355SOL    HW216965   4.908   4.543   5.307
 5356SOL     OW16966   0.526   5.103   1.516
 5356SOL    HW116967   0.518   5.010   1.553
 5356SOL    HW216968   0.623   5.126   1.508
 5357SOL     OW16969   5.611   3.982   2.136
 5357SOL    HW116970   5.606   4.082   2.132
 5357SOL    HW216971   5.520   3.944   2.120
 5358SOL     OW16972   4.647   2.033   0.421
 5358SOL    HW116973   4.671   1.941   0.389
 5358SOL    HW216974   4.619   2.089   0.343
 5359SOL     OW16975   3.021   1.804   6.747
 5359SOL    HW116976   3.098   1.752   6.711
 5359SOL    HW216977   3.026   1.805   6.847
 5360SOL     OW16978   5.219   4.159   3.377
 5360SOL    HW116979   5.189   4.213   3.455
 5360SOL    HW216980   5.154   4.170   3.302
 5361SOL     OW16981   2.859   5.630   1.979
 5361SOL    HW116982   2.854   5.723   1.942
 5361SOL    HW216983   2.952   5.614   2.014
 5362SOL     OW16984   6.040   0.690   1.888
 5362SOL    HW116985   6.129   0.722   1.858
 5362SOL    HW216986   6.001   0.753   1.955
 5363SOL     OW16987   5.707   5.638   3.496
 5363SOL    HW116988   5.770   5.579   3.446
 5363SOL    HW216989   5.674   5.589   3.577
 5364SOL     OW16990   4.339   1.109   2.919
 5364SOL    HW116991   4.372   1.018   2.892
 5364SOL    HW216992   4.413   1.176   2.908
 5365SOL     OW16993   3.817   2.951   3.681
 5365SOL    HW116994   3.840   2.961   3.584
 5365SOL    HW216995   3.727   2.990   3.698
 5366SOL     OW16996   6.494   6.529   2.138
 5366SOL    HW116997   6.464   6.562   2.048
 5366SOL    HW216998   6.569   6.586   2.171
 5367SOL     OW16999   6.317   5.620   1.695
 5367SOL    HW117000   6.415   5.619   1.677
 5367SOL    HW217001   6.292   5.536   1.743
 5368SOL     OW17002   6.787   5.910   3.702
 5368SOL    HW117003   6.708   5.889   3.760
 5368SOL    HW217004   6.848   5.972   3.750
 5369SOL     OW17005   2.615   5.981   2.426
 5369SOL    HW117006   2.714   5.987   2.414
 5369SOL    HW217007   2.579   6.071   2.454
 5370SOL     OW17008   2.056   3.527   1.470
 5370SOL    HW117009   1.996   3.580   1.530
 5370SOL    HW217010   2.061   3.572   1.381
 5371SOL     OW17011   5.512   5.919   4.787
 5371SOL    HW117012   5.588   5.876   4.835
 5371SOL    HW217013   5.528   6.018   4.780
 5372SOL     OW17014   1.048   0.096   3.164
 5372SOL    HW117015   1.068   0.176   3.107
 5372SOL    HW217016   1.074   0.115   3.258
 5373SOL     OW17017   3.647   1.035   6.679
 5373SOL    HW117018   3.640   0.953   6.736
 5373SOL    HW217019   3.556   1.075   6.667
 5374SOL     OW17020   2.184   4.607   2.569
 5374SOL    HW117021   2.181   4.607   2.469
 5374SOL    HW217022   2.117   4.671   2.605
 5375SOL     OW17023   1.483   4.872   4.081
 5375SOL    HW117024   1.500   4.775   4.096
 5375SOL    HW217025   1.478   4.890   3.982
 5376SOL     OW17026   0.524   0.328   6.216
 5376SOL    HW117027   0.602   0.327   6.279
 5376SOL    HW217028   0.553   0.299   6.125
 5377SOL     OW17029   2.305   0.588   3.144
 5377SOL    HW117030   2.255   0.643   3.211
 5377SOL    HW217031   2.245   0.566   3.067
 5378SOL     OW17032   5.233   1.300   2.113
 5378SOL    HW117033   5.230   1.356   2.029
 5378SOL    HW217034   5.325   1.263   2.125
 5379SOL     OW17035   1.786   1.974   6.299
 5379SOL    HW117036   1.769   1.896   6.239
 5379SOL    HW217037   1.883   1.978   6.323
 5380SOL     OW17038   4.452   6.716   1.124
 5380SOL    HW117039   4.369   6.692   1.073
 5380SOL    HW217040   4.471   6.644   1.191
 5381SOL     OW17041   4.794   6.557   3.947
 5381SOL    HW117042   4.738   6.572   3.866
 5381SOL    HW217043   4.859   6.483   3.930
 5382SOL     OW17044   3.991   1.357   1.689
 5382SOL    HW117045   4.048   1.389   1.766
 5382SOL    HW217046   3.996   1.424   1.615
 5383SOL     OW17047   1.800   2.596   4.960
 5383SOL    HW117048   1.798   2.660   5.036
 5383SOL    HW217049   1.807   2.502   4.995
 5384SOL     OW17050   5.427   5.742   4.385
 5384SOL    HW117051   5.398   5.718   4.478
 5384SOL    HW217052   5.521   5.774   4.387
 5385SOL     OW17053   4.147   2.417   5.654
 5385SOL    HW117054   4.106   2.481   5.589
 5385SOL    HW217055   4.079   2.349   5.682
 5386SOL     OW17056   5.953   4.606   3.831
 5386SOL    HW117057   6.006   4.691   3.844
 5386SOL    HW217058   5.900   4.588   3.913
 5387SOL     OW17059   1.412   1.062   3.357
 5387SOL    HW117060   1.427   1.013   3.443
 5387SOL    HW217061   1.383   0.997   3.286
 5388SOL     OW17062   1.130   6.394   2.170
 5388SOL    HW117063   1.118   6.295   2.176
 5388SOL    HW217064   1.060   6.432   2.111
 5389SOL     OW17065   4.531   2.092   4.025
 5389SOL    HW117066   4.605   2.028   4.046
 5389SOL    HW217067   4.517   2.153   4.103
 5390SOL     OW17068   0.257   2.573   2.636
 5390SOL    HW117069   0.356   2.574   2.647
 5390SOL    HW217070   0.227   2.657   2.590
 5391SOL     OW17071   2.620   3.704   0.558
 5391SOL    HW117072   2.667   3.670   0.476
 5391SOL    HW217073   2.553   3.636   0.588
 5392SOL     OW17074   5.801   1.832   3.564
 5392SOL    HW117075   5.736   1.879   3.503
 5392SOL    HW217076   5.764   1.830   3.657
 5393SOL     OW17077   3.657   1.861   5.166
 5393SOL    HW117078   3.579   1.909   5.206
 5393SOL    HW217079   3.718   1.830   5.240
 5394SOL     OW17080   1.356   1.478   1.210
 5394SOL    HW117081   1.325   1.445   1.121
 5394SOL    HW217082   1.387   1.400   1.266
 5395SOL     OW17083   6.522   1.834   0.923
 5395SOL    HW117084   6.606   1.837   0.977
 5395SOL    HW217085   6.481   1.743   0.932
 5396SOL     OW17086   5.552   4.765   2.111
 5396SOL    HW117087   5.509   4.719   2.188
 5396SOL    HW217088   5.634   4.714   2.083
 5397SOL     OW17089   0.794   1.626   2.709
 5397SOL    HW117090   0.740   1.563   2.654
 5397SOL    HW217091   0.830   1.699   2.651
 5398SOL     OW17092   5.300   1.934   2.812
 5398SOL    HW117093   5.289   1.996   2.890
 5398SOL    HW217094   5.392   1.896   2.812
 5399SOL     OW17095   2.298   0.805   6.472
 5399SOL    HW117096   2.202   0.778   6.484
 5399SOL    HW217097   2.343   0.809   6.561
 5400SOL     OW17098   4.593   3.438   1.707
 5400SOL    HW117099   4.665   3.429   1.776
 5400SOL    HW217100   4.568   3.534   1.698
 5401SOL     OW17101   5.737   3.404   1.347
 5401SOL    HW117102   5.701   3.393   1.255
 5401SOL    HW217103   5.672   3.456   1.403
 5402SOL     OW17104   1.415   6.205   1.606
 5402SOL    HW117105   1.443   6.109   1.605
 5402SOL    HW217106   1.327   6.215   1.653
 5403SOL     OW17107   4.630   3.325   6.872
 5403SOL    HW117108   4.597   3.418   6.858
 5403SOL    HW217109   4.703   3.305   6.807
 5404SOL     OW17110   6.773   1.395   0.558
 5404SOL    HW117111   6.684   1.359   0.530
 5404SOL    HW217112   6.838   1.319   0.565
 5405SOL     OW17113   6.144   5.144   6.999
 5405SOL    HW117114   6.063   5.120   6.945
 5405SOL    HW217115   6.140   5.096   0.061
 5406SOL     OW17116   2.682   0.269   4.999
 5406SOL    HW117117   2.655   0.241   4.907
 5406SOL    HW217118   2.605   0.311   5.046
 5407SOL     OW17119   1.776   6.927   2.985
 5407SOL    HW117120   1.741   6.991   2.916
 5407SOL    HW217121   1.705   6.860   3.008
 5408SOL     OW17122   3.238   2.106   4.149
 5408SOL    HW117123   3.336   2.122   4.149
 5408SOL    HW217124   3.220   2.009   4.129
 5409SOL     OW17125   1.040   2.616   1.144
 5409SOL    HW117126   1.077   2.670   1.220
 5409SOL    HW217127   1.013   2.677   1.070
 5410SOL     OW17128   1.197   2.527   0.285
 5410SOL    HW117129   1.214   2.548   0.381
 5410SOL    HW217130   1.284   2.517   0.236
 5411SOL     OW17131   3.243   5.411   0.049
 5411SOL    HW117132   3.222   5.478   7.004
 5411SOL    HW217133   3.205   5.322   0.023
 5412SOL     OW17134   0.200   1.802   6.286
 5412SOL    HW117135   0.264   1.879   6.282
 5412SOL    HW217136   0.108   1.833   6.264
 5413SOL     OW17137   6.708   6.353   5.059
 5413SOL    HW117138   6.629   6.313   5.103
 5413SOL    HW217139   6.680   6.398   4.974
 5414SOL     OW17140   5.862   4.113   5.044
 5414SOL    HW117141   5.920   4.074   5.116
 5414SOL    HW217142   5.813   4.039   4.997
 5415SOL     OW17143   4.318   0.610   0.077
 5415SOL    HW117144   4.405   0.577   0.039
 5415SOL    HW217145   4.252   0.535   0.079
 5416SOL     OW17146   3.056   6.036   6.829
 5416SOL    HW117147   3.152   6.064   6.820
 5416SOL    HW217148   3.048   5.969   6.902
 5417SOL     OW17149   4.520   6.246   4.306
 5417SOL    HW117150   4.430   6.281   4.333
 5417SOL    HW217151   4.552   6.297   4.226
 5418SOL     OW17152   5.975   3.033   4.049
 5418SOL    HW117153   5.957   3.116   3.997
 5418SOL    HW217154   6.038   2.975   3.998
 5419SOL     OW17155   5.034   6.265   6.555
 5419SOL    HW117156   5.129   6.264   6.586
 5419SOL    HW217157   5.014   6.352   6.512
 5420SOL     OW17158   1.145   0.956   1.765
 5420SOL    HW117159   1.231   1.006   1.758
 5420SOL    HW217160   1.163   0.858   1.750
 5421SOL     OW17161   4.079   4.767   2.198
 5421SOL    HW117162   4.089   4.703   2.121
 5421SOL    HW217163   4.166   4.773   2.247
 5422SOL     OW17164   2.993   5.469   3.687
 5422SOL    HW117165   2.960   5.434   3.775
 5422SOL    HW217166   3.072   5.528   3.702
 5423SOL     OW17167   5.806   6.080   1.730
 5423SOL    HW117168   5.746   6.140   1.783
 5423SOL    HW217169   5.757   6.044   1.651
 5424SOL     OW17170   4.194   3.863   5.706
 5424SOL    HW117171   4.123   3.858   5.776
 5424SOL    HW217172   4.183   3.947   5.653
 5425SOL     OW17173   1.186   4.130   6.014
 5425SOL    HW117174   1.250   4.125   6.091
 5425SOL    HW217175   1.167   4.037   5.980
 5426SOL     OW17176   5.495   5.115   1.270
 5426SOL    HW117177   5.470   5.212   1.265
 5426SOL    HW217178   5.417   5.062   1.304
 5427SOL     OW17179   5.003   1.974   6.425
 5427SOL    HW117180   4.945   2.050   6.396
 5427SOL    HW217181   5.067   2.006   6.496
 5428SOL     OW17182   6.423   5.750   2.812
 5428SOL    HW117183   6.429   5.731   2.910
 5428SOL    HW217184   6.514   5.768   2.776
 5429SOL     OW17185   3.431   0.320   4.839
 5429SOL    HW117186   3.355   0.362   4.888
 5429SOL    HW217187   3.517   0.365   4.866
 5430SOL     OW17188   2.804   3.630   5.703
 5430SOL    HW117189   2.818   3.686   5.784
 5430SOL    HW217190   2.877   3.647   5.637
 5431SOL     OW17191   3.144   4.408   0.014
 5431SOL    HW117192   3.134   4.319   6.996
 5431SOL    HW217193   3.241   4.434   0.014
 5432SOL     OW17194   6.543   5.232   6.954
 5432SOL    HW117195   6.492   5.149   6.932
 5432SOL    HW217196   6.561   5.235   0.026
 5433SOL     OW17197   1.648   0.386   1.665
 5433SOL    HW117198   1.694   0.450   1.726
 5433SOL    HW217199   1.575   0.435   1.616
 5434SOL     OW17200   6.092   7.010   5.070
 5434SOL    HW117201   6.001   6.970   5.062
 5434SOL    HW217202   6.087   0.082   5.057
 5435SOL     OW17203   6.919   4.359   0.881
 5435SOL    HW117204   6.970   4.288   0.930
 5435SOL    HW217205   6.822   4.335   0.879
 5436SOL     OW17206   1.186   5.305   2.590
 5436SOL    HW117207   1.285   5.314   2.604
 5436SOL    HW217208   1.167   5.303   2.492
 5437SOL     OW17209   3.729   5.562   1.408
 5437SOL    HW117210   3.692   5.651   1.381
 5437SOL    HW217211   3.712   5.496   1.335
 5438SOL     OW17212   4.329   5.488   2.463
 5438SOL    HW117213   4.415   5.535   2.446
 5438SOL    HW217214   4.336   5.393   2.430
 5439SOL     OW17215   0.966   4.843   1.945
 5439SOL    HW117216   0.884   4.832   1.889
 5439SOL    HW217217   0.947   4.814   2.038
 5440SOL     OW17218   6.349   6.692   3.519
 5440SOL    HW117219   6.433   6.673   3.569
 5440SOL    HW217220   6.325   6.788   3.527
 5441SOL     OW17221   5.704   2.656   3.729
 5441SOL    HW117222   5.731   2.576   3.676
 5441SOL    HW217223   5.786   2.709   3.754
 5442SOL     OW17224   4.236   0.437   5.948
 5442SOL    HW117225   4.309   0.465   6.011
 5442SOL    HW217226   4.153   0.418   6.000
 5443SOL     OW17227   4.250   0.477   4.330
 5443SOL    HW117228   4.341   0.485   4.289
 5443SOL    HW217229   4.227   0.380   4.342
 5444SOL     OW17230   6.132   0.985   4.637
 5444SOL    HW117231   6.043   1.017   4.669
 5444SOL    HW217232   6.167   1.047   4.567
 5445SOL     OW17233   5.680   5.920   4.363
 5445SOL    HW117234   5.686   5.822   4.381
 5445SOL    HW217235   5.747   5.969   4.419
 5446SOL     OW17236   0.112   4.506   5.836
 5446SOL    HW117237   0.099   4.510   5.737
 5446SOL    HW217238   0.112   4.411   5.866
 5447SOL     OW17239   1.161   2.449   0.737
 5447SOL    HW117240   1.180   2.511   0.660
 5447SOL    HW217241   1.192   2.492   0.822
 5448SOL     OW17242   4.275   5.059   2.991
 5448SOL    HW117243   4.339   5.032   2.919
 5448SOL    HW217244   4.188   5.012   2.978
 5449SOL     OW17245   3.208   1.513   1.669
 5449SOL    HW117246   3.145   1.491   1.744
 5449SOL    HW217247   3.242   1.429   1.627
 5450SOL     OW17248   4.244   5.591   1.712
 5450SOL    HW117249   4.337   5.624   1.722
 5450SOL    HW217250   4.210   5.614   1.621
 5451SOL     OW17251   0.081   0.085   2.838
 5451SOL    HW117252   0.062   7.020   2.874
 5451SOL    HW217253   0.011   0.110   2.772
 5452SOL     OW17254   2.179   4.287   2.049
 5452SOL    HW117255   2.247   4.271   2.119
 5452SOL    HW217256   2.087   4.275   2.088
 5453SOL     OW17257   5.746   4.101   3.037
 5453SOL    HW117258   5.766   4.031   2.968
 5453SOL    HW217259   5.674   4.068   3.098
 5454SOL     OW17260   5.689   4.833   2.524
 5454SOL    HW117261   5.739   4.888   2.592
 5454SOL    HW217262   5.752   4.803   2.453
 5455SOL     OW17263   1.699   1.577   3.873
 5455SOL    HW117264   1.611   1.556   3.915
 5455SOL    HW217265   1.698   1.550   3.777
 5456SOL     OW17266   6.243   1.327   0.554
 5456SOL    HW117267   6.328   1.370   0.582
 5456SOL    HW217268   6.263   1.241   0.508
 5457SOL     OW17269   5.567   1.732   6.685
 5457SOL    HW117270   5.658   1.735   6.726
 5457SOL    HW217271   5.529   1.640   6.695
 5458SOL     OW17272   6.143   3.667   0.082
 5458SOL    HW117273   6.151   3.754   0.130
 5458SOL    HW217274   6.222   3.610   0.105
 5459SOL     OW17275   1.502   3.784   5.903
 5459SOL    HW117276   1.538   3.872   5.872
 5459SOL    HW217277   1.526   3.713   5.837
 5460SOL     OW17278   1.592   0.568   1.184
 5460SOL    HW117279   1.656   0.605   1.252
 5460SOL    HW217280   1.583   0.633   1.108
 5461SOL     OW17281   6.687   1.322   5.418
 5461SOL    HW117282   6.760   1.253   5.423
 5461SOL    HW217283   6.715   1.397   5.358
 5462SOL     OW17284   4.918   4.911   6.736
 5462SOL    HW117285   4.912   4.811   6.740
 5462SOL    HW217286   4.892   4.943   6.645
 5463SOL     OW17287   1.566   3.179   6.936
 5463SOL    HW117288   1.544   3.246   6.864
 5463SOL    HW217289   1.486   3.120   6.951
 5464SOL     OW17290   0.556   6.056   5.892
 5464SOL    HW117291   0.481   6.086   5.833
 5464SOL    HW217292   0.609   6.135   5.922
 5465SOL     OW17293   6.785   6.436   3.793
 5465SOL    HW117294   6.766   6.531   3.818
 5465SOL    HW217295   6.790   6.380   3.875
 5466SOL     OW17296   5.920   2.064   5.622
 5466SOL    HW117297   5.848   2.132   5.615
 5466SOL    HW217298   5.964   2.071   5.712
 5467SOL     OW17299   5.002   3.168   4.067
 5467SOL    HW117300   4.925   3.159   4.131
 5467SOL    HW217301   4.969   3.199   3.978
 5468SOL     OW17302   0.600   1.866   1.553
 5468SOL    HW117303   0.590   1.846   1.455
 5468SOL    HW217304   0.695   1.889   1.572
 5469SOL     OW17305   2.845   0.491   4.994
 5469SOL    HW117306   2.888   0.481   4.904
 5469SOL    HW217307   2.786   0.412   5.011
 5470SOL     OW17308   3.644   6.004   3.811
 5470SOL    HW117309   3.564   5.973   3.862
 5470SOL    HW217310   3.631   5.986   3.714
 5471SOL     OW17311   4.848   0.597   3.513
 5471SOL    HW117312   4.912   0.641   3.450
 5471SOL    HW217313   4.858   0.638   3.604
 5472SOL     OW17314   2.697   1.938   6.747
 5472SOL    HW117315   2.672   1.918   6.652
 5472SOL    HW217316   2.708   2.036   6.759
 5473SOL     OW17317   2.668   4.214   1.629
 5473SOL    HW117318   2.755   4.189   1.671
 5473SOL    HW217319   2.628   4.134   1.585
 5474SOL     OW17320   0.736   5.538   3.538
 5474SOL    HW117321   0.756   5.493   3.451
 5474SOL    HW217322   0.818   5.534   3.596
 5475SOL     OW17323   6.827   2.026   5.471
 5475SOL    HW117324   6.902   1.961   5.484
 5475SOL    HW217325   6.757   1.985   5.413
 5476SOL     OW17326   2.610   6.598   5.992
 5476SOL    HW117327   2.583   6.524   6.053
 5476SOL    HW217328   2.579   6.577   5.899
 5477SOL     OW17329   1.660   4.490   3.708
 5477SOL    HW117330   1.728   4.457   3.643
 5477SOL    HW217331   1.682   4.584   3.734
 5478SOL     OW17332   5.630   4.385   5.539
 5478SOL    HW117333   5.669   4.344   5.622
 5478SOL    HW217334   5.704   4.427   5.485
 5479SOL     OW17335   3.368   1.703   4.608
 5479SOL    HW117336   3.465   1.707   4.631
 5479SOL    HW217337   3.315   1.745   4.682
 5480SOL     OW17338   6.898   3.794   4.344
 5480SOL    HW117339   6.924   3.722   4.409
 5480SOL    HW217340   6.923   3.883   4.382
 5481SOL     OW17341   4.990   0.900   6.716
 5481SOL    HW117342   5.001   0.833   6.642
 5481SOL    HW217343   5.010   0.991   6.682
 5482SOL     OW17344   4.912   2.900   1.168
 5482SOL    HW117345   4.879   2.953   1.246
 5482SOL    HW217346   4.930   2.806   1.198
 5483SOL     OW17347   0.229   3.406   5.664
 5483SOL    HW117348   0.188   3.350   5.736
 5483SOL    HW217349   0.157   3.446   5.608
 5484SOL     OW17350   6.317   6.143   3.697
 5484SOL    HW117351   6.375   6.223   3.683
 5484SOL    HW217352   6.231   6.154   3.646
 5485SOL     OW17353   3.624   6.968   5.405
 5485SOL    HW117354   3.674   6.981   5.491
 5485SOL    HW217355   3.538   6.920   5.424
 5486SOL     OW17356   0.601   0.584   3.688
 5486SOL    HW117357   0.569   0.661   3.745
 5486SOL    HW217358   0.534   0.566   3.616
 5487SOL     OW17359   6.118   4.423   0.225
 5487SOL    HW117360   6.157   4.432   0.133
 5487SOL    HW217361   6.168   4.483   0.288
 5488SOL     OW17362   5.056   2.035   6.730
 5488SOL    HW117363   5.005   2.073   6.807
 5488SOL    HW217364   5.135   2.094   6.710
 5489SOL     OW17365   1.285   4.384   2.947
 5489SOL    HW117366   1.203   4.378   2.891
 5489SOL    HW217367   1.348   4.310   2.922
 5490SOL     OW17368   2.292   1.966   0.807
 5490SOL    HW117369   2.250   2.020   0.879
 5490SOL    HW217370   2.254   1.874   0.807
 5491SOL     OW17371   1.458   4.639   0.593
 5491SOL    HW117372   1.540   4.582   0.600
 5491SOL    HW217373   1.462   4.711   0.662
 5492SOL     OW17374   0.997   1.261   6.298
 5492SOL    HW117375   0.918   1.237   6.241
 5492SOL    HW217376   0.976   1.241   6.394
 5493SOL     OW17377   3.620   3.607   0.079
 5493SOL    HW117378   3.643   3.698   0.114
 5493SOL    HW217379   3.608   3.611   7.007
 5494SOL     OW17380   5.528   3.077   1.413
 5494SOL    HW117381   5.473   3.152   1.449
 5494SOL    HW217382   5.470   3.017   1.358
 5495SOL     OW17383   4.104   3.572   2.621
 5495SOL    HW117384   4.120   3.497   2.556
 5495SOL    HW217385   4.141   3.547   2.710
 5496SOL     OW17386   3.837   6.094   1.354
 5496SOL    HW117387   3.906   6.090   1.282
 5496SOL    HW217388   3.880   6.126   1.439
 5497SOL     OW17389   6.837   1.260   1.923
 5497SOL    HW117390   6.870   1.353   1.906
 5497SOL    HW217391   6.914   1.196   1.919
 5498SOL     OW17392   4.669   1.239   5.857
 5498SOL    HW117393   4.608   1.314   5.829
 5498SOL    HW217394   4.719   1.266   5.938
 5499SOL     OW17395   0.014   1.711   3.148
 5499SOL    HW117396   0.052   1.659   3.224
 5499SOL    HW217397   6.967   1.770   3.182
 5500SOL     OW17398   1.902   5.899   0.593
 5500SOL    HW117399   1.956   5.876   0.674
 5500SOL    HW217400   1.821   5.950   0.620
 5501SOL     OW17401   2.918   0.797   1.990
 5501SOL    HW117402   2.947   0.702   1.978
 5501SOL    HW217403   2.832   0.799   2.040
 5502SOL     OW17404   6.274   3.968   5.647
 5502SOL    HW117405   6.338   4.022   5.702
 5502SOL    HW217406   6.321   3.886   5.613
 5503SOL     OW17407   1.058   5.118   3.380
 5503SOL    HW117408   0.976   5.111   3.436
 5503SOL    HW217409   1.138   5.126   3.439
 5504SOL     OW17410   3.096   1.731   4.549
 5504SOL    HW117411   3.115   1.722   4.647
 5504SOL    HW217412   3.073   1.826   4.528
 5505SOL     OW17413   3.400   5.241   5.849
 5505SOL    HW117414   3.419   5.216   5.754
 5505SOL    HW217415   3.394   5.341   5.856
 5506SOL     OW17416   6.039   0.692   5.816
 5506SOL    HW117417   6.005   0.780   5.782
 5506SOL    HW217418   5.966   0.645   5.865
 5507SOL     OW17419   2.444   6.679   3.869
 5507SOL    HW117420   2.451   6.778   3.854
 5507SOL    HW217421   2.505   6.652   3.943
 5508SOL     OW17422   2.878   0.546   6.476
 5508SOL    HW117423   2.947   0.536   6.547
 5508SOL    HW217424   2.918   0.595   6.398
 5509SOL     OW17425   5.811   6.580   6.915
 5509SOL    HW117426   5.822   6.656   6.978
 5509SOL    HW217427   5.901   6.546   6.888
 5510SOL     OW17428   5.077   0.165   5.901
 5510SOL    HW117429   5.136   0.128   5.974
 5510SOL    HW217430   5.134   0.200   5.827
 5511SOL     OW17431   1.027   1.239   2.592
 5511SOL    HW117432   1.096   1.201   2.530
 5511SOL    HW217433   1.000   1.168   2.658
 5512SOL     OW17434   1.090   0.897   6.820
 5512SOL    HW117435   1.076   0.844   6.737
 5512SOL    HW217436   1.136   0.841   6.889
 5513SOL     OW17437   4.839   3.981   4.794
 5513SOL    HW117438   4.834   3.950   4.699
 5513SOL    HW217439   4.901   4.059   4.802
 5514SOL     OW17440   5.230   4.893   1.896
 5514SOL    HW117441   5.135   4.896   1.865
 5514SOL    HW217442   5.233   4.858   1.990
 5515SOL     OW17443   6.609   2.245   1.847
 5515SOL    HW117444   6.703   2.265   1.820
 5515SOL    HW217445   6.564   2.330   1.876
 5516SOL     OW17446   1.212   3.778   6.747
 5516SOL    HW117447   1.221   3.772   6.648
 5516SOL    HW217448   1.249   3.865   6.779
 5517SOL     OW17449   2.699   1.692   1.175
 5517SOL    HW117450   2.631   1.669   1.105
 5517SOL    HW217451   2.764   1.759   1.137
 5518SOL     OW17452   5.764   4.856   5.446
 5518SOL    HW117453   5.792   4.793   5.373
 5518SOL    HW217454   5.666   4.845   5.464
 5519SOL     OW17455   5.794   3.541   3.989
 5519SOL    HW117456   5.863   3.567   4.056
 5519SOL    HW217457   5.799   3.604   3.911
 5520SOL     OW17458   0.740   3.953   2.241
 5520SOL    HW117459   0.835   3.980   2.257
 5520SOL    HW217460   0.718   3.965   2.144
 5521SOL     OW17461   5.850   5.770   1.408
 5521SOL    HW117462   5.945   5.747   1.387
 5521SOL    HW217463   5.848   5.837   1.482
 5522SOL     OW17464   2.517   3.538   1.688
 5522SOL    HW117465   2.462   3.593   1.624
 5522SOL    HW217466   2.465   3.522   1.771
 5523SOL     OW17467   3.411   0.096   2.705
 5523SOL    HW117468   3.338   0.139   2.652
 5523SOL    HW217469   3.380   0.083   2.799
 5524SOL     OW17470   0.299   4.889   6.170
 5524SOL    HW117471   0.345   4.865   6.256
 5524SOL    HW217472   0.312   4.816   6.104
 5525SOL     OW17473   6.534   5.367   6.248
 5525SOL    HW117474   6.517   5.442   6.312
 5525SOL    HW217475   6.516   5.280   6.293
 5526SOL     OW17476   6.484   3.315   3.998
 5526SOL    HW117477   6.431   3.373   3.936
 5526SOL    HW217478   6.422   3.251   4.044
 5527SOL     OW17479   1.860   2.920   1.565
 5527SOL    HW117480   1.920   2.860   1.619
 5527SOL    HW217481   1.787   2.866   1.524
 5528SOL     OW17482   0.376   2.430   4.368
 5528SOL    HW117483   0.414   2.365   4.302
 5528SOL    HW217484   0.293   2.471   4.331
 5529SOL     OW17485   2.503   0.715   4.507
 5529SOL    HW117486   2.522   0.773   4.428
 5529SOL    HW217487   2.407   0.689   4.508
 5530SOL     OW17488   0.876   2.140   0.306
 5530SOL    HW117489   0.975   2.152   0.301
 5530SOL    HW217490   0.831   2.229   0.314
 5531SOL     OW17491   4.268   2.758   5.587
 5531SOL    HW117492   4.249   2.774   5.684
 5531SOL    HW217493   4.239   2.666   5.562
 5532SOL     OW17494   2.154   1.725   0.793
 5532SOL    HW117495   2.133   1.726   0.696
 5532SOL    HW217496   2.212   1.646   0.814
 5533SOL     OW17497   4.056   0.740   2.170
 5533SOL    HW117498   4.102   0.659   2.207
 5533SOL    HW217499   4.019   0.718   2.079
 5534SOL     OW17500   0.733   4.022   6.665
 5534SOL    HW117501   0.796   4.055   6.594
 5534SOL    HW217502   0.763   3.932   6.697
 5535SOL     OW17503   6.233   3.026   2.884
 5535SOL    HW117504   6.153   3.070   2.924
 5535SOL    HW217505   6.311   3.036   2.947
 5536SOL     OW17506   1.993   0.964   4.466
 5536SOL    HW117507   2.063   0.907   4.509
 5536SOL    HW217508   2.020   1.061   4.473
 5537SOL     OW17509   4.489   0.236   5.242
 5537SOL    HW117510   4.405   0.202   5.202
 5537SOL    HW217511   4.526   0.310   5.186
 5538SOL     OW17512   3.735   1.515   6.152
 5538SOL    HW117513   3.787   1.573   6.214
 5538SOL    HW217514   3.680   1.451   6.206
 5539SOL     OW17515   2.267   0.651   1.894
 5539SOL    HW117516   2.299   0.568   1.849
 5539SOL    HW217517   2.226   0.627   1.982
 5540SOL     OW17518   4.983   2.403   6.600
 5540SOL    HW117519   4.984   2.378   6.697
 5540SOL    HW217520   5.005   2.500   6.590
 5541SOL     OW17521   4.875   3.757   6.181
 5541SOL    HW117522   4.854   3.699   6.260
 5541SOL    HW217523   4.972   3.781   6.183
 5542SOL     OW17524   5.440   4.395   6.125
 5542SOL    HW117525   5.469   4.445   6.043
 5542SOL    HW217526   5.510   4.327   6.149
 5543SOL     OW17527   2.183   0.150   0.856
 5543SOL    HW117528   2.235   0.096   0.923
 5543SOL    HW217529   2.116   0.091   0.811
 5544SOL     OW17530   4.509   5.334   6.269
 5544SOL    HW117531   4.552   5.307   6.354
 5544SOL    HW217532   4.427   5.279   6.254
 5545SOL     OW17533   4.192   0.791   2.720
 5545SOL    HW117534   4.184   0.891   2.723
 5545SOL    HW217535   4.196   0.761   2.625
 5546SOL     OW17536   0.514   6.111   4.907
 5546SOL    HW117537   0.478   6.205   4.911
 5546SOL    HW217538   0.438   6.046   4.919
 5547SOL     OW17539   5.011   1.843   5.920
 5547SOL    HW117540   4.920   1.818   5.953
 5547SOL    HW217541   5.066   1.760   5.908
 5548SOL     OW17542   6.992   3.609   5.525
 5548SOL    HW117543   6.971   3.521   5.481
 5548SOL    HW217544   6.950   3.683   5.473
 5549SOL     OW17545   4.235   3.667   1.828
 5549SOL    HW117546   4.180   3.607   1.770
 5549SOL    HW217547   4.320   3.689   1.781
 5550SOL     OW17548   2.040   4.174   2.808
 5550SOL    HW117549   2.090   4.089   2.792
 5550SOL    HW217550   2.000   4.173   2.900
 5551SOL     OW17551   2.311   5.439   2.858
 5551SOL    HW117552   2.377   5.391   2.800
 5551SOL    HW217553   2.311   5.398   2.949
 5552SOL     OW17554   6.828   6.612   6.404
 5552SOL    HW117555   6.802   6.565   6.319
 5552SOL    HW217556   6.779   6.699   6.410
 5553SOL     OW17557   4.649   0.529   6.772
 5553SOL    HW117558   4.697   0.442   6.785
 5553SOL    HW217559   4.589   0.522   6.693
 5554SOL     OW17560   4.971   2.822   0.785
 5554SOL    HW117561   4.962   2.801   0.883
 5554SOL    HW217562   5.049   2.882   0.771
 5555SOL     OW17563   0.849   4.098   3.277
 5555SOL    HW117564   0.851   3.998   3.283
 5555SOL    HW217565   0.915   4.129   3.210
 5556SOL     OW17566   5.591   0.663   4.213
 5556SOL    HW117567   5.571   0.667   4.310
 5556SOL    HW217568   5.613   0.569   4.187
 5557SOL     OW17569   3.483   5.868   1.595
 5557SOL    HW117570   3.424   5.890   1.672
 5557SOL    HW217571   3.469   5.772   1.569
 5558SOL     OW17572   3.504   4.459   0.450
 5558SOL    HW117573   3.429   4.439   0.513
 5558SOL    HW217574   3.469   4.511   0.372
 5559SOL     OW17575   1.118   0.289   2.994
 5559SOL    HW117576   1.171   0.304   2.911
 5559SOL    HW217577   1.041   0.353   2.996
 5560SOL     OW17578   0.147   5.775   2.833
 5560SOL    HW117579   0.236   5.818   2.819
 5560SOL    HW217580   0.135   5.753   2.930
 5561SOL     OW17581   2.981   0.829   4.834
 5561SOL    HW117582   3.009   0.805   4.927
 5561SOL    HW217583   2.885   0.857   4.835
 5562SOL     OW17584   4.378   4.550   6.927
 5562SOL    HW117585   4.427   4.599   6.998
 5562SOL    HW217586   4.322   4.478   6.968
 5563SOL     OW17587   3.119   4.907   2.823
 5563SOL    HW117588   3.210   4.911   2.865
 5563SOL    HW217589   3.050   4.893   2.893
 5564SOL     OW17590   4.997   6.519   6.151
 5564SOL    HW117591   5.052   6.501   6.070
 5564SOL    HW217592   5.000   6.617   6.172
 5565SOL     OW17593   3.976   3.624   0.268
 5565SOL    HW117594   4.063   3.583   0.293
 5565SOL    HW217595   3.903   3.586   0.325
 5566SOL     OW17596   1.603   4.444   0.353
 5566SOL    HW117597   1.504   4.449   0.337
 5566SOL    HW217598   1.625   4.357   0.397
 5567SOL     OW17599   6.904   3.223   1.905
 5567SOL    HW117600   6.833   3.284   1.939
 5567SOL    HW217601   6.863   3.149   1.852
 5568SOL     OW17602   4.452   6.286   2.789
 5568SOL    HW117603   4.381   6.240   2.842
 5568SOL    HW217604   4.426   6.288   2.693
 5569SOL     OW17605   2.719   1.731   3.620
 5569SOL    HW117606   2.623   1.715   3.646
 5569SOL    HW217607   2.722   1.799   3.547
 5570SOL     OW17608   5.919   3.245   3.543
 5570SOL    HW117609   5.879   3.154   3.532
 5570SOL    HW217610   5.981   3.245   3.621
 5571SOL     OW17611   6.441   5.072   1.940
 5571SOL    HW117612   6.488   4.984   1.942
 5571SOL    HW217613   6.451   5.117   2.029
 5572SOL     OW17614   1.720   4.256   4.774
 5572SOL    HW117615   1.666   4.223   4.697
 5572SOL    HW217616   1.812   4.215   4.770
 5573SOL     OW17617   1.394   5.081   5.239
 5573SOL    HW117618   1.379   5.052   5.144
 5573SOL    HW217619   1.412   5.000   5.295
 5574SOL     OW17620   0.959   3.300   6.498
 5574SOL    HW117621   1.036   3.235   6.503
 5574SOL    HW217622   0.887   3.261   6.440
 5575SOL     OW17623   0.505   0.061   1.747
 5575SOL    HW117624   0.567   0.019   1.813
 5575SOL    HW217625   0.518   0.018   1.657
 5576SOL     OW17626   1.613   4.238   3.290
 5576SOL    HW117627   1.553   4.310   3.256
 5576SOL    HW217628   1.593   4.153   3.241
 5577SOL     OW17629   1.796   3.244   0.141
 5577SOL    HW117630   1.803   3.185   0.060
 5577SOL    HW217631   1.793   3.187   0.223
 5578SOL     OW17632   3.769   3.883   2.410
 5578SOL    HW117633   3.717   3.809   2.453
 5578SOL    HW217634   3.764   3.965   2.468
 5579SOL     OW17635   0.277   3.311   0.919
 5579SOL    HW117636   0.327   3.359   0.992
 5579SOL    HW217637   0.336   3.240   0.880
 5580SOL     OW17638   4.860   1.759   6.312
 5580SOL    HW117639   4.928   1.827   6.338
 5580SOL    HW217640   4.817   1.786   6.226
 5581SOL     OW17641   1.158   1.867   1.387
 5581SOL    HW117642   1.163   1.944   1.451
 5581SOL    HW217643   1.212   1.791   1.422
 5582SOL     OW17644   2.764   4.357   6.719
 5582SOL    HW117645   2.721   4.332   6.632
 5582SOL    HW217646   2.709   4.322   6.795
 5583SOL     OW17647   4.452   0.453   2.500
 5583SOL    HW117648   4.510   0.509   2.560
 5583SOL    HW217649   4.488   0.456   2.407
 5584SOL     OW17650   6.694   4.227   4.279
 5584SOL    HW117651   6.745   4.305   4.315
 5584SOL    HW217652   6.696   4.228   4.180
 5585SOL     OW17653   4.872   5.242   3.175
 5585SOL    HW117654   4.933   5.319   3.198
 5585SOL    HW217655   4.921   5.178   3.116
 5586SOL     OW17656   6.563   3.571   5.368
 5586SOL    HW117657   6.481   3.515   5.355
 5586SOL    HW217658   6.640   3.531   5.318
 5587SOL     OW17659   4.525   0.241   6.977
 5587SOL    HW117660   4.602   0.253   6.914
 5587SOL    HW217661   4.446   0.290   6.942
 5588SOL     OW17662   2.220   6.422   2.649
 5588SOL    HW117663   2.251   6.404   2.556
 5588SOL    HW217664   2.176   6.340   2.687
 5589SOL     OW17665   6.455   4.293   6.671
 5589SOL    HW117666   6.366   4.252   6.694
 5589SOL    HW217667   6.466   4.379   6.721
 5590SOL     OW17668   5.806   6.195   3.596
 5590SOL    HW117669   5.858   6.237   3.671
 5590SOL    HW217670   5.709   6.194   3.620
 5591SOL     OW17671   0.570   1.838   1.252
 5591SOL    HW117672   0.494   1.903   1.247
 5591SOL    HW217673   0.534   1.745   1.239
 5592SOL     OW17674   1.609   5.100   3.487
 5592SOL    HW117675   1.577   5.124   3.578
 5592SOL    HW217676   1.623   5.001   3.482
 5593SOL     OW17677   0.038   2.681   6.511
 5593SOL    HW117678   7.025   2.674   6.603
 5593SOL    HW217679   6.991   2.682   6.443
 5594SOL     OW17680   5.054   0.543   4.958
 5594SOL    HW117681   5.071   0.474   5.028
 5594SOL    HW217682   4.983   0.510   4.895
 5595SOL     OW17683   1.459   1.512   5.338
 5595SOL    HW117684   1.487   1.431   5.288
 5595SOL    HW217685   1.495   1.594   5.293
 5596SOL     OW17686   3.952   6.126   2.749
 5596SOL    HW117687   3.971   6.220   2.777
 5596SOL    HW217688   3.966   6.117   2.651
 5597SOL     OW17689   5.203   2.208   4.374
 5597SOL    HW117690   5.193   2.242   4.468
 5597SOL    HW217691   5.115   2.216   4.327
 5598SOL     OW17692   4.933   3.606   3.696
 5598SOL    HW117693   4.890   3.682   3.745
 5598SOL    HW217694   5.032   3.612   3.705
 5599SOL     OW17695   1.389   0.820   4.020
 5599SOL    HW117696   1.471   0.767   3.999
 5599SOL    HW217697   1.309   0.760   4.022
 5600SOL     OW17698   0.850   2.168   2.410
 5600SOL    HW117699   0.802   2.126   2.487
 5600SOL    HW217700   0.793   2.162   2.328
 5601SOL     OW17701   3.045   7.015   5.817
 5601SOL    HW117702   3.055   0.035   5.905
 5601SOL    HW217703   3.102   6.933   5.816
 5602SOL     OW17704   0.693   1.611   0.897
 5602SOL    HW117705   0.737   1.559   0.970
 5602SOL    HW217706   0.594   1.607   0.908
 5603SOL     OW17707   5.145   2.185   7.020
 5603SOL    HW117708   5.221   2.120   7.015
 5603SOL    HW217709   5.066   2.140   0.035
 5604SOL     OW17710   6.764   1.924   5.826
 5604SOL    HW117711   6.692   1.869   5.784
 5604SOL    HW217712   6.758   2.018   5.792
 5605SOL     OW17713   0.890   0.859   4.534
 5605SOL    HW117714   0.802   0.905   4.536
 5605SOL    HW217715   0.956   0.911   4.588
 5606SOL     OW17716   5.628   6.515   1.287
 5606SOL    HW117717   5.670   6.434   1.327
 5606SOL    HW217718   5.665   6.531   1.196
 5607SOL     OW17719   5.406   0.485   2.349
 5607SOL    HW117720   5.442   0.400   2.312
 5607SOL    HW217721   5.336   0.465   2.417
 5608SOL     OW17722   4.574   0.286   4.840
 5608SOL    HW117723   4.615   0.231   4.913
 5608SOL    HW217724   4.569   0.232   4.756
 5609SOL     OW17725   2.539   5.056   0.770
 5609SOL    HW117726   2.470   5.012   0.712
 5609SOL    HW217727   2.498   5.135   0.815
 5610SOL     OW17728   4.848   6.821   0.747
 5610SOL    HW117729   4.856   6.872   0.661
 5610SOL    HW217730   4.922   6.847   0.809
 5611SOL     OW17731   1.645   4.853   2.481
 5611SOL    HW117732   1.659   4.769   2.532
 5611SOL    HW217733   1.628   4.832   2.385
 5612SOL     OW17734   3.908   2.140   6.583
 5612SOL    HW117735   3.979   2.075   6.611
 5612SOL    HW217736   3.950   2.224   6.550
 5613SOL     OW17737   4.766   4.021   2.739
 5613SOL    HW117738   4.863   4.001   2.755
 5613SOL    HW217739   4.728   3.953   2.676
 5614SOL     OW17740   4.369   2.437   4.401
 5614SOL    HW117741   4.410   2.515   4.449
 5614SOL    HW217742   4.401   2.436   4.306
 5615SOL     OW17743   0.949   0.663   6.215
 5615SOL    HW117744   0.881   0.670   6.142
 5615SOL    HW217745   0.903   0.674   6.304
 5616SOL     OW17746   1.978   1.193   5.564
 5616SOL    HW117747   1.934   1.118   5.614
 5616SOL    HW217748   2.046   1.236   5.623
 5617SOL     OW17749   2.518   6.542   6.355
 5617SOL    HW117750   2.527   6.487   6.272
 5617SOL    HW217751   2.513   6.639   6.330
 5618SOL     OW17752   6.261   3.177   4.119
 5618SOL    HW117753   6.266   3.200   4.216
 5618SOL    HW217754   6.182   3.119   4.101
 5619SOL     OW17755   2.795   4.250   6.319
 5619SOL    HW117756   2.787   4.199   6.405
 5619SOL    HW217757   2.705   4.281   6.290
 5620SOL     OW17758   3.639   3.429   0.845
 5620SOL    HW117759   3.573   3.504   0.840
 5620SOL    HW217760   3.728   3.465   0.873
 5621SOL     OW17761   1.375   2.226   5.874
 5621SOL    HW117762   1.286   2.183   5.891
 5621SOL    HW217763   1.388   2.302   5.938
 5622SOL     OW17764   4.213   0.007   5.925
 5622SOL    HW117765   4.251   0.096   5.897
 5622SOL    HW217766   4.214   6.971   5.847
 5623SOL     OW17767   1.908   5.922   6.127
 5623SOL    HW117768   1.906   5.931   6.226
 5623SOL    HW217769   2.002   5.905   6.097
 5624SOL     OW17770   0.940   4.506   3.467
 5624SOL    HW117771   0.942   4.533   3.563
 5624SOL    HW217772   0.943   4.588   3.409
 5625SOL     OW17773   6.255   2.192   4.238
 5625SOL    HW117774   6.203   2.110   4.260
 5625SOL    HW217775   6.212   2.238   4.160
 5626SOL     OW17776   2.645   6.273   4.789
 5626SOL    HW117777   2.684   6.364   4.773
 5626SOL    HW217778   2.548   6.274   4.766
 5627SOL     OW17779   0.895   5.913   0.481
 5627SOL    HW117780   0.933   5.961   0.403
 5627SOL    HW217781   0.948   5.830   0.498
 5628SOL     OW17782   1.618   2.157   6.176
 5628SOL    HW117783   1.680   2.095   6.223
 5628SOL    HW217784   1.586   2.113   6.091
 5629SOL     OW17785   3.336   4.025   2.035
 5629SOL    HW117786   3.425   3.979   2.029
 5629SOL    HW217787   3.340   4.111   1.986
 5630SOL     OW17788   1.324   5.124   0.783
 5630SOL    HW117789   1.240   5.144   0.731
 5630SOL    HW217790   1.375   5.209   0.796
 5631SOL     OW17791   4.249   1.440   6.938
 5631SOL    HW117792   4.348   1.432   6.929
 5631SOL    HW217793   4.204   1.383   6.870
 5632SOL     OW17794   4.137   3.138   5.949
 5632SOL    HW117795   4.096   3.229   5.962
 5632SOL    HW217796   4.137   3.088   6.035
 5633SOL     OW17797   6.503   2.049   3.543
 5633SOL    HW117798   6.523   2.104   3.462
 5633SOL    HW217799   6.434   1.980   3.520
 5634SOL     OW17800   2.977   5.968   5.647
 5634SOL    HW117801   2.923   5.986   5.565
 5634SOL    HW217802   3.075   5.971   5.623
 5635SOL     OW17803   2.069   3.371   4.956
 5635SOL    HW117804   2.059   3.369   5.055
 5635SOL    HW217805   2.094   3.280   4.922
 5636SOL     OW17806   3.475   6.205   2.897
 5636SOL    HW117807   3.394   6.164   2.855
 5636SOL    HW217808   3.538   6.234   2.825
 5637SOL     OW17809   5.391   0.142   4.110
 5637SOL    HW117810   5.315   0.119   4.049
 5637SOL    HW217811   5.359   0.140   4.204
 5638SOL     OW17812   5.308   3.437   1.160
 5638SOL    HW117813   5.254   3.397   1.086
 5638SOL    HW217814   5.382   3.491   1.122
 5639SOL     OW17815   0.548   1.185   0.560
 5639SOL    HW117816   0.573   1.267   0.508
 5639SOL    HW217817   0.620   1.117   0.553
 5640SOL     OW17818   2.615   0.559   3.993
 5640SOL    HW117819   2.569   0.554   4.081
 5640SOL    HW217820   2.646   0.467   3.966
 5641SOL     OW17821   0.285   4.668   6.005
 5641SOL    HW117822   0.207   4.727   5.985
 5641SOL    HW217823   0.277   4.583   5.953
 5642SOL     OW17824   1.988   6.486   0.307
 5642SOL    HW117825   2.000   6.392   0.340
 5642SOL    HW217826   1.975   6.547   0.386
 5643SOL     OW17827   4.932   1.576   5.088
 5643SOL    HW117828   4.886   1.575   4.999
 5643SOL    HW217829   5.007   1.509   5.087
 5644SOL     OW17830   2.923   6.643   5.289
 5644SOL    HW117831   2.897   6.570   5.352
 5644SOL    HW217832   2.854   6.715   5.291
 5645SOL     OW17833   6.489   3.905   3.723
 5645SOL    HW117834   6.497   3.953   3.810
 5645SOL    HW217835   6.516   3.966   3.649
 5646SOL     OW17836   1.869   4.948   2.891
 5646SOL    HW117837   1.783   4.986   2.860
 5646SOL    HW217838   1.945   5.003   2.855
 5647SOL     OW17839   5.643   6.291   1.830
 5647SOL    HW117840   5.629   6.380   1.872
 5647SOL    HW217841   5.558   6.238   1.834
 5648SOL     OW17842   2.331   5.857   2.660
 5648SOL    HW117843   2.358   5.852   2.756
 5648SOL    HW217844   2.392   5.799   2.606
 5649SOL     OW17845   0.966   6.698   4.060
 5649SOL    HW117846   0.892   6.730   4.119
 5649SOL    HW217847   1.035   6.650   4.115
 5650SOL     OW17848   0.534   4.747   0.485
 5650SOL    HW117849   0.501   4.770   0.576
 5650SOL    HW217850   0.513   4.652   0.465
 5651SOL     OW17851   1.521   0.391   0.740
 5651SOL    HW117852   1.542   0.331   0.817
 5651SOL    HW217853   1.536   0.342   0.654
 5652SOL     OW17854   0.035   5.588   1.927
 5652SOL    HW117855   0.026   5.562   1.831
 5652SOL    HW217856   7.019   5.518   1.984
 5653SOL     OW17857   0.229   6.284   7.016
 5653SOL    HW117858   0.306   6.347   7.013
 5653SOL    HW217859   0.149   6.326   6.973
 5654SOL     OW17860   1.080   6.141   4.704
 5654SOL    HW117861   1.026   6.225   4.692
 5654SOL    HW217862   1.042   6.089   4.780
 5655SOL     OW17863   6.502   2.903   4.029
 5655SOL    HW117864   6.537   2.957   3.953
 5655SOL    HW217865   6.549   2.929   4.113
 5656SOL     OW17866   6.675   3.329   6.289
 5656SOL    HW117867   6.617   3.395   6.337
 5656SOL    HW217868   6.722   3.374   6.213
 5657SOL     OW17869   4.572   4.439   4.826
 5657SOL    HW117870   4.633   4.389   4.888
 5657SOL    HW217871   4.491   4.469   4.876
 5658SOL     OW17872   1.871   3.089   6.141
 5658SOL    HW117873   1.852   3.149   6.218
 5658SOL    HW217874   1.911   3.003   6.174
 5659SOL     OW17875   3.379   3.543   6.055
 5659SOL    HW117876   3.341   3.536   5.963
 5659SOL    HW217877   3.309   3.515   6.122
 5660SOL     OW17878   4.622   6.896   6.358
 5660SOL    HW117879   4.539   6.840   6.358
 5660SOL    HW217880   4.604   6.981   6.308
 5661SOL     OW17881   0.722   5.432   6.020
 5661SOL    HW117882   0.779   5.465   5.945
 5661SOL    HW217883   0.749   5.338   6.043
 5662SOL     OW17884   2.450   6.888   2.794
 5662SOL    HW117885   2.525   6.899   2.729
 5662SOL    HW217886   2.400   6.804   2.773
 5663SOL     OW17887   1.239   2.626   0.529
 5663SOL    HW117888   1.317   2.629   0.593
 5663SOL    HW217889   1.223   2.718   0.493
 5664SOL     OW17890   5.270   4.352   4.677
 5664SOL    HW117891   5.222   4.439   4.664
 5664SOL    HW217892   5.212   4.276   4.647
 5665SOL     OW17893   1.183   6.779   0.358
 5665SOL    HW117894   1.116   6.839   0.403
 5665SOL    HW217895   1.249   6.746   0.425
 5666SOL     OW17896   5.457   0.942   4.034
 5666SOL    HW117897   5.462   0.918   3.937
 5666SOL    HW217898   5.520   0.885   4.086
 5667SOL     OW17899   1.745   4.803   4.253
 5667SOL    HW117900   1.721   4.808   4.156
 5667SOL    HW217901   1.661   4.800   4.308
 5668SOL     OW17902   6.141   2.817   2.284
 5668SOL    HW117903   6.106   2.847   2.195
 5668SOL    HW217904   6.108   2.879   2.355
 5669SOL     OW17905   6.387   4.096   7.007
 5669SOL    HW117906   6.404   4.174   0.040
 5669SOL    HW217907   6.335   4.125   6.926
 5670SOL     OW17908   1.287   3.911   3.032
 5670SOL    HW117909   1.228   3.919   2.951
 5670SOL    HW217910   1.265   3.984   3.096
 5671SOL     OW17911   6.399   5.643   4.150
 5671SOL    HW117912   6.318   5.660   4.093
 5671SOL    HW217913   6.411   5.544   4.161
 5672SOL     OW17914   4.605   4.202   5.344
 5672SOL    HW117915   4.636   4.174   5.434
 5672SOL    HW217916   4.645   4.142   5.275
 5673SOL     OW17917   0.846   7.025   1.562
 5673SOL    HW117918   0.913   0.011   1.489
 5673SOL    HW217919   0.842   0.080   1.619
 5674SOL     OW17920   2.135   4.815   4.521
 5674SOL    HW117921   2.091   4.826   4.610
 5674SOL    HW217922   2.099   4.733   4.477
 5675SOL     OW17923   3.423   1.200   0.495
 5675SOL    HW117924   3.502   1.236   0.445
 5675SOL    HW217925   3.339   1.239   0.456
 5676SOL     OW17926   2.737   2.388   1.698
 5676SOL    HW117927   2.746   2.474   1.648
 5676SOL    HW217928   2.804   2.385   1.772
 5677SOL     OW17929   6.711   0.714   0.825
 5677SOL    HW117930   6.766   0.762   0.893
 5677SOL    HW217931   6.617   0.706   0.859
 5678SOL     OW17932   3.430   1.505   2.250
 5678SOL    HW117933   3.517   1.540   2.215
 5678SOL    HW217934   3.411   1.547   2.339
 5679SOL     OW17935   5.922   2.178   4.857
 5679SOL    HW117936   5.970   2.121   4.923
 5679SOL    HW217937   5.903   2.267   4.898
 5680SOL     OW17938   1.503   4.872   5.375
 5680SOL    HW117939   1.565   4.833   5.307
 5680SOL    HW217940   1.548   4.875   5.464
 5681SOL     OW17941   0.540   3.524   2.750
 5681SOL    HW117942   0.491   3.599   2.794
 5681SOL    HW217943   0.595   3.560   2.675
 5682SOL     OW17944   2.868   5.617   2.409
 5682SOL    HW117945   2.818   5.601   2.324
 5682SOL    HW217946   2.804   5.645   2.481
 5683SOL     OW17947   4.026   2.751   6.520
 5683SOL    HW117948   3.957   2.689   6.481
 5683SOL    HW217949   3.990   2.844   6.520
 5684SOL     OW17950   2.236   3.361   6.170
 5684SOL    HW117951   2.300   3.436   6.156
 5684SOL    HW217952   2.286   3.275   6.174
 5685SOL     OW17953   2.194   2.522   4.103
 5685SOL    HW117954   2.255   2.600   4.099
 5685SOL    HW217955   2.137   2.528   4.186
 5686SOL     OW17956   3.172   0.829   5.740
 5686SOL    HW117957   3.262   0.823   5.783
 5686SOL    HW217958   3.176   0.789   5.649
 5687SOL     OW17959   0.659   6.105   5.163
 5687SOL    HW117960   0.600   6.088   5.083
 5687SOL    HW217961   0.755   6.100   5.135
 5688SOL     OW17962   2.160   3.288   3.864
 5688SOL    HW117963   2.100   3.367   3.861
 5688SOL    HW217964   2.216   3.286   3.781
 5689SOL     OW17965   1.420   0.763   1.500
 5689SOL    HW117966   1.497   0.784   1.561
 5689SOL    HW217967   1.389   0.847   1.456
 5690SOL     OW17968   0.781   5.429   6.831
 5690SOL    HW117969   0.846   5.494   6.872
 5690SOL    HW217970   0.755   5.462   6.740
 5691SOL     OW17971   3.102   1.232   2.205
 5691SOL    HW117972   3.142   1.309   2.155
 5691SOL    HW217973   3.170   1.194   2.268
 5692SOL     OW17974   5.021   5.353   0.603
 5692SOL    HW117975   5.099   5.383   0.548
 5692SOL    HW217976   5.017   5.408   0.687
 5693SOL     OW17977   3.916   0.881   0.662
 5693SOL    HW117978   3.877   0.805   0.715
 5693SOL    HW217979   4.015   0.869   0.655
 5694SOL     OW17980   0.731   0.532   2.708
 5694SOL    HW117981   0.653   0.497   2.759
 5694SOL    HW217982   0.702   0.613   2.656
 5695SOL     OW17983   1.240   0.945   2.192
 5695SOL    HW117984   1.309   1.012   2.165
 5695SOL    HW217985   1.229   0.948   2.292
 5696SOL     OW17986   1.619   0.663   3.705
 5696SOL    HW117987   1.668   0.609   3.636
 5696SOL    HW217988   1.675   0.670   3.788
 5697SOL     OW17989   6.321   2.804   1.687
 5697SOL    HW117990   6.368   2.723   1.724
 5697SOL    HW217991   6.275   2.853   1.760
 5698SOL     OW17992   1.675   3.282   3.521
 5698SOL    HW117993   1.753   3.297   3.581
 5698SOL    HW217994   1.612   3.217   3.563
 5699SOL     OW17995   2.224   2.433   3.417
 5699SOL    HW117996   2.230   2.436   3.317
 5699SOL    HW217997   2.197   2.523   3.451
 5700SOL     OW17998   0.193   0.668   2.024
 5700SOL    HW117999   0.154   0.577   2.039
 5700SOL    HW218000   0.244   0.696   2.105
 5701SOL     OW18001   6.512   1.271   0.917
 5701SOL    HW118002   6.559   1.339   0.974
 5701SOL    HW218003   6.462   1.208   0.977
 5702SOL     OW18004   1.714   6.766   3.937
 5702SOL    HW118005   1.716   6.666   3.942
 5702SOL    HW218006   1.674   6.794   3.850
 5703SOL     OW18007   7.003   3.672   5.939
 5703SOL    HW118008   0.031   3.724   5.873
 5703SOL    HW218009   6.908   3.669   5.909
 5704SOL     OW18010   5.220   3.654   3.783
 5704SOL    HW118011   5.311   3.638   3.822
 5704SOL    HW218012   5.202   3.752   3.782
 5705SOL     OW18013   5.991   5.976   6.452
 5705SOL    HW118014   5.967   5.914   6.376
 5705SOL    HW218015   5.949   5.942   6.536
 5706SOL     OW18016   5.796   2.686   0.644
 5706SOL    HW118017   5.755   2.712   0.732
 5706SOL    HW218018   5.811   2.768   0.589
 5707SOL     OW18019   5.217   6.845   1.248
 5707SOL    HW118020   5.255   6.902   1.321
 5707SOL    HW218021   5.118   6.858   1.245
 5708SOL     OW18022   4.954   5.690   3.401
 5708SOL    HW118023   4.954   5.620   3.329
 5708SOL    HW218024   4.912   5.651   3.484
 5709SOL     OW18025   1.783   1.189   1.738
 5709SOL    HW118026   1.812   1.257   1.806
 5709SOL    HW218027   1.777   1.100   1.782
 5710SOL     OW18028   2.734   2.710   0.970
 5710SOL    HW118029   2.750   2.660   1.056
 5710SOL    HW218030   2.708   2.646   0.898
 5711SOL     OW18031   5.074   0.593   1.549
 5711SOL    HW118032   4.989   0.562   1.506
 5711SOL    HW218033   5.077   0.560   1.644
 5712SOL     OW18034   6.857   6.159   1.179
 5712SOL    HW118035   6.906   6.241   1.207
 5712SOL    HW218036   6.890   6.081   1.231
 5713SOL     OW18037   2.403   5.640   0.931
 5713SOL    HW118038   2.373   5.727   0.891
 5713SOL    HW218039   2.473   5.599   0.873
 5714SOL     OW18040   6.340   6.107   1.556
 5714SOL    HW118041   6.396   6.033   1.595
 5714SOL    HW218042   6.377   6.195   1.586
 5715SOL     OW18043   0.756   6.508   1.609
 5715SOL    HW118044   0.822   6.465   1.547
 5715SOL    HW218045   0.663   6.482   1.584
 5716SOL     OW18046   0.863   4.817   6.573
 5716SOL    HW118047   0.837   4.902   6.527
 5716SOL    HW218048   0.812   4.807   6.658
 5717SOL     OW18049   2.032   4.817   2.641
 5717SOL    HW118050   1.970   4.776   2.709
 5717SOL    HW218051   1.986   4.895   2.598
 5718SOL     OW18052   0.575   2.766   0.707
 5718SOL    HW118053   0.652   2.728   0.759
 5718SOL    HW218054   0.548   2.854   0.747
 5719SOL     OW18055   3.101   3.112   1.168
 5719SOL    HW118056   3.124   3.177   1.096
 5719SOL    HW218057   3.081   3.161   1.253
 5720SOL     OW18058   2.324   5.767   5.699
 5720SOL    HW118059   2.369   5.795   5.784
 5720SOL    HW218060   2.236   5.723   5.719
 5721SOL     OW18061   5.293   4.303   0.219
 5721SOL    HW118062   5.319   4.380   0.277
 5721SOL    HW218063   5.203   4.320   0.179
 5722SOL     OW18064   0.515   1.042   5.180
 5722SOL    HW118065   0.519   1.114   5.249
 5722SOL    HW218066   0.585   0.973   5.200
 5723SOL     OW18067   4.153   3.620   6.919
 5723SOL    HW118068   4.131   3.604   6.823
 5723SOL    HW218069   4.190   3.713   6.930
 5724SOL     OW18070   6.146   2.335   3.082
 5724SOL    HW118071   6.190   2.285   3.156
 5724SOL    HW218072   6.187   2.307   2.995
 5725SOL     OW18073   5.309   4.918   3.316
 5725SOL    HW118074   5.401   4.881   3.332
 5725SOL    HW218075   5.268   4.873   3.237
 5726SOL     OW18076   4.901   3.929   3.130
 5726SOL    HW118077   4.830   3.982   3.084
 5726SOL    HW218078   4.913   3.842   3.082
 5727SOL     OW18079   0.943   2.622   4.233
 5727SOL    HW118080   0.951   2.529   4.268
 5727SOL    HW218081   0.913   2.619   4.138
 5728SOL     OW18082   4.639   6.010   5.329
 5728SOL    HW118083   4.603   5.923   5.363
 5728SOL    HW218084   4.566   6.059   5.281
 5729SOL     OW18085   2.621   2.420   5.992
 5729SOL    HW118086   2.583   2.484   6.059
 5729SOL    HW218087   2.629   2.466   5.903
 5730SOL     OW18088   6.927   3.879   5.667
 5730SOL    HW118089   7.021   3.846   5.680
 5730SOL    HW218090   6.863   3.818   5.713
 5731SOL     OW18091   0.186   6.729   1.708
 5731SOL    HW118092   0.086   6.735   1.710
 5731SOL    HW218093   0.215   6.642   1.749
 5732SOL     OW18094   1.217   6.653   4.468
 5732SOL    HW118095   1.294   6.671   4.528
 5732SOL    HW218096   1.132   6.678   4.514
 5733SOL     OW18097   3.878   6.757   4.999
 5733SOL    HW118098   3.813   6.760   5.075
 5733SOL    HW218099   3.914   6.849   4.981
 5734SOL     OW18100   1.752   6.363   4.310
 5734SOL    HW118101   1.653   6.348   4.315
 5734SOL    HW218102   1.792   6.302   4.242
 5735SOL     OW18103   3.427   1.209   1.383
 5735SOL    HW118104   3.504   1.253   1.337
 5735SOL    HW218105   3.356   1.187   1.315
 5736SOL     OW18106   1.153   5.453   6.959
 5736SOL    HW118107   1.207   5.522   6.910
 5736SOL    HW218108   1.067   5.493   6.989
 5737SOL     OW18109   5.279   4.795   6.635
 5737SOL    HW118110   5.266   4.872   6.698
 5737SOL    HW218111   5.272   4.828   6.540
 5738SOL     OW18112   1.875   3.525   6.840
 5738SOL    HW118113   1.852   3.608   6.891
 5738SOL    HW218114   1.815   3.516   6.760
 5739SOL     OW18115   1.736   1.374   0.700
 5739SOL    HW118116   1.661   1.430   0.737
 5739SOL    HW218117   1.735   1.284   0.744
 5740SOL     OW18118   4.264   5.787   6.559
 5740SOL    HW118119   4.332   5.724   6.520
 5740SOL    HW218120   4.194   5.734   6.608
 5741SOL     OW18121   6.338   5.336   4.950
 5741SOL    HW118122   6.426   5.365   4.988
 5741SOL    HW218123   6.321   5.386   4.865
 5742SOL     OW18124   6.416   6.997   2.551
 5742SOL    HW118125   6.320   7.023   2.558
 5742SOL    HW218126   6.471   0.052   2.533
 5743SOL     OW18127   2.418   6.948   4.829
 5743SOL    HW118128   2.395   6.977   4.736
 5743SOL    HW218129   2.516   6.925   4.833
 5744SOL     OW18130   5.957   0.875   0.196
 5744SOL    HW118131   5.875   0.932   0.206
 5744SOL    HW218132   6.026   0.925   0.144
 5745SOL     OW18133   1.976   2.182   4.628
 5745SOL    HW118134   2.054   2.239   4.604
 5745SOL    HW218135   1.901   2.239   4.661
 5746SOL     OW18136   4.692   1.869   0.047
 5746SOL    HW118137   4.667   1.836   0.138
 5746SOL    HW218138   4.652   1.959   0.032
 5747SOL     OW18139   0.356   5.451   3.333
 5747SOL    HW118140   0.369   5.379   3.265
 5747SOL    HW218141   0.262   5.486   3.327
 5748SOL     OW18142   2.253   5.620   2.005
 5748SOL    HW118143   2.250   5.602   1.907
 5748SOL    HW218144   2.334   5.675   2.027
 5749SOL     OW18145   2.444   2.226   3.261
 5749SOL    HW118146   2.420   2.130   3.276
 5749SOL    HW218147   2.360   2.278   3.243
 5750SOL     OW18148   6.139   5.694   3.399
 5750SOL    HW118149   6.128   5.759   3.323
 5750SOL    HW218150   6.151   5.602   3.363
 5751SOL     OW18151   2.520   3.116   5.699
 5751SOL    HW118152   2.502   3.212   5.722
 5751SOL    HW218153   2.538   3.109   5.600
 5752SOL     OW18154   6.964   6.927   6.380
 5752SOL    HW118155   6.894   6.915   6.450
 5752SOL    HW218156   6.991   7.023   6.375
 5753SOL     OW18157   3.263   2.711   0.137
 5753SOL    HW118158   3.341   2.768   0.163
 5753SOL    HW218159   3.195   2.766   0.089
 5754SOL     OW18160   5.788   5.250   1.548
 5754SOL    HW118161   5.768   5.262   1.451
 5754SOL    HW218162   5.713   5.201   1.592
 5755SOL     OW18163   3.199   4.337   6.596
 5755SOL    HW118164   3.139   4.349   6.517
 5755SOL    HW218165   3.294   4.330   6.566
 5756SOL     OW18166   6.587   4.994   3.694
 5756SOL    HW118167   6.503   4.945   3.718
 5756SOL    HW218168   6.634   4.944   3.622
 5757SOL     OW18169   6.712   5.210   0.568
 5757SOL    HW118170   6.714   5.286   0.634
 5757SOL    HW218171   6.667   5.241   0.484
 5758SOL     OW18172   1.809   2.558   5.537
 5758SOL    HW118173   1.743   2.564   5.462
 5758SOL    HW218174   1.842   2.650   5.559
 5759SOL     OW18175   5.192   1.549   6.760
 5759SOL    HW118176   5.172   1.553   6.662
 5759SOL    HW218177   5.126   1.603   6.811
 5760SOL     OW18178   1.629   5.464   2.295
 5760SOL    HW118179   1.601   5.393   2.231
 5760SOL    HW218180   1.691   5.528   2.250
 5761SOL     OW18181   4.700   6.602   4.773
 5761SOL    HW118182   4.681   6.590   4.675
 5761SOL    HW218183   4.751   6.523   4.806
 5762SOL     OW18184   5.913   6.551   1.586
 5762SOL    HW118185   5.834   6.610   1.602
 5762SOL    HW218186   5.923   6.487   1.662
 5763SOL     OW18187   1.569   0.855   1.005
 5763SOL    HW118188   1.565   0.794   0.925
 5763SOL    HW218189   1.578   0.950   0.973
 5764SOL     OW18190   5.337   3.793   5.492
 5764SOL    HW118191   5.358   3.827   5.400
 5764SOL    HW218192   5.368   3.698   5.501
 5765SOL     OW18193   5.666   4.348   6.734
 5765SOL    HW118194   5.709   4.388   6.653
 5765SOL    HW218195   5.685   4.249   6.735
 5766SOL     OW18196   3.082   1.947   2.397
 5766SOL    HW118197   3.106   1.866   2.345
 5766SOL    HW218198   3.075   2.026   2.336
 5767SOL     OW18199   0.589   0.010   1.479
 5767SOL    HW118200   0.579   0.090   1.420
 5767SOL    HW218201   0.686   7.024   1.501
 5768SOL     OW18202   0.151   1.629   2.631
 5768SOL    HW118203   0.181   1.574   2.553
 5768SOL    HW218204   0.231   1.659   2.683
 5769SOL     OW18205   2.715   5.805   4.144
 5769SOL    HW118206   2.622   5.840   4.134
 5769SOL    HW218207   2.713   5.705   4.150
 5770SOL     OW18208   6.853   0.325   1.582
 5770SOL    HW118209   6.790   0.261   1.627
 5770SOL    HW218210   6.865   0.406   1.640
 5771SOL     OW18211   1.578   0.919   1.284
 5771SOL    HW118212   1.597   0.866   1.201
 5771SOL    HW218213   1.597   1.016   1.266
 5772SOL     OW18214   5.244   3.336   0.206
 5772SOL    HW118215   5.265   3.261   0.144
 5772SOL    HW218216   5.165   3.312   0.262
 5773SOL     OW18217   5.236   6.196   4.375
 5773SOL    HW118218   5.189   6.285   4.373
 5773SOL    HW218219   5.297   6.192   4.454
 5774SOL     OW18220   1.603   5.719   3.853
 5774SOL    HW118221   1.521   5.770   3.827
 5774SOL    HW218222   1.643   5.676   3.772
 5775SOL     OW18223   0.232   0.106   5.901
 5775SOL    HW118224   0.278   0.055   5.973
 5775SOL    HW218225   0.184   0.184   5.941
 5776SOL     OW18226   4.675   6.853   5.757
 5776SOL    HW118227   4.620   6.830   5.837
 5776SOL    HW218228   4.629   6.925   5.705
 5777SOL     OW18229   0.645   1.012   4.652
 5777SOL    HW118230   0.599   0.942   4.597
 5777SOL    HW218231   0.634   0.991   4.749
 5778SOL     OW18232   1.106   0.135   3.417
 5778SOL    HW118233   1.019   0.125   3.466
 5778SOL    HW218234   1.170   0.065   3.449
 5779SOL     OW18235   3.614   0.949   2.183
 5779SOL    HW118236   3.674   0.970   2.260
 5779SOL    HW218237   3.577   0.856   2.194
 5780SOL     OW18238   6.650   4.144   1.798
 5780SOL    HW118239   6.611   4.124   1.708
 5780SOL    HW218240   6.576   4.145   1.866
 5781SOL     OW18241   1.677   5.008   4.630
 5781SOL    HW118242   1.649   5.032   4.537
 5781SOL    HW218243   1.776   5.015   4.638
 5782SOL     OW18244   2.838   1.284   2.497
 5782SOL    HW118245   2.812   1.376   2.469
 5782SOL    HW218246   2.881   1.288   2.588
 5783SOL     OW18247   1.336   0.466   1.138
 5783SOL    HW118248   1.435   0.455   1.133
 5783SOL    HW218249   1.307   0.536   1.073
 5784SOL     OW18250   0.380   6.548   0.478
 5784SOL    HW118251   0.288   6.563   0.442
 5784SOL    HW218252   0.426   6.636   0.489
 5785SOL     OW18253   1.749   2.004   6.968
 5785SOL    HW118254   1.825   2.068   6.979
 5785SOL    HW218255   1.697   2.027   6.886
 5786SOL     OW18256   1.412   3.444   1.570
 5786SOL    HW118257   1.327   3.447   1.622
 5786SOL    HW218258   1.394   3.413   1.477
 5787SOL     OW18259   5.918   2.927   5.015
 5787SOL    HW118260   5.888   2.924   5.110
 5787SOL    HW218261   5.845   2.964   4.958
 5788SOL     OW18262   2.827   1.566   2.209
 5788SOL    HW118263   2.801   1.491   2.148
 5788SOL    HW218264   2.795   1.546   2.301
 5789SOL     OW18265   4.287   4.261   6.705
 5789SOL    HW118266   4.188   4.263   6.691
 5789SOL    HW218267   4.333   4.285   6.620
 5790SOL     OW18268   5.432   5.676   4.652
 5790SOL    HW118269   5.441   5.757   4.710
 5790SOL    HW218270   5.380   5.606   4.701
 5791SOL     OW18271   3.948   1.168   2.959
 5791SOL    HW118272   4.008   1.248   2.973
 5791SOL    HW218273   3.857   1.200   2.933
 5792SOL     OW18274   4.827   3.158   2.824
 5792SOL    HW118275   4.762   3.082   2.816
 5792SOL    HW218276   4.908   3.138   2.770
 5793SOL     OW18277   4.945   2.030   5.698
 5793SOL    HW118278   4.970   1.999   5.790
 5793SOL    HW218279   4.895   2.116   5.704
 5794SOL     OW18280   3.951   0.540   6.982
 5794SOL    HW118281   4.004   0.462   7.014
 5794SOL    HW218282   3.969   0.619   0.014
 5795SOL     OW18283   1.394   5.546   1.575
 5795SOL    HW118284   1.322   5.476   1.576
 5795SOL    HW218285   1.391   5.595   1.489
 5796SOL     OW18286   4.624   2.531   6.498
 5796SOL    HW118287   4.674   2.550   6.583
 5796SOL    HW218288   4.656   2.591   6.426
 5797SOL     OW18289   4.687   2.504   0.485
 5797SOL    HW118290   4.721   2.457   0.404
 5797SOL    HW218291   4.605   2.457   0.519
 5798SOL     OW18292   1.377   3.492   5.619
 5798SOL    HW118293   1.381   3.481   5.719
 5798SOL    HW218294   1.339   3.581   5.597
 5799SOL     OW18295   2.140   6.641   3.436
 5799SOL    HW118296   2.196   6.561   3.414
 5799SOL    HW218297   2.195   6.706   3.488
 5800SOL     OW18298   0.939   6.866   0.885
 5800SOL    HW118299   0.888   6.933   0.831
 5800SOL    HW218300   0.883   6.784   0.897
 5801SOL     OW18301   1.816   1.684   2.673
 5801SOL    HW118302   1.796   1.587   2.656
 5801SOL    HW218303   1.746   1.740   2.627
 5802SOL     OW18304   0.244   1.566   1.773
 5802SOL    HW118305   0.270   1.508   1.696
 5802SOL    HW218306   0.279   1.658   1.759
 5803SOL     OW18307   0.409   5.154   3.911
 5803SOL    HW118308   0.362   5.135   3.997
 5803SOL    HW218309   0.343   5.185   3.843
 5804SOL     OW18310   6.499   1.367   3.679
 5804SOL    HW118311   6.456   1.454   3.702
 5804SOL    HW218312   6.443   1.292   3.712
 5805SOL     OW18313   2.358   2.758   1.267
 5805SOL    HW118314   2.422   2.707   1.324
 5805SOL    HW218315   2.280   2.788   1.322
 5806SOL     OW18316   0.249   4.024   2.331
 5806SOL    HW118317   0.347   4.038   2.345
 5806SOL    HW218318   0.233   3.931   2.298
 5807SOL     OW18319   0.798   0.060   0.709
 5807SOL    HW118320   0.709   0.095   0.680
 5807SOL    HW218321   0.856   0.137   0.736
 5808SOL     OW18322   6.242   0.255   5.324
 5808SOL    HW118323   6.281   0.251   5.416
 5808SOL    HW218324   6.243   0.164   5.283
 5809SOL     OW18325   0.704   2.260   5.233
 5809SOL    HW118326   0.739   2.270   5.326
 5809SOL    HW218327   0.609   2.290   5.230
 5810SOL     OW18328   4.358   6.838   5.427
 5810SOL    HW118329   4.420   6.916   5.412
 5810SOL    HW218330   4.265   6.864   5.403
 5811SOL     OW18331   3.063   3.714   5.976
 5811SOL    HW118332   3.156   3.745   5.992
 5811SOL    HW218333   3.059   3.614   5.979
 5812SOL     OW18334   5.723   2.506   0.415
 5812SOL    HW118335   5.758   2.541   0.502
 5812SOL    HW218336   5.757   2.413   0.400
 5813SOL     OW18337   5.267   6.755   1.608
 5813SOL    HW118338   5.346   6.702   1.577
 5813SOL    HW218339   5.299   6.839   1.652
 5814SOL     OW18340   4.777   1.670   1.835
 5814SOL    HW118341   4.859   1.688   1.888
 5814SOL    HW218342   4.717   1.750   1.838
 5815SOL     OW18343   6.039   1.726   4.325
 5815SOL    HW118344   5.987   1.715   4.240
 5815SOL    HW218345   6.115   1.661   4.326
 5816SOL     OW18346   0.104   3.849   2.866
 5816SOL    HW118347   0.092   3.801   2.780
 5816SOL    HW218348   0.151   3.935   2.851
 5817SOL     OW18349   5.734   3.741   3.761
 5817SOL    HW118350   5.666   3.799   3.716
 5817SOL    HW218351   5.796   3.703   3.692
 5818SOL     OW18352   2.265   6.663   5.601
 5818SOL    HW118353   2.204   6.728   5.646
 5818SOL    HW218354   2.356   6.704   5.592
 5819SOL     OW18355   4.280   5.126   0.433
 5819SOL    HW118356   4.347   5.200   0.426
 5819SOL    HW218357   4.215   5.133   0.357
 5820SOL     OW18358   6.359   5.361   2.448
 5820SOL    HW118359   6.384   5.323   2.359
 5820SOL    HW218360   6.264   5.338   2.468
 5821SOL     OW18361   6.685   0.603   1.188
 5821SOL    HW118362   6.742   0.525   1.163
 5821SOL    HW218363   6.598   0.598   1.139
 5822SOL     OW18364   1.722   2.973   2.414
 5822SOL    HW118365   1.722   3.044   2.344
 5822SOL    HW218366   1.628   2.948   2.436
 5823SOL     OW18367   1.786   6.185   4.108
 5823SOL    HW118368   1.723   6.225   4.042
 5823SOL    HW218369   1.874   6.167   4.064
 5824SOL     OW18370   0.378   0.144   2.049
 5824SOL    HW118371   0.390   0.242   2.061
 5824SOL    HW218372   0.384   0.120   1.952
 5825SOL     OW18373   5.904   0.176   4.452
 5825SOL    HW118374   5.861   0.095   4.493
 5825SOL    HW218375   5.971   0.147   4.384
 5826SOL     OW18376   0.297   0.008   4.633
 5826SOL    HW118377   0.251   6.986   4.707
 5826SOL    HW218378   0.340   0.091   4.669
 5827SOL     OW18379   2.260   4.332   4.942
 5827SOL    HW118380   2.235   4.246   4.899
 5827SOL    HW218381   2.276   4.401   4.870
 5828SOL     OW18382   4.427   6.627   4.341
 5828SOL    HW118383   4.445   6.578   4.255
 5828SOL    HW218384   4.330   6.619   4.363
 5829SOL     OW18385   2.342   1.226   4.044
 5829SOL    HW118386   2.410   1.275   4.099
 5829SOL    HW218387   2.259   1.212   4.099
 5830SOL     OW18388   3.418   5.211   4.639
 5830SOL    HW118389   3.380   5.200   4.731
 5830SOL    HW218390   3.442   5.122   4.602
 5831SOL     OW18391   1.509   2.388   5.076
 5831SOL    HW118392   1.606   2.365   5.079
 5831SOL    HW218393   1.459   2.329   5.139
 5832SOL     OW18394   2.843   4.791   1.100
 5832SOL    HW118395   2.781   4.818   1.026
 5832SOL    HW218396   2.866   4.694   1.091
 5833SOL     OW18397   3.886   4.180   6.221
 5833SOL    HW118398   3.819   4.179   6.295
 5833SOL    HW218399   3.979   4.183   6.259
 5834SOL     OW18400   5.699   2.568   6.265
 5834SOL    HW118401   5.738   2.634   6.328
 5834SOL    HW218402   5.623   2.520   6.309
 5835SOL     OW18403   5.274   0.904   1.886
 5835SOL    HW118404   5.299   0.816   1.847
 5835SOL    HW218405   5.235   0.962   1.814
 5836SOL     OW18406   4.569   0.183   2.790
 5836SOL    HW118407   4.622   0.116   2.842
 5836SOL    HW218408   4.616   0.202   2.704
 5837SOL     OW18409   3.045   4.675   0.088
 5837SOL    HW118410   3.097   4.590   0.094
 5837SOL    HW218411   2.959   4.665   0.137
 5838SOL     OW18412   3.044   1.841   0.943
 5838SOL    HW118413   2.998   1.758   0.910
 5838SOL    HW218414   3.131   1.817   0.985
 5839SOL     OW18415   1.698   1.947   0.797
 5839SOL    HW118416   1.611   1.941   0.748
 5839SOL    HW218417   1.686   2.004   0.879
 5840SOL     OW18418   1.317   3.279   3.088
 5840SOL    HW118419   1.263   3.225   3.153
 5840SOL    HW218420   1.262   3.301   3.008
 5841SOL     OW18421   4.942   2.649   0.517
 5841SOL    HW118422   4.845   2.628   0.504
 5841SOL    HW218423   4.953   2.705   0.599
 5842SOL     OW18424   2.642   1.628   0.897
 5842SOL    HW118425   2.603   1.546   0.940
 5842SOL    HW218426   2.573   1.669   0.837
 5843SOL     OW18427   1.959   3.704   1.208
 5843SOL    HW118428   1.886   3.769   1.231
 5843SOL    HW218429   1.938   3.662   1.119
 5844SOL     OW18430   1.161   0.068   5.005
 5844SOL    HW118431   1.181   0.136   5.076
 5844SOL    HW218432   1.081   0.015   5.032
 5845SOL     OW18433   1.162   6.879   1.662
 5845SOL    HW118434   1.189   6.871   1.758
 5845SOL    HW218435   1.084   6.819   1.644
 5846SOL     OW18436   6.768   3.725   5.825
 5846SOL    HW118437   6.717   3.721   5.739
 5846SOL    HW218438   6.709   3.765   5.896
 5847SOL     OW18439   2.616   3.627   1.023
 5847SOL    HW118440   2.654   3.700   1.079
 5847SOL    HW218441   2.520   3.646   1.004
 5848SOL     OW18442   2.217   4.904   2.419
 5848SOL    HW118443   2.252   4.885   2.511
 5848SOL    HW218444   2.292   4.901   2.353
 5849SOL     OW18445   3.584   5.495   5.516
 5849SOL    HW118446   3.662   5.499   5.578
 5849SOL    HW218447   3.527   5.576   5.528
 5850SOL     OW18448   1.557   1.352   2.122
 5850SOL    HW118449   1.641   1.319   2.167
 5850SOL    HW218450   1.549   1.451   2.136
 5851SOL     OW18451   6.019   3.908   4.776
 5851SOL    HW118452   6.032   4.007   4.762
 5851SOL    HW218453   5.928   3.892   4.815
 5852SOL     OW18454   5.035   4.796   2.387
 5852SOL    HW118455   4.943   4.757   2.396
 5852SOL    HW218456   5.036   4.888   2.427
 5853SOL     OW18457   3.330   4.634   5.314
 5853SOL    HW118458   3.424   4.604   5.329
 5853SOL    HW218459   3.270   4.554   5.312
 5854SOL     OW18460   2.937   4.972   5.578
 5854SOL    HW118461   2.899   4.966   5.485
 5854SOL    HW218462   3.037   4.959   5.573
 5855SOL     OW18463   2.139   3.230   3.561
 5855SOL    HW118464   2.175   3.138   3.569
 5855SOL    HW218465   2.052   3.228   3.511
 5856SOL     OW18466   1.295   6.956   3.407
 5856SOL    HW118467   1.362   6.929   3.477
 5856SOL    HW218468   1.296   6.889   3.333
 5857SOL     OW18469   6.881   4.232   6.052
 5857SOL    HW118470   6.955   4.279   6.101
 5857SOL    HW218471   6.918   4.187   5.971
 5858SOL     OW18472   1.964   0.727   3.639
 5858SOL    HW118473   1.910   0.684   3.567
 5858SOL    HW218474   2.002   0.656   3.699
 5859SOL     OW18475   6.023   0.487   2.148
 5859SOL    HW118476   6.054   0.403   2.101
 5859SOL    HW218477   6.096   0.555   2.146
 5860SOL     OW18478   0.172   3.332   3.620
 5860SOL    HW118479   0.201   3.270   3.547
 5860SOL    HW218480   0.112   3.282   3.683
 5861SOL     OW18481   5.084   0.470   5.553
 5861SOL    HW118482   5.021   0.536   5.593
 5861SOL    HW218483   5.122   0.507   5.468
 5862SOL     OW18484   0.193   5.483   2.785
 5862SOL    HW118485   0.187   5.582   2.797
 5862SOL    HW218486   0.191   5.460   2.688
 5863SOL     OW18487   3.885   0.462   5.686
 5863SOL    HW118488   3.832   0.516   5.751
 5863SOL    HW218489   3.832   0.450   5.602
 5864SOL     OW18490   3.099   3.919   2.384
 5864SOL    HW118491   3.161   3.988   2.421
 5864SOL    HW218492   3.132   3.888   2.295
 5865SOL     OW18493   6.338   0.774   5.807
 5865SOL    HW118494   6.361   0.757   5.902
 5865SOL    HW218495   6.238   0.776   5.796
 5866SOL     OW18496   3.604   3.016   3.070
 5866SOL    HW118497   3.617   2.982   2.977
 5866SOL    HW218498   3.506   3.031   3.087
 5867SOL     OW18499   3.468   1.529   1.901
 5867SOL    HW118500   3.425   1.579   1.976
 5867SOL    HW218501   3.432   1.564   1.814
 5868SOL     OW18502   1.528   1.296   6.133
 5868SOL    HW118503   1.434   1.277   6.162
 5868SOL    HW218504   1.572   1.211   6.103
 5869SOL     OW18505   0.787   5.849   4.411
 5869SOL    HW118506   0.753   5.943   4.414
 5869SOL    HW218507   0.771   5.804   4.499
 5870SOL     OW18508   4.438   4.587   4.531
 5870SOL    HW118509   4.485   4.499   4.541
 5870SOL    HW218510   4.416   4.602   4.434
 5871SOL     OW18511   3.196   3.675   3.942
 5871SOL    HW118512   3.235   3.647   4.030
 5871SOL    HW218513   3.263   3.658   3.870
 5872SOL     OW18514   4.191   5.980   1.972
 5872SOL    HW118515   4.222   6.005   2.063
 5872SOL    HW218516   4.235   5.895   1.944
 5873SOL     OW18517   3.706   5.315   1.952
 5873SOL    HW118518   3.676   5.399   1.906
 5873SOL    HW218519   3.626   5.265   1.985
 5874SOL     OW18520   3.041   4.455   5.603
 5874SOL    HW118521   2.956   4.507   5.594
 5874SOL    HW218522   3.091   4.488   5.683
 5875SOL     OW18523   3.223   1.162   0.778
 5875SOL    HW118524   3.232   1.097   0.702
 5875SOL    HW218525   3.219   1.112   0.864
 5876SOL     OW18526   3.669   3.292   1.763
 5876SOL    HW118527   3.675   3.193   1.747
 5876SOL    HW218528   3.649   3.338   1.677
 5877SOL     OW18529   5.655   4.504   0.150
 5877SOL    HW118530   5.650   4.472   0.245
 5877SOL    HW218531   5.604   4.441   0.091
 5878SOL     OW18532   2.461   4.894   2.244
 5878SOL    HW118533   2.457   4.932   2.151
 5878SOL    HW218534   2.499   4.802   2.240
 5879SOL     OW18535   6.968   4.129   5.820
 5879SOL    HW118536   7.022   4.185   5.757
 5879SOL    HW218537   6.936   4.047   5.772
 5880SOL     OW18538   2.109   6.377   1.392
 5880SOL    HW118539   2.131   6.361   1.489
 5880SOL    HW218540   2.010   6.386   1.382
 5881SOL     OW18541   0.254   5.411   4.363
 5881SOL    HW118542   0.239   5.348   4.439
 5881SOL    HW218543   0.170   5.460   4.343
 5882SOL     OW18544   4.790   0.547   1.507
 5882SOL    HW118545   4.763   0.451   1.509
 5882SOL    HW218546   4.710   0.604   1.488
 5883SOL     OW18547   0.055   3.318   5.908
 5883SOL    HW118548   7.004   3.367   5.869
 5883SOL    HW218549   0.069   3.347   6.003
 5884SOL     OW18550   1.017   1.354   3.180
 5884SOL    HW118551   1.038   1.410   3.100
 5884SOL    HW218552   1.100   1.343   3.235
 5885SOL     OW18553   6.850   5.868   0.884
 5885SOL    HW118554   6.815   5.836   0.972
 5885SOL    HW218555   6.811   5.813   0.810
 5886SOL     OW18556   1.030   1.945   5.599
 5886SOL    HW118557   1.015   1.862   5.546
 5886SOL    HW218558   0.995   1.932   5.692
 5887SOL     OW18559   3.674   0.460   4.661
 5887SOL    HW118560   3.631   0.478   4.749
 5887SOL    HW218561   3.738   0.534   4.640
 5888SOL     OW18562   2.125   0.107   3.196
 5888SOL    HW118563   2.201   0.092   3.260
 5888SOL    HW218564   2.068   0.025   3.192
 5889SOL     OW18565   2.789   0.442   0.965
 5889SOL    HW118566   2.759   0.457   1.059
 5889SOL    HW218567   2.765   0.521   0.909
 5890SOL     OW18568   2.532   5.130   5.736
 5890SOL    HW118569   2.624   5.148   5.701
 5890SOL    HW218570   2.468   5.198   5.700
 5891SOL     OW18571   3.349   3.539   0.220
 5891SOL    HW118572   3.314   3.626   0.253
 5891SOL    HW218573   3.446   3.549   0.198
 5892SOL     OW18574   0.450   6.817   1.343
 5892SOL    HW118575   0.475   6.886   1.411
 5892SOL    HW218576   0.400   6.743   1.387
 5893SOL     OW18577   1.111   1.666   4.052
 5893SOL    HW118578   1.136   1.577   4.014
 5893SOL    HW218579   1.184   1.698   4.112
 5894SOL     OW18580   1.051   3.356   2.941
 5894SOL    HW118581   1.071   3.260   2.920
 5894SOL    HW218582   0.952   3.370   2.938
 5895SOL     OW18583   5.482   3.608   3.853
 5895SOL    HW118584   5.571   3.642   3.821
 5895SOL    HW218585   5.488   3.509   3.868
 5896SOL     OW18586   3.606   2.335   7.001
 5896SOL    HW118587   3.549   2.252   6.997
 5896SOL    HW218588   3.628   2.364   6.907
 5897SOL     OW18589   3.893   6.870   1.195
 5897SOL    HW118590   3.882   6.885   1.293
 5897SOL    HW218591   3.828   6.927   1.145
 5898SOL     OW18592   1.861   0.358   2.289
 5898SOL    HW118593   1.953   0.352   2.329
 5898SOL    HW218594   1.827   0.265   2.271
 5899SOL     OW18595   6.081   6.641   4.586
 5899SOL    HW118596   6.121   6.614   4.673
 5899SOL    HW218597   6.034   6.564   4.544
 5900SOL     OW18598   4.931   4.879   2.970
 5900SOL    HW118599   4.950   4.976   2.953
 5900SOL    HW218600   4.842   4.870   3.014
 5901SOL     OW18601   2.930   6.697   5.932
 5901SOL    HW118602   2.988   6.759   5.878
 5901SOL    HW218603   2.844   6.743   5.954
 5902SOL     OW18604   6.519   2.167   6.903
 5902SOL    HW118605   6.550   2.116   6.822
 5902SOL    HW218606   6.422   2.189   6.893
 5903SOL     OW18607   6.006   3.652   6.865
 5903SOL    HW118608   6.060   3.653   6.781
 5903SOL    HW218609   6.068   3.645   6.944
 5904SOL     OW18610   0.070   3.502   2.268
 5904SOL    HW118611   0.010   3.424   2.288
 5904SOL    HW218612   0.118   3.487   2.182
 5905SOL     OW18613   0.095   6.365   2.455
 5905SOL    HW118614   0.007   6.335   2.417
 5905SOL    HW218615   0.081   6.405   2.546
 5906SOL     OW18616   5.318   1.170   3.716
 5906SOL    HW118617   5.336   1.190   3.812
 5906SOL    HW218618   5.349   1.247   3.659
 5907SOL     OW18619   0.935   6.066   1.650
 5907SOL    HW118620   0.972   5.985   1.604
 5907SOL    HW218621   1.010   6.130   1.668
 5908SOL     OW18622   0.085   2.919   5.395
 5908SOL    HW118623   0.062   2.988   5.464
 5908SOL    HW218624   0.184   2.918   5.380
 5909SOL     OW18625   0.442   6.112   0.779
 5909SOL    HW118626   0.444   6.195   0.724
 5909SOL    HW218627   0.430   6.033   0.719
 5910SOL     OW18628   2.213   2.481   3.138
 5910SOL    HW118629   2.281   2.549   3.111
 5910SOL    HW218630   2.174   2.439   3.057
 5911SOL     OW18631   6.784   5.883   6.172
 5911SOL    HW118632   6.876   5.850   6.194
 5911SOL    HW218633   6.736   5.813   6.119
 5912SOL     OW18634   6.263   1.559   4.346
 5912SOL    HW118635   6.305   1.510   4.422
 5912SOL    HW218636   6.334   1.584   4.280
 5913SOL     OW18637   5.448   1.934   0.151
 5913SOL    HW118638   5.431   1.969   0.244
 5913SOL    HW218639   5.464   2.011   0.089
 5914SOL     OW18640   0.374   6.181   6.412
 5914SOL    HW118641   0.373   6.281   6.420
 5914SOL    HW218642   0.451   6.144   6.465
 5915SOL     OW18643   4.215   0.499   6.466
 5915SOL    HW118644   4.178   0.415   6.426
 5915SOL    HW218645   4.181   0.578   6.415
 5916SOL     OW18646   1.335   6.429   2.345
 5916SOL    HW118647   1.280   6.393   2.269
 5916SOL    HW218648   1.279   6.432   2.428
 5917SOL     OW18649   2.950   4.515   6.885
 5917SOL    HW118650   3.021   4.478   6.945
 5917SOL    HW218651   2.916   4.443   6.825
 5918SOL     OW18652   3.123   6.655   6.319
 5918SOL    HW118653   3.167   6.571   6.290
 5918SOL    HW218654   3.183   6.704   6.382
 5919SOL     OW18655   3.345   2.909   3.298
 5919SOL    HW118656   3.428   2.925   3.351
 5919SOL    HW218657   3.368   2.900   3.201
 5920SOL     OW18658   6.704   0.422   5.885
 5920SOL    HW118659   6.684   0.357   5.959
 5920SOL    HW218660   6.619   0.460   5.850
 5921SOL     OW18661   3.235   4.608   6.769
 5921SOL    HW118662   3.142   4.573   6.761
 5921SOL    HW218663   3.292   4.541   6.817
 5922SOL     OW18664   5.659   3.689   2.709
 5922SOL    HW118665   5.658   3.753   2.786
 5922SOL    HW218666   5.751   3.649   2.701
 5923SOL     OW18667   6.803   1.144   1.065
 5923SOL    HW118668   6.759   1.088   1.135
 5923SOL    HW218669   6.769   1.237   1.070
 5924SOL     OW18670   6.271   0.263   3.174
 5924SOL    HW118671   6.234   0.236   3.086
 5924SOL    HW218672   6.361   0.222   3.187
 5925SOL     OW18673   4.835   5.601   1.303
 5925SOL    HW118674   4.850   5.698   1.321
 5925SOL    HW218675   4.790   5.559   1.382
 5926SOL     OW18676   4.104   4.865   2.907
 5926SOL    HW118677   4.142   4.810   2.981
 5926SOL    HW218678   4.007   4.845   2.896
 5927SOL     OW18679   0.591   4.044   1.997
 5927SOL    HW118680   0.598   3.961   1.943
 5927SOL    HW218681   0.496   4.077   1.997
 5928SOL     OW18682   3.631   0.190   0.526
 5928SOL    HW118683   3.671   0.240   0.603
 5928SOL    HW218684   3.681   0.212   0.442
 5929SOL     OW18685   0.538   1.148   5.807
 5929SOL    HW118686   0.480   1.099   5.873
 5929SOL    HW218687   0.556   1.240   5.842
 5930SOL     OW18688   1.772   3.761   2.288
 5930SOL    HW118689   1.694   3.701   2.305
 5930SOL    HW218690   1.810   3.743   2.197
 5931SOL     OW18691   5.876   5.895   3.011
 5931SOL    HW118692   5.854   5.885   3.108
 5931SOL    HW218693   5.972   5.923   3.001
 5932SOL     OW18694   3.054   0.967   6.357
 5932SOL    HW118695   2.962   1.006   6.354
 5932SOL    HW218696   3.056   0.884   6.301
 5933SOL     OW18697   6.577   5.789   3.854
 5933SOL    HW118698   6.499   5.829   3.902
 5933SOL    HW218699   6.564   5.690   3.846
 5934SOL     OW18700   3.282   3.876   5.450
 5934SOL    HW118701   3.280   3.814   5.528
 5934SOL    HW218702   3.195   3.923   5.442
 5935SOL     OW18703   0.054   6.731   5.200
 5935SOL    HW118704   0.071   6.696   5.108
 5935SOL    HW218705   6.982   6.743   5.213
 5936SOL     OW18706   2.958   3.145   2.655
 5936SOL    HW118707   3.003   3.069   2.703
 5936SOL    HW218708   2.976   3.138   2.557
 5937SOL     OW18709   6.938   2.829   1.416
 5937SOL    HW118710   6.895   2.847   1.327
 5937SOL    HW218711   6.944   2.731   1.431
 5938SOL     OW18712   6.531   4.826   4.951
 5938SOL    HW118713   6.589   4.841   5.032
 5938SOL    HW218714   6.581   4.770   4.885
 5939SOL     OW18715   3.585   7.008   4.499
 5939SOL    HW118716   3.541   0.010   4.584
 5939SOL    HW218717   3.673   0.027   4.491
 5940SOL     OW18718   4.980   5.614   2.238
 5940SOL    HW118719   4.979   5.516   2.259
 5940SOL    HW218720   4.953   5.665   2.320
 5941SOL     OW18721   0.083   2.372   1.845
 5941SOL    HW118722   0.174   2.409   1.829
 5941SOL    HW218723   0.071   2.351   1.942
 5942SOL     OW18724   6.047   3.483   5.884
 5942SOL    HW118725   5.954   3.487   5.921
 5942SOL    HW218726   6.047   3.516   5.790
 5943SOL     OW18727   3.758   3.956   0.911
 5943SOL    HW118728   3.788   3.880   0.968
 5943SOL    HW218729   3.809   4.039   0.935
 5944SOL     OW18730   0.921   3.815   6.344
 5944SOL    HW118731   0.829   3.815   6.383
 5944SOL    HW218732   0.972   3.736   6.378
 5945SOL     OW18733   0.094   5.696   5.445
 5945SOL    HW118734   0.104   5.597   5.434
 5945SOL    HW218735   0.042   5.716   5.528
 5946SOL     OW18736   3.741   4.490   0.186
 5946SOL    HW118737   3.730   4.558   0.258
 5946SOL    HW218738   3.773   4.404   0.226
 5947SOL     OW18739   3.257   3.025   4.396
 5947SOL    HW118740   3.285   3.012   4.491
 5947SOL    HW218741   3.317   2.971   4.336
 5948SOL     OW18742   5.032   3.948   2.207
 5948SOL    HW118743   4.988   3.921   2.122
 5948SOL    HW218744   5.109   4.009   2.187
 5949SOL     OW18745   6.649   5.225   1.432
 5949SOL    HW118746   6.695   5.175   1.359
 5949SOL    HW218747   6.609   5.161   1.497
 5950SOL     OW18748   4.800   1.618   5.935
 5950SOL    HW118749   4.785   1.609   5.837
 5950SOL    HW218750   4.833   1.531   5.973
 5951SOL     OW18751   1.085   4.889   6.332
 5951SOL    HW118752   1.144   4.936   6.268
 5951SOL    HW218753   1.137   4.864   6.414
 5952SOL     OW18754   4.046   5.420   1.555
 5952SOL    HW118755   4.032   5.486   1.481
 5952SOL    HW218756   4.111   5.350   1.525
 5953SOL     OW18757   6.146   2.441   5.483
 5953SOL    HW118758   6.169   2.347   5.461
 5953SOL    HW218759   6.118   2.490   5.400
 5954SOL     OW18760   0.698   6.260   4.677
 5954SOL    HW118761   0.794   6.288   4.667
 5954SOL    HW218762   0.692   6.183   4.740
 5955SOL     OW18763   5.969   4.052   0.872
 5955SOL    HW118764   5.963   4.136   0.819
 5955SOL    HW218765   6.040   4.062   0.942
 5956SOL     OW18766   4.952   2.660   4.528
 5956SOL    HW118767   4.883   2.603   4.484
 5956SOL    HW218768   5.037   2.608   4.540
 5957SOL     OW18769   1.554   0.703   2.734
 5957SOL    HW118770   1.602   0.734   2.816
 5957SOL    HW218771   1.609   0.725   2.653
 5958SOL     OW18772   3.639   6.848   2.790
 5958SOL    HW118773   3.539   6.838   2.792
 5958SOL    HW218774   3.664   6.939   2.824
 5959SOL     OW18775   4.505   2.128   4.974
 5959SOL    HW118776   4.412   2.138   5.011
 5959SOL    HW218777   4.570   2.123   5.050
 5960SOL     OW18778   3.664   6.885   6.452
 5960SOL    HW118779   3.675   6.804   6.509
 5960SOL    HW218780   3.570   6.890   6.418
 5961SOL     OW18781   3.027   1.708   3.030
 5961SOL    HW118782   3.035   1.806   3.011
 5961SOL    HW218783   3.021   1.658   2.943
 5962SOL     OW18784   5.577   6.163   0.040
 5962SOL    HW118785   5.552   6.212   0.123
 5962SOL    HW218786   5.627   6.224   7.005
 5963SOL     OW18787   3.347   4.790   0.495
 5963SOL    HW118788   3.340   4.765   0.591
 5963SOL    HW218789   3.303   4.879   0.480
 5964SOL     OW18790   2.015   6.476   2.403
 5964SOL    HW118791   2.031   6.519   2.492
 5964SOL    HW218792   2.099   6.430   2.372
 5965SOL     OW18793   2.148   6.523   0.082
 5965SOL    HW118794   2.231   6.469   0.071
 5965SOL    HW218795   2.099   6.494   0.164
 5966SOL     OW18796   2.304   0.505   5.438
 5966SOL    HW118797   2.392   0.515   5.392
 5966SOL    HW218798   2.232   0.543   5.379
 5967SOL     OW18799   2.179   1.697   4.714
 5967SOL    HW118800   2.258   1.675   4.772
 5967SOL    HW218801   2.157   1.795   4.723
 5968SOL     OW18802   5.636   2.197   0.566
 5968SOL    HW118803   5.687   2.224   0.484
 5968SOL    HW218804   5.700   2.165   0.635
 5969SOL     OW18805   5.732   0.784   6.859
 5969SOL    HW118806   5.705   0.747   6.770
 5969SOL    HW218807   5.811   0.734   6.894
 5970SOL     OW18808   0.326   3.025   1.010
 5970SOL    HW118809   0.226   3.023   1.010
 5970SOL    HW218810   0.362   2.947   1.061
 5971SOL     OW18811   6.626   0.195   3.609
 5971SOL    HW118812   6.535   0.205   3.648
 5971SOL    HW218813   6.655   0.100   3.614
 5972SOL     OW18814   5.145   5.460   0.315
 5972SOL    HW118815   5.187   5.526   0.253
 5972SOL    HW218816   5.206   5.382   0.328
 5973SOL     OW18817   1.629   3.192   2.606
 5973SOL    HW118818   1.613   3.185   2.704
 5973SOL    HW218819   1.721   3.159   2.585
 5974SOL     OW18820   4.445   0.900   6.212
 5974SOL    HW118821   4.366   0.878   6.155
 5974SOL    HW218822   4.433   0.990   6.254
 5975SOL     OW18823   5.823   4.183   0.108
 5975SOL    HW118824   5.894   4.188   0.178
 5975SOL    HW218825   5.749   4.123   0.139
 5976SOL     OW18826   3.450   3.933   5.890
 5976SOL    HW118827   3.504   3.875   5.951
 5976SOL    HW218828   3.368   3.884   5.861
 5977SOL     OW18829   0.071   5.160   0.245
 5977SOL    HW118830   0.159   5.149   0.199
 5977SOL    HW218831   0.086   5.192   0.338
 5978SOL     OW18832   3.453   5.769   0.340
 5978SOL    HW118833   3.436   5.670   0.345
 5978SOL    HW218834   3.368   5.816   0.318
 5979SOL     OW18835   6.260   0.388   1.572
 5979SOL    HW118836   6.237   0.311   1.631
 5979SOL    HW218837   6.227   0.473   1.613
 5980SOL     OW18838   3.681   2.979   1.347
 5980SOL    HW118839   3.776   3.009   1.361
 5980SOL    HW218840   3.676   2.880   1.358
 5981SOL     OW18841   4.200   2.109   0.366
 5981SOL    HW118842   4.205   2.018   0.408
 5981SOL    HW218843   4.174   2.099   0.270
 5982SOL     OW18844   5.885   2.010   1.949
 5982SOL    HW118845   5.895   2.103   1.913
 5982SOL    HW218846   5.972   1.981   1.990
 5983SOL     OW18847   0.111   0.981   4.576
 5983SOL    HW118848   0.089   1.059   4.634
 5983SOL    HW218849   0.075   0.997   4.484
 5984SOL     OW18850   6.348   6.613   2.419
 5984SOL    HW118851   6.442   6.639   2.397
 5984SOL    HW218852   6.319   6.538   2.360
 5985SOL     OW18853   6.270   2.274   2.528
 5985SOL    HW118854   6.227   2.364   2.522
 5985SOL    HW218855   6.207   2.204   2.496
 5986SOL     OW18856   4.295   3.747   5.230
 5986SOL    HW118857   4.292   3.843   5.256
 5986SOL    HW218858   4.223   3.727   5.164
 5987SOL     OW18859   6.399   1.181   5.085
 5987SOL    HW118860   6.434   1.275   5.088
 5987SOL    HW218861   6.369   1.154   5.176
 5988SOL     OW18862   2.753   2.049   0.170
 5988SOL    HW118863   2.739   1.959   0.127
 5988SOL    HW218864   2.710   2.119   0.114
 5989SOL     OW18865   0.554   6.015   6.796
 5989SOL    HW118866   0.618   6.090   6.815
 5989SOL    HW218867   0.461   6.050   6.792
 5990SOL     OW18868   3.752   4.413   1.717
 5990SOL    HW118869   3.689   4.340   1.690
 5990SOL    HW218870   3.701   4.487   1.760
 5991SOL     OW18871   5.572   6.150   0.926
 5991SOL    HW118872   5.646   6.183   0.868
 5991SOL    HW218873   5.608   6.079   0.988
 5992SOL     OW18874   3.128   7.019   1.813
 5992SOL    HW118875   3.070   6.938   1.802
 5992SOL    HW218876   3.220   6.997   1.782
 5993SOL     OW18877   6.232   2.378   0.229
 5993SOL    HW118878   6.163   2.448   0.248
 5993SOL    HW218879   6.246   2.370   0.130
 5994SOL     OW18880   6.781   3.066   0.659
 5994SOL    HW118881   6.713   2.996   0.639
 5994SOL    HW218882   6.737   3.144   0.704
 5995SOL     OW18883   5.018   3.522   1.708
 5995SOL    HW118884   4.996   3.618   1.691
 5995SOL    HW218885   5.025   3.474   1.621
 5996SOL     OW18886   2.521   5.898   1.495
 5996SOL    HW118887   2.514   5.946   1.582
 5996SOL    HW218888   2.505   5.962   1.420
 5997SOL     OW18889   6.737   6.725   3.190
 5997SOL    HW118890   6.742   6.808   3.134
 5997SOL    HW218891   6.640   6.703   3.208
 5998SOL     OW18892   6.527   0.749   1.649
 5998SOL    HW118893   6.610   0.796   1.681
 5998SOL    HW218894   6.552   0.679   1.582
 5999SOL     OW18895   3.829   3.764   1.108
 5999SOL    HW118896   3.922   3.738   1.133
 5999SOL    HW218897   3.767   3.688   1.127
 6000SOL     OW18898   6.928   5.289   0.027
 6000SOL    HW118899   6.886   5.368   0.070
 6000SOL    HW218900   6.980   5.237   0.094
 6001SOL     OW18901   4.886   5.967   5.204
 6001SOL    HW118902   4.791   5.975   5.235
 6001SOL    HW218903   4.909   6.044   5.145
 6002SOL     OW18904   6.365   6.576   4.763
 6002SOL    HW118905   6.330   6.490   4.725
 6002SOL    HW218906   6.396   6.635   4.689
 6003SOL     OW18907   6.776   2.748   4.276
 6003SOL    HW118908   6.707   2.675   4.270
 6003SOL    HW218909   6.832   2.746   4.193
 6004SOL     OW18910   4.866   2.414   3.829
 6004SOL    HW118911   4.915   2.501   3.829
 6004SOL    HW218912   4.831   2.396   3.737
 6005SOL     OW18913   3.931   4.459   5.860
 6005SOL    HW118914   4.002   4.528   5.855
 6005SOL    HW218915   3.902   4.446   5.954
 6006SOL     OW18916   3.674   6.600   5.927
 6006SOL    HW118917   3.598   6.629   5.985
 6006SOL    HW218918   3.747   6.669   5.930
 6007SOL     OW18919   0.771   4.684   5.768
 6007SOL    HW118920   0.851   4.726   5.811
 6007SOL    HW218921   0.797   4.596   5.729
 6008SOL     OW18922   1.906   4.932   5.243
 6008SOL    HW118923   2.004   4.928   5.222
 6008SOL    HW218924   1.857   4.872   5.180
 6009SOL     OW18925   3.919   5.121   3.459
 6009SOL    HW118926   3.931   5.077   3.370
 6009SOL    HW218927   4.006   5.120   3.509
 6010SOL     OW18928   6.652   4.319   4.958
 6010SOL    HW118929   6.573   4.379   4.954
 6010SOL    HW218930   6.622   4.223   4.958
 6011SOL     OW18931   5.814   1.557   2.592
 6011SOL    HW118932   5.886   1.585   2.529
 6011SOL    HW218933   5.853   1.507   2.669
 6012SOL     OW18934   6.757   0.648   6.169
 6012SOL    HW118935   6.723   0.704   6.093
 6012SOL    HW218936   6.704   0.668   6.252
 6013SOL     OW18937   5.323   1.264   2.674
 6013SOL    HW118938   5.234   1.242   2.633
 6013SOL    HW218939   5.396   1.248   2.608
 6014SOL     OW18940   3.639   3.225   4.307
 6014SOL    HW118941   3.662   3.256   4.215
 6014SOL    HW218942   3.593   3.299   4.357
 6015SOL     OW18943   6.331   2.219   4.557
 6015SOL    HW118944   6.354   2.180   4.646
 6015SOL    HW218945   6.366   2.160   4.485
 6016SOL     OW18946   4.862   1.574   4.825
 6016SOL    HW118947   4.906   1.484   4.824
 6016SOL    HW218948   4.764   1.563   4.808
 6017SOL     OW18949   6.771   3.101   5.014
 6017SOL    HW118950   6.809   3.064   4.929
 6017SOL    HW218951   6.845   3.110   5.081
 6018SOL     OW18952   3.303   1.503   5.743
 6018SOL    HW118953   3.367   1.567   5.701
 6018SOL    HW218954   3.346   1.459   5.822
 6019SOL     OW18955   0.475   3.832   6.477
 6019SOL    HW118956   0.422   3.751   6.504
 6019SOL    HW218957   0.549   3.847   6.542
 6020SOL     OW18958   1.198   4.871   0.588
 6020SOL    HW118959   1.104   4.897   0.565
 6020SOL    HW218960   1.262   4.938   0.551
 6021SOL     OW18961   3.906   0.688   3.269
 6021SOL    HW118962   3.994   0.702   3.224
 6021SOL    HW218963   3.907   0.732   3.359
 6022SOL     OW18964   6.641   1.432   2.585
 6022SOL    HW118965   6.614   1.369   2.513
 6022SOL    HW218966   6.738   1.455   2.574
 6023SOL     OW18967   4.943   0.716   0.962
 6023SOL    HW118968   4.963   0.769   0.880
 6023SOL    HW218969   4.936   0.619   0.939
 6024SOL     OW18970   0.840   4.838   0.765
 6024SOL    HW118971   0.871   4.932   0.779
 6024SOL    HW218972   0.827   4.821   0.667
 6025SOL     OW18973   2.300   0.906   4.185
 6025SOL    HW118974   2.395   0.892   4.211
 6025SOL    HW218975   2.242   0.900   4.266
 6026SOL     OW18976   6.156   4.350   4.405
 6026SOL    HW118977   6.067   4.310   4.383
 6026SOL    HW218978   6.153   4.391   4.496
 6027SOL     OW18979   5.704   3.259   5.946
 6027SOL    HW118980   5.612   3.222   5.955
 6027SOL    HW218981   5.762   3.195   5.896
 6028SOL     OW18982   5.695   5.026   6.659
 6028SOL    HW118983   5.702   4.934   6.697
 6028SOL    HW218984   5.604   5.063   6.677
 6029SOL     OW18985   2.639   0.850   3.412
 6029SOL    HW118986   2.739   0.846   3.404
 6029SOL    HW218987   2.605   0.931   3.365
 6030SOL     OW18988   4.922   3.671   4.741
 6030SOL    HW118989   4.858   3.717   4.679
 6030SOL    HW218990   4.893   3.686   4.836
 6031SOL     OW18991   0.498   5.904   4.602
 6031SOL    HW118992   0.461   5.826   4.551
 6031SOL    HW218993   0.580   5.874   4.652
 6032SOL     OW18994   2.939   6.512   3.713
 6032SOL    HW118995   2.961   6.492   3.809
 6032SOL    HW218996   3.004   6.465   3.654
 6033SOL     OW18997   2.073   2.235   2.393
 6033SOL    HW118998   1.986   2.275   2.365
 6033SOL    HW218999   2.120   2.298   2.455
 6034SOL     OW19000   1.573   0.309   7.004
 6034SOL    HW119001   1.558   0.358   6.918
 6034SOL    HW219002   1.525   0.221   7.001
 6035SOL     OW19003   1.295   1.125   3.047
 6035SOL    HW119004   1.243   1.089   2.970
 6035SOL    HW219005   1.233   1.171   3.111
 6036SOL     OW19006   5.633   3.696   0.833
 6036SOL    HW119007   5.697   3.681   0.908
 6036SOL    HW219008   5.676   3.666   0.747
 6037SOL     OW19009   4.126   1.821   0.887
 6037SOL    HW119010   4.156   1.727   0.901
 6037SOL    HW219011   4.094   1.859   0.973
 6038SOL     OW19012   0.613   2.336   6.115
 6038SOL    HW119013   0.528   2.377   6.147
 6038SOL    HW219014   0.608   2.237   6.124
 6039SOL     OW19015   3.598   4.032   3.912
 6039SOL    HW119016   3.531   4.077   3.971
 6039SOL    HW219017   3.552   3.968   3.851
 6040SOL     OW19018   1.312   1.564   6.413
 6040SOL    HW119019   1.315   1.594   6.317
 6040SOL    HW219020   1.218   1.542   6.438
 6041SOL     OW19021   3.443   2.437   5.867
 6041SOL    HW119022   3.503   2.357   5.867
 6041SOL    HW219023   3.367   2.422   5.804
 6042SOL     OW19024   3.144   6.145   4.194
 6042SOL    HW119025   3.122   6.228   4.245
 6042SOL    HW219026   3.062   6.088   4.185
 6043SOL     OW19027   1.685   0.734   3.970
 6043SOL    HW119028   1.751   0.695   4.035
 6043SOL    HW219029   1.691   0.834   3.971
 6044SOL     OW19030   1.908   2.211   1.422
 6044SOL    HW119031   1.991   2.267   1.427
 6044SOL    HW219032   1.866   2.224   1.332
 6045SOL     OW19033   5.420   2.730   3.334
 6045SOL    HW119034   5.405   2.725   3.235
 6045SOL    HW219035   5.386   2.818   3.368
 6046SOL     OW19036   3.691   2.488   1.715
 6046SOL    HW119037   3.783   2.471   1.681
 6046SOL    HW219038   3.660   2.410   1.770
 6047SOL     OW19039   6.071   1.703   0.631
 6047SOL    HW119040   6.126   1.704   0.547
 6047SOL    HW219041   6.011   1.782   0.632
 6048SOL     OW19042   5.091   5.772   5.000
 6048SOL    HW119043   5.140   5.851   4.964
 6048SOL    HW219044   5.157   5.698   5.019
 6049SOL     OW19045   5.056   4.667   5.412
 6049SOL    HW119046   5.095   4.756   5.387
 6049SOL    HW219047   5.076   4.648   5.508
 6050SOL     OW19048   3.094   5.803   1.041
 6050SOL    HW119049   3.142   5.827   1.125
 6050SOL    HW219050   3.051   5.713   1.052
 6051SOL     OW19051   0.685   1.634   2.971
 6051SOL    HW119052   0.675   1.734   2.969
 6051SOL    HW219053   0.723   1.603   2.883
 6052SOL     OW19054   5.789   6.514   1.050
 6052SOL    HW119055   5.720   6.579   1.021
 6052SOL    HW219056   5.876   6.535   1.006
 6053SOL     OW19057   4.526   1.570   6.128
 6053SOL    HW119058   4.550   1.499   6.195
 6053SOL    HW219059   4.495   1.652   6.176
 6054SOL     OW19060   4.151   5.090   0.930
 6054SOL    HW119061   4.071   5.038   0.959
 6054SOL    HW219062   4.231   5.061   0.983
 6055SOL     OW19063   3.421   5.499   0.284
 6055SOL    HW119064   3.386   5.461   0.199
 6055SOL    HW219065   3.428   5.426   0.353
 6056SOL     OW19066   6.021   4.026   5.242
 6056SOL    HW119067   6.121   4.020   5.233
 6056SOL    HW219068   5.987   3.949   5.295
 6057SOL     OW19069   5.159   0.447   3.088
 6057SOL    HW119070   5.090   0.491   3.145
 6057SOL    HW219071   5.250   0.477   3.117
 6058SOL     OW19072   5.829   2.583   0.101
 6058SOL    HW119073   5.795   2.558   0.011
 6058SOL    HW219074   5.781   2.529   0.171
 6059SOL     OW19075   4.898   4.628   5.953
 6059SOL    HW119076   4.936   4.713   5.991
 6059SOL    HW219077   4.852   4.577   6.026
 6060SOL     OW19078   3.068   3.429   6.866
 6060SOL    HW119079   2.979   3.468   6.842
 6060SOL    HW219080   3.112   3.391   6.785
 6061SOL     OW19081   4.618   4.934   0.736
 6061SOL    HW119082   4.704   4.960   0.692
 6061SOL    HW219083   4.549   5.004   0.720
 6062SOL     OW19084   2.746   2.483   0.210
 6062SOL    HW119085   2.758   2.405   0.272
 6062SOL    HW219086   2.744   2.568   0.262
 6063SOL     OW19087   3.960   4.827   5.919
 6063SOL    HW119088   4.045   4.842   5.870
 6063SOL    HW219089   3.885   4.819   5.854
 6064SOL     OW19090   0.166   0.748   0.901
 6064SOL    HW119091   0.106   0.782   0.974
 6064SOL    HW219092   0.114   0.687   0.841
 6065SOL     OW19093   0.487   4.963   2.345
 6065SOL    HW119094   0.451   5.052   2.375
 6065SOL    HW219095   0.585   4.959   2.361
 6066SOL     OW19096   4.859   0.634   3.779
 6066SOL    HW119097   4.909   0.568   3.834
 6066SOL    HW219098   4.792   0.681   3.837
 6067SOL     OW19099   5.975   6.895   5.810
 6067SOL    HW119100   6.053   6.833   5.808
 6067SOL    HW219101   5.999   6.978   5.861
 6068SOL     OW19102   5.193   1.037   5.245
 6068SOL    HW119103   5.160   1.119   5.199
 6068SOL    HW219104   5.227   0.972   5.177
 6069SOL     OW19105   0.201   2.829   5.681
 6069SOL    HW119106   0.116   2.849   5.730
 6069SOL    HW219107   0.203   2.732   5.657
 6070SOL     OW19108   3.373   1.984   1.571
 6070SOL    HW119109   3.427   1.979   1.487
 6070SOL    HW219110   3.388   2.072   1.616
 6071SOL     OW19111   6.376   6.152   4.831
 6071SOL    HW119112   6.459   6.101   4.854
 6071SOL    HW219113   6.351   6.211   4.909
 6072SOL     OW19114   0.484   2.308   0.755
 6072SOL    HW119115   0.450   2.363   0.678
 6072SOL    HW219116   0.532   2.228   0.720
 6073SOL     OW19117   4.680   3.090   0.820
 6073SOL    HW119118   4.688   3.003   0.869
 6073SOL    HW219119   4.679   3.072   0.721
 6074SOL     OW19120   1.257   6.451   2.637
 6074SOL    HW119121   1.280   6.511   2.713
 6074SOL    HW219122   1.230   6.362   2.672
 6075SOL     OW19123   4.370   6.699   6.399
 6075SOL    HW119124   4.422   6.664   6.321
 6075SOL    HW219125   4.386   6.640   6.479
 6076SOL     OW19126   2.550   4.608   3.615
 6076SOL    HW119127   2.491   4.688   3.600
 6076SOL    HW219128   2.629   4.635   3.669
 6077SOL     OW19129   6.352   6.703   1.089
 6077SOL    HW119130   6.416   6.728   1.162
 6077SOL    HW219131   6.396   6.639   1.026
 6078SOL     OW19132   4.757   3.838   0.269
 6078SOL    HW119133   4.763   3.909   0.340
 6078SOL    HW219134   4.692   3.867   0.199
 6079SOL     OW19135   4.413   4.139   6.272
 6079SOL    HW119136   4.370   4.053   6.299
 6079SOL    HW219137   4.399   4.153   6.173
 6080SOL     OW19138   1.498   4.502   1.111
 6080SOL    HW119139   1.413   4.467   1.071
 6080SOL    HW219140   1.491   4.601   1.123
 6081SOL     OW19141   0.504   3.558   5.154
 6081SOL    HW119142   0.507   3.658   5.161
 6081SOL    HW219143   0.591   3.520   5.185
 6082SOL     OW19144   4.552   0.713   1.136
 6082SOL    HW119145   4.600   0.706   1.048
 6082SOL    HW219146   4.455   0.694   1.122
 6083SOL     OW19147   5.102   6.162   0.065
 6083SOL    HW119148   5.163   6.184   7.016
 6083SOL    HW219149   5.123   6.219   0.144
 6084SOL     OW19150   0.524   6.855   2.405
 6084SOL    HW119151   0.489   6.767   2.375
 6084SOL    HW219152   0.618   6.866   2.373
 6085SOL     OW19153   6.983   6.310   0.264
 6085SOL    HW119154   6.953   6.404   0.248
 6085SOL    HW219155   6.960   6.254   0.184
 6086SOL     OW19156   3.864   3.736   6.529
 6086SOL    HW119157   3.788   3.779   6.578
 6086SOL    HW219158   3.903   3.663   6.585
 6087SOL     OW19159   4.934   6.469   0.313
 6087SOL    HW119160   4.888   6.440   0.229
 6087SOL    HW219161   4.972   6.389   0.359
 6088SOL     OW19162   5.075   6.412   4.342
 6088SOL    HW119163   5.129   6.470   4.281
 6088SOL    HW219164   4.993   6.380   4.294
 6089SOL     OW19165   5.852   2.292   1.945
 6089SOL    HW119166   5.805   2.346   2.015
 6089SOL    HW219167   5.951   2.308   1.953
 6090SOL     OW19168   3.760   5.378   4.289
 6090SOL    HW119169   3.827   5.364   4.216
 6090SOL    HW219170   3.710   5.294   4.306
 6091SOL     OW19171   2.671   0.888   1.034
 6091SOL    HW119172   2.594   0.949   1.013
 6091SOL    HW219173   2.676   0.875   1.133
 6092SOL     OW19174   4.137   6.812   1.932
 6092SOL    HW119175   4.055   6.819   1.990
 6092SOL    HW219176   4.216   6.846   1.983
 6093SOL     OW19177   2.442   1.720   2.452
 6093SOL    HW119178   2.513   1.753   2.390
 6093SOL    HW219179   2.382   1.656   2.404
 6094SOL     OW19180   0.542   6.730   4.248
 6094SOL    HW119181   0.507   6.741   4.155
 6094SOL    HW219182   0.476   6.769   4.313
 6095SOL     OW19183   4.101   6.139   0.174
 6095SOL    HW119184   4.115   6.047   0.136
 6095SOL    HW219185   4.152   6.205   0.118
 6096SOL     OW19186   5.930   6.527   2.307
 6096SOL    HW119187   5.878   6.443   2.291
 6096SOL    HW219188   6.025   6.504   2.324
 6097SOL     OW19189   1.770   5.676   2.178
 6097SOL    HW119190   1.806   5.658   2.086
 6097SOL    HW219191   1.845   5.702   2.239
 6098SOL     OW19192   6.750   0.703   4.749
 6098SOL    HW119193   6.846   0.678   4.739
 6098SOL    HW219194   6.707   0.710   4.659
 6099SOL     OW19195   5.669   5.817   5.732
 6099SOL    HW119196   5.676   5.738   5.670
 6099SOL    HW219197   5.730   5.889   5.700
 6100SOL     OW19198   0.072   5.566   3.322
 6100SOL    HW119199   7.019   5.508   3.301
 6100SOL    HW219200   0.046   5.635   3.390
 6101SOL     OW19201   6.181   2.519   1.005
 6101SOL    HW119202   6.179   2.479   1.096
 6101SOL    HW219203   6.219   2.453   0.940
 6102SOL     OW19204   4.175   6.468   2.668
 6102SOL    HW119205   4.199   6.378   2.632
 6102SOL    HW219206   4.177   6.535   2.594
 6103SOL     OW19207   6.641   1.775   1.749
 6103SOL    HW119208   6.722   1.760   1.805
 6103SOL    HW219209   6.591   1.689   1.739
 6104SOL     OW19210   5.875   1.003   4.756
 6104SOL    HW119211   5.876   0.993   4.855
 6104SOL    HW219212   5.809   0.939   4.717
 6105SOL     OW19213   3.086   5.979   6.562
 6105SOL    HW119214   3.091   5.880   6.547
 6105SOL    HW219215   3.065   5.998   6.658
 6106SOL     OW19216   0.907   3.680   7.009
 6106SOL    HW119217   0.819   3.668   0.029
 6106SOL    HW219218   0.971   3.609   0.014
 6107SOL     OW19219   4.642   4.986   4.851
 6107SOL    HW119220   4.569   5.033   4.801
 6107SOL    HW219221   4.657   5.031   4.939
 6108SOL     OW19222   1.378   1.105   1.720
 6108SOL    HW119223   1.408   1.166   1.793
 6108SOL    HW219224   1.457   1.068   1.672
 6109SOL     OW19225   5.261   6.895   3.148
 6109SOL    HW119226   5.181   6.859   3.197
 6109SOL    HW219227   5.341   6.891   3.208
 6110SOL     OW19228   0.922   1.866   5.851
 6110SOL    HW119229   0.874   1.779   5.839
 6110SOL    HW219230   1.017   1.848   5.876
 6111SOL     OW19231   1.219   3.681   1.687
 6111SOL    HW119232   1.216   3.628   1.771
 6111SOL    HW219233   1.213   3.619   1.608
 6112SOL     OW19234   3.761   0.485   2.276
 6112SOL    HW119235   3.770   0.391   2.309
 6112SOL    HW219236   3.825   0.544   2.326
 6113SOL     OW19237   2.029   5.073   6.872
 6113SOL    HW119238   2.105   5.057   6.936
 6113SOL    HW219239   2.066   5.113   6.788
 6114SOL     OW19240   4.821   1.733   1.404
 6114SOL    HW119241   4.866   1.682   1.331
 6114SOL    HW219242   4.873   1.724   1.488
 6115SOL     OW19243   1.292   1.639   5.068
 6115SOL    HW119244   1.376   1.651   5.015
 6115SOL    HW219245   1.224   1.591   5.012
 6116SOL     OW19246   3.763   2.067   5.024
 6116SOL    HW119247   3.746   1.997   5.093
 6116SOL    HW219248   3.684   2.073   4.962
 6117SOL     OW19249   1.379   1.737   2.841
 6117SOL    HW119250   1.467   1.768   2.876
 6117SOL    HW219251   1.358   1.783   2.755
 6118SOL     OW19252   6.154   1.176   0.829
 6118SOL    HW119253   6.066   1.175   0.782
 6118SOL    HW219254   6.228   1.161   0.763
 6119SOL     OW19255   0.239   2.181   0.522
 6119SOL    HW119256   0.165   2.152   0.583
 6119SOL    HW219257   0.281   2.264   0.558
 6120SOL     OW19258   2.615   6.427   5.641
 6120SOL    HW119259   2.542   6.478   5.686
 6120SOL    HW219260   2.695   6.425   5.701
 6121SOL     OW19261   0.661   3.912   5.511
 6121SOL    HW119262   0.643   3.887   5.606
 6121SOL    HW219263   0.726   3.847   5.471
 6122SOL     OW19264   4.814   5.785   5.475
 6122SOL    HW119265   4.884   5.853   5.454
 6122SOL    HW219266   4.773   5.806   5.563
 6123SOL     OW19267   5.930   1.312   5.518
 6123SOL    HW119268   5.883   1.350   5.598
 6123SOL    HW219269   5.866   1.305   5.442
 6124SOL     OW19270   2.230   0.030   5.007
 6124SOL    HW119271   2.269   0.076   5.087
 6124SOL    HW219272   2.303   7.009   4.957
 6125SOL     OW19273   2.585   4.150   0.284
 6125SOL    HW119274   2.546   4.069   0.327
 6125SOL    HW219275   2.602   4.131   0.187
 6126SOL     OW19276   0.484   2.422   4.868
 6126SOL    HW119277   0.539   2.489   4.917
 6126SOL    HW219278   0.538   2.380   4.795
 6127SOL     OW19279   4.401   1.022   2.122
 6127SOL    HW119280   4.360   0.941   2.082
 6127SOL    HW219281   4.333   1.096   2.126
 6128SOL     OW19282   5.847   6.029   1.002
 6128SOL    HW119283   5.863   5.930   1.001
 6128SOL    HW219284   5.840   6.063   0.909
 6129SOL     OW19285   1.699   4.540   3.001
 6129SOL    HW119286   1.733   4.503   2.914
 6129SOL    HW219287   1.752   4.501   3.076
 6130SOL     OW19288   5.176   2.872   1.506
 6130SOL    HW119289   5.231   2.894   1.426
 6130SOL    HW219290   5.178   2.773   1.521
 6131SOL     OW19291   0.314   2.184   2.299
 6131SOL    HW119292   0.269   2.255   2.354
 6131SOL    HW219293   0.337   2.106   2.357
 6132SOL     OW19294   3.680   1.495   6.539
 6132SOL    HW119295   3.713   1.419   6.595
 6132SOL    HW219296   3.662   1.463   6.446
 6133SOL     OW19297   1.440   2.754   3.530
 6133SOL    HW119298   1.457   2.659   3.557
 6133SOL    HW219299   1.510   2.813   3.570
 6134SOL     OW19300   5.305   5.854   6.088
 6134SOL    HW119301   5.237   5.849   6.014
 6134SOL    HW219302   5.395   5.826   6.052
 6135SOL     OW19303   5.868   0.320   0.144
 6135SOL    HW119304   5.950   0.317   0.202
 6135SOL    HW219305   5.850   0.228   0.109
 6136SOL     OW19306   1.344   2.855   1.201
 6136SOL    HW119307   1.358   2.951   1.226
 6136SOL    HW219308   1.327   2.849   1.102
 6137SOL     OW19309   0.637   4.561   3.471
 6137SOL    HW119310   0.598   4.491   3.530
 6137SOL    HW219311   0.724   4.528   3.434
 6138SOL     OW19312   3.754   0.140   2.335
 6138SOL    HW119313   3.677   0.167   2.278
 6138SOL    HW219314   3.828   0.104   2.278
 6139SOL     OW19315   1.063   6.927   5.708
 6139SOL    HW119316   1.052   6.879   5.621
 6139SOL    HW219317   1.160   6.947   5.723
 6140SOL     OW19318   1.606   0.191   3.477
 6140SOL    HW119319   1.696   0.223   3.446
 6140SOL    HW219320   1.571   0.252   3.548
 6141SOL     OW19321   0.368   0.403   5.823
 6141SOL    HW119322   0.414   0.323   5.786
 6141SOL    HW219323   0.418   0.436   5.903
 6142SOL     OW19324   0.593   1.169   0.850
 6142SOL    HW119325   0.690   1.155   0.869
 6142SOL    HW219326   0.582   1.200   0.755
 6143SOL     OW19327   6.665   3.783   6.796
 6143SOL    HW119328   6.631   3.727   6.720
 6143SOL    HW219329   6.629   3.876   6.786
 6144SOL     OW19330   4.643   4.298   2.720
 6144SOL    HW119331   4.715   4.284   2.652
 6144SOL    HW219332   4.617   4.210   2.759
 6145SOL     OW19333   5.305   3.964   4.127
 6145SOL    HW119334   5.391   3.922   4.097
 6145SOL    HW219335   5.241   3.967   4.050
 6146SOL     OW19336   3.203   0.101   4.280
 6146SOL    HW119337   3.220   0.014   4.233
 6146SOL    HW219338   3.280   0.162   4.266
 6147SOL     OW19339   2.029   2.958   4.680
 6147SOL    HW119340   1.975   2.920   4.755
 6147SOL    HW219341   1.988   3.044   4.649
 6148SOL     OW19342   3.946   4.799   0.139
 6148SOL    HW119343   4.026   4.796   0.079
 6148SOL    HW219344   3.865   4.769   0.089
 6149SOL     OW19345   2.644   0.435   2.290
 6149SOL    HW119346   2.568   0.391   2.243
 6149SOL    HW219347   2.719   0.451   2.225
 6150SOL     OW19348   6.560   4.031   6.782
 6150SOL    HW119349   6.624   4.108   6.774
 6150SOL    HW219350   6.523   4.028   6.875
 6151SOL     OW19351   5.445   4.983   4.299
 6151SOL    HW119352   5.541   4.965   4.321
 6151SOL    HW219353   5.421   4.932   4.216
 6152SOL     OW19354   1.000   5.361   4.297
 6152SOL    HW119355   0.975   5.360   4.200
 6152SOL    HW219356   1.050   5.445   4.316
 6153SOL     OW19357   4.809   5.285   0.915
 6153SOL    HW119358   4.758   5.330   0.988
 6153SOL    HW219359   4.771   5.312   0.827
 6154SOL     OW19360   5.116   3.205   2.241
 6154SOL    HW119361   5.173   3.287   2.254
 6154SOL    HW219362   5.057   3.193   2.321
 6155SOL     OW19363   2.406   1.169   3.322
 6155SOL    HW119364   2.484   1.165   3.385
 6155SOL    HW219365   2.345   1.244   3.350
 6156SOL     OW19366   5.483   4.204   1.125
 6156SOL    HW119367   5.435   4.291   1.124
 6156SOL    HW219368   5.500   4.176   1.220
 6157SOL     OW19369   0.468   2.401   3.141
 6157SOL    HW119370   0.380   2.356   3.155
 6157SOL    HW219371   0.456   2.500   3.143
 6158SOL     OW19372   3.313   2.335   6.101
 6158SOL    HW119373   3.348   2.359   6.011
 6158SOL    HW219374   3.362   2.386   6.171
 6159SOL     OW19375   5.479   2.754   6.926
 6159SOL    HW119376   5.436   2.758   7.016
 6159SOL    HW219377   5.578   2.762   6.936
 6160SOL     OW19378   0.182   0.257   6.529
 6160SOL    HW119379   0.180   0.223   6.435
 6160SOL    HW219380   0.227   0.347   6.531
 6161SOL     OW19381   4.897   2.672   6.556
 6161SOL    HW119382   4.839   2.747   6.589
 6161SOL    HW219383   4.960   2.707   6.486
 6162SOL     OW19384   6.043   6.369   2.609
 6162SOL    HW119385   6.025   6.467   2.607
 6162SOL    HW219386   5.958   6.320   2.630
 6163SOL     OW19387   5.215   5.976   2.836
 6163SOL    HW119388   5.236   6.052   2.898
 6163SOL    HW219389   5.300   5.934   2.806
 6164SOL     OW19390   3.881   3.852   4.352
 6164SOL    HW119391   3.872   3.753   4.358
 6164SOL    HW219392   3.791   3.893   4.335
 6165SOL     OW19393   3.784   2.492   0.116
 6165SOL    HW119394   3.876   2.453   0.120
 6165SOL    HW219395   3.720   2.424   0.082
 6166SOL     OW19396   0.305   1.981   0.088
 6166SOL    HW119397   0.370   2.004   0.161
 6166SOL    HW219398   0.327   2.034   0.006
 6167SOL     OW19399   1.837   4.832   3.200
 6167SOL    HW119400   1.879   4.908   3.250
 6167SOL    HW219401   1.783   4.868   3.124
 6168SOL     OW19402   6.600   2.459   3.519
 6168SOL    HW119403   6.663   2.452   3.441
 6168SOL    HW219404   6.652   2.456   3.604
 6169SOL     OW19405   1.301   0.397   6.664
 6169SOL    HW119406   1.276   0.329   6.733
 6169SOL    HW219407   1.343   0.351   6.586
 6170SOL     OW19408   3.623   4.500   6.969
 6170SOL    HW119409   3.663   4.479   0.032
 6170SOL    HW219410   3.593   4.595   6.968
 6171SOL     OW19411   0.596   4.275   2.477
 6171SOL    HW119412   0.534   4.331   2.532
 6171SOL    HW219413   0.594   4.308   2.382
 6172SOL     OW19414   0.924   0.531   2.940
 6172SOL    HW119415   0.891   0.538   3.034
 6172SOL    HW219416   0.846   0.521   2.878
 6173SOL     OW19417   0.766   4.518   2.714
 6173SOL    HW119418   0.797   4.424   2.708
 6173SOL    HW219419   0.800   4.560   2.799
 6174SOL     OW19420   6.254   4.903   2.650
 6174SOL    HW119421   6.231   4.806   2.656
 6174SOL    HW219422   6.339   4.915   2.599
 6175SOL     OW19423   5.895   6.056   2.381
 6175SOL    HW119424   5.868   5.961   2.370
 6175SOL    HW219425   5.935   6.070   2.472
 6176SOL     OW19426   5.983   3.431   6.446
 6176SOL    HW119427   5.959   3.339   6.415
 6176SOL    HW219428   5.925   3.457   6.523
 6177SOL     OW19429   4.761   1.068   1.750
 6177SOL    HW119430   4.687   1.103   1.807
 6177SOL    HW219431   4.735   0.978   1.715
 6178SOL     OW19432   4.973   4.794   1.118
 6178SOL    HW119433   4.949   4.889   1.138
 6178SOL    HW219434   4.988   4.782   1.020
 6179SOL     OW19435   6.891   3.230   4.517
 6179SOL    HW119436   6.792   3.218   4.524
 6179SOL    HW219437   6.931   3.148   4.476
 6180SOL     OW19438   3.367   0.021   0.869
 6180SOL    HW119439   3.289   0.061   0.916
 6180SOL    HW219440   3.404   6.972   0.923
 6181SOL     OW19441   4.940   6.414   6.950
 6181SOL    HW119442   5.023   6.469   6.957
 6181SOL    HW219443   4.952   6.329   7.002
 6182SOL     OW19444   5.193   5.162   5.164
 6182SOL    HW119445   5.187   5.093   5.092
 6182SOL    HW219446   5.104   5.170   5.209
 6183SOL     OW19447   2.051   0.497   2.675
 6183SOL    HW119448   2.022   0.404   2.699
 6183SOL    HW219449   2.129   0.492   2.613
 6184SOL     OW19450   1.563   6.825   0.308
 6184SOL    HW119451   1.654   6.831   0.349
 6184SOL    HW219452   1.565   6.861   0.215
 6185SOL     OW19453   0.579   4.014   0.035
 6185SOL    HW119454   0.564   3.960   0.118
 6185SOL    HW219455   0.557   3.959   6.982
 6186SOL     OW19456   5.929   0.128   4.046
 6186SOL    HW119457   5.855   0.088   4.098
 6186SOL    HW219458   5.914   0.112   3.948
 6187SOL     OW19459   5.184   4.745   3.498
 6187SOL    HW119460   5.235   4.815   3.447
 6187SOL    HW219461   5.173   4.664   3.441
 6188SOL     OW19462   2.242   6.565   1.696
 6188SOL    HW119463   2.201   6.627   1.764
 6188SOL    HW219464   2.272   6.619   1.617
 6189SOL     OW19465   5.044   4.692   2.800
 6189SOL    HW119466   4.983   4.759   2.842
 6189SOL    HW219467   4.991   4.614   2.766
 6190SOL     OW19468   5.320   3.172   5.829
 6190SOL    HW119469   5.286   3.228   5.904
 6190SOL    HW219470   5.248   3.108   5.800
 6191SOL     OW19471   5.416   2.373   0.618
 6191SOL    HW119472   5.326   2.338   0.589
 6191SOL    HW219473   5.484   2.301   0.607
 6192SOL     OW19474   3.022   4.044   0.167
 6192SOL    HW119475   3.017   4.005   0.259
 6192SOL    HW219476   2.966   4.126   0.162
 6193SOL     OW19477   4.795   6.998   1.978
 6193SOL    HW119478   4.874   0.033   1.972
 6193SOL    HW219479   4.816   6.913   1.931
 6194SOL     OW19480   2.306   0.377   0.999
 6194SOL    HW119481   2.265   0.382   1.090
 6194SOL    HW219482   2.265   0.301   0.948
 6195SOL     OW19483   4.143   5.651   6.098
 6195SOL    HW119484   4.170   5.554   6.106
 6195SOL    HW219485   4.053   5.657   6.056
 6196SOL     OW19486   1.022   2.874   6.585
 6196SOL    HW119487   1.031   2.936   6.507
 6196SOL    HW219488   1.087   2.799   6.577
 6197SOL     OW19489   2.675   4.102   1.100
 6197SOL    HW119490   2.581   4.068   1.102
 6197SOL    HW219491   2.703   4.116   1.005
 6198SOL     OW19492   3.230   5.754   3.087
 6198SOL    HW119493   3.249   5.822   3.016
 6198SOL    HW219494   3.223   5.800   3.176
 6199SOL     OW19495   0.658   0.438   1.304
 6199SOL    HW119496   0.604   0.356   1.286
 6199SOL    HW219497   0.750   0.411   1.333
 6200SOL     OW19498   2.559   1.106   6.365
 6200SOL    HW119499   2.547   1.193   6.413
 6200SOL    HW219500   2.469   1.065   6.348
 6201SOL     OW19501   2.028   4.666   6.194
 6201SOL    HW119502   1.976   4.598   6.143
 6201SOL    HW219503   1.999   4.666   6.290
 6202SOL     OW19504   4.033   1.623   1.792
 6202SOL    HW119505   3.988   1.629   1.703
 6202SOL    HW219506   3.990   1.689   1.855
 6203SOL     OW19507   5.119   0.611   3.902
 6203SOL    HW119508   5.167   0.551   3.966
 6203SOL    HW219509   5.141   0.706   3.921
 6204SOL     OW19510   1.086   4.934   5.424
 6204SOL    HW119511   0.994   4.944   5.461
 6204SOL    HW219512   1.089   4.972   5.331
 6205SOL     OW19513   5.441   5.281   6.604
 6205SOL    HW119514   5.520   5.280   6.666
 6205SOL    HW219515   5.368   5.337   6.644
 6206SOL     OW19516   6.867   0.568   2.347
 6206SOL    HW119517   6.935   0.565   2.420
 6206SOL    HW219518   6.836   0.662   2.334
 6207SOL     OW19519   1.366   4.081   5.205
 6207SOL    HW119520   1.286   4.061   5.148
 6207SOL    HW219521   1.367   4.178   5.228
 6208SOL     OW19522   6.278   0.247   5.600
 6208SOL    HW119523   6.275   0.346   5.592
 6208SOL    HW219524   6.186   0.211   5.615
 6209SOL     OW19525   4.178   6.150   0.445
 6209SOL    HW119526   4.171   6.246   0.472
 6209SOL    HW219527   4.145   6.139   0.351
 6210SOL     OW19528   5.762   3.948   2.805
 6210SOL    HW119529   5.663   3.936   2.810
 6210SOL    HW219530   5.789   3.973   2.712
 6211SOL     OW19531   2.454   0.025   6.158
 6211SOL    HW119532   2.478   0.111   6.202
 6211SOL    HW219533   2.509   0.013   6.076
 6212SOL     OW19534   6.951   6.105   3.789
 6212SOL    HW119535   6.919   6.160   3.867
 6212SOL    HW219536   6.978   6.166   3.715
 6213SOL     OW19537   5.937   0.612   6.622
 6213SOL    HW119538   5.999   0.687   6.600
 6213SOL    HW219539   5.921   0.610   6.721
 6214SOL     OW19540   6.231   5.646   2.630
 6214SOL    HW119541   6.289   5.727   2.624
 6214SOL    HW219542   6.178   5.636   2.546
 6215SOL     OW19543   3.568   1.572   6.944
 6215SOL    HW119544   3.522   1.657   6.968
 6215SOL    HW219545   3.628   1.587   6.866
 6216SOL     OW19546   6.593   2.214   1.419
 6216SOL    HW119547   6.548   2.214   1.330
 6216SOL    HW219548   6.690   2.194   1.408
 6217SOL     OW19549   4.834   2.705   1.636
 6217SOL    HW119550   4.892   2.783   1.616
 6217SOL    HW219551   4.766   2.694   1.563
 6218SOL     OW19552   3.170   4.973   4.570
 6218SOL    HW119553   3.148   4.942   4.663
 6218SOL    HW219554   3.143   5.069   4.560
 6219SOL     OW19555   1.645   2.130   4.854
 6219SOL    HW119556   1.578   2.184   4.906
 6219SOL    HW219557   1.597   2.062   4.799
 6220SOL     OW19558   1.588   4.514   5.404
 6220SOL    HW119559   1.593   4.416   5.423
 6220SOL    HW219560   1.680   4.549   5.384
 6221SOL     OW19561   4.780   5.279   5.018
 6221SOL    HW119562   4.698   5.278   4.960
 6221SOL    HW219563   4.853   5.228   4.973
 6222SOL     OW19564   0.764   0.197   1.763
 6222SOL    HW119565   0.670   0.164   1.761
 6222SOL    HW219566   0.765   0.293   1.793
 6223SOL     OW19567   5.734   4.083   4.263
 6223SOL    HW119568   5.760   3.999   4.310
 6223SOL    HW219569   5.729   4.067   4.165
 6224SOL     OW19570   1.988   1.528   6.526
 6224SOL    HW119571   1.929   1.604   6.498
 6224SOL    HW219572   1.931   1.450   6.552
 6225SOL     OW19573   3.443   3.462   1.396
 6225SOL    HW119574   3.451   3.364   1.374
 6225SOL    HW219575   3.347   3.484   1.412
 6226SOL     OW19576   5.837   1.082   3.923
 6226SOL    HW119577   5.798   1.015   3.986
 6226SOL    HW219578   5.887   1.151   3.974
 6227SOL     OW19579   2.854   4.666   5.867
 6227SOL    HW119580   2.791   4.623   5.932
 6227SOL    HW219581   2.802   4.705   5.791
 6228SOL     OW19582   6.849   1.894   3.265
 6228SOL    HW119583   6.860   1.994   3.261
 6228SOL    HW219584   6.764   1.872   3.311
 6229SOL     OW19585   2.244   1.822   2.974
 6229SOL    HW119586   2.270   1.772   3.056
 6229SOL    HW219587   2.292   1.785   2.894
 6230SOL     OW19588   1.749   1.028   5.056
 6230SOL    HW119589   1.823   1.073   5.106
 6230SOL    HW219590   1.788   0.965   4.988
 6231SOL     OW19591   6.628   4.577   1.105
 6231SOL    HW119592   6.626   4.592   1.006
 6231SOL    HW219593   6.580   4.651   1.151
 6232SOL     OW19594   0.012   1.329   0.022
 6232SOL    HW119595   0.065   1.308   6.966
 6232SOL    HW219596   0.038   1.265   0.095
 6233SOL     OW19597   5.403   2.105   6.957
 6233SOL    HW119598   5.418   2.010   6.930
 6233SOL    HW219599   5.407   2.164   6.876
 6234SOL     OW19600   1.161   1.433   4.910
 6234SOL    HW119601   1.062   1.439   4.919
 6234SOL    HW219602   1.186   1.424   4.813
 6235SOL     OW19603   1.879   6.697   3.511
 6235SOL    HW119604   1.962   6.650   3.480
 6235SOL    HW219605   1.886   6.794   3.490
 6236SOL     OW19606   0.000   4.775   1.369
 6236SOL    HW119607   6.997   4.868   1.347
 6236SOL    HW219608   6.971   4.710   1.318
 6237SOL     OW19609   4.611   6.336   0.460
 6237SOL    HW119610   4.657   6.384   0.534
 6237SOL    HW219611   4.542   6.397   0.419
 6238SOL     OW19612   4.579   5.601   2.140
 6238SOL    HW119613   4.525   5.572   2.219
 6238SOL    HW219614   4.615   5.693   2.157
 6239SOL     OW19615   2.855   6.288   2.054
 6239SOL    HW119616   2.913   6.221   2.009
 6239SOL    HW219617   2.759   6.268   2.035
 6240SOL     OW19618   3.034   2.454   1.002
 6240SOL    HW119619   2.948   2.437   0.952
 6240SOL    HW219620   3.014   2.501   1.087
 6241SOL     OW19621   2.569   1.152   2.080
 6241SOL    HW119622   2.622   1.070   2.103
 6241SOL    HW219623   2.519   1.183   2.160
 6242SOL     OW19624   5.357   1.480   3.570
 6242SOL    HW119625   5.406   1.448   3.651
 6242SOL    HW219626   5.401   1.444   3.488
 6243SOL     OW19627   6.017   6.748   3.350
 6243SOL    HW119628   6.075   6.817   3.307
 6243SOL    HW219629   5.927   6.788   3.370
 6244SOL     OW19630   2.511   2.462   1.960
 6244SOL    HW119631   2.442   2.402   1.919
 6244SOL    HW219632   2.589   2.406   1.991
 6245SOL     OW19633   3.205   4.410   1.690
 6245SOL    HW119634   3.252   4.326   1.718
 6245SOL    HW219635   3.125   4.424   1.749
 6246SOL     OW19636   2.894   2.984   6.805
 6246SOL    HW119637   2.826   3.050   6.773
 6246SOL    HW219638   2.859   2.891   6.790
 6247SOL     OW19639   0.145   6.859   3.458
 6247SOL    HW119640   0.146   6.950   3.499
 6247SOL    HW219641   0.108   6.793   3.523
 6248SOL     OW19642   0.823   3.985   1.031
 6248SOL    HW119643   0.772   4.067   1.055
 6248SOL    HW219644   0.870   3.950   1.112
 6249SOL     OW19645   0.241   4.667   0.066
 6249SOL    HW119646   0.310   4.727   0.025
 6249SOL    HW219647   0.285   4.584   0.101
 6250SOL     OW19648   6.758   6.428   0.861
 6250SOL    HW119649   6.777   6.429   0.763
 6250SOL    HW219650   6.780   6.338   0.899
 6251SOL     OW19651   4.044   0.047   1.398
 6251SOL    HW119652   4.100   6.992   1.381
 6251SOL    HW219653   3.984   0.030   1.476
 6252SOL     OW19654   2.684   5.898   5.188
 6252SOL    HW119655   2.629   5.814   5.188
 6252SOL    HW219656   2.627   5.975   5.162
 6253SOL     OW19657   2.247   4.174   2.463
 6253SOL    HW119658   2.299   4.228   2.396
 6253SOL    HW219659   2.188   4.109   2.414
 6254SOL     OW19660   5.569   0.360   6.974
 6254SOL    HW119661   5.487   0.346   0.003
 6254SOL    HW219662   5.620   0.438   7.011
 6255SOL     OW19663   1.372   1.272   1.423
 6255SOL    HW119664   1.287   1.306   1.464
 6255SOL    HW219665   1.437   1.249   1.495
 6256SOL     OW19666   4.124   5.202   2.607
 6256SOL    HW119667   4.181   5.245   2.537
 6256SOL    HW219668   4.129   5.256   2.691
 6257SOL     OW19669   5.066   2.341   0.878
 6257SOL    HW119670   5.046   2.364   0.783
 6257SOL    HW219671   5.151   2.386   0.906
 6258SOL     OW19672   4.842   0.904   3.347
 6258SOL    HW119673   4.753   0.927   3.388
 6258SOL    HW219674   4.857   0.959   3.266
 6259SOL     OW19675   3.076   1.940   1.651
 6259SOL    HW119676   3.101   1.947   1.747
 6259SOL    HW219677   3.052   2.030   1.616
 6260SOL     OW19678   3.232   4.014   0.440
 6260SOL    HW119679   3.196   4.087   0.383
 6260SOL    HW219680   3.314   4.046   0.487
 6261SOL     OW19681   4.020   6.917   6.581
 6261SOL    HW119682   3.971   6.953   6.660
 6261SOL    HW219683   4.117   6.911   6.603
 6262SOL     OW19684   1.783   4.666   0.352
 6262SOL    HW119685   1.737   4.577   0.354
 6262SOL    HW219686   1.766   4.710   0.263
 6263SOL     OW19687   0.133   6.121   6.550
 6263SOL    HW119688   0.201   6.152   6.484
 6263SOL    HW219689   0.086   6.200   6.589
 6264SOL     OW19690   2.267   1.221   0.983
 6264SOL    HW119691   2.231   1.209   0.891
 6264SOL    HW219692   2.231   1.306   1.022
 6265SOL     OW19693   3.334   4.398   1.221
 6265SOL    HW119694   3.346   4.484   1.171
 6265SOL    HW219695   3.270   4.413   1.297
 6266SOL     OW19696   3.686   0.693   4.448
 6266SOL    HW119697   3.748   0.618   4.427
 6266SOL    HW219698   3.618   0.702   4.375
 6267SOL     OW19699   3.132   0.109   0.266
 6267SOL    HW119700   3.082   0.191   0.240
 6267SOL    HW219701   3.177   0.124   0.354
 6268SOL     OW19702   2.653   5.447   2.913
 6268SOL    HW119703   2.725   5.429   2.980
 6268SOL    HW219704   2.594   5.520   2.946
 6269SOL     OW19705   6.064   5.576   2.409
 6269SOL    HW119706   5.976   5.621   2.419
 6269SOL    HW219707   6.095   5.582   2.314
 6270SOL     OW19708   2.179   0.027   6.225
 6270SOL    HW119709   2.276   0.027   6.204
 6270SOL    HW219710   2.128   0.068   6.149
 6271SOL     OW19711   6.973   2.630   5.685
 6271SOL    HW119712   6.997   2.630   5.588
 6271SOL    HW219713   6.874   2.615   5.695
 6272SOL     OW19714   0.721   3.170   4.177
 6272SOL    HW119715   0.630   3.131   4.190
 6272SOL    HW219716   0.789   3.111   4.220
 6273SOL     OW19717   1.501   0.856   1.878
 6273SOL    HW119718   1.414   0.814   1.852
 6273SOL    HW219719   1.526   0.829   1.971
 6274SOL     OW19720   2.769   5.534   6.203
 6274SOL    HW119721   2.825   5.484   6.268
 6274SOL    HW219722   2.685   5.483   6.186
 6275SOL     OW19723   2.917   6.483   5.695
 6275SOL    HW119724   2.986   6.549   5.726
 6275SOL    HW219725   2.900   6.417   5.769
 6276SOL     OW19726   1.359   4.911   3.452
 6276SOL    HW119727   1.434   4.847   3.438
 6276SOL    HW219728   1.327   4.946   3.364
 6277SOL     OW19729   4.610   2.616   2.503
 6277SOL    HW119730   4.546   2.552   2.461
 6277SOL    HW219731   4.674   2.649   2.434
 6278SOL     OW19732   4.497   0.025   4.303
 6278SOL    HW119733   4.475   6.994   4.224
 6278SOL    HW219734   4.423   0.021   4.369
 6279SOL     OW19735   3.776   1.598   0.944
 6279SOL    HW119736   3.833   1.542   0.884
 6279SOL    HW219737   3.680   1.575   0.930
 6280SOL     OW19738   0.422   3.199   5.953
 6280SOL    HW119739   0.521   3.206   5.969
 6280SOL    HW219740   0.405   3.151   5.867
 6281SOL     OW19741   3.038   6.325   5.936
 6281SOL    HW119742   2.995   6.363   6.018
 6281SOL    HW219743   2.981   6.250   5.900
 6282SOL     OW19744   1.285   7.011   4.752
 6282SOL    HW119745   1.330   0.073   4.737
 6282SOL    HW219746   1.233   7.015   4.837
 6283SOL     OW19747   6.006   2.524   4.693
 6283SOL    HW119748   6.032   2.454   4.626
 6283SOL    HW219749   6.008   2.614   4.649
 6284SOL     OW19750   1.849   5.550   5.050
 6284SOL    HW119751   1.870   5.536   4.953
 6284SOL    HW219752   1.921   5.507   5.106
 6285SOL     OW19753   1.563   2.980   4.439
 6285SOL    HW119754   1.575   3.066   4.489
 6285SOL    HW219755   1.505   2.997   4.359
 6286SOL     OW19756   6.127   1.295   3.831
 6286SOL    HW119757   6.042   1.338   3.862
 6286SOL    HW219758   6.153   1.333   3.743
 6287SOL     OW19759   4.517   4.497   2.192
 6287SOL    HW119760   4.490   4.428   2.124
 6287SOL    HW219761   4.515   4.457   2.283
 6288SOL     OW19762   5.124   4.414   1.221
 6288SOL    HW119763   5.122   4.363   1.307
 6288SOL    HW219764   5.211   4.464   1.214
 6289SOL     OW19765   1.906   2.986   3.612
 6289SOL    HW119766   1.991   2.970   3.663
 6289SOL    HW219767   1.829   2.945   3.661
 6290SOL     OW19768   5.267   4.205   4.240
 6290SOL    HW119769   5.215   4.192   4.325
 6290SOL    HW219770   5.272   4.119   4.190
 6291SOL     OW19771   3.462   3.407   3.644
 6291SOL    HW119772   3.401   3.348   3.696
 6291SOL    HW219773   3.557   3.379   3.658
 6292SOL     OW19774   0.424   2.943   3.163
 6292SOL    HW119775   0.382   3.033   3.168
 6292SOL    HW219776   0.493   2.942   3.090
 6293SOL     OW19777   4.960   0.043   7.010
 6293SOL    HW119778   5.007   7.005   0.043
 6293SOL    HW219779   5.026   0.092   6.954
 6294SOL     OW19780   3.491   5.312   3.112
 6294SOL    HW119781   3.475   5.405   3.145
 6294SOL    HW219782   3.579   5.308   3.065
 6295SOL     OW19783   5.035   5.585   5.393
 6295SOL    HW119784   5.014   5.554   5.300
 6295SOL    HW219785   4.952   5.619   5.437
 6296SOL     OW19786   6.372   0.417   3.937
 6296SOL    HW119787   6.431   0.416   4.018
 6296SOL    HW219788   6.286   0.462   3.960
 6297SOL     OW19789   5.548   6.551   5.733
 6297SOL    HW119790   5.499   6.564   5.819
 6297SOL    HW219791   5.628   6.612   5.730
 6298SOL     OW19792   1.057   3.713   6.114
 6298SOL    HW119793   0.990   3.775   6.154
 6298SOL    HW219794   1.137   3.765   6.084
 6299SOL     OW19795   6.390   2.281   6.471
 6299SOL    HW119796   6.345   2.247   6.554
 6299SOL    HW219797   6.332   2.263   6.392
 6300SOL     OW19798   5.317   0.390   4.879
 6300SOL    HW119799   5.230   0.439   4.887
 6300SOL    HW219800   5.299   0.296   4.851
 6301SOL     OW19801   2.859   0.188   1.085
 6301SOL    HW119802   2.942   0.236   1.112
 6301SOL    HW219803   2.782   0.252   1.083
 6302SOL     OW19804   1.275   1.180   3.648
 6302SOL    HW119805   1.344   1.111   3.629
 6302SOL    HW219806   1.188   1.135   3.671
 6303SOL     OW19807   2.575   0.515   5.294
 6303SOL    HW119808   2.622   0.597   5.328
 6303SOL    HW219809   2.550   0.529   5.198
 6304SOL     OW19810   3.141   0.564   0.929
 6304SOL    HW119811   3.103   0.484   0.883
 6304SOL    HW219812   3.171   0.538   1.021
 6305SOL     OW19813   6.503   6.799   1.324
 6305SOL    HW119814   6.429   6.864   1.305
 6305SOL    HW219815   6.590   6.848   1.328
 6306SOL     OW19816   6.931   3.243   4.053
 6306SOL    HW119817   6.863   3.264   3.983
 6306SOL    HW219818   6.958   3.327   4.101
 6307SOL     OW19819   3.397   4.896   5.532
 6307SOL    HW119820   3.358   4.868   5.444
 6307SOL    HW219821   3.326   4.893   5.602
 6308SOL     OW19822   2.196   1.604   5.493
 6308SOL    HW119823   2.172   1.510   5.468
 6308SOL    HW219824   2.158   1.667   5.426
 6309SOL     OW19825   4.958   3.014   3.767
 6309SOL    HW119826   4.949   3.113   3.768
 6309SOL    HW219827   4.872   2.973   3.736
 6310SOL     OW19828   2.024   4.769   4.097
 6310SOL    HW119829   2.048   4.672   4.100
 6310SOL    HW219830   2.030   4.807   4.189
 6311SOL     OW19831   6.443   0.318   4.949
 6311SOL    HW119832   6.351   0.303   4.910
 6311SOL    HW219833   6.474   0.410   4.925
 6312SOL     OW19834   4.244   5.236   6.299
 6312SOL    HW119835   4.183   5.288   6.359
 6312SOL    HW219836   4.201   5.148   6.277
 6313SOL     OW19837   1.902   5.812   3.343
 6313SOL    HW119838   1.956   5.891   3.316
 6313SOL    HW219839   1.892   5.811   3.442
 6314SOL     OW19840   3.547   6.045   2.155
 6314SOL    HW119841   3.610   6.017   2.228
 6314SOL    HW219842   3.483   6.114   2.191
 6315SOL     OW19843   4.173   2.973   6.951
 6315SOL    HW119844   4.253   2.957   7.008
 6315SOL    HW219845   4.186   3.057   6.898
 6316SOL     OW19846   4.869   2.260   6.089
 6316SOL    HW119847   4.824   2.349   6.082
 6316SOL    HW219848   4.830   2.209   6.165
 6317SOL     OW19849   5.148   6.802   2.778
 6317SOL    HW119850   5.163   6.746   2.860
 6317SOL    HW219851   5.051   6.801   2.754
 6318SOL     OW19852   2.699   1.904   5.564
 6318SOL    HW119853   2.698   1.898   5.464
 6318SOL    HW219854   2.646   1.984   5.593
 6319SOL     OW19855   0.429   3.293   3.398
 6319SOL    HW119856   0.436   3.238   3.314
 6319SOL    HW219857   0.414   3.389   3.374
 6320SOL     OW19858   5.916   4.208   3.243
 6320SOL    HW119859   5.853   4.158   3.183
 6320SOL    HW219860   5.875   4.219   3.333
 6321SOL     OW19861   2.732   5.714   0.826
 6321SOL    HW119862   2.822   5.748   0.798
 6321SOL    HW219863   2.714   5.740   0.921
 6322SOL     OW19864   1.703   1.810   6.117
 6322SOL    HW119865   1.681   1.713   6.110
 6322SOL    HW219866   1.709   1.850   6.026
 6323SOL     OW19867   3.388   2.194   1.755
 6323SOL    HW119868   3.460   2.251   1.794
 6323SOL    HW219869   3.299   2.227   1.786
 6324SOL     OW19870   4.649   0.686   5.768
 6324SOL    HW119871   4.616   0.780   5.782
 6324SOL    HW219872   4.647   0.665   5.671
 6325SOL     OW19873   1.231   3.158   1.955
 6325SOL    HW119874   1.310   3.219   1.948
 6325SOL    HW219875   1.209   3.143   2.052
 6326SOL     OW19876   5.424   5.976   0.608
 6326SOL    HW119877   5.374   5.897   0.571
 6326SOL    HW219878   5.482   5.945   0.684
 6327SOL     OW19879   6.503   6.207   5.164
 6327SOL    HW119880   6.509   6.257   5.250
 6327SOL    HW219881   6.409   6.212   5.129
 6328SOL     OW19882   2.160   4.700   6.975
 6328SOL    HW119883   2.229   4.772   6.991
 6328SOL    HW219884   2.088   4.737   6.917
 6329SOL     OW19885   0.937   1.470   3.734
 6329SOL    HW119886   0.866   1.399   3.734
 6329SOL    HW219887   0.996   1.458   3.654
 6330SOL     OW19888   4.615   0.958   0.716
 6330SOL    HW119889   4.609   1.045   0.668
 6330SOL    HW219890   4.634   0.885   0.650
 6331SOL     OW19891   6.492   2.464   0.616
 6331SOL    HW119892   6.508   2.544   0.674
 6331SOL    HW219893   6.494   2.492   0.520
 6332SOL     OW19894   6.176   5.697   1.225
 6332SOL    HW119895   6.188   5.795   1.241
 6332SOL    HW219896   6.164   5.650   1.313
 6333SOL     OW19897   3.486   5.909   3.549
 6333SOL    HW119898   3.458   5.825   3.595
 6333SOL    HW219899   3.419   5.933   3.479
 6334SOL     OW19900   2.433   0.502   2.845
 6334SOL    HW119901   2.508   0.522   2.909
 6334SOL    HW219902   2.351   0.549   2.876
 6335SOL     OW19903   5.674   1.212   0.330
 6335SOL    HW119904   5.724   1.178   0.410
 6335SOL    HW219905   5.667   1.311   0.336
 6336SOL     OW19906   6.961   2.429   4.855
 6336SOL    HW119907   7.026   2.504   4.852
 6336SOL    HW219908   6.923   2.422   4.947
 6337SOL     OW19909   5.316   2.934   6.018
 6337SOL    HW119910   5.228   2.934   5.970
 6337SOL    HW219911   5.308   2.983   6.104
 6338SOL     OW19912   2.582   1.805   2.200
 6338SOL    HW119913   2.603   1.729   2.138
 6338SOL    HW219914   2.654   1.873   2.196
 6339SOL     OW19915   0.376   2.512   3.472
 6339SOL    HW119916   0.288   2.470   3.493
 6339SOL    HW219917   0.388   2.517   3.373
 6340SOL     OW19918   2.579   5.503   3.314
 6340SOL    HW119919   2.598   5.548   3.402
 6340SOL    HW219920   2.637   5.423   3.304
 6341SOL     OW19921   0.011   4.842   3.449
 6341SOL    HW119922   0.067   4.911   3.496
 6341SOL    HW219923   0.041   4.834   3.354
 6342SOL     OW19924   2.321   2.498   2.330
 6342SOL    HW119925   2.285   2.546   2.410
 6342SOL    HW219926   2.371   2.417   2.360
 6343SOL     OW19927   4.414   3.193   6.975
 6343SOL    HW119928   4.495   3.217   6.921
 6343SOL    HW219929   4.443   3.158   0.038
 6344SOL     OW19930   6.527   3.353   5.127
 6344SOL    HW119931   6.499   3.259   5.108
 6344SOL    HW219932   6.575   3.390   5.047
 6345SOL     OW19933   4.123   1.379   2.911
 6345SOL    HW119934   4.127   1.478   2.924
 6345SOL    HW219935   4.143   1.356   2.816
 6346SOL     OW19936   6.188   3.120   3.390
 6346SOL    HW119937   6.143   3.035   3.416
 6346SOL    HW219938   6.176   3.188   3.462
 6347SOL     OW19939   2.974   0.470   1.566
 6347SOL    HW119940   2.967   0.555   1.618
 6347SOL    HW219941   3.060   0.424   1.588
 6348SOL     OW19942   0.695   3.781   5.024
 6348SOL    HW119943   0.765   3.839   4.983
 6348SOL    HW219944   0.712   3.685   5.001
 6349SOL     OW19945   3.127   0.879   1.580
 6349SOL    HW119946   3.206   0.854   1.636
 6349SOL    HW219947   3.119   0.979   1.576
 6350SOL     OW19948   1.628   5.363   3.342
 6350SOL    HW119949   1.588   5.369   3.251
 6350SOL    HW219950   1.591   5.283   3.390
 6351SOL     OW19951   6.268   2.720   2.605
 6351SOL    HW119952   6.229   2.631   2.629
 6351SOL    HW219953   6.195   2.782   2.575
 6352SOL     OW19954   1.187   5.495   3.193
 6352SOL    HW119955   1.251   5.558   3.238
 6352SOL    HW219956   1.239   5.421   3.150
 6353SOL     OW19957   6.702   0.714   6.446
 6353SOL    HW119958   6.800   0.712   6.465
 6353SOL    HW219959   6.666   0.805   6.467
 6354SOL     OW19960   1.293   6.903   2.285
 6354SOL    HW119961   1.270   6.927   2.379
 6354SOL    HW219962   1.270   6.808   2.267
 6355SOL     OW19963   0.892   3.858   4.844
 6355SOL    HW119964   0.922   3.768   4.812
 6355SOL    HW219965   0.861   3.913   4.766
 6356SOL     OW19966   4.818   4.503   1.515
 6356SOL    HW119967   4.791   4.409   1.535
 6356SOL    HW219968   4.825   4.516   1.417
 6357SOL     OW19969   4.335   2.787   0.424
 6357SOL    HW119970   4.294   2.795   0.333
 6357SOL    HW219971   4.275   2.829   0.492
 6358SOL     OW19972   6.882   2.243   4.435
 6358SOL    HW119973   6.835   2.176   4.493
 6358SOL    HW219974   6.980   2.239   4.452
 6359SOL     OW19975   0.154   0.419   5.414
 6359SOL    HW119976   0.140   0.514   5.386
 6359SOL    HW219977   0.067   0.378   5.442
 6360SOL     OW19978   2.479   4.363   3.556
 6360SOL    HW119979   2.479   4.463   3.556
 6360SOL    HW219980   2.425   4.330   3.479
 6361SOL     OW19981   4.982   5.537   6.334
 6361SOL    HW119982   5.027   5.515   6.247
 6361SOL    HW219983   5.047   5.529   6.409
 6362SOL     OW19984   6.464   4.546   6.790
 6362SOL    HW119985   6.418   4.618   6.738
 6362SOL    HW219986   6.431   4.546   6.884
 6363SOL     OW19987   2.423   6.144   4.038
 6363SOL    HW119988   2.478   6.146   4.122
 6363SOL    HW219989   2.358   6.219   4.039
 6364SOL     OW19990   2.831   2.289   5.697
 6364SOL    HW119991   2.858   2.379   5.733
 6364SOL    HW219992   2.908   2.249   5.648
 6365SOL     OW19993   4.712   6.992   3.912
 6365SOL    HW119994   4.727   0.019   3.995
 6365SOL    HW219995   4.790   6.931   3.897
 6366SOL     OW19996   1.041   5.340   5.259
 6366SOL    HW119997   1.121   5.324   5.317
 6366SOL    HW219998   0.962   5.293   5.296
 6367SOL     OW19999   5.046   0.340   3.438
 6367SOL    HW120000   4.953   0.329   3.473
 6367SOL    HW220001   5.054   0.429   3.392
 6368SOL     OW20002   2.613   6.920   4.018
 6368SOL    HW120003   2.703   6.898   4.057
 6368SOL    HW220004   2.585   7.011   4.048
 6369SOL     OW20005   2.690   5.088   4.241
 6369SOL    HW120006   2.751   5.077   4.319
 6369SOL    HW220007   2.683   5.185   4.218
 6370SOL     OW20008   0.725   2.300   2.031
 6370SOL    HW120009   0.685   2.315   2.122
 6370SOL    HW220010   0.665   2.240   1.978
 6371SOL     OW20011   4.859   3.051   3.107
 6371SOL    HW120012   4.843   2.957   3.079
 6371SOL    HW220013   4.852   3.111   3.027
 6372SOL     OW20014   3.474   6.228   1.614
 6372SOL    HW120015   3.376   6.243   1.602
 6372SOL    HW220016   3.492   6.192   1.706
 6373SOL     OW20017   5.813   4.511   4.989
 6373SOL    HW120018   5.763   4.592   4.958
 6373SOL    HW220019   5.752   4.454   5.045
 6374SOL     OW20020   3.037   3.283   3.388
 6374SOL    HW120021   3.062   3.187   3.373
 6374SOL    HW220022   3.114   3.342   3.361
 6375SOL     OW20023   0.941   0.919   3.114
 6375SOL    HW120024   1.008   0.961   3.054
 6375SOL    HW220025   0.983   0.843   3.164
 6376SOL     OW20026   0.446   1.550   4.915
 6376SOL    HW120027   0.395   1.601   4.984
 6376SOL    HW220028   0.494   1.614   4.855
 6377SOL     OW20029   6.967   0.939   5.537
 6377SOL    HW120030   6.925   0.874   5.474
 6377SOL    HW220031   6.948   1.032   5.506
 6378SOL     OW20032   5.033   4.208   3.166
 6378SOL    HW120033   5.023   4.112   3.138
 6378SOL    HW220034   5.067   4.262   3.089
 6379SOL     OW20035   1.844   5.256   4.132
 6379SOL    HW120036   1.845   5.202   4.215
 6379SOL    HW220037   1.938   5.269   4.099
 6380SOL     OW20038   0.774   1.056   5.487
 6380SOL    HW120039   0.726   1.143   5.473
 6380SOL    HW220040   0.863   1.060   5.442
 6381SOL     OW20041   3.010   3.472   2.380
 6381SOL    HW120042   3.072   3.483   2.303
 6381SOL    HW220043   2.978   3.378   2.385
 6382SOL     OW20044   1.342   2.588   6.302
 6382SOL    HW120045   1.361   2.491   6.292
 6382SOL    HW220046   1.404   2.641   6.244
 6383SOL     OW20047   2.015   2.371   3.970
 6383SOL    HW120048   2.068   2.321   3.902
 6383SOL    HW220049   2.075   2.436   4.017
 6384SOL     OW20050   6.202   4.744   1.971
 6384SOL    HW120051   6.130   4.721   2.036
 6384SOL    HW220052   6.291   4.716   2.007
 6385SOL     OW20053   6.182   5.109   3.932
 6385SOL    HW120054   6.088   5.076   3.929
 6385SOL    HW220055   6.235   5.057   3.999
 6386SOL     OW20056   2.733   4.780   1.429
 6386SOL    HW120057   2.809   4.727   1.465
 6386SOL    HW220058   2.767   4.846   1.361
 6387SOL     OW20059   0.655   1.997   5.989
 6387SOL    HW120060   0.570   2.047   6.007
 6387SOL    HW220061   0.691   2.023   5.900
 6388SOL     OW20062   3.762   4.861   1.177
 6388SOL    HW120063   3.759   4.761   1.180
 6388SOL    HW220064   3.695   4.899   1.241
 6389SOL     OW20065   0.739   6.046   2.353
 6389SOL    HW120066   0.657   6.094   2.321
 6389SOL    HW220067   0.711   5.963   2.401
 6390SOL     OW20068   7.025   2.231   3.030
 6390SOL    HW120069   0.005   2.156   2.964
 6390SOL    HW220070   0.019   2.317   2.985
 6391SOL     OW20071   3.555   1.491   0.299
 6391SOL    HW120072   3.628   1.557   0.318
 6391SOL    HW220073   3.583   1.400   0.330
 6392SOL     OW20074   2.170   6.607   3.863
 6392SOL    HW120075   2.267   6.630   3.859
 6392SOL    HW220076   2.119   6.685   3.899
 6393SOL     OW20077   5.582   6.720   1.761
 6393SOL    HW120078   5.613   6.811   1.789
 6393SOL    HW220079   5.536   6.674   1.837
 6394SOL     OW20080   2.182   4.840   1.034
 6394SOL    HW120081   2.182   4.864   0.937
 6394SOL    HW220082   2.265   4.790   1.056
 6395SOL     OW20083   6.453   1.512   1.239
 6395SOL    HW120084   6.415   1.587   1.293
 6395SOL    HW220085   6.450   1.534   1.142
 6396SOL     OW20086   5.381   2.671   6.267
 6396SOL    HW120087   5.456   2.690   6.204
 6396SOL    HW220088   5.294   2.680   6.219
 6397SOL     OW20089   6.949   1.975   6.672
 6397SOL    HW120090   0.009   1.930   6.695
 6397SOL    HW220091   6.937   2.056   6.729
 6398SOL     OW20092   3.375   0.744   1.700
 6398SOL    HW120093   3.419   0.827   1.665
 6398SOL    HW220094   3.420   0.716   1.784
 6399SOL     OW20095   1.849   5.860   6.761
 6399SOL    HW120096   1.937   5.844   6.717
 6399SOL    HW220097   1.804   5.773   6.780
 6400SOL     OW20098   2.332   5.432   3.317
 6400SOL    HW120099   2.428   5.459   3.327
 6400SOL    HW220100   2.325   5.360   3.247
 6401SOL     OW20101   0.419   4.848   3.737
 6401SOL    HW120102   0.348   4.916   3.752
 6401SOL    HW220103   0.436   4.838   3.639
 6402SOL     OW20104   2.539   0.868   2.950
 6402SOL    HW120105   2.547   0.933   3.026
 6402SOL    HW220106   2.576   0.909   2.867
 6403SOL     OW20107   0.913   5.194   0.013
 6403SOL    HW120108   0.961   5.238   6.963
 6403SOL    HW220109   0.979   5.142   0.068
 6404SOL     OW20110   4.227   1.795   3.371
 6404SOL    HW120111   4.224   1.811   3.469
 6404SOL    HW220112   4.200   1.878   3.323
 6405SOL     OW20113   1.865   2.058   2.671
 6405SOL    HW120114   1.916   2.135   2.711
 6405SOL    HW220115   1.928   2.000   2.620
 6406SOL     OW20116   1.689   1.211   3.370
 6406SOL    HW120117   1.702   1.126   3.422
 6406SOL    HW220118   1.672   1.286   3.433
 6407SOL     OW20119   2.989   6.910   4.681
 6407SOL    HW120120   2.998   6.930   4.583
 6407SOL    HW220121   2.940   6.985   4.725
 6408SOL     OW20122   5.981   2.278   6.789
 6408SOL    HW120123   5.943   2.327   6.868
 6408SOL    HW220124   5.978   2.180   6.806
 6409SOL     OW20125   6.193   3.835   2.754
 6409SOL    HW120126   6.133   3.872   2.825
 6409SOL    HW220127   6.265   3.780   2.796
 6410SOL     OW20128   2.083   2.101   0.512
 6410SOL    HW120129   2.027   2.028   0.549
 6410SOL    HW220130   2.071   2.105   0.413
 6411SOL     OW20131   0.900   2.101   3.166
 6411SOL    HW120132   0.904   2.047   3.250
 6411SOL    HW220133   0.810   2.143   3.157
 6412SOL     OW20134   6.744   3.248   5.299
 6412SOL    HW120135   6.660   3.283   5.259
 6412SOL    HW220136   6.819   3.259   5.234
 6413SOL     OW20137   5.803   5.149   2.001
 6413SOL    HW120138   5.851   5.061   1.999
 6413SOL    HW220139   5.708   5.134   2.030
 6414SOL     OW20140   5.828   1.312   1.848
 6414SOL    HW120141   5.877   1.392   1.814
 6414SOL    HW220142   5.776   1.270   1.774
 6415SOL     OW20143   2.504   2.291   2.364
 6415SOL    HW120144   2.505   2.199   2.404
 6415SOL    HW220145   2.548   2.289   2.275
 6416SOL     OW20146   0.893   0.196   6.619
 6416SOL    HW120147   0.887   0.229   6.713
 6416SOL    HW220148   0.811   0.222   6.568
 6417SOL     OW20149   0.614   6.651   3.439
 6417SOL    HW120150   0.583   6.638   3.344
 6417SOL    HW220151   0.672   6.573   3.465
 6418SOL     OW20152   6.178   5.088   2.406
 6418SOL    HW120153   6.237   5.041   2.472
 6418SOL    HW220154   6.143   5.172   2.447
 6419SOL     OW20155   3.091   5.497   1.733
 6419SOL    HW120156   3.112   5.531   1.825
 6419SOL    HW220157   3.084   5.398   1.735
 6420SOL     OW20158   3.116   3.162   6.149
 6420SOL    HW120159   3.202   3.114   6.169
 6420SOL    HW220160   3.044   3.126   6.208
 6421SOL     OW20161   6.201   1.267   1.327
 6421SOL    HW120162   6.140   1.297   1.401
 6421SOL    HW220163   6.164   1.299   1.239
 6422SOL     OW20164   6.665   0.764   3.512
 6422SOL    HW120165   6.611   0.693   3.557
 6422SOL    HW220166   6.615   0.851   3.516
 6423SOL     OW20167   4.961   3.816   1.363
 6423SOL    HW120168   4.881   3.757   1.372
 6423SOL    HW220169   5.037   3.764   1.322
 6424SOL     OW20170   6.609   4.303   5.968
 6424SOL    HW120171   6.705   4.297   5.996
 6424SOL    HW220172   6.604   4.321   5.870
 6425SOL     OW20173   6.850   4.693   3.238
 6425SOL    HW120174   6.870   4.599   3.213
 6425SOL    HW220175   6.934   4.740   3.265
 6426SOL     OW20176   1.122   2.815   4.459
 6426SOL    HW120177   1.111   2.914   4.456
 6426SOL    HW220178   1.160   2.783   4.372
 6427SOL     OW20179   1.500   3.887   6.707
 6427SOL    HW120180   1.425   3.953   6.715
 6427SOL    HW220181   1.551   3.883   6.793
 6428SOL     OW20182   6.719   3.375   2.220
 6428SOL    HW120183   6.643   3.440   2.225
 6428SOL    HW220184   6.775   3.396   2.140
 6429SOL     OW20185   1.959   0.523   4.805
 6429SOL    HW120186   1.970   0.508   4.707
 6429SOL    HW220187   1.884   0.466   4.840
 6430SOL     OW20188   4.965   0.740   1.939
 6430SOL    HW120189   4.910   0.713   2.018
 6430SOL    HW220190   5.046   0.682   1.932
 6431SOL     OW20191   5.470   0.172   3.202
 6431SOL    HW120192   5.399   0.183   3.272
 6431SOL    HW220193   5.433   0.123   3.123
 6432SOL     OW20194   4.218   4.060   0.133
 6432SOL    HW120195   4.188   4.152   0.105
 6432SOL    HW220196   4.141   3.997   0.129
 6433SOL     OW20197   3.107   4.717   1.257
 6433SOL    HW120198   3.032   4.778   1.231
 6433SOL    HW220199   3.195   4.764   1.245
 6434SOL     OW20200   1.127   3.843   1.004
 6434SOL    HW120201   1.139   3.899   0.922
 6434SOL    HW220202   1.185   3.762   0.998
 6435SOL     OW20203   3.271   5.048   0.380
 6435SOL    HW120204   3.283   5.146   0.361
 6435SOL    HW220205   3.190   5.015   0.330
 6436SOL     OW20206   1.895   3.115   3.384
 6436SOL    HW120207   1.888   3.066   3.471
 6436SOL    HW220208   1.807   3.110   3.336
 6437SOL     OW20209   1.759   1.114   0.115
 6437SOL    HW120210   1.671   1.092   0.158
 6437SOL    HW220211   1.829   1.051   0.149
 6438SOL     OW20212   0.626   4.279   5.230
 6438SOL    HW120213   0.555   4.242   5.289
 6438SOL    HW220214   0.618   4.240   5.138
 6439SOL     OW20215   0.993   6.759   0.574
 6439SOL    HW120216   1.046   6.679   0.603
 6439SOL    HW220217   0.911   6.768   0.630
 6440SOL     OW20218   2.257   2.041   1.570
 6440SOL    HW120219   2.290   2.027   1.477
 6440SOL    HW220220   2.162   2.011   1.577
 6441SOL     OW20221   1.680   0.588   2.363
 6441SOL    HW120222   1.735   0.509   2.337
 6441SOL    HW220223   1.705   0.617   2.455
 6442SOL     OW20224   2.479   1.679   4.816
 6442SOL    HW120225   2.426   1.731   4.883
 6442SOL    HW220226   2.504   1.740   4.740
 6443SOL     OW20227   2.958   2.857   0.307
 6443SOL    HW120228   2.985   2.949   0.337
 6443SOL    HW220229   2.994   2.789   0.371
 6444SOL     OW20230   0.472   2.351   2.856
 6444SOL    HW120231   0.452   2.357   2.954
 6444SOL    HW220232   0.486   2.442   2.819
 6445SOL     OW20233   4.358   2.440   5.338
 6445SOL    HW120234   4.282   2.481   5.286
 6445SOL    HW220235   4.333   2.346   5.364
 6446SOL     OW20236   0.545   1.349   6.284
 6446SOL    HW120237   0.475   1.313   6.222
 6446SOL    HW220238   0.501   1.388   6.365
 6447SOL     OW20239   1.243   5.820   2.245
 6447SOL    HW120240   1.258   5.811   2.343
 6447SOL    HW220241   1.322   5.784   2.195
 6448SOL     OW20242   6.164   3.773   2.054
 6448SOL    HW120243   6.106   3.790   2.134
 6448SOL    HW220244   6.206   3.858   2.024
 6449SOL     OW20245   3.603   3.963   2.018
 6449SOL    HW120246   3.569   3.944   1.926
 6449SOL    HW220247   3.701   3.984   2.014
 6450SOL     OW20248   6.480   3.142   1.721
 6450SOL    HW120249   6.519   3.168   1.809
 6450SOL    HW220250   6.476   3.042   1.715
 6451SOL     OW20251   3.507   6.152   5.480
 6451SOL    HW120252   3.537   6.081   5.418
 6451SOL    HW220253   3.578   6.169   5.548
 6452SOL     OW20254   3.647   0.308   5.105
 6452SOL    HW120255   3.674   0.246   5.032
 6452SOL    HW220256   3.618   0.255   5.185
 6453SOL     OW20257   0.943   6.313   6.973
 6453SOL    HW120258   0.855   6.283   7.010
 6453SOL    HW220259   1.005   6.336   0.022
 6454SOL     OW20260   2.539   1.371   4.155
 6454SOL    HW120261   2.556   1.462   4.118
 6454SOL    HW220262   2.530   1.376   4.254
 6455SOL     OW20263   0.967   2.651   4.647
 6455SOL    HW120264   0.887   2.611   4.601
 6455SOL    HW220265   1.022   2.700   4.580
 6456SOL     OW20266   1.396   0.180   3.255
 6456SOL    HW120267   1.447   0.201   3.338
 6456SOL    HW220268   1.345   0.095   3.268
 6457SOL     OW20269   5.469   1.948   1.583
 6457SOL    HW120270   5.457   1.849   1.578
 6457SOL    HW220271   5.435   1.990   1.499
 6458SOL     OW20272   1.494   6.165   2.672
 6458SOL    HW120273   1.542   6.077   2.673
 6458SOL    HW220274   1.406   6.154   2.719
 6459SOL     OW20275   5.619   5.663   0.281
 6459SOL    HW120276   5.607   5.601   0.358
 6459SOL    HW220277   5.575   5.750   0.301
 6460SOL     OW20278   4.514   4.671   0.092
 6460SOL    HW120279   4.474   4.699   0.179
 6460SOL    HW220280   4.592   4.730   0.070
 6461SOL     OW20281   3.063   5.743   5.792
 6461SOL    HW120282   3.001   5.690   5.850
 6461SOL    HW220283   3.015   5.821   5.753
 6462SOL     OW20284   2.211   3.163   5.193
 6462SOL    HW120285   2.297   3.111   5.200
 6462SOL    HW220286   2.192   3.184   5.098
 6463SOL     OW20287   2.518   5.103   6.434
 6463SOL    HW120288   2.532   5.036   6.506
 6463SOL    HW220289   2.552   5.192   6.463
 6464SOL     OW20290   0.690   4.899   3.766
 6464SOL    HW120291   0.606   4.910   3.713
 6464SOL    HW220292   0.688   4.811   3.813
 6465SOL     OW20293   5.863   2.030   4.102
 6465SOL    HW120294   5.779   2.022   4.155
 6465SOL    HW220295   5.942   2.023   4.164
 6466SOL     OW20296   6.730   2.651   4.864
 6466SOL    HW120297   6.771   2.672   4.952
 6466SOL    HW220298   6.789   2.588   4.813
 6467SOL     OW20299   2.336   0.970   6.264
 6467SOL    HW120300   2.273   1.044   6.285
 6467SOL    HW220301   2.317   0.892   6.323
 6468SOL     OW20302   4.243   6.406   2.067
 6468SOL    HW120303   4.149   6.416   2.101
 6468SOL    HW220304   4.244   6.420   1.968
 6469SOL     OW20305   6.415   1.319   5.352
 6469SOL    HW120306   6.510   1.318   5.384
 6469SOL    HW220307   6.367   1.397   5.393
 6470SOL     OW20308   7.008   6.265   5.708
 6470SOL    HW120309   6.940   6.215   5.761
 6470SOL    HW220310   6.969   6.293   5.620
 6471SOL     OW20311   6.799   5.491   6.330
 6471SOL    HW120312   6.879   5.540   6.365
 6471SOL    HW220313   6.720   5.513   6.386
 6472SOL     OW20314   0.980   6.175   1.238
 6472SOL    HW120315   1.029   6.211   1.159
 6472SOL    HW220316   0.963   6.077   1.225
 6473SOL     OW20317   2.002   0.922   6.015
 6473SOL    HW120318   1.964   0.952   6.103
 6473SOL    HW220319   2.070   0.989   5.983
 6474SOL     OW20320   1.715   4.040   6.280
 6474SOL    HW120321   1.801   4.008   6.320
 6474SOL    HW220322   1.656   4.076   6.352
 6475SOL     OW20323   5.629   5.762   4.072
 6475SOL    HW120324   5.702   5.808   4.021
 6475SOL    HW220325   5.609   5.814   4.155
 6476SOL     OW20326   4.379   4.638   2.913
 6476SOL    HW120327   4.382   4.622   2.814
 6476SOL    HW220328   4.470   4.665   2.945
 6477SOL     OW20329   6.637   5.178   6.616
 6477SOL    HW120330   6.541   5.207   6.615
 6477SOL    HW220331   6.681   5.212   6.699
 6478SOL     OW20332   3.716   5.934   1.844
 6478SOL    HW120333   3.744   5.853   1.792
 6478SOL    HW220334   3.675   5.904   1.931
 6479SOL     OW20335   4.077   5.101   2.068
 6479SOL    HW120336   4.141   5.030   2.099
 6479SOL    HW220337   4.005   5.112   2.136
 6480SOL     OW20338   3.971   2.928   5.852
 6480SOL    HW120339   4.028   3.009   5.867
 6480SOL    HW220340   3.878   2.956   5.830
 6481SOL     OW20341   3.620   2.002   0.980
 6481SOL    HW120342   3.650   2.084   0.930
 6481SOL    HW220343   3.534   2.022   1.027
 6482SOL     OW20344   6.481   0.977   0.001
 6482SOL    HW120345   6.522   0.886   7.021
 6482SOL    HW220346   6.455   1.009   6.937
 6483SOL     OW20347   2.404   6.212   2.228
 6483SOL    HW120348   2.404   6.112   2.222
 6483SOL    HW220349   2.434   6.252   2.142
 6484SOL     OW20350   4.477   0.137   2.456
 6484SOL    HW120351   4.514   0.148   2.364
 6484SOL    HW220352   4.546   0.164   2.523
 6485SOL     OW20353   1.548   3.102   3.643
 6485SOL    HW120354   1.600   3.018   3.661
 6485SOL    HW220355   1.474   3.111   3.710
 6486SOL     OW20356   0.801   4.342   4.249
 6486SOL    HW120357   0.845   4.290   4.322
 6486SOL    HW220358   0.865   4.411   4.214
 6487SOL     OW20359   7.012   5.876   4.439
 6487SOL    HW120360   6.912   5.884   4.450
 6487SOL    HW220361   0.010   5.895   4.344
 6488SOL     OW20362   3.454   6.403   5.714
 6488SOL    HW120363   3.487   6.324   5.766
 6488SOL    HW220364   3.532   6.461   5.690
 6489SOL     OW20365   1.776   2.793   6.812
 6489SOL    HW120366   1.764   2.790   6.713
 6489SOL    HW220367   1.727   2.716   6.854
 6490SOL     OW20368   3.955   2.432   0.411
 6490SOL    HW120369   4.049   2.399   0.423
 6490SOL    HW220370   3.953   2.532   0.424
 6491SOL     OW20371   4.463   0.988   6.540
 6491SOL    HW120372   4.397   0.946   6.479
 6491SOL    HW220373   4.544   0.930   6.547
 6492SOL     OW20374   5.963   6.735   0.084
 6492SOL    HW120375   5.886   6.715   0.145
 6492SOL    HW220376   5.993   6.829   0.099
 6493SOL     OW20377   2.078   6.268   5.652
 6493SOL    HW120378   1.993   6.262   5.599
 6493SOL    HW220379   2.122   6.178   5.653
 6494SOL     OW20380   0.554   0.221   3.625
 6494SOL    HW120381   0.531   0.208   3.529
 6494SOL    HW220382   0.517   0.146   3.679
 6495SOL     OW20383   5.023   6.123   3.334
 6495SOL    HW120384   5.120   6.101   3.323
 6495SOL    HW220385   5.013   6.205   3.390
 6496SOL     OW20386   6.939   6.430   1.941
 6496SOL    HW120387   6.875   6.383   2.001
 6496SOL    HW220388   0.005   6.395   1.957
 6497SOL     OW20389   2.326   3.609   1.010
 6497SOL    HW120390   2.277   3.537   1.060
 6497SOL    HW220391   2.282   3.624   0.922
 6498SOL     OW20392   2.163   4.776   3.715
 6498SOL    HW120393   2.176   4.835   3.795
 6498SOL    HW220394   2.234   4.795   3.647
 6499SOL     OW20395   5.247   0.624   5.316
 6499SOL    HW120396   5.294   0.597   5.232
 6499SOL    HW220397   5.309   0.612   5.394
 6500SOL     OW20398   6.526   4.085   3.542
 6500SOL    HW120399   6.430   4.111   3.549
 6500SOL    HW220400   6.550   4.074   3.445
 6501SOL     OW20401   6.740   3.601   1.296
 6501SOL    HW120402   6.674   3.578   1.368
 6501SOL    HW220403   6.697   3.664   1.231
 6502SOL     OW20404   0.520   4.464   3.704
 6502SOL    HW120405   0.468   4.504   3.780
 6502SOL    HW220406   0.467   4.389   3.664
 6503SOL     OW20407   5.697   6.619   3.481
 6503SOL    HW120408   5.675   6.654   3.390
 6503SOL    HW220409   5.755   6.538   3.473
 6504SOL     OW20410   4.344   0.036   6.531
 6504SOL    HW120411   4.330   7.006   6.613
 6504SOL    HW220412   4.315   7.012   6.450
 6505SOL     OW20413   6.194   4.474   0.718
 6505SOL    HW120414   6.236   4.394   0.762
 6505SOL    HW220415   6.105   4.492   0.759
 6506SOL     OW20416   0.958   2.919   0.996
 6506SOL    HW120417   0.879   2.962   1.040
 6506SOL    HW220418   0.944   2.916   0.897
 6507SOL     OW20419   1.251   6.016   0.939
 6507SOL    HW120420   1.156   6.005   0.910
 6507SOL    HW220421   1.276   6.113   0.934
 6508SOL     OW20422   1.942   2.084   3.933
 6508SOL    HW120423   1.902   1.993   3.943
 6508SOL    HW220424   1.937   2.132   4.021
 6509SOL     OW20425   1.121   2.541   4.873
 6509SOL    HW120426   1.218   2.557   4.857
 6509SOL    HW220427   1.067   2.607   4.820
 6510SOL     OW20428   0.057   5.440   6.374
 6510SOL    HW120429   0.113   5.400   6.446
 6510SOL    HW220430   7.004   5.382   6.357
 6511SOL     OW20431   6.222   0.475   5.160
 6511SOL    HW120432   6.299   0.525   5.120
 6511SOL    HW220433   6.257   0.408   5.225
 6512SOL     OW20434   4.448   6.813   3.047
 6512SOL    HW120435   4.355   6.793   3.077
 6512SOL    HW220436   4.495   6.728   3.023
 6513SOL     OW20437   3.363   6.745   4.394
 6513SOL    HW120438   3.361   6.795   4.481
 6513SOL    HW220439   3.326   6.803   4.322
 6514SOL     OW20440   5.148   6.797   4.066
 6514SOL    HW120441   5.138   6.876   4.126
 6514SOL    HW220442   5.231   6.807   4.010
 6515SOL     OW20443   6.729   5.159   3.813
 6515SOL    HW120444   6.742   5.250   3.773
 6515SOL    HW220445   6.659   5.110   3.761
 6516SOL     OW20446   0.691   1.657   6.668
 6516SOL    HW120447   0.594   1.638   6.648
 6516SOL    HW220448   0.733   1.700   6.588
 6517SOL     OW20449   0.220   1.699   0.582
 6517SOL    HW120450   0.133   1.705   0.631
 6517SOL    HW220451   0.228   1.776   0.519
 6518SOL     OW20452   0.854   6.280   0.437
 6518SOL    HW120453   0.936   6.272   0.494
 6518SOL    HW220454   0.779   6.227   0.477
 6519SOL     OW20455   2.312   1.303   4.555
 6519SOL    HW120456   2.401   1.313   4.599
 6519SOL    HW220457   2.261   1.388   4.563
 6520SOL     OW20458   6.587   5.551   2.424
 6520SOL    HW120459   6.496   5.515   2.407
 6520SOL    HW220460   6.594   5.581   2.519
 6521SOL     OW20461   1.300   1.463   4.323
 6521SOL    HW120462   1.383   1.483   4.272
 6521SOL    HW220463   1.292   1.365   4.337
 6522SOL     OW20464   2.155   5.388   6.827
 6522SOL    HW120465   2.219   5.400   6.903
 6522SOL    HW220466   2.199   5.415   6.741
 6523SOL     OW20467   2.863   1.313   6.152
 6523SOL    HW120468   2.875   1.239   6.219
 6523SOL    HW220469   2.885   1.400   6.195
 6524SOL     OW20470   3.826   3.747   3.527
 6524SOL    HW120471   3.874   3.831   3.505
 6524SOL    HW220472   3.805   3.745   3.624
 6525SOL     OW20473   1.150   2.633   2.704
 6525SOL    HW120474   1.132   2.649   2.607
 6525SOL    HW220475   1.205   2.550   2.714
 6526SOL     OW20476   0.909   6.493   4.928
 6526SOL    HW120477   0.968   6.574   4.934
 6526SOL    HW220478   0.817   6.516   4.958
 6527SOL     OW20479   1.726   0.684   5.134
 6527SOL    HW120480   1.669   0.765   5.147
 6527SOL    HW220481   1.731   0.632   5.219
 6528SOL     OW20482   0.098   0.709   4.314
 6528SOL    HW120483   0.038   0.790   4.314
 6528SOL    HW220484   0.176   0.726   4.253
 6529SOL     OW20485   5.568   1.856   2.794
 6529SOL    HW120486   5.617   1.780   2.751
 6529SOL    HW220487   5.629   1.904   2.858
 6530SOL     OW20488   6.464   2.489   0.338
 6530SOL    HW120489   6.370   2.458   0.351
 6530SOL    HW220490   6.495   2.465   0.246
 6531SOL     OW20491   5.847   2.232   3.937
 6531SOL    HW120492   5.885   2.308   3.990
 6531SOL    HW220493   5.847   2.149   3.993
 6532SOL     OW20494   6.424   1.999   6.536
 6532SOL    HW120495   6.493   2.064   6.568
 6532SOL    HW220496   6.367   1.970   6.614
 6533SOL     OW20497   5.700   6.051   1.214
 6533SOL    HW120498   5.751   6.035   1.130
 6533SOL    HW220499   5.650   5.968   1.239
 6534SOL     OW20500   2.405   3.579   1.367
 6534SOL    HW120501   2.366   3.628   1.444
 6534SOL    HW220502   2.472   3.637   1.321
 6535SOL     OW20503   7.018   3.313   5.198
 6535SOL    HW120504   0.032   3.268   5.118
 6535SOL    HW220505   0.008   3.412   5.191
 6536SOL     OW20506   5.981   2.012   6.805
 6536SOL    HW120507   5.910   1.972   6.747
 6536SOL    HW220508   5.968   1.983   6.900
 6537SOL     OW20509   6.483   6.910   0.014
 6537SOL    HW120510   6.557   6.848   0.044
 6537SOL    HW220511   6.396   6.877   0.050
 6538SOL     OW20512   3.451   3.930   0.218
 6538SOL    HW120513   3.379   3.870   0.184
 6538SOL    HW220514   3.493   3.889   0.299
 6539SOL     OW20515   2.570   1.839   6.505
 6539SOL    HW120516   2.541   1.748   6.534
 6539SOL    HW220517   2.641   1.831   6.435
 6540SOL     OW20518   3.757   1.720   4.280
 6540SOL    HW120519   3.767   1.705   4.181
 6540SOL    HW220520   3.744   1.818   4.298
 6541SOL     OW20521   3.208   2.668   5.307
 6541SOL    HW120522   3.129   2.646   5.364
 6541SOL    HW220523   3.235   2.587   5.255
 6542SOL     OW20524   6.280   5.010   3.373
 6542SOL    HW120525   6.217   4.936   3.394
 6542SOL    HW220526   6.370   4.972   3.351
 6543SOL     OW20527   6.176   5.526   0.235
 6543SOL    HW120528   6.096   5.580   0.211
 6543SOL    HW220529   6.156   5.470   0.316
 6544SOL     OW20530   6.748   6.464   4.298
 6544SOL    HW120531   6.831   6.520   4.301
 6544SOL    HW220532   6.669   6.524   4.289
 6545SOL     OW20533   5.595   1.021   6.081
 6545SOL    HW120534   5.654   0.953   6.039
 6545SOL    HW220535   5.581   0.998   6.178
 6546SOL     OW20536   4.207   4.723   6.318
 6546SOL    HW120537   4.295   4.697   6.277
 6546SOL    HW220538   4.223   4.761   6.409
 6547SOL     OW20539   4.659   2.078   5.975
 6547SOL    HW120540   4.731   2.142   5.950
 6547SOL    HW220541   4.598   2.064   5.897
 6548SOL     OW20542   6.872   4.455   5.603
 6548SOL    HW120543   6.957   4.403   5.605
 6548SOL    HW220544   6.811   4.423   5.677
 6549SOL     OW20545   4.115   2.099   1.354
 6549SOL    HW120546   4.059   2.036   1.299
 6549SOL    HW220547   4.161   2.047   1.426
 6550SOL     OW20548   0.466   5.509   3.608
 6550SOL    HW120549   0.435   5.489   3.514
 6550SOL    HW220550   0.566   5.521   3.608
 6551SOL     OW20551   2.260   4.589   1.754
 6551SOL    HW120552   2.329   4.518   1.758
 6551SOL    HW220553   2.222   4.593   1.661
 6552SOL     OW20554   2.614   5.284   5.454
 6552SOL    HW120555   2.671   5.225   5.512
 6552SOL    HW220556   2.529   5.304   5.503
 6553SOL     OW20557   0.669   3.304   1.812
 6553SOL    HW120558   0.663   3.284   1.715
 6553SOL    HW220559   0.615   3.237   1.864
 6554SOL     OW20560   6.291   1.492   5.701
 6554SOL    HW120561   6.222   1.562   5.720
 6554SOL    HW220562   6.279   1.414   5.762
 6555SOL     OW20563   1.880   0.732   1.931
 6555SOL    HW120564   1.907   0.683   2.014
 6555SOL    HW220565   1.914   0.825   1.935
 6556SOL     OW20566   4.588   4.812   5.137
 6556SOL    HW120567   4.580   4.909   5.161
 6556SOL    HW220568   4.678   4.794   5.098
 6557SOL     OW20569   6.041   5.721   0.508
 6557SOL    HW120570   6.039   5.680   0.417
 6557SOL    HW220571   5.958   5.775   0.522
 6558SOL     OW20572   6.459   6.039   0.695
 6558SOL    HW120573   6.432   6.086   0.611
 6558SOL    HW220574   6.548   5.996   0.682
 6559SOL     OW20575   4.816   3.713   0.713
 6559SOL    HW120576   4.814   3.670   0.622
 6559SOL    HW220577   4.802   3.811   0.704
 6560SOL     OW20578   3.985   3.106   1.357
 6560SOL    HW120579   4.062   3.130   1.298
 6560SOL    HW220580   3.933   3.188   1.380
 6561SOL     OW20581   3.986   3.838   2.597
 6561SOL    HW120582   4.043   3.756   2.607
 6561SOL    HW220583   3.915   3.821   2.529
 6562SOL     OW20584   6.798   4.926   6.061
 6562SOL    HW120585   6.825   4.848   6.118
 6562SOL    HW220586   6.744   4.894   5.984
 6563SOL     OW20587   0.303   5.837   0.248
 6563SOL    HW120588   0.328   5.756   0.194
 6563SOL    HW220589   0.309   5.815   0.346
 6564SOL     OW20590   1.295   3.723   1.994
 6564SOL    HW120591   1.278   3.818   2.019
 6564SOL    HW220592   1.229   3.664   2.042
 6565SOL     OW20593   5.256   2.138   4.759
 6565SOL    HW120594   5.244   2.181   4.848
 6565SOL    HW220595   5.168   2.103   4.726
 6566SOL     OW20596   3.205   0.343   1.611
 6566SOL    HW120597   3.150   0.325   1.693
 6566SOL    HW220598   3.302   0.340   1.635
 6567SOL     OW20599   4.696   2.896   0.996
 6567SOL    HW120600   4.768   2.926   1.058
 6567SOL    HW220601   4.684   2.797   1.003
 6568SOL     OW20602   4.531   4.729   1.844
 6568SOL    HW120603   4.456   4.662   1.852
 6568SOL    HW220604   4.494   4.821   1.849
 6569SOL     OW20605   2.615   5.485   0.775
 6569SOL    HW120606   2.655   5.577   0.776
 6569SOL    HW220607   2.642   5.436   0.858
 6570SOL     OW20608   5.143   0.590   2.232
 6570SOL    HW120609   5.171   0.651   2.307
 6570SOL    HW220610   5.224   0.562   2.180
 6571SOL     OW20611   2.281   5.706   3.271
 6571SOL    HW120612   2.241   5.616   3.290
 6571SOL    HW220613   2.261   5.732   3.177
 6572SOL     OW20614   6.236   3.467   5.231
 6572SOL    HW120615   6.173   3.389   5.231
 6572SOL    HW220616   6.326   3.436   5.202
 6573SOL     OW20617   3.521   0.884   2.464
 6573SOL    HW120618   3.501   0.894   2.561
 6573SOL    HW220619   3.497   0.969   2.416
 6574SOL     OW20620   2.056   6.118   2.099
 6574SOL    HW120621   2.087   6.070   2.181
 6574SOL    HW220622   1.966   6.084   2.074
 6575SOL     OW20623   1.031   1.495   1.351
 6575SOL    HW120624   0.998   1.518   1.259
 6575SOL    HW220625   0.973   1.539   1.420
 6576SOL     OW20626   1.268   6.020   6.756
 6576SOL    HW120627   1.234   5.994   6.846
 6576SOL    HW220628   1.320   5.945   6.716
 6577SOL     OW20629   0.303   1.654   3.598
 6577SOL    HW120630   0.394   1.694   3.598
 6577SOL    HW220631   0.310   1.557   3.622
 6578SOL     OW20632   6.331   5.254   3.511
 6578SOL    HW120633   6.419   5.300   3.514
 6578SOL    HW220634   6.343   5.160   3.479
 6579SOL     OW20635   6.961   3.824   4.046
 6579SOL    HW120636   0.013   3.873   4.082
 6579SOL    HW220637   6.878   3.852   4.095
 6580SOL     OW20638   5.579   0.946   1.246
 6580SOL    HW120639   5.575   0.862   1.300
 6580SOL    HW220640   5.513   0.941   1.171
 6581SOL     OW20641   4.047   1.542   5.978
 6581SOL    HW120642   4.113   1.480   5.936
 6581SOL    HW220643   3.955   1.504   5.970
 6582SOL     OW20644   0.934   6.980   2.475
 6582SOL    HW120645   0.954   0.039   2.426
 6582SOL    HW220646   0.848   6.990   2.525
 6583SOL     OW20647   5.608   1.240   6.284
 6583SOL    HW120648   5.512   1.221   6.302
 6583SOL    HW220649   5.616   1.324   6.231
 6584SOL     OW20650   5.666   1.487   6.123
 6584SOL    HW120651   5.741   1.553   6.130
 6584SOL    HW220652   5.608   1.510   6.044
 6585SOL     OW20653   0.462   1.661   0.059
 6585SOL    HW120654   0.397   1.709   0.118
 6585SOL    HW220655   0.412   1.606   7.019
 6586SOL     OW20656   6.390   1.834   6.006
 6586SOL    HW120657   6.408   1.932   6.006
 6586SOL    HW220658   6.437   1.791   5.929
 6587SOL     OW20659   2.197   6.144   4.222
 6587SOL    HW120660   2.276   6.105   4.175
 6587SOL    HW220661   2.128   6.171   4.154
 6588SOL     OW20662   1.401   3.849   0.769
 6588SOL    HW120663   1.423   3.900   0.852
 6588SOL    HW220664   1.464   3.876   0.696
 6589SOL     OW20665   4.967   0.261   6.562
 6589SOL    HW120666   4.948   0.355   6.591
 6589SOL    HW220667   4.903   0.235   6.489
 6590SOL     OW20668   0.400   1.433   4.655
 6590SOL    HW120669   0.463   1.502   4.690
 6590SOL    HW220670   0.325   1.477   4.607
 6591SOL     OW20671   5.338   6.961   2.461
 6591SOL    HW120672   5.398   6.911   2.523
 6591SOL    HW220673   5.254   6.985   2.508
 6592SOL     OW20674   3.928   0.477   4.852
 6592SOL    HW120675   3.899   0.558   4.800
 6592SOL    HW220676   3.848   0.420   4.872
 6593SOL     OW20677   2.847   2.338   4.044
 6593SOL    HW120678   2.914   2.398   3.999
 6593SOL    HW220679   2.839   2.253   3.992
 6594SOL     OW20680   4.817   0.721   0.078
 6594SOL    HW120681   4.908   0.762   0.079
 6594SOL    HW220682   4.825   0.626   0.047
 6595SOL     OW20683   1.611   3.532   1.189
 6595SOL    HW120684   1.611   3.550   1.288
 6595SOL    HW220685   1.688   3.580   1.147
 6596SOL     OW20686   4.729   0.518   5.976
 6596SOL    HW120687   4.824   0.489   5.972
 6596SOL    HW220688   4.715   0.594   5.913
 6597SOL     OW20689   0.332   6.614   4.532
 6597SOL    HW120690   0.349   6.551   4.457
 6597SOL    HW220691   0.338   6.708   4.499
 6598SOL     OW20692   1.598   5.593   4.785
 6598SOL    HW120693   1.563   5.632   4.700
 6598SOL    HW220694   1.678   5.645   4.815
 6599SOL     OW20695   4.133   4.977   6.269
 6599SOL    HW120696   4.036   4.995   6.289
 6599SOL    HW220697   4.152   4.880   6.279
 6600SOL     OW20698   4.942   5.114   4.897
 6600SOL    HW120699   4.990   5.038   4.942
 6600SOL    HW220700   4.944   5.101   4.798
 6601SOL     OW20701   0.380   1.000   0.627
 6601SOL    HW120702   0.450   1.071   0.620
 6601SOL    HW220703   0.314   1.010   0.553
 6602SOL     OW20704   0.463   2.432   1.231
 6602SOL    HW120705   0.488   2.372   1.155
 6602SOL    HW220706   0.545   2.467   1.275
 6603SOL     OW20707   2.175   3.988   3.814
 6603SOL    HW120708   2.264   3.963   3.778
 6603SOL    HW220709   2.142   3.917   3.876
 6604SOL     OW20710   2.545   5.769   1.749
 6604SOL    HW120711   2.473   5.703   1.772
 6604SOL    HW220712   2.537   5.795   1.653
 6605SOL     OW20713   5.304   5.677   0.178
 6605SOL    HW120714   5.315   5.617   0.099
 6605SOL    HW220715   5.306   5.773   0.148
 6606SOL     OW20716   4.782   0.614   2.489
 6606SOL    HW120717   4.836   0.696   2.507
 6606SOL    HW220718   4.707   0.608   2.555
 6607SOL     OW20719   2.188   1.009   1.721
 6607SOL    HW120720   2.160   0.933   1.662
 6607SOL    HW220721   2.286   1.026   1.710
 6608SOL     OW20722   5.426   3.061   3.178
 6608SOL    HW120723   5.405   3.020   3.089
 6608SOL    HW220724   5.367   3.019   3.248
 6609SOL     OW20725   5.545   0.952   6.963
 6609SOL    HW120726   5.553   0.906   0.025
 6609SOL    HW220727   5.621   0.924   6.904
 6610SOL     OW20728   1.989   0.442   0.070
 6610SOL    HW120729   2.076   0.392   0.068
 6610SOL    HW220730   1.978   0.485   0.160
 6611SOL     OW20731   6.308   2.311   2.809
 6611SOL    HW120732   6.320   2.334   2.712
 6611SOL    HW220733   6.393   2.273   2.845
 6612SOL     OW20734   1.309   5.539   6.425
 6612SOL    HW120735   1.239   5.513   6.359
 6612SOL    HW220736   1.328   5.462   6.486
 6613SOL     OW20737   5.031   5.131   2.962
 6613SOL    HW120738   5.004   5.184   2.882
 6613SOL    HW220739   5.131   5.127   2.967
 6614SOL     OW20740   5.177   5.237   6.157
 6614SOL    HW120741   5.260   5.222   6.210
 6614SOL    HW220742   5.160   5.335   6.147
 6615SOL     OW20743   0.392   3.317   4.917
 6615SOL    HW120744   0.396   3.410   4.952
 6615SOL    HW220745   0.297   3.288   4.907
 6616SOL     OW20746   4.484   1.361   5.428
 6616SOL    HW120747   4.577   1.395   5.419
 6616SOL    HW220748   4.455   1.365   5.523
 6617SOL     OW20749   3.052   6.668   4.004
 6617SOL    HW120750   3.137   6.680   4.056
 6617SOL    HW220751   3.066   6.699   3.910
 6618SOL     OW20752   0.880   3.799   2.016
 6618SOL    HW120753   0.802   3.791   1.954
 6618SOL    HW220754   0.954   3.848   1.970
 6619SOL     OW20755   4.526   6.947   3.721
 6619SOL    HW120756   4.577   6.941   3.807
 6619SOL    HW220757   4.482   0.010   3.715
 6620SOL     OW20758   1.489   2.722   6.129
 6620SOL    HW120759   1.574   2.706   6.180
 6620SOL    HW220760   1.506   2.787   6.055
 6621SOL     OW20761   2.432   4.012   0.736
 6621SOL    HW120762   2.378   4.000   0.819
 6621SOL    HW220763   2.406   3.942   0.669
 6622SOL     OW20764   6.523   6.218   0.920
 6622SOL    HW120765   6.508   6.136   0.865
 6622SOL    HW220766   6.616   6.252   0.906
 6623SOL     OW20767   3.378   3.121   2.051
 6623SOL    HW120768   3.437   3.050   2.088
 6623SOL    HW220769   3.425   3.209   2.055
 6624SOL     OW20770   3.415   5.456   4.964
 6624SOL    HW120771   3.348   5.524   4.935
 6624SOL    HW220772   3.428   5.461   5.063
 6625SOL     OW20773   6.109   1.091   6.502
 6625SOL    HW120774   6.079   1.164   6.562
 6625SOL    HW220775   6.189   1.121   6.450
 6626SOL     OW20776   3.113   5.491   3.251
 6626SOL    HW120777   3.036   5.463   3.194
 6626SOL    HW220778   3.198   5.481   3.199
 6627SOL     OW20779   1.859   0.405   6.097
 6627SOL    HW120780   1.942   0.381   6.147
 6627SOL    HW220781   1.810   0.322   6.072
 6628SOL     OW20782   4.774   5.057   2.252
 6628SOL    HW120783   4.733   5.138   2.209
 6628SOL    HW220784   4.703   5.003   2.297
 6629SOL     OW20785   3.230   5.972   1.499
 6629SOL    HW120786   3.317   5.933   1.528
 6629SOL    HW220787   3.226   6.068   1.526
 6630SOL     OW20788   3.673   1.272   0.375
 6630SOL    HW120789   3.708   1.202   0.313
 6630SOL    HW220790   3.748   1.306   0.433
 6631SOL     OW20791   4.601   0.044   2.194
 6631SOL    HW120792   4.654   0.127   2.182
 6631SOL    HW220793   4.562   0.016   2.106
 6632SOL     OW20794   0.004   1.730   0.754
 6632SOL    HW120795   6.934   1.749   0.733
 6632SOL    HW220796   0.023   1.755   0.848
 6633SOL     OW20797   1.155   5.751   6.551
 6633SOL    HW120798   1.218   5.687   6.506
 6633SOL    HW220799   1.108   5.705   6.626
 6634SOL     OW20800   6.300   3.351   5.911
 6634SOL    HW120801   6.359   3.424   5.944
 6634SOL    HW220802   6.206   3.384   5.906
 6635SOL     OW20803   4.152   5.062   3.601
 6635SOL    HW120804   4.147   5.093   3.696
 6635SOL    HW220805   4.228   4.998   3.591
 6636SOL     OW20806   1.230   3.115   5.493
 6636SOL    HW120807   1.139   3.130   5.531
 6636SOL    HW220808   1.294   3.181   5.534
 6637SOL     OW20809   1.249   0.820   0.652
 6637SOL    HW120810   1.319   0.891   0.654
 6637SOL    HW220811   1.291   0.730   0.644
 6638SOL     OW20812   2.197   5.128   4.666
 6638SOL    HW120813   2.109   5.087   4.647
 6638SOL    HW220814   2.256   5.062   4.712
 6639SOL     OW20815   5.808   4.978   6.363
 6639SOL    HW120816   5.784   5.054   6.304
 6639SOL    HW220817   5.754   4.983   6.447
 6640SOL     OW20818   7.004   1.581   4.012
 6640SOL    HW120819   0.072   1.587   4.043
 6640SOL    HW220820   6.984   1.659   3.952
 6641SOL     OW20821   3.381   3.967   6.559
 6641SOL    HW120822   3.325   3.955   6.477
 6641SOL    HW220823   3.344   3.912   6.633
 6642SOL     OW20824   1.549   5.030   0.229
 6642SOL    HW120825   1.480   5.060   0.162
 6642SOL    HW220826   1.624   5.096   0.230
 6643SOL     OW20827   6.152   4.402   6.091
 6643SOL    HW120828   6.191   4.346   6.018
 6643SOL    HW220829   6.052   4.395   6.089
 6644SOL     OW20830   2.947   4.820   1.812
 6644SOL    HW120831   2.920   4.726   1.835
 6644SOL    HW220832   2.992   4.862   1.891
 6645SOL     OW20833   0.097   5.348   6.783
 6645SOL    HW120834   0.165   5.362   6.710
 6645SOL    HW220835   0.143   5.352   6.872
 6646SOL     OW20836   3.996   5.178   4.259
 6646SOL    HW120837   3.986   5.078   4.250
 6646SOL    HW220838   4.055   5.198   4.337
 6647SOL     OW20839   3.410   0.463   2.502
 6647SOL    HW120840   3.504   0.461   2.537
 6647SOL    HW220841   3.379   0.557   2.495
 6648SOL     OW20842   3.758   5.533   3.075
 6648SOL    HW120843   3.760   5.448   3.129
 6648SOL    HW220844   3.843   5.541   3.023
 6649SOL     OW20845   5.195   1.714   6.204
 6649SOL    HW120846   5.165   1.810   6.205
 6649SOL    HW220847   5.284   1.707   6.249
 6650SOL     OW20848   4.032   0.844   3.501
 6650SOL    HW120849   3.991   0.905   3.569
 6650SOL    HW220850   4.113   0.887   3.462
 6651SOL     OW20851   1.346   2.115   0.192
 6651SOL    HW120852   1.441   2.136   0.171
 6651SOL    HW220853   1.290   2.126   0.111
 6652SOL     OW20854   6.684   4.862   0.929
 6652SOL    HW120855   6.588   4.836   0.920
 6652SOL    HW220856   6.708   4.927   0.857
 6653SOL     OW20857   3.601   4.101   3.395
 6653SOL    HW120858   3.576   4.112   3.491
 6653SOL    HW220859   3.522   4.118   3.337
 6654SOL     OW20860   1.896   2.653   1.316
 6654SOL    HW120861   1.837   2.573   1.303
 6654SOL    HW220862   1.882   2.717   1.240
 6655SOL     OW20863   2.874   6.572   2.129
 6655SOL    HW120864   2.806   6.598   2.060
 6655SOL    HW220865   2.873   6.473   2.141
 6656SOL     OW20866   6.969   1.343   2.450
 6656SOL    HW120867   0.033   1.380   2.427
 6656SOL    HW220868   6.906   1.358   2.374
 6657SOL     OW20869   4.380   7.002   6.132
 6657SOL    HW120870   4.323   7.024   6.053
 6657SOL    HW220871   4.472   0.012   6.118
 6658SOL     OW20872   5.667   0.603   5.071
 6658SOL    HW120873   5.586   0.621   5.015
 6658SOL    HW220874   5.744   0.655   5.036
 6659SOL     OW20875   3.027   2.882   0.013
 6659SOL    HW120876   2.991   2.858   0.103
 6659SOL    HW220877   2.951   2.906   6.978
 6660SOL     OW20878   0.018   6.844   2.015
 6660SOL    HW120879   0.013   6.796   1.927
 6660SOL    HW220880   6.986   6.925   2.011
 6661SOL     OW20881   6.313   4.907   3.700
 6661SOL    HW120882   6.309   4.889   3.798
 6661SOL    HW220883   6.220   4.913   3.663
 6662SOL     OW20884   2.379   1.065   0.325
 6662SOL    HW120885   2.352   0.987   0.380
 6662SOL    HW220886   2.452   1.115   0.371
 6663SOL     OW20887   6.831   5.623   3.153
 6663SOL    HW120888   6.907   5.665   3.102
 6663SOL    HW220889   6.778   5.695   3.198
 6664SOL     OW20890   1.233   6.715   1.889
 6664SOL    HW120891   1.268   6.806   1.911
 6664SOL    HW220892   1.197   6.672   1.972
 6665SOL     OW20893   1.249   6.469   3.074
 6665SOL    HW120894   1.324   6.443   3.014
 6665SOL    HW220895   1.273   6.447   3.168
 6666SOL     OW20896   6.309   1.439   4.925
 6666SOL    HW120897   6.239   1.373   4.900
 6666SOL    HW220898   6.397   1.411   4.887
 6667SOL     OW20899   5.943   5.175   4.834
 6667SOL    HW120900   5.938   5.099   4.769
 6667SOL    HW220901   5.935   5.262   4.785
 6668SOL     OW20902   6.957   5.390   2.115
 6668SOL    HW120903   6.921   5.430   2.199
 6668SOL    HW220904   6.994   5.299   2.134
 6669SOL     OW20905   2.298   4.757   3.395
 6669SOL    HW120906   2.231   4.774   3.323
 6669SOL    HW220907   2.301   4.660   3.417
 6670SOL     OW20908   3.110   5.139   0.042
 6670SOL    HW120909   3.156   5.089   0.115
 6670SOL    HW220910   3.075   5.074   7.001
 6671SOL     OW20911   6.084   4.509   6.933
 6671SOL    HW120912   6.158   4.477   6.873
 6671SOL    HW220913   6.007   4.446   6.926
 6672SOL     OW20914   1.717   0.529   5.860
 6672SOL    HW120915   1.810   0.558   5.882
 6672SOL    HW220916   1.704   0.435   5.891
 6673SOL     OW20917   4.725   5.306   2.112
 6673SOL    HW120918   4.696   5.261   2.028
 6673SOL    HW220919   4.794   5.376   2.091
 6674SOL     OW20920   0.486   5.577   5.452
 6674SOL    HW120921   0.434   5.616   5.376
 6674SOL    HW220922   0.469   5.630   5.535
 6675SOL     OW20923   5.161   4.090   0.445
 6675SOL    HW120924   5.167   4.152   0.366
 6675SOL    HW220925   5.229   4.116   0.513
 6676SOL     OW20926   0.718   3.489   5.314
 6676SOL    HW120927   0.683   3.476   5.407
 6676SOL    HW220928   0.756   3.403   5.281
 6677SOL     OW20929   0.158   3.174   0.460
 6677SOL    HW120930   0.192   3.243   0.395
 6677SOL    HW220931   0.061   3.191   0.478
 6678SOL     OW20932   1.369   2.994   7.001
 6678SOL    HW120933   1.309   2.997   6.922
 6678SOL    HW220934   1.376   2.900   0.008
 6679SOL     OW20935   1.294   2.223   5.148
 6679SOL    HW120936   1.317   2.208   5.051
 6679SOL    HW220937   1.316   2.141   5.200
 6680SOL     OW20938   3.677   5.844   6.245
 6680SOL    HW120939   3.635   5.767   6.198
 6680SOL    HW220940   3.661   5.836   6.343
 6681SOL     OW20941   5.655   5.320   6.804
 6681SOL    HW120942   5.751   5.316   6.778
 6681SOL    HW220943   5.644   5.292   6.899
 6682SOL     OW20944   0.318   5.174   2.607
 6682SOL    HW120945   0.383   5.194   2.534
 6682SOL    HW220946   0.299   5.075   2.608
 6683SOL     OW20947   4.934   2.016   5.312
 6683SOL    HW120948   4.890   1.937   5.269
 6683SOL    HW220949   5.000   1.984   5.381
 6684SOL     OW20950   1.869   6.886   2.608
 6684SOL    HW120951   1.931   6.892   2.687
 6684SOL    HW220952   1.888   6.802   2.557
 6685SOL     OW20953   5.416   2.269   6.727
 6685SOL    HW120954   5.341   2.267   6.662
 6685SOL    HW220955   5.452   2.362   6.735
 6686SOL     OW20956   5.980   4.079   4.456
 6686SOL    HW120957   6.058   4.037   4.411
 6686SOL    HW220958   5.902   4.016   4.454
 6687SOL     OW20959   1.202   1.318   0.961
 6687SOL    HW120960   1.104   1.331   0.974
 6687SOL    HW220961   1.223   1.320   0.863
 6688SOL     OW20962   0.122   4.807   2.848
 6688SOL    HW120963   0.192   4.861   2.895
 6688SOL    HW220964   0.049   4.783   2.913
 6689SOL     OW20965   4.666   3.498   0.811
 6689SOL    HW120966   4.703   3.591   0.817
 6689SOL    HW220967   4.656   3.472   0.715
 6690SOL     OW20968   2.493   2.575   1.412
 6690SOL    HW120969   2.591   2.560   1.395
 6690SOL    HW220970   2.460   2.507   1.477
 6691SOL     OW20971   2.166   5.736   1.253
 6691SOL    HW120972   2.172   5.654   1.196
 6691SOL    HW220973   2.142   5.711   1.346
 6692SOL     OW20974   3.089   4.180   5.086
 6692SOL    HW120975   3.046   4.136   5.165
 6692SOL    HW220976   3.063   4.276   5.082
 6693SOL     OW20977   4.473   3.892   5.650
 6693SOL    HW120978   4.378   3.864   5.670
 6693SOL    HW220979   4.510   3.833   5.579
 6694SOL     OW20980   4.503   6.549   0.785
 6694SOL    HW120981   4.603   6.549   0.782
 6694SOL    HW220982   4.470   6.454   0.789
 6695SOL     OW20983   0.899   1.475   6.687
 6695SOL    HW120984   0.924   1.472   6.784
 6695SOL    HW220985   0.827   1.543   6.674
 6696SOL     OW20986   2.131   2.825   1.425
 6696SOL    HW120987   2.141   2.921   1.451
 6696SOL    HW220988   2.034   2.803   1.415
 6697SOL     OW20989   4.637   1.292   2.755
 6697SOL    HW120990   4.608   1.371   2.810
 6697SOL    HW220991   4.736   1.297   2.740
 6698SOL     OW20992   3.681   2.729   0.220
 6698SOL    HW120993   3.702   2.650   0.162
 6698SOL    HW220994   3.763   2.755   0.271
 6699SOL     OW20995   3.333   4.875   0.077
 6699SOL    HW120996   3.370   4.833   7.021
 6699SOL    HW220997   3.295   4.804   0.136
 6700SOL     OW20998   0.677   5.939   1.098
 6700SOL    HW120999   0.673   6.039   1.108
 6700SOL    HW221000   0.763   5.906   1.138
 6701SOL     OW21001   6.833   1.965   0.899
 6701SOL    HW121002   6.815   1.914   0.815
 6701SOL    HW221003   6.840   2.063   0.877
 6702SOL     OW21004   2.986   2.017   1.199
 6702SOL    HW121005   3.013   2.047   1.107
 6702SOL    HW221006   3.006   1.919   1.209
 6703SOL     OW21007   6.346   1.346   6.715
 6703SOL    HW121008   6.379   1.438   6.737
 6703SOL    HW221009   6.376   1.320   6.624
 6704SOL     OW21010   4.376   2.390   2.351
 6704SOL    HW121011   4.474   2.402   2.337
 6704SOL    HW221012   4.330   2.390   2.262
 6705SOL     OW21013   6.388   2.565   1.800
 6705SOL    HW121014   6.415   2.527   1.711
 6705SOL    HW221015   6.456   2.540   1.869
 6706SOL     OW21016   1.357   3.825   0.359
 6706SOL    HW121017   1.396   3.916   0.372
 6706SOL    HW221018   1.264   3.833   0.323
 6707SOL     OW21019   6.011   5.707   4.416
 6707SOL    HW121020   6.101   5.724   4.456
 6707SOL    HW221021   6.011   5.738   4.321
 6708SOL     OW21022   1.210   5.048   2.352
 6708SOL    HW121023   1.274   5.087   2.418
 6708SOL    HW221024   1.257   4.979   2.297
 6709SOL     OW21025   3.537   6.874   1.992
 6709SOL    HW121026   3.620   6.846   1.945
 6709SOL    HW221027   3.559   6.899   2.086
 6710SOL     OW21028   2.961   2.201   6.291
 6710SOL    HW121029   2.883   2.153   6.331
 6710SOL    HW221030   2.934   2.240   6.203
 6711SOL     OW21031   5.308   3.825   6.487
 6711SOL    HW121032   5.306   3.729   6.460
 6711SOL    HW221033   5.292   3.883   6.407
 6712SOL     OW21034   4.175   5.429   0.536
 6712SOL    HW121035   4.102   5.418   0.469
 6712SOL    HW221036   4.141   5.404   0.626
 6713SOL     OW21037   2.442   2.196   1.363
 6713SOL    HW121038   2.477   2.233   1.449
 6713SOL    HW221039   2.424   2.271   1.299
 6714SOL     OW21040   5.290   0.084   4.657
 6714SOL    HW121041   5.210   0.083   4.597
 6714SOL    HW221042   5.260   0.078   4.752
 6715SOL     OW21043   0.611   2.012   0.736
 6715SOL    HW121044   0.672   1.944   0.778
 6715SOL    HW221045   0.663   2.069   0.672
 6716SOL     OW21046   2.116   6.535   0.981
 6716SOL    HW121047   2.077   6.470   0.915
 6716SOL    HW221048   2.187   6.489   1.035
 6717SOL     OW21049   3.087   3.502   0.437
 6717SOL    HW121050   3.061   3.440   0.362
 6717SOL    HW221051   3.111   3.591   0.399
 6718SOL     OW21052   3.452   6.504   6.954
 6718SOL    HW121053   3.360   6.501   6.914
 6718SOL    HW221054   3.515   6.550   6.891
 6719SOL     OW21055   0.455   0.157   5.731
 6719SOL    HW121056   0.375   0.140   5.789
 6719SOL    HW221057   0.489   0.070   5.696
 6720SOL     OW21058   2.167   6.122   1.833
 6720SOL    HW121059   2.192   6.027   1.850
 6720SOL    HW221060   2.122   6.160   1.914
 6721SOL     OW21061   5.497   6.516   4.277
 6721SOL    HW121062   5.535   6.465   4.200
 6721SOL    HW221063   5.415   6.565   4.248
 6722SOL     OW21064   4.370   3.456   0.053
 6722SOL    HW121065   4.294   3.480   7.019
 6722SOL    HW221066   4.401   3.363   0.033
 6723SOL     OW21067   2.510   6.813   3.439
 6723SOL    HW121068   2.510   6.714   3.431
 6723SOL    HW221069   2.422   6.849   3.406
 6724SOL     OW21070   2.942   4.691   5.395
 6724SOL    HW121071   2.931   4.635   5.313
 6724SOL    HW221072   2.878   4.660   5.466
 6725SOL     OW21073   0.761   4.551   2.436
 6725SOL    HW121074   0.788   4.460   2.406
 6725SOL    HW221075   0.773   4.558   2.535
 6726SOL     OW21076   2.282   2.899   4.554
 6726SOL    HW121077   2.201   2.939   4.597
 6726SOL    HW221078   2.336   2.850   4.623
 6727SOL     OW21079   5.108   3.454   6.203
 6727SOL    HW121080   5.095   3.549   6.232
 6727SOL    HW221081   5.026   3.401   6.225
 6728SOL     OW21082   3.680   1.975   4.280
 6728SOL    HW121083   3.752   2.044   4.288
 6728SOL    HW221084   3.615   2.002   4.209
 6729SOL     OW21085   6.705   0.692   2.624
 6729SOL    HW121086   6.757   0.768   2.662
 6729SOL    HW221087   6.608   0.715   2.624
 6730SOL     OW21088   2.707   0.765   0.102
 6730SOL    HW121089   2.789   0.719   0.069
 6730SOL    HW221090   2.664   0.817   0.028
 6731SOL     OW21091   2.559   4.382   1.416
 6731SOL    HW121092   2.521   4.322   1.345
 6731SOL    HW221093   2.635   4.337   1.462
 6732SOL     OW21094   2.319   6.708   0.534
 6732SOL    HW121095   2.221   6.717   0.514
 6732SOL    HW221096   2.357   6.634   0.479
 6733SOL     OW21097   4.331   5.905   5.875
 6733SOL    HW121098   4.281   5.822   5.852
 6733SOL    HW221099   4.321   5.924   5.973
 6734SOL     OW21100   1.484   3.147   5.657
 6734SOL    HW121101   1.565   3.132   5.601
 6734SOL    HW221102   1.501   3.223   5.720
 6735SOL     OW21103   0.044   4.806   6.009
 6735SOL    HW121104   0.025   4.794   6.106
 6735SOL    HW221105   6.998   4.860   5.966
 6736SOL     OW21106   2.891   3.026   1.618
 6736SOL    HW121107   2.956   3.068   1.681
 6736SOL    HW221108   2.816   2.986   1.670
 6737SOL     OW21109   2.085   1.488   2.547
 6737SOL    HW121110   2.021   1.517   2.618
 6737SOL    HW221111   2.159   1.435   2.589
 6738SOL     OW21112   2.417   1.593   2.941
 6738SOL    HW121113   2.337   1.536   2.923
 6738SOL    HW221114   2.429   1.603   3.040
 6739SOL     OW21115   3.750   6.235   4.983
 6739SOL    HW121116   3.706   6.191   4.905
 6739SOL    HW221117   3.836   6.276   4.954
 6740SOL     OW21118   1.631   1.426   4.450
 6740SOL    HW121119   1.673   1.341   4.417
 6740SOL    HW221120   1.570   1.405   4.527
 6741SOL     OW21121   6.550   0.945   6.256
 6741SOL    HW121122   6.575   0.909   6.166
 6741SOL    HW221123   6.453   0.928   6.273
 6742SOL     OW21124   6.373   5.765   5.559
 6742SOL    HW121125   6.314   5.754   5.639
 6742SOL    HW221126   6.321   5.809   5.486
 6743SOL     OW21127   4.082   3.694   1.187
 6743SOL    HW121128   4.087   3.719   1.284
 6743SOL    HW221129   4.172   3.705   1.145
 6744SOL     OW21130   4.156   4.595   5.835
 6744SOL    HW121131   4.244   4.555   5.859
 6744SOL    HW221132   4.165   4.695   5.832
 6745SOL     OW21133   0.789   4.830   3.132
 6745SOL    HW121134   0.843   4.784   3.202
 6745SOL    HW221135   0.817   4.926   3.125
 6746SOL     OW21136   0.382   2.022   1.242
 6746SOL    HW121137   0.343   2.090   1.304
 6746SOL    HW221138   0.398   2.063   1.152
 6747SOL     OW21139   4.813   5.716   5.078
 6747SOL    HW121140   4.855   5.788   5.135
 6747SOL    HW221141   4.877   5.690   5.006
 6748SOL     OW21142   0.923   0.991   2.666
 6748SOL    HW121143   0.831   0.988   2.704
 6748SOL    HW221144   0.937   0.911   2.608
 6749SOL     OW21145   4.571   0.590   0.003
 6749SOL    HW121146   4.627   0.664   0.041
 6749SOL    HW221147   4.605   0.565   6.939
 6750SOL     OW21148   2.770   2.338   5.033
 6750SOL    HW121149   2.695   2.380   4.982
 6750SOL    HW221150   2.833   2.293   4.969
 6751SOL     OW21151   2.562   2.477   4.860
 6751SOL    HW121152   2.496   2.482   4.786
 6751SOL    HW221153   2.523   2.517   4.943
 6752SOL     OW21154   5.484   3.071   0.545
 6752SOL    HW121155   5.393   3.089   0.510
 6752SOL    HW221156   5.491   3.105   0.639
 6753SOL     OW21157   4.413   1.921   6.375
 6753SOL    HW121158   4.431   1.987   6.303
 6753SOL    HW221159   4.500   1.891   6.415
 6754SOL     OW21160   5.953   1.491   6.512
 6754SOL    HW121161   5.984   1.439   6.591
 6754SOL    HW221162   5.978   1.587   6.523
 6755SOL     OW21163   5.009   1.909   3.538
 6755SOL    HW121164   5.087   1.887   3.479
 6755SOL    HW221165   5.039   1.912   3.633
 6756SOL     OW21166   4.650   5.047   4.030
 6756SOL    HW121167   4.657   5.050   3.930
 6756SOL    HW221168   4.566   5.092   4.059
 6757SOL     OW21169   6.077   6.442   2.057
 6757SOL    HW121170   6.163   6.493   2.058
 6757SOL    HW221171   6.090   6.353   2.102
 6758SOL     OW21172   5.245   2.944   1.971
 6758SOL    HW121173   5.291   2.967   1.886
 6758SOL    HW221174   5.307   2.956   2.048
 6759SOL     OW21175   1.105   4.882   3.075
 6759SOL    HW121176   1.133   4.792   3.043
 6759SOL    HW221177   1.119   4.949   3.002
 6760SOL     OW21178   6.732   3.955   4.204
 6760SOL    HW121179   6.705   4.044   4.240
 6760SOL    HW221180   6.790   3.908   4.271
 6761SOL     OW21181   4.964   2.689   5.550
 6761SOL    HW121182   4.868   2.694   5.526
 6761SOL    HW221183   5.020   2.703   5.469
 6762SOL     OW21184   6.630   4.326   3.693
 6762SOL    HW121185   6.630   4.243   3.639
 6762SOL    HW221186   6.708   4.383   3.667
 6763SOL     OW21187   6.298   6.983   5.680
 6763SOL    HW121188   6.297   0.053   5.655
 6763SOL    HW221189   6.328   6.974   5.776
 6764SOL     OW21190   3.079   4.032   6.547
 6764SOL    HW121191   2.985   4.062   6.561
 6764SOL    HW221192   3.139   4.111   6.540
 6765SOL     OW21193   6.112   4.093   2.288
 6765SOL    HW121194   6.176   4.038   2.342
 6765SOL    HW221195   6.100   4.182   2.331
 6766SOL     OW21196   2.456   0.284   5.589
 6766SOL    HW121197   2.385   0.332   5.641
 6766SOL    HW221198   2.542   0.285   5.640
 6767SOL     OW21199   0.140   2.420   6.658
 6767SOL    HW121200   0.143   2.385   6.564
 6767SOL    HW221201   0.110   2.516   6.656
 6768SOL     OW21202   0.176   6.855   4.254
 6768SOL    HW121203   0.130   6.943   4.244
 6768SOL    HW221204   0.147   6.793   4.181
 6769SOL     OW21205   1.883   2.841   5.599
 6769SOL    HW121206   1.791   2.841   5.638
 6769SOL    HW221207   1.930   2.925   5.628
 6770SOL     OW21208   0.366   1.712   3.291
 6770SOL    HW121209   0.409   1.802   3.302
 6770SOL    HW221210   0.314   1.689   3.373
 6771SOL     OW21211   3.801   2.170   3.467
 6771SOL    HW121212   3.703   2.149   3.462
 6771SOL    HW221213   3.838   2.174   3.374
 6772SOL     OW21214   0.247   1.689   2.195
 6772SOL    HW121215   0.159   1.713   2.155
 6772SOL    HW221216   0.321   1.723   2.137
 6773SOL     OW21217   0.645   6.122   1.586
 6773SOL    HW121218   0.664   6.137   1.488
 6773SOL    HW221219   0.730   6.134   1.638
 6774SOL     OW21220   2.326   2.325   5.839
 6774SOL    HW121221   2.255   2.319   5.909
 6774SOL    HW221222   2.285   2.311   5.749
 6775SOL     OW21223   0.641   1.923   5.037
 6775SOL    HW121224   0.662   1.878   5.124
 6775SOL    HW221225   0.719   1.913   4.975
 6776SOL     OW21226   3.305   4.038   2.768
 6776SOL    HW121227   3.337   4.108   2.831
 6776SOL    HW221228   3.295   4.077   2.676
 6777SOL     OW21229   6.127   5.041   0.236
 6777SOL    HW121230   6.060   5.111   0.261
 6777SOL    HW221231   6.084   4.950   0.241
 6778SOL     OW21232   6.804   4.984   2.623
 6778SOL    HW121233   6.863   5.063   2.640
 6778SOL    HW221234   6.827   4.943   2.534
 6779SOL     OW21235   5.840   3.848   5.788
 6779SOL    HW121236   5.814   3.855   5.885
 6779SOL    HW221237   5.788   3.915   5.735
 6780SOL     OW21238   2.976   2.170   2.948
 6780SOL    HW121239   2.976   2.201   2.853
 6780SOL    HW221240   3.070   2.157   2.979
 6781SOL     OW21241   6.904   1.637   4.284
 6781SOL    HW121242   6.959   1.566   4.326
 6781SOL    HW221243   6.890   1.616   4.187
 6782SOL     OW21244   6.826   1.344   2.900
 6782SOL    HW121245   6.860   1.373   2.989
 6782SOL    HW221246   6.861   1.406   2.829
 6783SOL     OW21247   1.535   4.977   4.953
 6783SOL    HW121248   1.613   4.995   5.013
 6783SOL    HW221249   1.468   4.919   5.001
 6784SOL     OW21250   2.332   3.731   1.575
 6784SOL    HW121251   2.343   3.824   1.608
 6784SOL    HW221252   2.257   3.686   1.624
 6785SOL     OW21253   4.923   5.662   4.795
 6785SOL    HW121254   4.847   5.725   4.777
 6785SOL    HW221255   4.993   5.709   4.848
 6786SOL     OW21256   6.250   1.891   6.764
 6786SOL    HW121257   6.151   1.901   6.774
 6786SOL    HW221258   6.288   1.856   6.849
 6787SOL     OW21259   3.911   1.986   6.270
 6787SOL    HW121260   3.873   1.941   6.351
 6787SOL    HW221261   3.993   1.937   6.241
 6788SOL     OW21262   6.105   4.025   3.104
 6788SOL    HW121263   6.058   4.096   3.157
 6788SOL    HW221264   6.038   3.976   3.048
 6789SOL     OW21265   6.191   4.067   4.021
 6789SOL    HW121266   6.221   4.026   4.107
 6789SOL    HW221267   6.271   4.087   3.964
 6790SOL     OW21268   0.675   5.066   6.207
 6790SOL    HW121269   0.629   5.154   6.219
 6790SOL    HW221270   0.643   5.024   6.122
 6791SOL     OW21271   3.228   0.472   3.368
 6791SOL    HW121272   3.144   0.461   3.317
 6791SOL    HW221273   3.303   0.426   3.321
 6792SOL     OW21274   3.930   6.905   5.346
 6792SOL    HW121275   3.849   6.884   5.293
 6792SOL    HW221276   3.904   6.953   5.430
 6793SOL     OW21277   1.920   3.903   0.143
 6793SOL    HW121278   1.831   3.934   0.111
 6793SOL    HW221279   1.954   3.832   0.082
 6794SOL     OW21280   4.733   1.567   5.651
 6794SOL    HW121281   4.759   1.639   5.587
 6794SOL    HW221282   4.644   1.590   5.692
 6795SOL     OW21283   1.227   1.054   1.072
 6795SOL    HW121284   1.186   0.965   1.051
 6795SOL    HW221285   1.233   1.108   0.988
 6796SOL     OW21286   6.343   1.066   2.915
 6796SOL    HW121287   6.320   1.071   2.818
 6796SOL    HW221288   6.440   1.089   2.927
 6797SOL     OW21289   1.123   2.764   1.371
 6797SOL    HW121290   1.112   2.791   1.467
 6797SOL    HW221291   1.194   2.820   1.329
 6798SOL     OW21292   5.623   0.237   1.590
 6798SOL    HW121293   5.718   0.269   1.592
 6798SOL    HW221294   5.620   0.145   1.551
 6799SOL     OW21295   6.240   0.719   3.311
 6799SOL    HW121296   6.297   0.638   3.299
 6799SOL    HW221297   6.208   0.723   3.406
 6800SOL     OW21298   0.014   2.109   1.734
 6800SOL    HW121299   0.070   2.191   1.743
 6800SOL    HW221300   6.973   2.121   1.661
 6801SOL     OW21301   1.182   5.647   5.459
 6801SOL    HW121302   1.252   5.712   5.491
 6801SOL    HW221303   1.190   5.562   5.512
 6802SOL     OW21304   3.028   5.035   2.178
 6802SOL    HW121305   3.009   5.052   2.081
 6802SOL    HW221306   3.113   4.982   2.186
 6803SOL     OW21307   5.297   4.762   5.995
 6803SOL    HW121308   5.242   4.829   5.945
 6803SOL    HW221309   5.389   4.799   6.011
 6804SOL     OW21310   3.393   4.885   2.883
 6804SOL    HW121311   3.459   4.900   2.957
 6804SOL    HW221312   3.441   4.881   2.796
 6805SOL     OW21313   0.116   4.059   5.257
 6805SOL    HW121314   0.053   4.078   5.333
 6805SOL    HW221315   0.129   4.142   5.203
 6806SOL     OW21316   7.013   2.286   2.369
 6806SOL    HW121317   7.003   2.196   2.413
 6806SOL    HW221318   0.027   2.350   2.433
 6807SOL     OW21319   3.039   3.972   1.914
 6807SOL    HW121320   3.137   3.986   1.901
 6807SOL    HW221321   3.023   3.935   2.006
 6808SOL     OW21322   3.494   1.146   4.413
 6808SOL    HW121323   3.402   1.114   4.387
 6808SOL    HW221324   3.527   1.091   4.489
 6809SOL     OW21325   5.684   3.356   1.090
 6809SOL    HW121326   5.653   3.361   0.995
 6809SOL    HW221327   5.651   3.272   1.132
 6810SOL     OW21328   2.600   0.321   4.557
 6810SOL    HW121329   2.636   0.408   4.593
 6810SOL    HW221330   2.512   0.337   4.513
 6811SOL     OW21331   6.742   1.408   1.061
 6811SOL    HW121332   6.746   1.482   1.128
 6811SOL    HW221333   6.760   1.445   0.970
 6812SOL     OW21334   3.488   4.146   5.008
 6812SOL    HW121335   3.428   4.162   4.930
 6812SOL    HW221336   3.455   4.066   5.059
 6813SOL     OW21337   5.950   3.746   1.514
 6813SOL    HW121338   5.895   3.749   1.597
 6813SOL    HW221339   5.954   3.837   1.473
 6814SOL     OW21340   5.221   1.212   6.668
 6814SOL    HW121341   5.313   1.188   6.698
 6814SOL    HW221342   5.175   1.263   6.741
 6815SOL     OW21343   1.637   4.882   5.628
 6815SOL    HW121344   1.729   4.890   5.591
 6815SOL    HW221345   1.633   4.805   5.692
 6816SOL     OW21346   0.695   0.948   2.825
 6816SOL    HW121347   0.710   0.880   2.896
 6816SOL    HW221348   0.601   0.982   2.830
 6817SOL     OW21349   3.811   2.097   2.285
 6817SOL    HW121350   3.778   2.140   2.201
 6817SOL    HW221351   3.911   2.098   2.286
 6818SOL     OW21352   1.953   6.870   5.385
 6818SOL    HW121353   2.010   6.805   5.334
 6818SOL    HW221354   1.994   6.888   5.474
 6819SOL     OW21355   4.929   4.310   1.893
 6819SOL    HW121356   4.966   4.315   1.986
 6819SOL    HW221357   4.834   4.342   1.893
 6820SOL     OW21358   3.328   5.927   1.806
 6820SOL    HW121359   3.228   5.918   1.806
 6820SOL    HW221360   3.366   5.874   1.882
 6821SOL     OW21361   4.061   2.578   5.455
 6821SOL    HW121362   4.091   2.572   5.359
 6821SOL    HW221363   3.999   2.655   5.465
 6822SOL     OW21364   6.817   2.636   6.366
 6822SOL    HW121365   6.795   2.542   6.342
 6822SOL    HW221366   6.767   2.662   6.448
 6823SOL     OW21367   6.339   3.350   6.234
 6823SOL    HW121368   6.400   3.388   6.164
 6823SOL    HW221369   6.245   3.380   6.215
 6824SOL     OW21370   1.100   0.504   5.684
 6824SOL    HW121371   1.075   0.557   5.602
 6824SOL    HW221372   1.174   0.550   5.733
 6825SOL     OW21373   5.908   4.325   0.768
 6825SOL    HW121374   5.891   4.423   0.777
 6825SOL    HW221375   5.824   4.274   0.784
 6826SOL     OW21376   6.293   4.446   3.956
 6826SOL    HW121377   6.354   4.468   3.880
 6826SOL    HW221378   6.323   4.494   4.038
 6827SOL     OW21379   4.161   5.688   4.657
 6827SOL    HW121380   4.181   5.667   4.753
 6827SOL    HW221381   4.064   5.669   4.639
 6828SOL     OW21382   2.906   2.254   2.685
 6828SOL    HW121383   2.818   2.301   2.694
 6828SOL    HW221384   2.926   2.239   2.588
 6829SOL     OW21385   3.765   6.960   4.166
 6829SOL    HW121386   3.839   7.026   4.152
 6829SOL    HW221387   3.688   7.007   4.210
 6830SOL     OW21388   4.966   6.649   3.016
 6830SOL    HW121389   4.879   6.666   2.970
 6830SOL    HW221390   4.966   6.696   3.104
 6831SOL     OW21391   1.696   1.540   6.128
 6831SOL    HW121392   1.779   1.501   6.167
 6831SOL    HW221393   1.618   1.481   6.149
 6832SOL     OW21394   3.467   2.639   0.369
 6832SOL    HW121395   3.472   2.542   0.394
 6832SOL    HW221396   3.546   2.663   0.312
 6833SOL     OW21397   3.379   4.939   5.936
 6833SOL    HW121398   3.337   5.026   5.962
 6833SOL    HW221399   3.399   4.885   6.018
 6834SOL     OW21400   5.376   6.657   1.176
 6834SOL    HW121401   5.437   6.635   1.253
 6834SOL    HW221402   5.308   6.723   1.206
 6835SOL     OW21403   2.366   2.138   4.994
 6835SOL    HW121404   2.280   2.155   5.042
 6835SOL    HW221405   2.441   2.137   5.060
 6836SOL     OW21406   2.291   4.410   6.186
 6836SOL    HW121407   2.227   4.433   6.259
 6836SOL    HW221408   2.270   4.319   6.151
 6837SOL     OW21409   0.689   0.455   1.838
 6837SOL    HW121410   0.659   0.464   1.743
 6837SOL    HW221411   0.734   0.540   1.866
 6838SOL     OW21412   2.772   3.835   5.242
 6838SOL    HW121413   2.871   3.849   5.240
 6838SOL    HW221414   2.738   3.830   5.148
 6839SOL     OW21415   5.825   2.825   4.353
 6839SOL    HW121416   5.813   2.750   4.418
 6839SOL    HW221417   5.792   2.797   4.263
 6840SOL     OW21418   2.785   6.972   5.702
 6840SOL    HW121419   2.764   6.875   5.686
 6840SOL    HW221420   2.870   6.980   5.753
 6841SOL     OW21421   4.250   6.351   1.210
 6841SOL    HW121422   4.347   6.333   1.191
 6841SOL    HW221423   4.212   6.408   1.137
 6842SOL     OW21424   0.469   3.914   6.206
 6842SOL    HW121425   0.451   3.832   6.151
 6842SOL    HW221426   0.488   3.887   6.301
 6843SOL     OW21427   3.659   2.052   2.507
 6843SOL    HW121428   3.717   2.063   2.426
 6843SOL    HW221429   3.642   2.142   2.548
 6844SOL     OW21430   4.427   4.672   3.945
 6844SOL    HW121431   4.502   4.721   3.901
 6844SOL    HW221432   4.463   4.608   4.012
 6845SOL     OW21433   4.705   4.659   2.068
 6845SOL    HW121434   4.623   4.630   2.118
 6845SOL    HW221435   4.678   4.722   1.995
 6846SOL     OW21436   3.496   2.961   2.446
 6846SOL    HW121437   3.587   2.995   2.421
 6846SOL    HW221438   3.478   2.876   2.397
 6847SOL     OW21439   6.487   3.764   1.646
 6847SOL    HW121440   6.398   3.731   1.676
 6847SOL    HW221441   6.526   3.699   1.579
 6848SOL     OW21442   0.871   6.483   3.508
 6848SOL    HW121443   0.879   6.449   3.414
 6848SOL    HW221444   0.957   6.467   3.556
 6849SOL     OW21445   3.527   6.738   3.931
 6849SOL    HW121446   3.623   6.748   3.956
 6849SOL    HW221447   3.516   6.655   3.875
 6850SOL     OW21448   5.477   3.011   2.466
 6850SOL    HW121449   5.380   2.992   2.452
 6850SOL    HW221450   5.495   3.107   2.446
 6851SOL     OW21451   1.319   5.323   5.315
 6851SOL    HW121452   1.323   5.230   5.280
 6851SOL    HW221453   1.359   5.386   5.249
 6852SOL     OW21454   0.313   4.122   1.982
 6852SOL    HW121455   0.371   4.171   2.047
 6852SOL    HW221456   0.265   4.187   1.923
 6853SOL     OW21457   0.999   3.562   5.278
 6853SOL    HW121458   1.077   3.523   5.328
 6853SOL    HW221459   1.001   3.662   5.286
 6854SOL     OW21460   6.281   2.257   6.744
 6854SOL    HW121461   6.187   2.252   6.709
 6854SOL    HW221462   6.279   2.287   6.839
 6855SOL     OW21463   2.602   6.622   1.314
 6855SOL    HW121464   2.591   6.536   1.265
 6855SOL    HW221465   2.693   6.626   1.356
 6856SOL     OW21466   5.870   3.828   5.388
 6856SOL    HW121467   5.793   3.801   5.446
 6856SOL    HW221468   5.855   3.792   5.295
 6857SOL     OW21469   4.114   1.500   5.625
 6857SOL    HW121470   4.049   1.574   5.641
 6857SOL    HW221471   4.079   1.415   5.665
 6858SOL     OW21472   3.943   3.185   4.891
 6858SOL    HW121473   3.933   3.246   4.969
 6858SOL    HW221474   3.934   3.090   4.922
 6859SOL     OW21475   3.746   0.248   0.766
 6859SOL    HW121476   3.747   0.346   0.748
 6859SOL    HW221477   3.684   0.228   0.842
 6860SOL     OW21478   5.491   3.491   6.780
 6860SOL    HW121479   5.511   3.567   6.718
 6860SOL    HW221480   5.570   3.476   6.840
 6861SOL     OW21481   6.353   5.024   6.892
 6861SOL    HW121482   6.281   5.076   6.938
 6861SOL    HW221483   6.352   4.930   6.926
 6862SOL     OW21484   3.332   5.586   3.965
 6862SOL    HW121485   3.358   5.663   4.024
 6862SOL    HW221486   3.383   5.505   3.993
 6863SOL     OW21487   5.330   2.927   4.447
 6863SOL    HW121488   5.309   3.012   4.399
 6863SOL    HW221489   5.344   2.853   4.381
 6864SOL     OW21490   3.441   5.872   5.131
 6864SOL    HW121491   3.421   5.963   5.097
 6864SOL    HW221492   3.448   5.808   5.055
 6865SOL     OW21493   6.277   4.802   4.106
 6865SOL    HW121494   6.346   4.822   4.037
 6865SOL    HW221495   6.272   4.704   4.121
 6866SOL     OW21496   6.985   3.292   2.393
 6866SOL    HW121497   6.915   3.239   2.344
 6866SOL    HW221498   0.015   3.230   2.447
 6867SOL     OW21499   2.360   4.417   2.301
 6867SOL    HW121500   2.413   4.474   2.239
 6867SOL    HW221501   2.284   4.470   2.338
 6868SOL     OW21502   2.021   5.439   4.441
 6868SOL    HW121503   2.019   5.535   4.414
 6868SOL    HW221504   2.111   5.417   4.480
 6869SOL     OW21505   5.626   2.738   5.530
 6869SOL    HW121506   5.585   2.662   5.479
 6869SOL    HW221507   5.660   2.705   5.618
 6870SOL     OW21508   5.420   3.733   2.547
 6870SOL    HW121509   5.506   3.737   2.599
 6870SOL    HW221510   5.360   3.808   2.576
 6871SOL     OW21511   5.195   5.790   1.110
 6871SOL    HW121512   5.278   5.843   1.092
 6871SOL    HW221513   5.132   5.844   1.166
 6872SOL     OW21514   2.091   3.437   6.608
 6872SOL    HW121515   2.019   3.467   6.671
 6872SOL    HW221516   2.145   3.516   6.580
 6873SOL     OW21517   6.225   3.731   6.149
 6873SOL    HW121518   6.212   3.632   6.147
 6873SOL    HW221519   6.309   3.753   6.199
 6874SOL     OW21520   0.622   2.769   4.633
 6874SOL    HW121521   0.618   2.778   4.732
 6874SOL    HW221522   0.692   2.702   4.608
 6875SOL     OW21523   2.620   1.370   3.643
 6875SOL    HW121524   2.534   1.413   3.670
 6875SOL    HW221525   2.696   1.416   3.689
 6876SOL     OW21526   4.102   5.960   6.816
 6876SOL    HW121527   4.164   6.028   6.777
 6876SOL    HW221528   4.155   5.893   6.869
 6877SOL     OW21529   2.334   4.505   6.872
 6877SOL    HW121530   2.283   4.580   6.914
 6877SOL    HW221531   2.404   4.472   6.936
 6878SOL     OW21532   1.714   1.318   5.521
 6878SOL    HW121533   1.767   1.328   5.605
 6878SOL    HW221534   1.733   1.394   5.460
 6879SOL     OW21535   1.656   2.356   6.522
 6879SOL    HW121536   1.585   2.345   6.452
 6879SOL    HW221537   1.635   2.436   6.578
 6880SOL     OW21538   2.195   3.856   4.597
 6880SOL    HW121539   2.166   3.819   4.509
 6880SOL    HW221540   2.246   3.787   4.648
 6881SOL     OW21541   6.962   3.711   1.879
 6881SOL    HW121542   0.034   3.728   1.874
 6881SOL    HW221543   6.933   3.718   1.975
 6882SOL     OW21544   2.324   0.219   5.195
 6882SOL    HW121545   2.291   0.219   5.289
 6882SOL    HW221546   2.405   0.160   5.188
 6883SOL     OW21547   4.260   0.087   1.699
 6883SOL    HW121548   4.217   0.171   1.733
 6883SOL    HW221549   4.191   0.015   1.691
 6884SOL     OW21550   1.949   5.682   3.898
 6884SOL    HW121551   1.905   5.677   3.988
 6884SOL    HW221552   1.879   5.684   3.827
 6885SOL     OW21553   2.806   5.598   4.389
 6885SOL    HW121554   2.854   5.513   4.414
 6885SOL    HW221555   2.774   5.592   4.295
 6886SOL     OW21556   5.939   1.405   2.789
 6886SOL    HW121557   5.935   1.306   2.805
 6886SOL    HW221558   5.990   1.449   2.863
 6887SOL     OW21559   5.647   0.610   4.543
 6887SOL    HW121560   5.710   0.542   4.504
 6887SOL    HW221561   5.595   0.569   4.617
 6888SOL     OW21562   5.885   6.988   4.895
 6888SOL    HW121563   5.912   6.969   4.800
 6888SOL    HW221564   5.867   0.059   4.905
 6889SOL     OW21565   1.309   4.357   5.906
 6889SOL    HW121566   1.291   4.383   5.812
 6889SOL    HW221567   1.239   4.293   5.937
 6890SOL     OW21568   1.703   6.871   1.432
 6890SOL    HW121569   1.731   6.842   1.523
 6890SOL    HW221570   1.664   6.963   1.436
 6891SOL     OW21571   0.971   4.584   4.215
 6891SOL    HW121572   0.966   4.651   4.289
 6891SOL    HW221573   1.046   4.520   4.234
 6892SOL     OW21574   3.069   0.757   3.798
 6892SOL    HW121575   3.153   0.777   3.848
 6892SOL    HW221576   3.091   0.704   3.716
 6893SOL     OW21577   4.566   6.033   2.872
 6893SOL    HW121578   4.532   6.126   2.860
 6893SOL    HW221579   4.659   6.037   2.910
 6894SOL     OW21580   6.329   5.183   6.651
 6894SOL    HW121581   6.376   5.127   6.720
 6894SOL    HW221582   6.303   5.126   6.573
 6895SOL     OW21583   2.993   4.968   6.599
 6895SOL    HW121584   3.019   4.962   6.503
 6895SOL    HW221585   2.979   4.875   6.635
 6896SOL     OW21586   3.185   0.671   3.526
 6896SOL    HW121587   3.275   0.696   3.560
 6896SOL    HW221588   3.193   0.596   3.461
 6897SOL     OW21589   3.465   3.674   0.649
 6897SOL    HW121590   3.384   3.615   0.652
 6897SOL    HW221591   3.444   3.762   0.692
 6898SOL     OW21592   4.174   1.949   2.085
 6898SOL    HW121593   4.099   1.989   2.032
 6898SOL    HW221594   4.153   1.954   2.182
 6899SOL     OW21595   4.599   6.205   6.797
 6899SOL    HW121596   4.690   6.239   6.772
 6899SOL    HW221597   4.531   6.244   6.735
 6900SOL     OW21598   5.190   0.315   6.412
 6900SOL    HW121599   5.105   0.305   6.465
 6900SOL    HW221600   5.180   0.390   6.347
 6901SOL     OW21601   1.591   0.034   6.706
 6901SOL    HW121602   1.606   6.974   6.657
 6901SOL    HW221603   1.669   0.094   6.693
 6902SOL     OW21604   6.949   6.625   0.539
 6902SOL    HW121605   0.002   6.620   0.477
 6902SOL    HW221606   6.915   6.533   0.558
 6903SOL     OW21607   4.524   4.513   0.508
 6903SOL    HW121608   4.457   4.456   0.461
 6903SOL    HW221609   4.477   4.578   0.568
 6904SOL     OW21610   6.418   1.621   3.721
 6904SOL    HW121611   6.472   1.674   3.787
 6904SOL    HW221612   6.321   1.642   3.734
 6905SOL     OW21613   5.957   6.315   1.036
 6905SOL    HW121614   5.887   6.378   1.070
 6905SOL    HW221615   5.942   6.224   1.076
 6906SOL     OW21616   4.285   0.467   3.099
 6906SOL    HW121617   4.341   0.463   3.182
 6906SOL    HW221618   4.232   0.551   3.098
 6907SOL     OW21619   3.743   1.409   1.549
 6907SOL    HW121620   3.790   1.449   1.627
 6907SOL    HW221621   3.663   1.465   1.526
 6908SOL     OW21622   1.663   6.758   5.444
 6908SOL    HW121623   1.749   6.800   5.415
 6908SOL    HW221624   1.658   6.755   5.543
 6909SOL     OW21625   4.560   4.364   0.112
 6909SOL    HW121626   4.567   4.463   0.116
 6909SOL    HW221627   4.516   4.336   0.027
 6910SOL     OW21628   6.459   2.030   1.758
 6910SOL    HW121629   6.519   1.952   1.737
 6910SOL    HW221630   6.515   2.112   1.772
 6911SOL     OW21631   4.108   1.227   4.788
 6911SOL    HW121632   4.199   1.220   4.827
 6911SOL    HW221633   4.069   1.135   4.777
 6912SOL     OW21634   5.574   4.894   0.748
 6912SOL    HW121635   5.653   4.903   0.808
 6912SOL    HW221636   5.493   4.871   0.803
 6913SOL     OW21637   5.378   5.226   4.646
 6913SOL    HW121638   5.327   5.263   4.724
 6913SOL    HW221639   5.317   5.172   4.588
 6914SOL     OW21640   6.191   5.529   0.756
 6914SOL    HW121641   6.133   5.583   0.817
 6914SOL    HW221642   6.236   5.590   0.690
 6915SOL     OW21643   0.963   4.977   2.661
 6915SOL    HW121644   0.926   5.036   2.733
 6915SOL    HW221645   0.926   5.005   2.573
 6916SOL     OW21646   6.293   2.923   7.018
 6916SOL    HW121647   6.318   2.937   0.088
 6916SOL    HW221648   6.200   2.956   7.003
 6917SOL     OW21649   4.991   6.129   5.943
 6917SOL    HW121650   4.998   6.217   5.991
 6917SOL    HW221651   4.918   6.135   5.875
 6918SOL     OW21652   6.918   2.965   3.677
 6918SOL    HW121653   6.843   3.001   3.622
 6918SOL    HW221654   6.905   2.867   3.691
 6919SOL     OW21655   2.115   5.916   2.825
 6919SOL    HW121656   2.038   5.873   2.777
 6919SOL    HW221657   2.189   5.933   2.760
 6920SOL     OW21658   4.895   6.325   4.175
 6920SOL    HW121659   4.905   6.304   4.078
 6920SOL    HW221660   4.798   6.333   4.198
 6921SOL     OW21661   0.081   1.340   3.632
 6921SOL    HW121662   0.024   1.283   3.692
 6921SOL    HW221663   0.172   1.299   3.624
 6922SOL     OW21664   2.356   6.621   0.810
 6922SOL    HW121665   2.351   6.637   0.712
 6922SOL    HW221666   2.264   6.605   0.847
 6923SOL     OW21667   4.701   0.739   4.299
 6923SOL    HW121668   4.775   0.807   4.297
 6923SOL    HW221669   4.613   0.784   4.285
 6924SOL     OW21670   0.173   5.816   1.574
 6924SOL    HW121671   0.160   5.915   1.585
 6924SOL    HW221672   0.093   5.767   1.609
 6925SOL     OW21673   4.100   5.926   2.913
 6925SOL    HW121674   4.068   6.005   2.966
 6925SOL    HW221675   4.091   5.945   2.816
 6926SOL     OW21676   3.202   3.223   4.231
 6926SOL    HW121677   3.214   3.160   4.308
 6926SOL    HW221678   3.246   3.185   4.150
 6927SOL     OW21679   4.502   4.151   5.977
 6927SOL    HW121680   4.529   4.068   5.927
 6927SOL    HW221681   4.424   4.193   5.931
 6928SOL     OW21682   4.928   0.874   6.372
 6928SOL    HW121683   4.884   0.893   6.285
 6928SOL    HW221684   4.971   0.957   6.407
 6929SOL     OW21685   4.197   5.881   0.549
 6929SOL    HW121686   4.236   5.973   0.543
 6929SOL    HW221687   4.161   5.865   0.641
 6930SOL     OW21688   0.542   0.182   2.974
 6930SOL    HW121689   0.464   0.177   3.036
 6930SOL    HW221690   0.552   0.095   2.926
 6931SOL     OW21691   2.057   1.312   1.621
 6931SOL    HW121692   2.140   1.258   1.626
 6931SOL    HW221693   1.977   1.252   1.626
 6932SOL     OW21694   3.049   1.716   0.595
 6932SOL    HW121695   3.145   1.728   0.622
 6932SOL    HW221696   2.998   1.674   0.670
 6933SOL     OW21697   3.881   5.637   5.999
 6933SOL    HW121698   3.826   5.566   6.043
 6933SOL    HW221699   3.838   5.664   5.912
 6934SOL     OW21700   5.236   3.412   6.692
 6934SOL    HW121701   5.325   3.435   6.730
 6934SOL    HW221702   5.190   3.496   6.662
 6935SOL     OW21703   4.447   5.839   3.419
 6935SOL    HW121704   4.524   5.882   3.467
 6935SOL    HW221705   4.460   5.740   3.419
 6936SOL     OW21706   1.089   3.441   1.090
 6936SOL    HW121707   1.023   3.514   1.076
 6936SOL    HW221708   1.077   3.401   1.181
 6937SOL     OW21709   4.839   0.071   5.984
 6937SOL    HW121710   4.936   0.085   5.963
 6937SOL    HW221711   4.783   0.127   5.923
 6938SOL     OW21712   5.359   2.770   5.304
 6938SOL    HW121713   5.263   2.787   5.284
 6938SOL    HW221714   5.384   2.816   5.390
 6939SOL     OW21715   6.713   4.328   2.555
 6939SOL    HW121716   6.620   4.356   2.579
 6939SOL    HW221717   6.717   4.308   2.457
 6940SOL     OW21718   4.961   0.380   6.023
 6940SOL    HW121719   5.003   0.307   5.968
 6940SOL    HW221720   5.030   0.450   6.043
 6941SOL     OW21721   4.147   3.561   3.602
 6941SOL    HW121722   4.116   3.509   3.682
 6941SOL    HW221723   4.242   3.538   3.582
 6942SOL     OW21724   6.864   2.556   0.035
 6942SOL    HW121725   6.783   2.500   0.025
 6942SOL    HW221726   6.852   2.619   0.112
 6943SOL     OW21727   5.539   5.719   5.959
 6943SOL    HW121728   5.610   5.719   6.029
 6943SOL    HW221729   5.581   5.730   5.869
 6944SOL     OW21730   0.920   5.228   6.153
 6944SOL    HW121731   1.003   5.191   6.110
 6944SOL    HW221732   0.845   5.164   6.141
 6945SOL     OW21733   6.620   2.873   5.845
 6945SOL    HW121734   6.580   2.961   5.872
 6945SOL    HW221735   6.549   2.803   5.843
 6946SOL     OW21736   5.702   3.839   2.347
 6946SOL    HW121737   5.679   3.896   2.268
 6946SOL    HW221738   5.638   3.763   2.353
 6947SOL     OW21739   3.231   6.766   2.995
 6947SOL    HW121740   3.189   6.751   3.084
 6947SOL    HW221741   3.283   6.685   2.969
 6948SOL     OW21742   4.943   0.532   6.661
 6948SOL    HW121743   4.860   0.580   6.692
 6948SOL    HW221744   5.000   0.596   6.610
 6949SOL     OW21745   5.221   6.615   2.976
 6949SOL    HW121746   5.269   6.678   3.037
 6949SOL    HW221747   5.123   6.617   2.997
 6950SOL     OW21748   2.232   1.371   3.384
 6950SOL    HW121749   2.136   1.382   3.360
 6950SOL    HW221750   2.273   1.461   3.400
 6951SOL     OW21751   6.658   5.662   6.073
 6951SOL    HW121752   6.600   5.674   5.992
 6951SOL    HW221753   6.716   5.582   6.061
 6952SOL     OW21754   0.472   5.232   5.099
 6952SOL    HW121755   0.562   5.217   5.059
 6952SOL    HW221756   0.436   5.145   5.133
 6953SOL     OW21757   4.696   0.970   5.758
 6953SOL    HW121758   4.738   0.979   5.668
 6953SOL    HW221759   4.673   1.061   5.793
 6954SOL     OW21760   6.404   2.754   3.391
 6954SOL    HW121761   6.389   2.708   3.303
 6954SOL    HW221762   6.331   2.728   3.454
 6955SOL     OW21763   0.232   6.062   1.896
 6955SOL    HW121764   0.267   6.000   1.967
 6955SOL    HW221765   0.202   6.147   1.939
 6956SOL     OW21766   4.247   5.211   1.714
 6956SOL    HW121767   4.213   5.117   1.713
 6956SOL    HW221768   4.332   5.217   1.661
 6957SOL     OW21769   6.876   5.082   1.294
 6957SOL    HW121770   6.865   5.177   1.265
 6957SOL    HW221771   6.950   5.076   1.361
 6958SOL     OW21772   2.661   2.886   6.309
 6958SOL    HW121773   2.577   2.888   6.256
 6958SOL    HW221774   2.657   2.957   6.380
 6959SOL     OW21775   3.594   1.752   4.740
 6959SOL    HW121776   3.617   1.755   4.838
 6959SOL    HW221777   3.632   1.833   4.695
 6960SOL     OW21778   0.226   4.545   6.812
 6960SOL    HW121779   0.155   4.481   6.841
 6960SOL    HW221780   0.214   4.632   6.861
 6961SOL     OW21781   1.239   0.786   3.442
 6961SOL    HW121782   1.183   0.820   3.518
 6961SOL    HW221783   1.180   0.749   3.370
 6962SOL     OW21784   5.096   4.838   1.587
 6962SOL    HW121785   5.053   4.894   1.515
 6962SOL    HW221786   5.027   4.779   1.629
 6963SOL     OW21787   0.148   4.959   1.863
 6963SOL    HW121788   0.087   5.035   1.884
 6963SOL    HW221789   0.209   4.943   1.940
 6964SOL     OW21790   4.085   5.367   4.792
 6964SOL    HW121791   4.126   5.278   4.774
 6964SOL    HW221792   4.041   5.401   4.709
 6965SOL     OW21793   0.018   2.877   6.027
 6965SOL    HW121794   7.018   2.788   5.991
 6965SOL    HW221795   6.968   2.915   6.081
 6966SOL     OW21796   4.810   2.342   2.826
 6966SOL    HW121797   4.830   2.285   2.906
 6966SOL    HW221798   4.893   2.351   2.771
 6967SOL     OW21799   1.178   1.760   5.929
 6967SOL    HW121800   1.251   1.700   5.895
 6967SOL    HW221801   1.116   1.708   5.988
 6968SOL     OW21802   4.889   5.914   1.549
 6968SOL    HW121803   4.968   5.974   1.547
 6968SOL    HW221804   4.912   5.831   1.601
 6969SOL     OW21805   3.481   1.466   0.642
 6969SOL    HW121806   3.528   1.492   0.558
 6969SOL    HW221807   3.542   1.411   0.699
 6970SOL     OW21808   4.788   4.457   0.574
 6970SOL    HW121809   4.815   4.447   0.669
 6970SOL    HW221810   4.691   4.482   0.568
 6971SOL     OW21811   5.783   1.760   1.964
 6971SOL    HW121812   5.863   1.700   1.964
 6971SOL    HW221813   5.813   1.854   1.945
 6972SOL     OW21814   5.251   4.848   4.135
 6972SOL    HW121815   5.175   4.784   4.145
 6972SOL    HW221816   5.290   4.840   4.044
 6973SOL     OW21817   1.769   4.731   3.963
 6973SOL    HW121818   1.789   4.717   3.867
 6973SOL    HW221819   1.844   4.780   4.007
 6974SOL     OW21820   3.361   3.863   4.092
 6974SOL    HW121821   3.445   3.838   4.043
 6974SOL    HW221822   3.317   3.780   4.127
 6975SOL     OW21823   4.118   0.566   5.744
 6975SOL    HW121824   4.031   0.516   5.742
 6975SOL    HW221825   4.177   0.526   5.814
 6976SOL     OW21826   2.434   5.258   6.832
 6976SOL    HW121827   2.493   5.336   6.813
 6976SOL    HW221828   2.339   5.288   6.836
 6977SOL     OW21829   3.341   1.580   2.513
 6977SOL    HW121830   3.379   1.617   2.598
 6977SOL    HW221831   3.250   1.618   2.498
 6978SOL     OW21832   0.642   1.131   2.164
 6978SOL    HW121833   0.594   1.199   2.108
 6978SOL    HW221834   0.576   1.077   2.216
 6979SOL     OW21835   0.437   4.509   2.598
 6979SOL    HW121836   0.493   4.515   2.681
 6979SOL    HW221837   0.471   4.573   2.529
 6980SOL     OW21838   2.072   1.178   4.146
 6980SOL    HW121839   2.021   1.117   4.207
 6980SOL    HW221840   2.037   1.166   4.052
 6981SOL     OW21841   2.405   5.409   0.623
 6981SOL    HW121842   2.481   5.471   0.603
 6981SOL    HW221843   2.415   5.373   0.716
 6982SOL     OW21844   0.570   0.010   4.060
 6982SOL    HW121845   0.614   6.959   4.014
 6982SOL    HW221846   0.482   0.029   4.017
 6983SOL     OW21847   6.973   0.319   4.514
 6983SOL    HW121848   6.920   0.389   4.467
 6983SOL    HW221849   0.037   0.355   4.537
 6984SOL     OW21850   2.136   2.028   5.783
 6984SOL    HW121851   2.169   2.066   5.869
 6984SOL    HW221852   2.198   1.957   5.751
 6985SOL     OW21853   4.619   5.808   2.715
 6985SOL    HW121854   4.629   5.860   2.799
 6985SOL    HW221855   4.702   5.756   2.698
 6986SOL     OW21856   1.667   6.053   5.624
 6986SOL    HW121857   1.719   6.119   5.570
 6986SOL    HW221858   1.577   6.091   5.647
 6987SOL     OW21859   0.201   2.866   6.640
 6987SOL    HW121860   0.146   2.797   6.593
 6987SOL    HW221861   0.144   2.944   6.666
 6988SOL     OW21862   4.789   1.512   4.001
 6988SOL    HW121863   4.755   1.450   3.930
 6988SOL    HW221864   4.859   1.466   4.055
 6989SOL     OW21865   1.262   1.915   3.433
 6989SOL    HW121866   1.268   1.874   3.524
 6989SOL    HW221867   1.278   2.014   3.440
 6990SOL     OW21868   4.004   2.997   0.145
 6990SOL    HW121869   4.027   3.077   0.199
 6990SOL    HW221870   4.070   2.987   0.070
 6991SOL     OW21871   2.757   4.547   5.565
 6991SOL    HW121872   2.676   4.600   5.590
 6991SOL    HW221873   2.730   4.470   5.508
 6992SOL     OW21874   5.961   6.377   4.174
 6992SOL    HW121875   6.016   6.297   4.199
 6992SOL    HW221876   6.019   6.457   4.167
 6993SOL     OW21877   0.166   0.351   3.376
 6993SOL    HW121878   0.077   0.343   3.420
 6993SOL    HW221879   0.170   0.437   3.325
 6994SOL     OW21880   1.802   3.285   6.331
 6994SOL    HW121881   1.868   3.352   6.298
 6994SOL    HW221882   1.764   3.315   6.418
 6995SOL     OW21883   5.456   5.396   3.207
 6995SOL    HW121884   5.542   5.405   3.157
 6995SOL    HW221885   5.454   5.308   3.254
 6996SOL     OW21886   3.016   0.078   5.348
 6996SOL    HW121887   3.052   7.024   5.299
 6996SOL    HW221888   2.926   0.056   5.385
 6997SOL     OW21889   4.351   6.222   4.933
 6997SOL    HW121890   4.367   6.282   4.855
 6997SOL    HW221891   4.317   6.133   4.901
 6998SOL     OW21892   1.898   3.592   2.844
 6998SOL    HW121893   1.976   3.600   2.906
 6998SOL    HW221894   1.853   3.681   2.835
 6999SOL     OW21895   3.054   1.836   6.154
 6999SOL    HW121896   3.041   1.801   6.062
 6999SOL    HW221897   3.094   1.927   6.150
 7000SOL     OW21898   1.025   6.050   2.591
 7000SOL    HW121899   0.961   5.989   2.637
 7000SOL    HW221900   0.978   6.134   2.565
 7001SOL     OW21901   2.239   2.789   5.939
 7001SOL    HW121902   2.181   2.726   5.990
 7001SOL    HW221903   2.233   2.768   5.841
 7002SOL     OW21904   0.797   5.395   3.199
 7002SOL    HW121905   0.768   5.460   3.129
 7002SOL    HW221906   0.752   5.307   3.183
 7003SOL     OW21907   2.999   6.591   0.861
 7003SOL    HW121908   3.079   6.536   0.885
 7003SOL    HW221909   3.028   6.679   0.825
 7004SOL     OW21910   1.261   4.182   1.339
 7004SOL    HW121911   1.235   4.177   1.243
 7004SOL    HW221912   1.205   4.119   1.393
 7005SOL     OW21913   5.253   6.237   6.873
 7005SOL    HW121914   5.253   6.251   6.774
 7005SOL    HW221915   5.345   6.210   6.903
 7006SOL     OW21916   4.621   4.399   4.571
 7006SOL    HW121917   4.593   4.414   4.666
 7006SOL    HW221918   4.709   4.350   4.569
 7007SOL     OW21919   4.289   6.167   3.001
 7007SOL    HW121920   4.297   6.092   3.067
 7007SOL    HW221921   4.295   6.254   3.050
 7008SOL     OW21922   1.816   5.074   4.370
 7008SOL    HW121923   1.902   5.028   4.347
 7008SOL    HW221924   1.739   5.016   4.344
 7009SOL     OW21925   6.708   5.777   2.284
 7009SOL    HW121926   6.676   5.705   2.345
 7009SOL    HW221927   6.645   5.854   2.288
 7010SOL     OW21928   3.414   5.126   6.536
 7010SOL    HW121929   3.361   5.058   6.587
 7010SOL    HW221930   3.383   5.218   6.562
 7011SOL     OW21931   2.705   6.838   6.011
 7011SOL    HW121932   2.671   6.744   6.017
 7011SOL    HW221933   2.646   6.892   5.952
 7012SOL     OW21934   1.323   6.977   1.932
 7012SOL    HW121935   1.326   0.043   1.969
 7012SOL    HW221936   1.390   6.969   1.857
 7013SOL     OW21937   0.928   0.375   1.327
 7013SOL    HW121938   0.955   0.279   1.323
 7013SOL    HW221939   1.008   0.431   1.344
 7014SOL     OW21940   2.714   4.480   1.079
 7014SOL    HW121941   2.661   4.521   1.153
 7014SOL    HW221942   2.800   4.444   1.115
 7015SOL     OW21943   5.019   2.486   2.419
 7015SOL    HW121944   4.958   2.566   2.423
 7015SOL    HW221945   5.111   2.516   2.396
 7016SOL     OW21946   4.325   4.853   1.505
 7016SOL    HW121947   4.276   4.900   1.579
 7016SOL    HW221948   4.292   4.887   1.417
 7017SOL     OW21949   3.124   1.825   3.699
 7017SOL    HW121950   3.039   1.800   3.746
 7017SOL    HW221951   3.104   1.896   3.632
 7018SOL     OW21952   0.226   3.725   4.600
 7018SOL    HW121953   0.157   3.776   4.651
 7018SOL    HW221954   0.273   3.788   4.537
 7019SOL     OW21955   2.834   5.633   6.852
 7019SOL    HW121956   2.853   5.664   6.945
 7019SOL    HW221957   2.873   5.698   6.787
 7020SOL     OW21958   6.041   6.954   6.794
 7020SOL    HW121959   6.113   7.017   6.763
 7020SOL    HW221960   6.031   6.963   6.893
 7021SOL     OW21961   2.440   0.763   5.767
 7021SOL    HW121962   2.463   0.820   5.846
 7021SOL    HW221963   2.465   0.811   5.683
 7022SOL     OW21964   5.345   3.712   6.963
 7022SOL    HW121965   5.274   3.641   6.955
 7022SOL    HW221966   5.375   3.718   0.031
 7023SOL     OW21967   6.135   2.928   1.526
 7023SOL    HW121968   6.209   2.878   1.571
 7023SOL    HW221969   6.047   2.885   1.549
 7024SOL     OW21970   1.823   5.858   0.021
 7024SOL    HW121971   1.809   5.871   6.949
 7024SOL    HW221972   1.875   5.935   0.058
 7025SOL     OW21973   3.272   1.779   0.207
 7025SOL    HW121974   3.265   1.877   0.223
 7025SOL    HW221975   3.187   1.734   0.237
 7026SOL     OW21976   3.993   1.590   1.536
 7026SOL    HW121977   4.044   1.573   1.452
 7026SOL    HW221978   3.920   1.657   1.518
 7027SOL     OW21979   3.624   5.717   4.077
 7027SOL    HW121980   3.637   5.681   3.985
 7027SOL    HW221981   3.713   5.747   4.113
 7028SOL     OW21982   4.481   6.093   3.576
 7028SOL    HW121983   4.450   6.057   3.664
 7028SOL    HW221984   4.413   6.073   3.506
 7029SOL     OW21985   3.745   6.364   0.477
 7029SOL    HW121986   3.769   6.298   0.405
 7029SOL    HW221987   3.820   6.428   0.490
 7030SOL     OW21988   0.033   3.571   5.090
 7030SOL    HW121989   0.070   3.664   5.096
 7030SOL    HW221990   0.001   3.554   4.997
 7031SOL     OW21991   1.819   5.674   4.133
 7031SOL    HW121992   1.771   5.761   4.143
 7031SOL    HW221993   1.796   5.614   4.210
 7032SOL     OW21994   6.326   0.784   2.861
 7032SOL    HW121995   6.327   0.878   2.895
 7032SOL    HW221996   6.408   0.736   2.892
 7033SOL     OW21997   6.948   1.317   4.102
 7033SOL    HW121998   6.949   1.254   4.025
 7033SOL    HW221999   6.967   1.410   4.070
 7034SOL     OW22000   6.360   0.471   3.316
 7034SOL    HW122001   6.450   0.444   3.349
 7034SOL    HW222002   6.315   0.393   3.272
 7035SOL     OW22003   6.934   5.760   2.693
 7035SOL    HW122004   6.939   5.846   2.641
 7035SOL    HW222005   7.011   5.756   2.757
 7036SOL     OW22006   6.552   5.095   1.655
 7036SOL    HW122007   6.621   5.022   1.648
 7036SOL    HW222008   6.461   5.055   1.659
 7037SOL     OW22009   1.231   6.379   5.680
 7037SOL    HW122010   1.207   6.382   5.584
 7037SOL    HW222011   1.152   6.347   5.733
 7038SOL     OW22012   0.970   4.645   3.693
 7038SOL    HW122013   0.964   4.744   3.680
 7038SOL    HW222014   1.043   4.625   3.758
 7039SOL     OW22015   4.031   0.830   6.052
 7039SOL    HW122016   4.126   0.839   6.023
 7039SOL    HW222017   3.981   0.914   6.030
 7040SOL     OW22018   5.087   2.427   6.306
 7040SOL    HW122019   5.005   2.371   6.320
 7040SOL    HW222020   5.079   2.476   6.219
 7041SOL     OW22021   1.659   1.764   2.907
 7041SOL    HW122022   1.711   1.741   2.825
 7041SOL    HW222023   1.671   1.861   2.928
 7042SOL     OW22024   3.923   5.746   6.917
 7042SOL    HW122025   3.850   5.736   6.984
 7042SOL    HW222026   3.994   5.806   6.954
 7043SOL     OW22027   2.006   1.715   3.335
 7043SOL    HW122028   1.929   1.653   3.347
 7043SOL    HW222029   1.996   1.763   3.248
 7044SOL     OW22030   4.824   4.487   2.763
 7044SOL    HW122031   4.732   4.450   2.763
 7044SOL    HW222032   4.890   4.415   2.783
 7045SOL     OW22033   5.803   6.297   1.307
 7045SOL    HW122034   5.783   6.225   1.241
 7045SOL    HW222035   5.893   6.280   1.348
 7046SOL     OW22036   3.914   0.666   4.633
 7046SOL    HW122037   3.862   0.732   4.579
 7046SOL    HW222038   3.980   0.714   4.691
 7047SOL     OW22039   0.984   0.809   4.045
 7047SOL    HW122040   1.009   0.856   4.130
 7047SOL    HW222041   1.057   0.747   4.018
 7048SOL     OW22042   0.058   6.474   0.931
 7048SOL    HW122043   0.035   6.436   0.842
 7048SOL    HW222044   0.137   6.427   0.969
 7049SOL     OW22045   2.584   1.177   0.465
 7049SOL    HW122046   2.646   1.111   0.424
 7049SOL    HW222047   2.627   1.219   0.544
 7050SOL     OW22048   3.252   3.847   4.654
 7050SOL    HW122049   3.268   3.894   4.741
 7050SOL    HW222050   3.156   3.858   4.626
 7051SOL     OW22051   0.154   0.347   1.807
 7051SOL    HW122052   0.066   0.367   1.851
 7051SOL    HW222053   0.222   0.325   1.877
 7052SOL     OW22054   0.100   2.294   4.495
 7052SOL    HW122055   0.175   2.245   4.449
 7052SOL    HW222056   0.139   2.366   4.552
 7053SOL     OW22057   0.526   3.878   6.830
 7053SOL    HW122058   0.617   3.839   6.814
 7053SOL    HW222059   0.519   3.966   6.783
 7054SOL     OW22060   6.166   6.779   1.859
 7054SOL    HW122061   6.251   6.752   1.906
 7054SOL    HW222062   6.174   6.758   1.762
 7055SOL     OW22063   4.761   0.420   4.523
 7055SOL    HW122064   4.839   0.432   4.461
 7055SOL    HW222065   4.761   0.326   4.558
 7056SOL     OW22066   5.851   5.021   3.521
 7056SOL    HW122067   5.753   5.041   3.530
 7056SOL    HW222068   5.876   5.023   3.424
 7057SOL     OW22069   7.008   4.692   3.685
 7057SOL    HW122070   0.033   4.735   3.759
 7057SOL    HW222071   7.003   4.754   3.607
 7058SOL     OW22072   0.808   5.228   5.300
 7058SOL    HW122073   0.720   5.238   5.346
 7058SOL    HW222074   0.797   5.250   5.203
 7059SOL     OW22075   0.854   0.412   2.464
 7059SOL    HW122076   0.837   0.463   2.548
 7059SOL    HW222077   0.862   0.476   2.387
 7060SOL     OW22078   3.659   6.460   1.742
 7060SOL    HW122079   3.727   6.410   1.796
 7060SOL    HW222080   3.567   6.434   1.771
 7061SOL     OW22081   0.638   1.296   3.049
 7061SOL    HW122082   0.591   1.380   3.076
 7061SOL    HW222083   0.689   1.260   3.126
 7062SOL     OW22084   5.637   1.497   5.321
 7062SOL    HW122085   5.617   1.534   5.230
 7062SOL    HW222086   5.640   1.571   5.388
 7063SOL     OW22087   1.973   6.739   1.392
 7063SOL    HW122088   1.971   6.722   1.490
 7063SOL    HW222089   2.010   6.658   1.345
 7064SOL     OW22090   4.176   2.238   1.915
 7064SOL    HW122091   4.224   2.186   1.844
 7064SOL    HW222092   4.079   2.214   1.913
 7065SOL     OW22093   4.304   3.966   1.490
 7065SOL    HW122094   4.362   3.981   1.411
 7065SOL    HW222095   4.238   3.893   1.471
 7066SOL     OW22096   3.996   7.008   0.336
 7066SOL    HW122097   4.053   0.053   0.377
 7066SOL    HW222098   3.930   0.024   0.273
 7067SOL     OW22099   0.933   3.376   5.800
 7067SOL    HW122100   0.947   3.403   5.895
 7067SOL    HW222101   0.985   3.437   5.740
 7068SOL     OW22102   1.604   2.056   3.285
 7068SOL    HW122103   1.626   1.976   3.340
 7068SOL    HW222104   1.565   2.127   3.344
 7069SOL     OW22105   6.563   4.096   5.482
 7069SOL    HW122106   6.467   4.076   5.462
 7069SOL    HW222107   6.611   4.011   5.504
 7070SOL     OW22108   6.431   4.483   4.928
 7070SOL    HW122109   6.348   4.539   4.927
 7070SOL    HW222110   6.508   4.537   4.893
 7071SOL     OW22111   1.279   5.781   5.106
 7071SOL    HW122112   1.260   5.779   5.204
 7071SOL    HW222113   1.346   5.710   5.084
 7072SOL     OW22114   6.438   6.531   5.972
 7072SOL    HW122115   6.499   6.609   5.961
 7072SOL    HW222116   6.397   6.533   6.064
 7073SOL     OW22117   6.958   1.194   5.409
 7073SOL    HW122118   6.993   1.284   5.435
 7073SOL    HW222119   6.983   1.175   5.314
 7074SOL     OW22120   3.207   2.487   1.645
 7074SOL    HW122121   3.249   2.455   1.560
 7074SOL    HW222122   3.156   2.413   1.688
 7075SOL     OW22123   2.042   6.175   4.481
 7075SOL    HW122124   2.090   6.167   4.394
 7075SOL    HW222125   1.944   6.185   4.465
 7076SOL     OW22126   3.942   1.636   6.382
 7076SOL    HW122127   3.873   1.680   6.438
 7076SOL    HW222128   4.031   1.680   6.397
 7077SOL     OW22129   2.362   5.632   5.462
 7077SOL    HW122130   2.360   5.692   5.541
 7077SOL    HW222131   2.456   5.608   5.440
 7078SOL     OW22132   6.369   6.978   3.126
 7078SOL    HW122133   6.436   7.022   3.066
 7078SOL    HW222134   6.401   6.886   3.150
 7079SOL     OW22135   6.387   6.216   6.097
 7079SOL    HW122136   6.350   6.152   6.165
 7079SOL    HW222137   6.474   6.181   6.063
 7080SOL     OW22138   4.268   2.259   4.162
 7080SOL    HW122139   4.218   2.249   4.248
 7080SOL    HW222140   4.244   2.185   4.099
 7081SOL     OW22141   3.093   1.570   5.578
 7081SOL    HW122142   3.107   1.647   5.515
 7081SOL    HW222143   3.160   1.577   5.652
 7082SOL     OW22144   5.760   1.683   0.039
 7082SOL    HW122145   5.818   1.641   0.109
 7082SOL    HW222146   5.674   1.634   0.034
 7083SOL     OW22147   3.383   1.122   5.977
 7083SOL    HW122148   3.288   1.125   6.007
 7083SOL    HW222149   3.387   1.086   5.884
 7084SOL     OW22150   6.706   6.161   5.781
 7084SOL    HW122151   6.705   6.125   5.687
 7084SOL    HW222152   6.650   6.102   5.839
 7085SOL     OW22153   2.416   2.650   3.100
 7085SOL    HW122154   2.401   2.689   3.008
 7085SOL    HW222155   2.512   2.625   3.110
 7086SOL     OW22156   5.477   1.125   6.763
 7086SOL    HW122157   5.526   1.212   6.757
 7086SOL    HW222158   5.520   1.067   6.832
 7087SOL     OW22159   0.655   3.815   4.454
 7087SOL    HW122160   0.624   3.722   4.475
 7087SOL    HW222161   0.672   3.822   4.355
 7088SOL     OW22162   5.205   3.209   4.372
 7088SOL    HW122163   5.114   3.222   4.413
 7088SOL    HW222164   5.198   3.221   4.273
 7089SOL     OW22165   3.578   2.174   6.258
 7089SOL    HW122166   3.575   2.238   6.335
 7089SOL    HW222167   3.540   2.086   6.286
 7090SOL     OW22168   1.832   1.961   5.372
 7090SOL    HW122169   1.878   2.048   5.357
 7090SOL    HW222170   1.873   1.915   5.451
 7091SOL     OW22171   0.203   0.821   0.385
 7091SOL    HW122172   0.235   0.793   0.476
 7091SOL    HW222173   0.103   0.829   0.386
 7092SOL     OW22174   3.767   3.955   0.633
 7092SOL    HW122175   3.737   3.950   0.728
 7092SOL    HW222176   3.862   3.987   0.630
 7093SOL     OW22177   3.333   4.122   4.359
 7093SOL    HW122178   3.249   4.109   4.411
 7093SOL    HW222179   3.410   4.133   4.422
 7094SOL     OW22180   0.903   6.523   5.706
 7094SOL    HW122181   0.991   6.555   5.671
 7094SOL    HW222182   0.834   6.530   5.634
 7095SOL     OW22183   1.442   3.643   6.313
 7095SOL    HW122184   1.509   3.698   6.262
 7095SOL    HW222185   1.400   3.576   6.251
 7096SOL     OW22186   4.540   2.194   3.757
 7096SOL    HW122187   4.517   2.176   3.853
 7096SOL    HW222188   4.618   2.138   3.730
 7097SOL     OW22189   0.441   1.373   2.333
 7097SOL    HW122190   0.521   1.420   2.371
 7097SOL    HW222191   0.455   1.357   2.236
 7098SOL     OW22192   1.697   5.759   5.951
 7098SOL    HW122193   1.613   5.799   5.989
 7098SOL    HW222194   1.776   5.805   5.991
 7099SOL     OW22195   1.579   1.246   4.878
 7099SOL    HW122196   1.492   1.268   4.923
 7099SOL    HW222197   1.611   1.157   4.908
 7100SOL     OW22198   4.922   4.224   0.898
 7100SOL    HW122199   4.930   4.132   0.860
 7100SOL    HW222200   5.011   4.255   0.930
 7101SOL     OW22201   3.256   0.194   4.540
 7101SOL    HW122202   3.228   0.132   4.466
 7101SOL    HW222203   3.344   0.235   4.518
 7102SOL     OW22204   4.172   1.333   0.859
 7102SOL    HW122205   4.110   1.276   0.912
 7102SOL    HW222206   4.166   1.308   0.762
 7103SOL     OW22207   3.664   6.318   0.039
 7103SOL    HW122208   3.601   6.247   0.071
 7103SOL    HW222209   3.612   6.388   7.017
 7104SOL     OW22210   1.550   2.805   3.171
 7104SOL    HW122211   1.622   2.741   3.198
 7104SOL    HW222212   1.512   2.849   3.253
 7105SOL     OW22213   3.326   3.384   4.429
 7105SOL    HW122214   3.279   3.345   4.350
 7105SOL    HW222215   3.311   3.482   4.432
 7106SOL     OW22216   3.584   3.087   4.926
 7106SOL    HW122217   3.674   3.044   4.931
 7106SOL    HW222218   3.565   3.116   4.833
 7107SOL     OW22219   2.910   1.248   0.146
 7107SOL    HW122220   2.942   1.159   0.177
 7107SOL    HW222221   2.987   1.312   0.144
 7108SOL     OW22222   5.127   6.251   0.968
 7108SOL    HW122223   5.223   6.252   0.998
 7108SOL    HW222224   5.095   6.156   0.966
 7109SOL     OW22225   3.810   0.207   6.040
 7109SOL    HW122226   3.869   0.132   6.071
 7109SOL    HW222227   3.715   0.185   6.062
 7110SOL     OW22228   5.130   5.097   4.223
 7110SOL    HW122229   5.170   5.013   4.186
 7110SOL    HW222230   5.101   5.156   4.148
 7111SOL     OW22231   1.581   3.607   4.122
 7111SOL    HW122232   1.609   3.547   4.196
 7111SOL    HW222233   1.511   3.561   4.066
 7112SOL     OW22234   1.001   6.101   3.886
 7112SOL    HW122235   0.959   6.094   3.977
 7112SOL    HW222236   0.961   6.179   3.837
 7113SOL     OW22237   4.071   3.889   4.536
 7113SOL    HW122238   3.993   3.898   4.474
 7113SOL    HW222239   4.125   3.809   4.510
 7114SOL     OW22240   4.470   0.915   1.847
 7114SOL    HW122241   4.500   0.992   1.904
 7114SOL    HW222242   4.385   0.878   1.882
 7115SOL     OW22243   5.015   1.950   1.357
 7115SOL    HW122244   4.953   1.872   1.361
 7115SOL    HW222245   5.053   1.967   1.448
 7116SOL     OW22246   5.176   3.900   3.695
 7116SOL    HW122247   5.130   3.879   3.609
 7116SOL    HW222248   5.186   4.000   3.703
 7117SOL     OW22249   6.556   5.995   3.026
 7117SOL    HW122250   6.497   5.935   2.972
 7117SOL    HW222251   6.592   6.068   2.967
 7118SOL     OW22252   5.176   3.991   1.084
 7118SOL    HW122253   5.218   4.081   1.073
 7118SOL    HW222254   5.160   3.951   0.994
 7119SOL     OW22255   6.072   1.536   2.986
 7119SOL    HW122256   6.147   1.474   2.960
 7119SOL    HW222257   6.072   1.548   3.085
 7120SOL     OW22258   4.997   1.486   3.560
 7120SOL    HW122259   5.063   1.536   3.615
 7120SOL    HW222260   4.977   1.538   3.476
 7121SOL     OW22261   2.138   0.013   3.604
 7121SOL    HW122262   2.065   6.996   3.551
 7121SOL    HW222263   2.112   0.015   3.701
 7122SOL     OW22264   6.767   1.329   0.165
 7122SOL    HW122265   6.763   1.416   0.215
 7122SOL    HW222266   6.860   1.316   0.129
 7123SOL     OW22267   2.659   5.658   1.402
 7123SOL    HW122268   2.588   5.601   1.361
 7123SOL    HW222269   2.619   5.746   1.429
 7124SOL     OW22270   0.316   5.180   0.456
 7124SOL    HW122271   0.361   5.114   0.397
 7124SOL    HW222272   0.323   5.271   0.415
 7125SOL     OW22273   6.438   6.704   1.931
 7125SOL    HW122274   6.447   6.804   1.939
 7125SOL    HW222275   6.453   6.677   1.837
 7126SOL     OW22276   2.369   4.265   0.609
 7126SOL    HW122277   2.393   4.175   0.646
 7126SOL    HW222278   2.301   4.308   0.668
 7127SOL     OW22279   3.283   5.841   4.206
 7127SOL    HW122280   3.258   5.903   4.279
 7127SOL    HW222281   3.257   5.747   4.231
 7128SOL     OW22282   3.287   4.472   0.638
 7128SOL    HW122283   3.304   4.384   0.683
 7128SOL    HW222284   3.272   4.542   0.708
 7129SOL     OW22285   3.149   0.948   1.152
 7129SOL    HW122286   3.216   0.906   1.213
 7129SOL    HW222287   3.177   0.933   1.057
 7130SOL     OW22288   3.028   4.870   3.777
 7130SOL    HW122289   3.043   4.884   3.875
 7130SOL    HW222290   2.935   4.896   3.754
 7131SOL     OW22291   3.090   1.670   2.211
 7131SOL    HW122292   3.003   1.623   2.195
 7131SOL    HW222293   3.123   1.709   2.125
 7132SOL     OW22294   3.957   3.763   2.876
 7132SOL    HW122295   3.934   3.714   2.792
 7132SOL    HW222296   3.929   3.859   2.867
 7133SOL     OW22297   4.883   5.916   3.218
 7133SOL    HW122298   4.949   5.972   3.268
 7133SOL    HW222299   4.887   5.822   3.252
 7134SOL     OW22300   6.374   5.962   3.919
 7134SOL    HW122301   6.441   6.010   3.975
 7134SOL    HW222302   6.339   6.024   3.848
 7135SOL     OW22303   1.250   1.218   4.323
 7135SOL    HW122304   1.208   1.245   4.237
 7135SOL    HW222305   1.327   1.156   4.305
 7136SOL     OW22306   2.290   0.820   0.702
 7136SOL    HW122307   2.197   0.805   0.735
 7136SOL    HW222308   2.355   0.782   0.768
 7137SOL     OW22309   4.852   0.846   4.698
 7137SOL    HW122310   4.797   0.912   4.647
 7137SOL    HW222311   4.889   0.890   4.780
 7138SOL     OW22312   3.188   3.489   1.103
 7138SOL    HW122313   3.188   3.501   1.202
 7138SOL    HW222314   3.222   3.398   1.080
 7139SOL     OW22315   4.732   3.163   1.614
 7139SOL    HW122316   4.708   3.255   1.646
 7139SOL    HW222317   4.719   3.097   1.688
 7140SOL     OW22318   6.539   4.076   4.874
 7140SOL    HW122319   6.494   4.038   4.954
 7140SOL    HW222320   6.525   4.015   4.796
 7141SOL     OW22321   3.021   0.333   0.869
 7141SOL    HW122322   2.939   0.366   0.915
 7141SOL    HW222323   2.996   0.282   0.787
 7142SOL     OW22324   3.993   6.066   3.989
 7142SOL    HW122325   4.028   6.115   3.909
 7142SOL    HW222326   3.991   5.968   3.969
 7143SOL     OW22327   1.589   4.287   5.887
 7143SOL    HW122328   1.494   4.314   5.900
 7143SOL    HW222329   1.627   4.337   5.809
 7144SOL     OW22330   1.178   1.669   3.073
 7144SOL    HW122331   1.247   1.712   3.015
 7144SOL    HW222332   1.112   1.620   3.016
 7145SOL     OW22333   4.283   6.889   6.728
 7145SOL    HW122334   4.347   6.930   6.793
 7145SOL    HW222335   4.249   6.803   6.765
 7146SOL     OW22336   2.953   6.602   0.504
 7146SOL    HW122337   3.026   6.596   0.573
 7146SOL    HW222338   2.869   6.634   0.547
 7147SOL     OW22339   6.926   0.341   3.509
 7147SOL    HW122340   6.876   0.255   3.500
 7147SOL    HW222341   6.983   0.338   3.592
 7148SOL     OW22342   1.194   6.489   1.408
 7148SOL    HW122343   1.213   6.563   1.473
 7148SOL    HW222344   1.243   6.506   1.323
 7149SOL     OW22345   6.074   1.016   3.711
 7149SOL    HW122346   6.106   0.932   3.756
 7149SOL    HW222347   6.069   1.090   3.778
 7150SOL     OW22348   5.201   3.060   0.484
 7150SOL    HW122349   5.175   3.063   0.580
 7150SOL    HW222350   5.204   2.965   0.453
 7151SOL     OW22351   1.981   5.861   1.045
 7151SOL    HW122352   2.027   5.865   1.133
 7151SOL    HW222353   1.966   5.954   1.011
 7152SOL     OW22354   0.568   3.209   4.741
 7152SOL    HW122355   0.638   3.185   4.808
 7152SOL    HW222356   0.492   3.254   4.788
 7153SOL     OW22357   4.415   0.516   4.927
 7153SOL    HW122358   4.442   0.611   4.910
 7153SOL    HW222359   4.481   0.454   4.884
 7154SOL     OW22360   3.518   5.624   4.353
 7154SOL    HW122361   3.527   5.662   4.261
 7154SOL    HW222362   3.599   5.647   4.408
 7155SOL     OW22363   1.393   6.097   1.990
 7155SOL    HW122364   1.399   6.046   1.904
 7155SOL    HW222365   1.459   6.060   2.055
 7156SOL     OW22366   6.426   5.151   5.190
 7156SOL    HW122367   6.330   5.132   5.168
 7156SOL    HW222368   6.430   5.222   5.261
 7157SOL     OW22369   5.890   5.678   0.270
 7157SOL    HW122370   5.927   5.709   0.182
 7157SOL    HW222371   5.790   5.672   0.262
 7158SOL     OW22372   0.015   6.522   3.106
 7158SOL    HW122373   0.018   6.619   3.128
 7158SOL    HW222374   0.107   6.483   3.114
 7159SOL     OW22375   0.571   5.386   1.252
 7159SOL    HW122376   0.539   5.473   1.289
 7159SOL    HW222377   0.549   5.313   1.316
 7160SOL     OW22378   6.519   0.225   2.007
 7160SOL    HW122379   6.455   0.243   1.932
 7160SOL    HW222380   6.565   0.310   2.032
 7161SOL     OW22381   3.710   3.308   3.674
 7161SOL    HW122382   3.748   3.372   3.741
 7161SOL    HW222383   3.772   3.301   3.596
 7162SOL     OW22384   3.475   4.970   4.004
 7162SOL    HW122385   3.381   4.955   3.971
 7162SOL    HW222386   3.472   5.023   4.088
 7163SOL     OW22387   3.549   0.270   3.613
 7163SOL    HW122388   3.610   0.258   3.691
 7163SOL    HW222389   3.597   0.318   3.540
 7164SOL     OW22390   2.294   1.178   2.989
 7164SOL    HW122391   2.356   1.181   3.068
 7164SOL    HW222392   2.303   1.090   2.943
 7165SOL     OW22393   5.851   1.352   0.714
 7165SOL    HW122394   5.809   1.297   0.786
 7165SOL    HW222395   5.781   1.410   0.671
 7166SOL     OW22396   4.569   4.634   1.004
 7166SOL    HW122397   4.587   4.580   1.086
 7166SOL    HW222398   4.593   4.729   1.020
 7167SOL     OW22399   4.820   3.723   5.325
 7167SOL    HW122400   4.810   3.653   5.254
 7167SOL    HW222401   4.886   3.691   5.394
 7168SOL     OW22402   1.095   1.277   4.105
 7168SOL    HW122403   1.137   1.315   4.022
 7168SOL    HW222404   1.041   1.196   4.080
 7169SOL     OW22405   1.619   3.307   5.899
 7169SOL    HW122406   1.692   3.248   5.934
 7169SOL    HW222407   1.652   3.401   5.894
 7170SOL     OW22408   5.564   4.855   3.294
 7170SOL    HW122409   5.575   4.923   3.367
 7170SOL    HW222410   5.614   4.772   3.318
 7171SOL     OW22411   4.388   3.018   5.477
 7171SOL    HW122412   4.332   2.963   5.539
 7171SOL    HW222413   4.424   3.097   5.526
 7172SOL     OW22414   1.617   6.597   0.887
 7172SOL    HW122415   1.573   6.666   0.830
 7172SOL    HW222416   1.639   6.636   0.976
 7173SOL     OW22417   0.030   5.530   4.235
 7173SOL    HW122418   0.104   5.597   4.227
 7173SOL    HW222419   7.022   5.508   4.144
 7174SOL     OW22420   2.012   5.077   0.406
 7174SOL    HW122421   1.954   5.073   0.488
 7174SOL    HW222422   2.054   4.987   0.390
 7175SOL     OW22423   5.081   3.605   0.430
 7175SOL    HW122424   5.140   3.685   0.425
 7175SOL    HW222425   5.125   3.534   0.485
 7176SOL     OW22426   6.796   4.609   1.708
 7176SOL    HW122427   6.760   4.567   1.791
 7176SOL    HW222428   6.887   4.648   1.727
 7177SOL     OW22429   1.114   5.851   3.454
 7177SOL    HW122430   1.030   5.815   3.412
 7177SOL    HW222431   1.193   5.822   3.400
 7178SOL     OW22432   1.108   2.890   5.034
 7178SOL    HW122433   1.059   2.873   4.948
 7178SOL    HW222434   1.090   2.814   5.097
 7179SOL     OW22435   2.992   3.750   5.560
 7179SOL    HW122436   2.970   3.847   5.570
 7179SOL    HW222437   3.012   3.730   5.464
 7180SOL     OW22438   0.704   6.290   0.062
 7180SOL    HW122439   0.640   6.317   7.016
 7180SOL    HW222440   0.681   6.340   0.146
 7181SOL     OW22441   4.257   0.793   1.329
 7181SOL    HW122442   4.313   0.867   1.291
 7181SOL    HW222443   4.278   0.708   1.281
 7182SOL     OW22444   2.163   4.236   5.452
 7182SOL    HW122445   2.162   4.146   5.409
 7182SOL    HW222446   2.160   4.307   5.381
 7183SOL     OW22447   1.380   4.985   2.784
 7183SOL    HW122448   1.400   4.901   2.835
 7183SOL    HW222449   1.296   5.027   2.818
 7184SOL     OW22450   1.305   6.255   4.061
 7184SOL    HW122451   1.283   6.341   4.014
 7184SOL    HW222452   1.346   6.191   3.996
 7185SOL     OW22453   4.930   3.058   6.570
 7185SOL    HW122454   4.858   2.996   6.600
 7185SOL    HW222455   4.918   3.147   6.612
 7186SOL     OW22456   6.691   6.491   5.387
 7186SOL    HW122457   6.620   6.543   5.339
 7186SOL    HW222458   6.652   6.405   5.420
 7187SOL     OW22459   1.420   4.226   1.960
 7187SOL    HW122460   1.515   4.199   1.973
 7187SOL    HW222461   1.397   4.220   1.862
 7188SOL     OW22462   5.271   0.391   2.012
 7188SOL    HW122463   5.365   0.425   2.007
 7188SOL    HW222464   5.257   0.344   2.098
 7189SOL     OW22465   6.903   1.158   6.067
 7189SOL    HW122466   6.852   1.229   6.019
 7189SOL    HW222467   6.852   1.130   6.148
 7190SOL     OW22468   5.454   3.937   2.877
 7190SOL    HW122469   5.425   4.004   2.945
 7190SOL    HW222470   5.376   3.882   2.849
 7191SOL     OW22471   1.076   3.623   2.839
 7191SOL    HW122472   1.089   3.541   2.895
 7191SOL    HW222473   1.079   3.704   2.898
 7192SOL     OW22474   2.208   4.897   6.008
 7192SOL    HW122475   2.136   4.947   6.056
 7192SOL    HW222476   2.167   4.824   5.953
 7193SOL     OW22477   3.184   1.783   4.789
 7193SOL    HW122478   3.212   1.830   4.873
 7193SOL    HW222479   3.105   1.726   4.808
 7194SOL     OW22480   2.460   1.579   1.314
 7194SOL    HW122481   2.552   1.573   1.273
 7194SOL    HW222482   2.398   1.621   1.249
 7195SOL     OW22483   0.332   5.218   0.752
 7195SOL    HW122484   0.374   5.136   0.790
 7195SOL    HW222485   0.248   5.240   0.803
 7196SOL     OW22486   2.909   3.561   2.964
 7196SOL    HW122487   2.899   3.526   2.871
 7196SOL    HW222488   2.876   3.493   3.029
 7197SOL     OW22489   6.990   1.456   4.649
 7197SOL    HW122490   0.016   1.411   4.721
 7197SOL    HW222491   7.006   1.554   4.653
 7198SOL     OW22492   1.809   6.727   5.803
 7198SOL    HW122493   1.807   6.640   5.753
 7198SOL    HW222494   1.870   6.791   5.757
 7199SOL     OW22495   0.258   0.901   2.547
 7199SOL    HW122496   0.263   0.995   2.513
 7199SOL    HW222497   0.301   0.896   2.637
 7200SOL     OW22498   2.565   1.048   0.779
 7200SOL    HW122499   2.511   1.054   0.695
 7200SOL    HW222500   2.505   1.060   0.858
 7201SOL     OW22501   1.480   4.437   3.158
 7201SOL    HW122502   1.540   4.489   3.097
 7201SOL    HW222503   1.414   4.385   3.104
 7202SOL     OW22504   4.412   0.286   6.176
 7202SOL    HW122505   4.434   0.209   6.235
 7202SOL    HW222506   4.469   0.364   6.201
 7203SOL     OW22507   5.961   0.379   0.567
 7203SOL    HW122508   5.956   0.475   0.541
 7203SOL    HW222509   5.974   0.371   0.666
 7204SOL     OW22510   6.107   0.758   3.571
 7204SOL    HW122511   6.090   0.666   3.606
 7204SOL    HW222512   6.022   0.812   3.576
 7205SOL     OW22513   1.736   5.221   3.053
 7205SOL    HW122514   1.835   5.216   3.066
 7205SOL    HW222515   1.713   5.193   2.960
 7206SOL     OW22516   6.946   1.604   1.206
 7206SOL    HW122517   6.960   1.507   1.192
 7206SOL    HW222518   6.970   1.628   1.300
 7207SOL     OW22519   3.301   6.773   1.383
 7207SOL    HW122520   3.285   6.703   1.313
 7207SOL    HW222521   3.382   6.826   1.359
 7208SOL     OW22522   3.370   6.807   5.048
 7208SOL    HW122523   3.357   6.751   4.967
 7208SOL    HW222524   3.467   6.809   5.072
 7209SOL     OW22525   4.081   3.417   3.819
 7209SOL    HW122526   4.062   3.430   3.916
 7209SOL    HW222527   4.059   3.323   3.793
 7210SOL     OW22528   4.594   1.186   4.064
 7210SOL    HW122529   4.556   1.107   4.015
 7210SOL    HW222530   4.674   1.220   4.015
 7211SOL     OW22531   1.104   6.112   4.190
 7211SOL    HW122532   1.170   6.185   4.173
 7211SOL    HW222533   1.035   6.143   4.255
 7212SOL     OW22534   6.295   5.436   4.713
 7212SOL    HW122535   6.393   5.455   4.707
 7212SOL    HW222536   6.248   5.478   4.635
 7213SOL     OW22537   5.387   0.666   5.555
 7213SOL    HW122538   5.450   0.612   5.611
 7213SOL    HW222539   5.308   0.692   5.610
 7214SOL     OW22540   2.431   5.687   4.710
 7214SOL    HW122541   2.512   5.744   4.724
 7214SOL    HW222542   2.371   5.730   4.643
 7215SOL     OW22543   0.820   3.555   4.049
 7215SOL    HW122544   0.840   3.462   4.081
 7215SOL    HW222545   0.860   3.569   3.959
 7216SOL     OW22546   2.277   6.768   0.173
 7216SOL    HW122547   2.370   6.746   0.203
 7216SOL    HW222548   2.243   6.695   0.114
 7217SOL     OW22549   1.314   3.956   2.288
 7217SOL    HW122550   1.313   3.923   2.382
 7217SOL    HW222551   1.401   3.934   2.244
 7218SOL     OW22552   4.482   2.018   5.767
 7218SOL    HW122553   4.514   1.961   5.691
 7218SOL    HW222554   4.384   2.004   5.780
 7219SOL     OW22555   4.326   6.407   3.217
 7219SOL    HW122556   4.372   6.482   3.264
 7219SOL    HW222557   4.360   6.320   3.252
 7220SOL     OW22558   6.396   1.417   2.720
 7220SOL    HW122559   6.337   1.496   2.701
 7220SOL    HW222560   6.486   1.433   2.680
 7221SOL     OW22561   5.709   4.044   5.625
 7221SOL    HW122562   5.623   4.032   5.576
 7221SOL    HW222563   5.698   4.113   5.696
 7222SOL     OW22564   6.833   6.542   1.116
 7222SOL    HW122565   6.742   6.552   1.158
 7222SOL    HW222566   6.823   6.507   1.023
 7223SOL     OW22567   3.167   1.556   6.094
 7223SOL    HW122568   3.135   1.613   6.170
 7223SOL    HW222569   3.099   1.558   6.020
 7224SOL     OW22570   5.638   0.871   4.637
 7224SOL    HW122571   5.634   0.775   4.608
 7224SOL    HW222572   5.617   0.930   4.559
 7225SOL     OW22573   1.923   5.605   0.137
 7225SOL    HW122574   1.909   5.625   0.234
 7225SOL    HW222575   1.936   5.691   0.087
 7226SOL     OW22576   0.460   6.807   0.497
 7226SOL    HW122577   0.474   6.831   0.594
 7226SOL    HW222578   0.380   6.857   0.463
 7227SOL     OW22579   0.454   2.283   6.982
 7227SOL    HW122580   0.391   2.230   6.925
 7227SOL    HW222581   0.547   2.273   6.947
 7228SOL     OW22582   6.817   0.069   2.026
 7228SOL    HW122583   6.781   0.161   2.043
 7228SOL    HW222584   6.880   0.071   1.948
 7229SOL     OW22585   1.666   6.628   4.410
 7229SOL    HW122586   1.685   6.627   4.509
 7229SOL    HW222587   1.729   6.566   4.364
 7230SOL     OW22588   4.753   5.379   3.863
 7230SOL    HW122589   4.829   5.445   3.859
 7230SOL    HW222590   4.693   5.403   3.939
 7231SOL     OW22591   5.876   1.634   6.210
 7231SOL    HW122592   5.960   1.629   6.156
 7231SOL    HW222593   5.899   1.627   6.307
 7232SOL     OW22594   4.535   4.427   2.449
 7232SOL    HW122595   4.623   4.382   2.461
 7232SOL    HW222596   4.510   4.475   2.533
 7233SOL     OW22597   0.341   3.054   5.716
 7233SOL    HW122598   0.291   2.967   5.720
 7233SOL    HW222599   0.431   3.039   5.674
 7234SOL     OW22600   6.479   2.378   1.607
 7234SOL    HW122601   6.523   2.324   1.535
 7234SOL    HW222602   6.392   2.336   1.633
 7235SOL     OW22603   5.175   3.790   4.764
 7235SOL    HW122604   5.240   3.714   4.778
 7235SOL    HW222605   5.082   3.754   4.764
 7236SOL     OW22606   4.017   1.247   3.412
 7236SOL    HW122607   3.980   1.162   3.449
 7236SOL    HW222608   4.006   1.320   3.480
 7237SOL     OW22609   6.097   5.846   5.670
 7237SOL    HW122610   6.026   5.885   5.730
 7237SOL    HW222611   6.110   5.750   5.693
 7238SOL     OW22612   2.793   2.000   2.429
 7238SOL    HW122613   2.815   2.097   2.423
 7238SOL    HW222614   2.848   1.949   2.362
 7239SOL     OW22615   2.034   1.500   2.044
 7239SOL    HW122616   1.995   1.542   2.126
 7239SOL    HW222617   2.057   1.571   1.978
 7240SOL     OW22618   2.844   4.088   0.430
 7240SOL    HW122619   2.866   4.158   0.498
 7240SOL    HW222620   2.769   4.119   0.373
 7241SOL     OW22621   3.290   0.115   5.447
 7241SOL    HW122622   3.323   0.034   5.495
 7241SOL    HW222623   3.194   0.103   5.423
 7242SOL     OW22624   6.271   4.435   6.341
 7242SOL    HW122625   6.256   4.429   6.242
 7242SOL    HW222626   6.367   4.414   6.362
 7243SOL     OW22627   0.923   5.643   6.973
 7243SOL    HW122628   0.931   5.734   6.931
 7243SOL    HW222629   0.952   5.648   0.042
 7244SOL     OW22630   5.797   1.921   1.302
 7244SOL    HW122631   5.884   1.884   1.333
 7244SOL    HW222632   5.803   1.943   1.204
 7245SOL     OW22633   0.362   1.669   4.431
 7245SOL    HW122634   0.419   1.595   4.396
 7245SOL    HW222635   0.293   1.694   4.363
 7246SOL     OW22636   6.426   6.849   5.434
 7246SOL    HW122637   6.388   6.898   5.513
 7246SOL    HW222638   6.524   6.864   5.430
 7247SOL     OW22639   2.618   6.052   1.958
 7247SOL    HW122640   2.590   6.044   1.862
 7247SOL    HW222641   2.599   5.966   2.005
 7248SOL     OW22642   3.944   1.299   4.059
 7248SOL    HW122643   3.859   1.311   4.110
 7248SOL    HW222644   3.975   1.387   4.024
 7249SOL     OW22645   5.855   4.373   6.942
 7249SOL    HW122646   5.774   4.380   6.884
 7249SOL    HW222647   5.836   4.311   7.018
 7250SOL     OW22648   2.724   4.861   5.728
 7250SOL    HW122649   2.796   4.897   5.668
 7250SOL    HW222650   2.662   4.934   5.754
 7251SOL     OW22651   6.788   6.802   4.693
 7251SOL    HW122652   6.814   6.712   4.726
 7251SOL    HW222653   6.832   6.872   4.749
 7252SOL     OW22654   3.469   3.143   4.681
 7252SOL    HW122655   3.534   3.126   4.607
 7252SOL    HW222656   3.405   3.066   4.689
 7253SOL     OW22657   3.526   6.470   1.005
 7253SOL    HW122658   3.572   6.534   0.944
 7253SOL    HW222659   3.507   6.385   0.956
 7254SOL     OW22660   4.342   5.727   4.057
 7254SOL    HW122661   4.329   5.825   4.069
 7254SOL    HW222662   4.297   5.697   3.973
 7255SOL     OW22663   3.356   3.399   2.471
 7255SOL    HW122664   3.355   3.299   2.461
 7255SOL    HW222665   3.361   3.422   2.568
 7256SOL     OW22666   4.387   4.870   3.550
 7256SOL    HW122667   4.473   4.894   3.593
 7256SOL    HW222668   4.385   4.905   3.456
 7257SOL     OW22669   6.082   2.324   3.448
 7257SOL    HW122670   6.142   2.396   3.484
 7257SOL    HW222671   6.052   2.265   3.523
 7258SOL     OW22672   3.472   0.724   5.118
 7258SOL    HW122673   3.427   0.792   5.060
 7258SOL    HW222674   3.571   0.728   5.104
 7259SOL     OW22675   2.230   4.142   0.110
 7259SOL    HW122676   2.300   4.115   0.177
 7259SOL    HW222677   2.154   4.186   0.158
 7260SOL     OW22678   3.347   2.147   2.773
 7260SOL    HW122679   3.273   2.140   2.705
 7260SOL    HW222680   3.308   2.175   2.861
 7261SOL     OW22681   1.971   3.427   1.954
 7261SOL    HW122682   1.973   3.330   1.978
 7261SOL    HW222683   2.063   3.466   1.960
 7262SOL     OW22684   5.727   1.914   4.895
 7262SOL    HW122685   5.651   1.899   4.832
 7262SOL    HW222686   5.792   1.838   4.888
 7263SOL     OW22687   1.829   6.184   1.582
 7263SOL    HW122688   1.773   6.264   1.605
 7263SOL    HW222689   1.925   6.203   1.602
 7264SOL     OW22690   0.001   0.759   6.171
 7264SOL    HW122691   6.933   0.762   6.136
 7264SOL    HW222692   0.046   0.678   6.134
 7265SOL     OW22693   4.470   4.663   5.426
 7265SOL    HW122694   4.522   4.578   5.422
 7265SOL    HW222695   4.398   4.656   5.495
 7266SOL     OW22696   5.082   0.513   1.807
 7266SOL    HW122697   5.165   0.473   1.845
 7266SOL    HW222698   5.005   0.494   1.869
 7267SOL     OW22699   6.981   4.251   4.364
 7267SOL    HW122700   6.944   4.175   4.416
 7267SOL    HW222701   6.999   4.328   4.425
 7268SOL     OW22702   3.934   6.655   1.641
 7268SOL    HW122703   3.872   6.713   1.587
 7268SOL    HW222704   3.922   6.559   1.614
 7269SOL     OW22705   1.329   5.732   1.755
 7269SOL    HW122706   1.300   5.707   1.847
 7269SOL    HW222707   1.388   5.660   1.718
 7270SOL     OW22708   2.520   1.257   2.570
 7270SOL    HW122709   2.599   1.206   2.605
 7270SOL    HW222710   2.529   1.353   2.594
 7271SOL     OW22711   0.121   3.533   2.859
 7271SOL    HW122712   0.108   3.564   2.954
 7271SOL    HW222713   0.199   3.581   2.819
 7272SOL     OW22714   5.269   2.707   2.404
 7272SOL    HW122715   5.208   2.783   2.426
 7272SOL    HW222716   5.296   2.713   2.308
 7273SOL     OW22717   5.646   4.375   0.445
 7273SOL    HW122718   5.649   4.278   0.468
 7273SOL    HW222719   5.734   4.417   0.468
 7274SOL     OW22720   6.724   4.760   5.374
 7274SOL    HW122721   6.771   4.776   5.461
 7274SOL    HW222722   6.700   4.848   5.333
 7275SOL     OW22723   0.027   0.363   0.905
 7275SOL    HW122724   0.118   0.388   0.869
 7275SOL    HW222725   0.036   0.285   0.967
 7276SOL     OW22726   2.265   2.826   4.004
 7276SOL    HW122727   2.352   2.777   3.998
 7276SOL    HW222728   2.253   2.861   4.097
 7277SOL     OW22729   4.352   1.915   4.848
 7277SOL    HW122730   4.380   1.874   4.761
 7277SOL    HW222731   4.410   1.994   4.867
 7278SOL     OW22732   3.386   1.451   3.027
 7278SOL    HW122733   3.291   1.457   3.057
 7278SOL    HW222734   3.443   1.419   3.103
 7279SOL     OW22735   4.989   4.996   0.337
 7279SOL    HW122736   4.892   4.987   0.314
 7279SOL    HW222737   5.040   4.918   0.301
 7280SOL     OW22738   5.544   2.506   4.974
 7280SOL    HW122739   5.549   2.415   5.017
 7280SOL    HW222740   5.624   2.559   4.999
 7281SOL     OW22741   3.621   6.843   2.255
 7281SOL    HW122742   3.650   6.839   2.351
 7281SOL    HW222743   3.697   6.813   2.196
 7282SOL     OW22744   7.001   5.075   2.104
 7282SOL    HW122745   6.952   4.993   2.073
 7282SOL    HW222746   7.022   5.066   2.201
 7283SOL     OW22747   4.244   4.759   2.545
 7283SOL    HW122748   4.267   4.849   2.581
 7283SOL    HW222749   4.145   4.749   2.539
 7284SOL     OW22750   6.601   1.985   3.788
 7284SOL    HW122751   6.578   2.022   3.698
 7284SOL    HW222752   6.549   2.034   3.858
 7285SOL     OW22753   4.952   2.893   1.950
 7285SOL    HW122754   5.034   2.946   1.971
 7285SOL    HW222755   4.871   2.950   1.968
 7286SOL     OW22756   0.710   1.057   1.304
 7286SOL    HW122757   0.716   1.154   1.329
 7286SOL    HW222758   0.700   1.002   1.386
 7287SOL     OW22759   1.329   2.679   3.885
 7287SOL    HW122760   1.386   2.702   3.964
 7287SOL    HW222761   1.370   2.602   3.836
 7288SOL     OW22762   2.993   2.237   3.369
 7288SOL    HW122763   3.070   2.177   3.347
 7288SOL    HW222764   2.995   2.260   3.466
 7289SOL     OW22765   6.060   2.777   0.947
 7289SOL    HW122766   6.130   2.791   0.877
 7289SOL    HW222767   6.085   2.698   1.003
 7290SOL     OW22768   3.131   1.828   5.409
 7290SOL    HW122769   3.067   1.876   5.349
 7290SOL    HW222770   3.177   1.756   5.357
 7291SOL     OW22771   4.613   1.455   0.406
 7291SOL    HW122772   4.566   1.483   0.322
 7291SOL    HW222773   4.683   1.388   0.384
 7292SOL     OW22774   2.403   0.130   2.359
 7292SOL    HW122775   2.380   0.215   2.311
 7292SOL    HW222776   2.383   0.140   2.457
 7293SOL     OW22777   1.805   0.428   5.552
 7293SOL    HW122778   1.874   0.501   5.555
 7293SOL    HW222779   1.755   0.427   5.639
 7294SOL     OW22780   2.239   6.145   1.382
 7294SOL    HW122781   2.333   6.178   1.382
 7294SOL    HW222782   2.177   6.221   1.402
 7295SOL     OW22783   6.053   5.300   2.506
 7295SOL    HW122784   6.043   5.392   2.469
 7295SOL    HW222785   6.013   5.296   2.598
 7296SOL     OW22786   5.246   4.794   2.177
 7296SOL    HW122787   5.163   4.802   2.233
 7296SOL    HW222788   5.275   4.699   2.174
 7297SOL     OW22789   3.907   6.404   1.550
 7297SOL    HW122790   3.812   6.382   1.569
 7297SOL    HW222791   3.963   6.322   1.564
 7298SOL     OW22792   4.821   5.617   6.591
 7298SOL    HW122793   4.836   5.565   6.675
 7298SOL    HW222794   4.905   5.619   6.537
 7299SOL     OW22795   1.802   3.027   6.953
 7299SOL    HW122796   1.713   3.072   6.965
 7299SOL    HW222797   1.792   2.951   6.889
 7300SOL     OW22798   0.382   5.325   1.962
 7300SOL    HW122799   0.429   5.320   1.874
 7300SOL    HW222800   0.349   5.418   1.977
 7301SOL     OW22801   5.321   6.949   5.697
 7301SOL    HW122802   5.343   6.871   5.639
 7301SOL    HW222803   5.393   7.018   5.689
 7302SOL     OW22804   5.327   1.284   6.381
 7302SOL    HW122805   5.273   1.237   6.451
 7302SOL    HW222806   5.399   1.338   6.425
 7303SOL     OW22807   2.729   1.263   1.237
 7303SOL    HW122808   2.808   1.271   1.298
 7303SOL    HW222809   2.756   1.283   1.143
 7304SOL     OW22810   2.810   5.833   1.797
 7304SOL    HW122811   2.713   5.818   1.778
 7304SOL    HW222812   2.859   5.848   1.711
 7305SOL     OW22813   6.342   2.125   0.670
 7305SOL    HW122814   6.320   2.034   0.635
 7305SOL    HW222815   6.339   2.123   0.770
 7306SOL     OW22816   2.476   2.027   1.138
 7306SOL    HW122817   2.467   2.094   1.212
 7306SOL    HW222818   2.572   2.017   1.113
 7307SOL     OW22819   1.802   0.145   1.919
 7307SOL    HW122820   1.855   0.228   1.903
 7307SOL    HW222821   1.861   0.074   1.956
 7308SOL     OW22822   5.089   1.132   2.941
 7308SOL    HW122823   5.020   1.093   2.880
 7308SOL    HW222824   5.177   1.086   2.924
 7309SOL     OW22825   1.555   5.450   3.062
 7309SOL    HW122826   1.620   5.380   3.035
 7309SOL    HW222827   1.605   5.530   3.097
 7310SOL     OW22828   1.996   2.826   6.509
 7310SOL    HW122829   1.910   2.777   6.519
 7310SOL    HW222830   1.989   2.916   6.553
 7311SOL     OW22831   0.037   6.716   6.248
 7311SOL    HW122832   0.058   6.653   6.323
 7311SOL    HW222833   7.013   6.795   6.282
 7312SOL     OW22834   6.831   2.037   4.606
 7312SOL    HW122835   6.887   2.076   4.679
 7312SOL    HW222836   6.797   1.947   4.634
 7313SOL     OW22837   3.187   0.931   1.988
 7313SOL    HW122838   3.093   0.904   2.010
 7313SOL    HW222839   3.186   0.990   1.907
 7314SOL     OW22840   0.139   4.054   0.149
 7314SOL    HW122841   0.054   4.099   0.176
 7314SOL    HW222842   0.157   4.073   0.052
 7315SOL     OW22843   1.241   4.395   2.622
 7315SOL    HW122844   1.216   4.408   2.526
 7315SOL    HW222845   1.287   4.306   2.632
 7316SOL     OW22846   3.247   2.133   0.861
 7316SOL    HW122847   3.176   2.068   0.835
 7316SOL    HW222848   3.301   2.158   0.781
 7317SOL     OW22849   3.960   1.919   1.573
 7317SOL    HW122850   3.894   1.868   1.518
 7317SOL    HW222851   3.914   1.997   1.615
 7318SOL     OW22852   4.185   6.829   0.164
 7318SOL    HW122853   4.121   6.841   0.087
 7318SOL    HW222854   4.184   6.911   0.221
 7319SOL     OW22855   6.224   4.183   6.822
 7319SOL    HW122856   6.168   4.235   6.887
 7319SOL    HW222857   6.195   4.087   6.823
 7320SOL     OW22858   6.841   2.590   1.818
 7320SOL    HW122859   6.808   2.502   1.785
 7320SOL    HW222860   6.923   2.616   1.768
 7321SOL     OW22861   1.438   0.077   6.942
 7321SOL    HW122862   1.489   0.093   6.857
 7321SOL    HW222863   1.355   0.026   6.921
 7322SOL     OW22864   0.772   2.563   2.451
 7322SOL    HW122865   0.784   2.542   2.548
 7322SOL    HW222866   0.713   2.643   2.440
 7323SOL     OW22867   1.281   2.362   1.159
 7323SOL    HW122868   1.249   2.277   1.200
 7323SOL    HW222869   1.337   2.413   1.225
 7324SOL     OW22870   5.573   5.051   3.513
 7324SOL    HW122871   5.571   5.151   3.516
 7324SOL    HW222872   5.537   5.014   3.599
 7325SOL     OW22873   4.679   0.769   6.190
 7325SOL    HW122874   4.673   0.686   6.246
 7325SOL    HW222875   4.604   0.830   6.214
 7326SOL     OW22876   3.160   0.478   6.935
 7326SOL    HW122877   3.074   0.440   6.969
 7326SOL    HW222878   3.207   0.409   6.879
 7327SOL     OW22879   6.752   3.447   3.108
 7327SOL    HW122880   6.685   3.377   3.082
 7327SOL    HW222881   6.738   3.472   3.204
 7328SOL     OW22882   4.330   4.758   4.889
 7328SOL    HW122883   4.339   4.666   4.926
 7328SOL    HW222884   4.318   4.823   4.963
 7329SOL     OW22885   2.692   3.170   1.055
 7329SOL    HW122886   2.782   3.193   1.019
 7329SOL    HW222887   2.655   3.248   1.105
 7330SOL     OW22888   3.004   3.275   1.410
 7330SOL    HW122889   3.082   3.226   1.449
 7330SOL    HW222890   2.920   3.225   1.430
 7331SOL     OW22891   4.708   0.380   3.107
 7331SOL    HW122892   4.787   0.439   3.090
 7331SOL    HW222893   4.628   0.418   3.060
 7332SOL     OW22894   3.016   4.946   6.323
 7332SOL    HW122895   3.032   4.913   6.230
 7332SOL    HW222896   2.935   5.005   6.324
 7333SOL     OW22897   6.629   2.364   0.947
 7333SOL    HW122898   6.641   2.446   0.892
 7333SOL    HW222899   6.578   2.387   1.030
 7334SOL     OW22900   2.785   0.003   5.083
 7334SOL    HW122901   2.763   0.101   5.081
 7334SOL    HW222902   2.879   7.016   5.052
 7335SOL     OW22903   0.258   2.840   2.248
 7335SOL    HW122904   0.216   2.931   2.239
 7335SOL    HW222905   0.284   2.807   2.157
 7336SOL     OW22906   1.570   6.320   1.339
 7336SOL    HW122907   1.569   6.420   1.342
 7336SOL    HW222908   1.480   6.284   1.363
 7337SOL     OW22909   2.145   2.459   2.862
 7337SOL    HW122910   2.100   2.548   2.863
 7337SOL    HW222911   2.235   2.469   2.820
 7338SOL     OW22912   5.653   3.101   1.728
 7338SOL    HW122913   5.669   3.032   1.657
 7338SOL    HW222914   5.558   3.129   1.727
 7339SOL     OW22915   6.324   5.123   4.676
 7339SOL    HW122916   6.301   5.219   4.691
 7339SOL    HW222917   6.355   5.083   4.762
 7340SOL     OW22918   2.886   0.376   7.020
 7340SOL    HW122919   2.804   0.431   7.007
 7340SOL    HW222920   2.864   0.295   0.047
 7341SOL     OW22921   6.126   4.780   3.393
 7341SOL    HW122922   6.107   4.814   3.486
 7341SOL    HW222923   6.187   4.701   3.398
 7342SOL     OW22924   6.985   0.023   0.262
 7342SOL    HW122925   6.968   0.084   0.184
 7342SOL    HW222926   6.999   0.078   0.345
 7343SOL     OW22927   6.346   3.531   1.982
 7343SOL    HW122928   6.286   3.602   2.019
 7343SOL    HW222929   6.299   3.482   1.909
 7344SOL     OW22930   1.749   6.433   0.164
 7344SOL    HW122931   1.742   6.440   0.064
 7344SOL    HW222932   1.836   6.472   0.194
 7345SOL     OW22933   3.773   5.541   6.515
 7345SOL    HW122934   3.848   5.561   6.451
 7345SOL    HW222935   3.692   5.594   6.489
 7346SOL     OW22936   3.904   4.894   1.941
 7346SOL    HW122937   3.935   4.830   2.011
 7346SOL    HW222938   3.901   4.987   1.978
 7347SOL     OW22939   6.412   1.623   2.285
 7347SOL    HW122940   6.363   1.614   2.372
 7347SOL    HW222941   6.478   1.549   2.276
 7348SOL     OW22942   1.431   1.836   3.222
 7348SOL    HW122943   1.352   1.846   3.282
 7348SOL    HW222944   1.478   1.924   3.212
 7349SOL     OW22945   3.301   1.783   1.017
 7349SOL    HW122946   3.299   1.692   1.060
 7349SOL    HW222947   3.372   1.785   0.947
 7350SOL     OW22948   1.864   2.106   3.485
 7350SOL    HW122949   1.959   2.137   3.481
 7350SOL    HW222950   1.846   2.045   3.408
 7351SOL     OW22951   4.654   4.465   6.862
 7351SOL    HW122952   4.692   4.403   6.794
 7351SOL    HW222953   4.559   4.441   6.881
 7352SOL     OW22954   0.970   1.889   2.507
 7352SOL    HW122955   0.916   1.871   2.425
 7352SOL    HW222956   1.036   1.815   2.521
 7353SOL     OW22957   5.587   1.560   4.232
 7353SOL    HW122958   5.628   1.606   4.311
 7353SOL    HW222959   5.654   1.555   4.158
 7354SOL     OW22960   6.037   5.309   5.743
 7354SOL    HW122961   6.028   5.210   5.741
 7354SOL    HW222962   5.967   5.348   5.804
 7355SOL     OW22963   1.647   5.490   1.656
 7355SOL    HW122964   1.554   5.517   1.630
 7355SOL    HW222965   1.706   5.571   1.656
 7356SOL     OW22966   6.121   1.741   5.995
 7356SOL    HW122967   6.083   1.794   6.072
 7356SOL    HW222968   6.220   1.755   5.990
 7357SOL     OW22969   6.199   1.936   0.219
 7357SOL    HW122970   6.120   1.885   0.253
 7357SOL    HW222971   6.250   1.973   0.297
 7358SOL     OW22972   3.032   0.977   4.244
 7358SOL    HW122973   3.071   0.894   4.285
 7358SOL    HW222974   3.011   0.959   4.147
 7359SOL     OW22975   4.029   3.260   3.413
 7359SOL    HW122976   4.002   3.355   3.430
 7359SOL    HW222977   4.085   3.256   3.330
 7360SOL     OW22978   0.641   2.796   4.951
 7360SOL    HW122979   0.687   2.843   5.027
 7360SOL    HW222980   0.542   2.812   4.957
 7361SOL     OW22981   5.514   6.054   2.245
 7361SOL    HW122982   5.498   5.977   2.306
 7361SOL    HW222983   5.588   6.032   2.182
 7362SOL     OW22984   2.084   5.675   5.742
 7362SOL    HW122985   2.038   5.763   5.736
 7362SOL    HW222986   2.019   5.604   5.768
 7363SOL     OW22987   4.798   3.310   6.656
 7363SOL    HW122988   4.730   3.366   6.609
 7363SOL    HW222989   4.882   3.362   6.669
 7364SOL     OW22990   4.554   6.162   1.464
 7364SOL    HW122991   4.568   6.066   1.440
 7364SOL    HW222992   4.641   6.210   1.462
 7365SOL     OW22993   2.682   0.096   2.097
 7365SOL    HW122994   2.597   0.054   2.127
 7365SOL    HW222995   2.758   0.061   2.152
 7366SOL     OW22996   0.424   5.376   0.199
 7366SOL    HW122997   0.460   5.458   0.154
 7366SOL    HW222998   0.480   5.297   0.176
 7367SOL     OW22999   5.112   3.999   1.776
 7367SOL    HW123000   5.180   4.073   1.776
 7367SOL    HW223001   5.021   4.037   1.790
 7368SOL     OW23002   3.150   3.259   4.728
 7368SOL    HW123003   3.068   3.284   4.677
 7368SOL    HW223004   3.127   3.249   4.825
 7369SOL     OW23005   4.822   3.657   0.443
 7369SOL    HW123006   4.920   3.645   0.459
 7369SOL    HW223007   4.807   3.737   0.385
 7370SOL     OW23008   2.617   6.977   0.442
 7370SOL    HW123009   2.641   0.047   0.446
 7370SOL    HW223010   2.549   6.956   0.512
 7371SOL     OW23011   2.826   5.048   3.990
 7371SOL    HW123012   2.835   4.950   3.972
 7371SOL    HW223013   2.785   5.062   4.080
 7372SOL     OW23014   3.573   0.725   5.699
 7372SOL    HW123015   3.506   0.780   5.649
 7372SOL    HW223016   3.661   0.771   5.698
 7373SOL     OW23017   3.550   0.663   2.220
 7373SOL    HW123018   3.505   0.712   2.295
 7373SOL    HW223019   3.626   0.609   2.257
 7374SOL     OW23020   1.778   3.195   6.674
 7374SOL    HW123021   1.759   3.291   6.653
 7374SOL    HW223022   1.692   3.146   6.688
 7375SOL     OW23023   1.082   0.920   4.293
 7375SOL    HW123024   1.175   0.935   4.325
 7375SOL    HW223025   1.030   0.869   4.362
 7376SOL     OW23026   2.429   3.513   6.859
 7376SOL    HW123027   2.415   3.461   6.774
 7376SOL    HW223028   2.340   3.534   6.900
 7377SOL     OW23029   4.704   4.440   1.863
 7377SOL    HW123030   4.695   4.539   1.878
 7377SOL    HW223031   4.626   4.393   1.905
 7378SOL     OW23032   0.029   1.163   5.134
 7378SOL    HW123033   0.110   1.175   5.192
 7378SOL    HW223034   7.015   1.253   5.115
 7379SOL     OW23035   4.186   1.339   2.664
 7379SOL    HW123036   4.264   1.377   2.615
 7379SOL    HW223037   4.185   1.239   2.652
 7380SOL     OW23038   0.649   3.311   6.104
 7380SOL    HW123039   0.676   3.385   6.166
 7380SOL    HW223040   0.632   3.348   6.013
 7381SOL     OW23041   4.660   2.105   2.332
 7381SOL    HW123042   4.648   2.105   2.431
 7381SOL    HW223043   4.745   2.058   2.309
 7382SOL     OW23044   6.652   4.651   4.779
 7382SOL    HW123045   6.616   4.622   4.690
 7382SOL    HW223046   6.740   4.606   4.796
 7383SOL     OW23047   6.760   6.297   3.329
 7383SOL    HW123048   6.663   6.277   3.314
 7383SOL    HW223049   6.812   6.211   3.331
 7384SOL     OW23050   5.374   6.734   2.279
 7384SOL    HW123051   5.344   6.813   2.334
 7384SOL    HW223052   5.442   6.763   2.212
 7385SOL     OW23053   4.783   6.330   1.437
 7385SOL    HW123054   4.812   6.371   1.351
 7385SOL    HW223055   4.860   6.284   1.480
 7386SOL     OW23056   0.558   2.017   5.454
 7386SOL    HW123057   0.591   2.076   5.380
 7386SOL    HW223058   0.537   1.926   5.418
 7387SOL     OW23059   3.694   5.215   3.916
 7387SOL    HW123060   3.651   5.125   3.923
 7387SOL    HW223061   3.793   5.203   3.910
 7388SOL     OW23062   6.501   4.733   3.587
 7388SOL    HW123063   6.525   4.679   3.668
 7388SOL    HW223064   6.420   4.788   3.606
 7389SOL     OW23065   1.896   4.296   6.263
 7389SOL    HW123066   1.881   4.200   6.239
 7389SOL    HW223067   1.814   4.333   6.305
 7390SOL     OW23068   1.165   0.201   5.640
 7390SOL    HW123069   1.094   0.131   5.639
 7390SOL    HW223070   1.128   0.285   5.679
 7391SOL     OW23071   6.251   3.364   6.502
 7391SOL    HW123072   6.154   3.384   6.489
 7391SOL    HW223073   6.289   3.329   6.417
 7392SOL     OW23074   1.357   5.129   4.148
 7392SOL    HW123075   1.385   5.034   4.134
 7392SOL    HW223076   1.438   5.188   4.147
 7393SOL     OW23077   6.863   4.868   2.354
 7393SOL    HW123078   6.866   4.887   2.256
 7393SOL    HW223079   6.950   4.827   2.382
 7394SOL     OW23080   4.216   3.764   6.606
 7394SOL    HW123081   4.292   3.720   6.557
 7394SOL    HW223082   4.133   3.710   6.593
 7395SOL     OW23083   0.667   0.404   0.315
 7395SOL    HW123084   0.624   0.475   0.260
 7395SOL    HW223085   0.761   0.432   0.338
 7396SOL     OW23086   1.233   6.503   6.546
 7396SOL    HW123087   1.244   6.442   6.468
 7396SOL    HW223088   1.176   6.459   6.615
 7397SOL     OW23089   6.753   4.512   5.278
 7397SOL    HW123090   6.689   4.460   5.334
 7397SOL    HW223091   6.743   4.610   5.297
 7398SOL     OW23092   4.752   4.204   4.012
 7398SOL    HW123093   4.839   4.176   3.972
 7398SOL    HW223094   4.769   4.256   4.095
 7399SOL     OW23095   5.193   4.020   6.320
 7399SOL    HW123096   5.098   4.034   6.350
 7399SOL    HW223097   5.227   4.104   6.277
 7400SOL     OW23098   2.917   5.177   6.766
 7400SOL    HW123099   2.856   5.131   6.830
 7400SOL    HW223100   2.945   5.113   6.694
 7401SOL     OW23101   0.345   1.660   4.028
 7401SOL    HW123102   0.268   1.687   4.085
 7401SOL    HW223103   0.319   1.583   3.970
 7402SOL     OW23104   2.692   0.383   3.615
 7402SOL    HW123105   2.766   0.448   3.631
 7402SOL    HW223106   2.730   0.295   3.585
 7403SOL     OW23107   2.165   3.778   3.438
 7403SOL    HW123108   2.179   3.779   3.339
 7403SOL    HW223109   2.188   3.687   3.474
 7404SOL     OW23110   1.311   0.691   0.992
 7404SOL    HW123111   1.371   0.769   1.006
 7404SOL    HW223112   1.216   0.720   1.003
 7405SOL     OW23113   3.065   5.327   5.780
 7405SOL    HW123114   3.073   5.240   5.829
 7405SOL    HW223115   2.969   5.354   5.777
 7406SOL     OW23116   0.857   4.290   2.338
 7406SOL    HW123117   0.821   4.202   2.369
 7406SOL    HW223118   0.957   4.286   2.335
 7407SOL     OW23119   1.473   6.169   5.835
 7407SOL    HW123120   1.390   6.137   5.790
 7407SOL    HW223121   1.449   6.231   5.909
 7408SOL     OW23122   1.421   4.645   5.608
 7408SOL    HW123123   1.392   4.736   5.581
 7408SOL    HW223124   1.492   4.612   5.545
 7409SOL     OW23125   1.787   6.947   4.742
 7409SOL    HW123126   1.855   6.958   4.814
 7409SOL    HW223127   1.793   6.854   4.705
 7410SOL     OW23128   6.968   5.337   1.161
 7410SOL    HW123129   6.887   5.301   1.115
 7410SOL    HW223130   6.975   5.436   1.144
 7411SOL     OW23131   3.180   5.970   4.728
 7411SOL    HW123132   3.167   5.970   4.827
 7411SOL    HW223133   3.178   5.877   4.693
 7412SOL     OW23134   1.513   1.187   1.023
 7412SOL    HW123135   1.572   1.224   1.096
 7412SOL    HW223136   1.418   1.191   1.052
 7413SOL     OW23137   6.051   4.149   4.691
 7413SOL    HW123138   6.129   4.211   4.679
 7413SOL    HW223139   6.017   4.122   4.601
 7414SOL     OW23140   6.322   6.899   2.242
 7414SOL    HW123141   6.223   6.913   2.242
 7414SOL    HW223142   6.355   6.895   2.337
 7415SOL     OW23143   2.011   3.259   3.182
 7415SOL    HW123144   2.009   3.355   3.210
 7415SOL    HW223145   1.966   3.203   3.252
 7416SOL     OW23146   3.641   1.184   4.186
 7416SOL    HW123147   3.598   1.168   4.275
 7416SOL    HW223148   3.658   1.282   4.174
 7417SOL     OW23149   1.223   6.239   0.098
 7417SOL    HW123150   1.229   6.322   0.043
 7417SOL    HW223151   1.238   6.261   0.194
 7418SOL     OW23152   2.716   3.620   1.488
 7418SOL    HW123153   2.672   3.546   1.539
 7418SOL    HW223154   2.760   3.682   1.552
 7419SOL     OW23155   6.012   1.107   5.161
 7419SOL    HW123156   5.974   1.015   5.151
 7419SOL    HW223157   6.070   1.128   5.083
 7420SOL     OW23158   6.548   6.000   2.269
 7420SOL    HW123159   6.559   5.965   2.176
 7420SOL    HW223160   6.552   6.100   2.267
 7421SOL     OW23161   3.721   4.168   1.381
 7421SOL    HW123162   3.776   4.243   1.418
 7421SOL    HW223163   3.780   4.104   1.332
 7422SOL     OW23164   6.799   3.489   0.204
 7422SOL    HW123165   6.888   3.532   0.216
 7422SOL    HW223166   6.801   3.396   0.241
 7423SOL     OW23167   1.507   4.767   5.899
 7423SOL    HW123168   1.480   4.722   5.984
 7423SOL    HW223169   1.464   4.719   5.822
 7424SOL     OW23170   5.179   0.862   4.088
 7424SOL    HW123171   5.179   0.784   4.150
 7424SOL    HW223172   5.268   0.908   4.092
 7425SOL     OW23173   3.513   5.120   6.235
 7425SOL    HW123174   3.421   5.131   6.197
 7425SOL    HW223175   3.517   5.161   6.326
 7426SOL     OW23176   1.242   1.299   6.218
 7426SOL    HW123177   1.143   1.300   6.236
 7426SOL    HW223178   1.268   1.386   6.175
 7427SOL     OW23179   3.680   5.475   4.904
 7427SOL    HW123180   3.693   5.433   4.814
 7427SOL    HW223181   3.584   5.468   4.931
 7428SOL     OW23182   3.593   2.192   5.865
 7428SOL    HW123183   3.565   2.120   5.801
 7428SOL    HW223184   3.632   2.150   5.947
 7429SOL     OW23185   0.380   0.597   2.890
 7429SOL    HW123186   0.455   0.549   2.936
 7429SOL    HW223187   0.293   0.568   2.930
 7430SOL     OW23188   6.451   3.703   5.108
 7430SOL    HW123189   6.496   3.687   5.196
 7430SOL    HW223190   6.520   3.710   5.036
 7431SOL     OW23191   0.188   3.895   2.051
 7431SOL    HW123192   0.249   3.973   2.038
 7431SOL    HW223193   0.199   3.832   1.973
 7432SOL     OW23194   6.946   6.207   4.344
 7432SOL    HW123195   6.946   6.257   4.257
 7432SOL    HW223196   6.856   6.212   4.386
 7433SOL     OW23197   6.180   5.418   0.492
 7433SOL    HW123198   6.172   5.468   0.579
 7433SOL    HW223199   6.172   5.320   0.509
 7434SOL     OW23200   3.228   1.680   6.626
 7434SOL    HW123201   3.312   1.731   6.606
 7434SOL    HW223202   3.252   1.588   6.658
 7435SOL     OW23203   2.972   6.298   0.297
 7435SOL    HW123204   3.042   6.370   0.293
 7435SOL    HW223205   2.901   6.325   0.362
 7436SOL     OW23206   5.187   2.909   6.573
 7436SOL    HW123207   5.098   2.943   6.545
 7436SOL    HW223208   5.248   2.986   6.593
 7437SOL     OW23209   0.328   5.872   5.844
 7437SOL    HW123210   0.305   5.777   5.868
 7437SOL    HW223211   0.245   5.922   5.819
 7438SOL     OW23212   0.020   4.735   1.789
 7438SOL    HW123213   0.080   4.665   1.828
 7438SOL    HW223214   0.059   4.825   1.804
 7439SOL     OW23215   1.892   6.955   3.441
 7439SOL    HW123216   1.879   0.027   3.444
 7439SOL    HW223217   1.901   6.925   3.346
 7440SOL     OW23218   1.205   2.711   4.235
 7440SOL    HW123219   1.256   2.665   4.162
 7440SOL    HW223220   1.107   2.702   4.218
 7441SOL     OW23221   5.389   1.198   3.975
 7441SOL    HW123222   5.425   1.265   4.039
 7441SOL    HW223223   5.430   1.108   3.995
 7442SOL     OW23224   1.307   1.035   6.251
 7442SOL    HW123225   1.299   1.133   6.268
 7442SOL    HW223226   1.388   0.999   6.297
 7443SOL     OW23227   0.904   0.896   6.517
 7443SOL    HW123228   0.930   0.952   6.596
 7443SOL    HW223229   0.985   0.881   6.460
 7444SOL     OW23230   0.681   3.078   6.235
 7444SOL    HW123231   0.598   3.022   6.238
 7444SOL    HW223232   0.665   3.158   6.178
 7445SOL     OW23233   5.026   1.447   1.826
 7445SOL    HW123234   5.043   1.543   1.846
 7445SOL    HW223235   4.966   1.408   1.896
 7446SOL     OW23236   6.730   3.897   1.260
 7446SOL    HW123237   6.679   3.890   1.346
 7446SOL    HW223238   6.684   3.843   1.189
 7447SOL     OW23239   1.165   4.311   6.780
 7447SOL    HW123240   1.103   4.360   6.717
 7447SOL    HW223241   1.118   4.296   6.867
 7448SOL     OW23242   6.069   0.100   5.942
 7448SOL    HW123243   6.038   0.138   5.854
 7448SOL    HW223244   6.157   0.140   5.967
 7449SOL     OW23245   4.975   2.200   2.276
 7449SOL    HW123246   4.949   2.232   2.185
 7449SOL    HW223247   4.947   2.267   2.345
 7450SOL     OW23248   4.558   2.237   2.774
 7450SOL    HW123249   4.653   2.269   2.775
 7450SOL    HW223250   4.530   2.215   2.868
 7451SOL     OW23251   1.858   0.854   4.862
 7451SOL    HW123252   1.845   0.872   4.765
 7451SOL    HW223253   1.877   0.757   4.876
 7452SOL     OW23254   2.199   0.006   4.599
 7452SOL    HW123255   2.136   0.081   4.581
 7452SOL    HW223256   2.244   7.006   4.514
 7453SOL     OW23257   5.500   6.149   4.921
 7453SOL    HW123258   5.557   6.215   4.871
 7453SOL    HW223259   5.440   6.198   4.984
 7454SOL     OW23260   0.737   3.496   1.393
 7454SOL    HW123261   0.690   3.579   1.362
 7454SOL    HW223262   0.759   3.438   1.315
 7455SOL     OW23263   4.614   2.738   0.378
 7455SOL    HW123264   4.645   2.646   0.402
 7455SOL    HW223265   4.516   2.746   0.397
 7456SOL     OW23266   1.563   3.782   5.035
 7456SOL    HW123267   1.614   3.867   5.018
 7456SOL    HW223268   1.477   3.784   4.984
 7457SOL     OW23269   6.134   0.618   5.410
 7457SOL    HW123270   6.198   0.695   5.410
 7457SOL    HW223271   6.178   0.539   5.365
 7458SOL     OW23272   3.007   1.211   6.907
 7458SOL    HW123273   2.975   1.300   6.941
 7458SOL    HW223274   3.044   1.158   6.984
 7459SOL     OW23275   4.674   0.301   5.445
 7459SOL    HW123276   4.614   0.280   5.368
 7459SOL    HW223277   4.763   0.259   5.430
 7460SOL     OW23278   0.892   4.717   0.499
 7460SOL    HW123279   0.868   4.643   0.561
 7460SOL    HW223280   0.898   4.682   0.406
 7461SOL     OW23281   5.272   1.100   5.497
 7461SOL    HW123282   5.246   1.107   5.401
 7461SOL    HW223283   5.233   1.177   5.548
 7462SOL     OW23284   2.266   1.793   2.683
 7462SOL    HW123285   2.325   1.757   2.609
 7462SOL    HW223286   2.285   1.890   2.696
 7463SOL     OW23287   4.147   3.523   2.067
 7463SOL    HW123288   4.174   3.590   2.136
 7463SOL    HW223289   4.169   3.558   1.976
 7464SOL     OW23290   4.992   6.416   0.799
 7464SOL    HW123291   5.023   6.368   0.881
 7464SOL    HW223292   5.063   6.411   0.729
 7465SOL     OW23293   2.739   0.368   2.001
 7465SOL    HW123294   2.710   0.410   1.914
 7465SOL    HW223295   2.730   0.268   1.994
 7466SOL     OW23296   0.581   0.320   6.814
 7466SOL    HW123297   0.495   0.366   6.836
 7466SOL    HW223298   0.656   0.385   6.818
 7467SOL     OW23299   0.010   1.803   1.017
 7467SOL    HW123300   6.957   1.861   1.003
 7467SOL    HW223301   7.013   1.729   1.081
 7468SOL     OW23302   5.639   1.489   2.849
 7468SOL    HW123303   5.689   1.414   2.892
 7468SOL    HW223304   5.596   1.457   2.765
 7469SOL     OW23305   1.041   0.955   0.534
 7469SOL    HW123306   1.113   0.912   0.588
 7469SOL    HW223307   1.009   0.889   0.465
 7470SOL     OW23308   0.373   1.793   1.665
 7470SOL    HW123309   0.388   1.835   1.754
 7470SOL    HW223310   0.459   1.790   1.614
 7471SOL     OW23311   6.268   6.461   5.580
 7471SOL    HW123312   6.225   6.385   5.530
 7471SOL    HW223313   6.307   6.526   5.515
 7472SOL     OW23314   3.387   6.982   4.005
 7472SOL    HW123315   3.460   6.921   3.974
 7472SOL    HW223316   3.421   0.012   4.080
 7473SOL     OW23317   6.562   3.508   4.192
 7473SOL    HW123318   6.653   3.544   4.172
 7473SOL    HW223319   6.532   3.451   4.115
 7474SOL     OW23320   3.569   1.070   3.579
 7474SOL    HW123321   3.586   0.985   3.529
 7474SOL    HW223322   3.505   1.126   3.527
 7475SOL     OW23323   3.879   0.567   0.992
 7475SOL    HW123324   3.832   0.483   1.018
 7475SOL    HW223325   3.976   0.560   1.018
 7476SOL     OW23326   3.943   6.029   4.345
 7476SOL    HW123327   3.916   5.978   4.428
 7476SOL    HW223328   3.885   6.110   4.335
 7477SOL     OW23329   4.176   1.075   4.003
 7477SOL    HW123330   4.109   1.137   4.043
 7477SOL    HW223331   4.230   1.033   4.075
 7478SOL     OW23332   2.315   3.812   6.993
 7478SOL    HW123333   2.306   3.911   7.010
 7478SOL    HW223334   2.400   3.780   0.009
 7479SOL     OW23335   4.626   0.885   0.229
 7479SOL    HW123336   4.690   0.817   0.194
 7479SOL    HW223337   4.659   0.976   0.207
 7480SOL     OW23338   6.204   5.956   1.314
 7480SOL    HW123339   6.174   5.993   1.402
 7480SOL    HW223340   6.239   6.030   1.257
 7481SOL     OW23341   5.848   4.719   0.504
 7481SOL    HW123342   5.754   4.719   0.538
 7481SOL    HW223343   5.886   4.627   0.509
 7482SOL     OW23344   4.647   0.834   2.944
 7482SOL    HW123345   4.588   0.827   2.863
 7482SOL    HW223346   4.591   0.858   3.023
 7483SOL     OW23347   3.731   1.436   4.186
 7483SOL    HW123348   3.769   1.521   4.149
 7483SOL    HW223349   3.679   1.456   4.269
 7484SOL     OW23350   2.157   5.918   2.286
 7484SOL    HW123351   2.252   5.927   2.255
 7484SOL    HW223352   2.126   5.824   2.272
 7485SOL     OW23353   3.289   5.516   5.875
 7485SOL    HW123354   3.371   5.571   5.890
 7485SOL    HW223355   3.247   5.541   5.788
 7486SOL     OW23356   3.352   5.712   5.329
 7486SOL    HW123357   3.360   5.625   5.281
 7486SOL    HW223358   3.378   5.787   5.268
 7487SOL     OW23359   3.030   6.268   3.323
 7487SOL    HW123360   2.995   6.309   3.239
 7487SOL    HW223361   3.056   6.173   3.305
 7488SOL     OW23362   3.286   6.894   6.001
 7488SOL    HW123363   3.324   6.979   5.966
 7488SOL    HW223364   3.228   6.852   5.930
 7489SOL     OW23365   4.726   2.801   4.227
 7489SOL    HW123366   4.759   2.895   4.220
 7489SOL    HW223367   4.804   2.739   4.233
 7490SOL     OW23368   6.224   1.504   0.780
 7490SOL    HW123369   6.231   1.437   0.706
 7490SOL    HW223370   6.176   1.585   0.748
 7491SOL     OW23371   6.767   5.802   6.523
 7491SOL    HW123372   6.748   5.876   6.458
 7491SOL    HW223373   6.702   5.728   6.509
 7492SOL     OW23374   2.116   2.866   5.113
 7492SOL    HW123375   2.103   2.875   5.212
 7492SOL    HW223376   2.208   2.831   5.094
 7493SOL     OW23377   5.728   3.878   6.418
 7493SOL    HW123378   5.821   3.889   6.383
 7493SOL    HW223379   5.687   3.968   6.433
 7494SOL     OW23380   5.816   0.461   1.883
 7494SOL    HW123381   5.896   0.513   1.911
 7494SOL    HW223382   5.736   0.491   1.935
 7495SOL     OW23383   2.473   1.761   0.704
 7495SOL    HW123384   2.495   1.849   0.746
 7495SOL    HW223385   2.412   1.776   0.625
 7496SOL     OW23386   0.902   5.260   6.438
 7496SOL    HW123387   0.878   5.358   6.441
 7496SOL    HW223388   0.953   5.242   6.354
 7497SOL     OW23389   1.663   4.683   2.683
 7497SOL    HW123390   1.727   4.659   2.755
 7497SOL    HW223391   1.569   4.681   2.719
 7498SOL     OW23392   2.804   1.436   4.900
 7498SOL    HW123393   2.755   1.351   4.880
 7498SOL    HW223394   2.791   1.461   4.995
 7499SOL     OW23395   5.459   6.509   4.555
 7499SOL    HW123396   5.474   6.530   4.459
 7499SOL    HW223397   5.402   6.581   4.596
 7500SOL     OW23398   4.516   6.006   2.095
 7500SOL    HW123399   4.535   6.104   2.101
 7500SOL    HW223400   4.554   5.970   2.010
 7501SOL     OW23401   0.965   3.591   3.808
 7501SOL    HW123402   1.034   3.629   3.868
 7501SOL    HW223403   0.929   3.663   3.748
 7502SOL     OW23404   2.734   0.951   4.831
 7502SOL    HW123405   2.653   0.900   4.860
 7502SOL    HW223406   2.739   0.951   4.731
 7503SOL     OW23407   3.094   1.041   6.638
 7503SOL    HW123408   3.015   1.093   6.672
 7503SOL    HW223409   3.077   1.014   6.543
 7504SOL     OW23410   4.155   6.348   3.639
 7504SOL    HW123411   4.121   6.424   3.694
 7504SOL    HW223412   4.093   6.333   3.562
 7505SOL     OW23413   1.553   0.897   5.160
 7505SOL    HW123414   1.616   0.965   5.124
 7505SOL    HW223415   1.468   0.941   5.188
 7506SOL     OW23416   3.018   0.952   2.397
 7506SOL    HW123417   3.089   1.007   2.441
 7506SOL    HW223418   2.964   1.010   2.336
 7507SOL     OW23419   0.720   6.070   5.609
 7507SOL    HW123420   0.748   5.978   5.584
 7507SOL    HW223421   0.673   6.068   5.698
 7508SOL     OW23422   5.608   6.792   2.900
 7508SOL    HW123423   5.698   6.765   2.935
 7508SOL    HW223424   5.539   6.773   2.969
 7509SOL     OW23425   5.355   3.635   6.169
 7509SOL    HW123426   5.424   3.670   6.106
 7509SOL    HW223427   5.377   3.540   6.192
 7510SOL     OW23428   3.460   3.796   4.836
 7510SOL    HW123429   3.459   3.731   4.761
 7510SOL    HW223430   3.547   3.846   4.836
 7511SOL     OW23431   1.563   6.938   2.279
 7511SOL    HW123432   1.473   6.955   2.240
 7511SOL    HW223433   1.610   6.868   2.226
 7512SOL     OW23434   2.638   3.292   1.709
 7512SOL    HW123435   2.599   3.383   1.718
 7512SOL    HW223436   2.659   3.273   1.613
 7513SOL     OW23437   1.728   1.913   5.863
 7513SOL    HW123438   1.732   1.876   5.770
 7513SOL    HW223439   1.820   1.932   5.896
 7514SOL     OW23440   3.071   6.013   2.106
 7514SOL    HW123441   3.018   5.998   2.190
 7514SOL    HW223442   3.120   6.100   2.113
 7515SOL     OW23443   6.987   0.202   3.072
 7515SOL    HW123444   6.936   0.287   3.056
 7515SOL    HW223445   0.017   0.181   2.991
 7516SOL     OW23446   0.225   0.680   3.912
 7516SOL    HW123447   0.261   0.731   3.991
 7516SOL    HW223448   0.163   0.609   3.945
 7517SOL     OW23449   0.467   3.801   1.054
 7517SOL    HW123450   0.448   3.743   0.975
 7517SOL    HW223451   0.385   3.853   1.079
 7518SOL     OW23452   4.160   5.382   3.591
 7518SOL    HW123453   4.247   5.427   3.570
 7518SOL    HW223454   4.170   5.283   3.576
 7519SOL     OW23455   1.261   6.492   4.744
 7519SOL    HW123456   1.165   6.504   4.771
 7519SOL    HW223457   1.319   6.550   4.801
 7520SOL     OW23458   1.199   6.631   3.528
 7520SOL    HW123459   1.228   6.705   3.588
 7520SOL    HW223460   1.160   6.669   3.445
 7521SOL     OW23461   4.709   4.194   4.944
 7521SOL    HW123462   4.721   4.133   4.866
 7521SOL    HW223463   4.687   4.141   5.026
 7522SOL     OW23464   2.086   1.489   0.350
 7522SOL    HW123465   2.065   1.531   0.262
 7522SOL    HW223466   2.111   1.393   0.337
 7523SOL     OW23467   5.474   0.152   5.910
 7523SOL    HW123468   5.486   0.155   5.811
 7523SOL    HW223469   5.528   0.077   5.948
 7524SOL     OW23470   0.259   1.624   5.525
 7524SOL    HW123471   0.200   1.638   5.605
 7524SOL    HW223472   0.355   1.630   5.553
 7525SOL     OW23473   1.426   1.112   0.002
 7525SOL    HW123474   1.438   1.136   0.099
 7525SOL    HW223475   1.335   1.140   6.998
 7526SOL     OW23476   3.764   2.933   4.187
 7526SOL    HW123477   3.804   2.997   4.121
 7526SOL    HW223478   3.821   2.851   4.193
 7527SOL     OW23479   5.525   4.171   2.610
 7527SOL    HW123480   5.555   4.261   2.643
 7527SOL    HW223481   5.444   4.142   2.661
 7528SOL     OW23482   4.478   3.039   0.157
 7528SOL    HW123483   4.577   3.029   0.163
 7528SOL    HW223484   4.437   2.954   0.125
 7529SOL     OW23485   4.331   1.385   4.376
 7529SOL    HW123486   4.235   1.406   4.389
 7529SOL    HW223487   4.362   1.420   4.287
 7530SOL     OW23488   6.926   3.720   2.174
 7530SOL    HW123489   6.977   3.639   2.203
 7530SOL    HW223490   6.932   3.790   2.245
 7531SOL     OW23491   4.296   2.002   3.965
 7531SOL    HW123492   4.383   2.051   3.957
 7531SOL    HW223493   4.311   1.905   3.949
 7532SOL     OW23494   5.589   5.619   1.793
 7532SOL    HW123495   5.594   5.621   1.694
 7532SOL    HW223496   5.637   5.698   1.831
 7533SOL     OW23497   3.212   1.172   4.310
 7533SOL    HW123498   3.204   1.267   4.282
 7533SOL    HW223499   3.149   1.115   4.257
 7534SOL     OW23500   3.905   6.102   5.197
 7534SOL    HW123501   3.989   6.156   5.207
 7534SOL    HW223502   3.838   6.156   5.146
 7535SOL     OW23503   3.049   2.452   5.911
 7535SOL    HW123504   3.112   2.406   5.849
 7535SOL    HW223505   3.002   2.384   5.968
 7536SOL     OW23506   4.424   5.308   4.485
 7536SOL    HW123507   4.517   5.327   4.452
 7536SOL    HW223508   4.375   5.395   4.495
 7537SOL     OW23509   1.726   4.729   4.854
 7537SOL    HW123510   1.641   4.772   4.886
 7537SOL    HW223511   1.707   4.674   4.773
 7538SOL     OW23512   3.299   3.216   2.833
 7538SOL    HW123513   3.346   3.301   2.807
 7538SOL    HW223514   3.304   3.151   2.758
 7539SOL     OW23515   1.879   3.138   5.254
 7539SOL    HW123516   1.973   3.104   5.264
 7539SOL    HW223517   1.849   3.126   5.159
 7540SOL     OW23518   2.681   1.461   6.905
 7540SOL    HW123519   2.601   1.464   6.845
 7540SOL    HW223520   2.746   1.532   6.878
 7541SOL     OW23521   6.097   2.308   5.212
 7541SOL    HW123522   6.033   2.250   5.263
 7541SOL    HW223523   6.179   2.256   5.191
 7542SOL     OW23524   0.931   0.042   6.091
 7542SOL    HW123525   1.013   7.019   6.061
 7542SOL    HW223526   0.948   0.083   6.181
 7543SOL     OW23527   3.959   3.231   0.539
 7543SOL    HW123528   4.026   3.268   0.603
 7543SOL    HW223529   3.997   3.233   0.446
 7544SOL     OW23530   1.615   2.230   3.085
 7544SOL    HW123531   1.677   2.291   3.134
 7544SOL    HW223532   1.580   2.160   3.147
 7545SOL     OW23533   4.644   6.980   2.942
 7545SOL    HW123534   4.688   0.024   2.996
 7545SOL    HW223535   4.563   6.946   2.991
 7546SOL     OW23536   5.436   0.599   0.163
 7546SOL    HW123537   5.535   0.597   0.176
 7546SOL    HW223538   5.392   0.546   0.236
 7547SOL     OW23539   3.657   0.279   0.259
 7547SOL    HW123540   3.643   0.369   0.300
 7547SOL    HW223541   3.574   0.252   0.211
 7548SOL     OW23542   2.696   1.771   1.579
 7548SOL    HW123543   2.669   1.732   1.667
 7548SOL    HW223544   2.749   1.703   1.528
 7549SOL     OW23545   5.047   1.811   2.786
 7549SOL    HW123546   5.073   1.715   2.792
 7549SOL    HW223547   5.128   1.868   2.800
 7550SOL     OW23548   2.114   6.168   2.410
 7550SOL    HW123549   2.016   6.176   2.429
 7550SOL    HW223550   2.134   6.076   2.375
 7551SOL     OW23551   4.543   3.146   6.434
 7551SOL    HW123552   4.533   3.226   6.493
 7551SOL    HW223553   4.498   3.067   6.476
 7552SOL     OW23554   2.342   5.294   4.029
 7552SOL    HW123555   2.311   5.377   3.983
 7552SOL    HW223556   2.365   5.225   3.960
 7553SOL     OW23557   3.834   5.270   6.581
 7553SOL    HW123558   3.849   5.205   6.507
 7553SOL    HW223559   3.787   5.351   6.545
 7554SOL     OW23560   4.988   1.207   0.531
 7554SOL    HW123561   5.049   1.128   0.530
 7554SOL    HW223562   4.957   1.223   0.625
 7555SOL     OW23563   6.996   5.749   5.202
 7555SOL    HW123564   0.007   5.707   5.285
 7555SOL    HW223565   6.896   5.751   5.208
 7556SOL     OW23566   0.818   3.157   4.885
 7556SOL    HW123567   0.912   3.154   4.849
 7556SOL    HW223568   0.803   3.079   4.945
 7557SOL     OW23569   5.334   4.311   6.376
 7557SOL    HW123570   5.341   4.345   6.282
 7557SOL    HW223571   5.354   4.385   6.440
 7558SOL     OW23572   2.228   2.978   3.564
 7558SOL    HW123573   2.178   2.900   3.601
 7558SOL    HW223574   2.288   2.947   3.490
 7559SOL     OW23575   6.960   4.630   0.823
 7559SOL    HW123576   6.941   4.536   0.850
 7559SOL    HW223577   7.010   4.631   0.737
 7560SOL     OW23578   5.560   6.636   0.975
 7560SOL    HW123579   5.500   6.631   1.055
 7560SOL    HW223580   5.516   6.690   0.903
 7561SOL     OW23581   7.023   3.522   0.354
 7561SOL    HW123582   7.002   3.433   0.395
 7561SOL    HW223583   7.017   3.592   0.425
 7562SOL     OW23584   5.588   6.428   5.305
 7562SOL    HW123585   5.642   6.504   5.340
 7562SOL    HW223586   5.559   6.369   5.381
 7563SOL     OW23587   2.936   0.696   1.702
 7563SOL    HW123588   2.997   0.759   1.655
 7563SOL    HW223589   2.892   0.744   1.779
 7564SOL     OW23590   4.812   0.141   3.070
 7564SOL    HW123591   4.771   0.230   3.089
 7564SOL    HW223592   4.912   0.150   3.072
 7565SOL     OW23593   4.447   5.521   6.996
 7565SOL    HW123594   4.505   5.533   6.915
 7565SOL    HW223595   4.390   5.440   6.983
 7566SOL     OW23596   0.166   5.693   4.567
 7566SOL    HW123597   0.084   5.736   4.529
 7566SOL    HW223598   0.247   5.738   4.531
 7567SOL     OW23599   2.491   4.723   5.765
 7567SOL    HW123600   2.581   4.741   5.724
 7567SOL    HW223601   2.502   4.704   5.862
 7568SOL     OW23602   5.478   5.828   3.040
 7568SOL    HW123603   5.524   5.891   3.103
 7568SOL    HW223604   5.422   5.764   3.092
 7569SOL     OW23605   4.353   5.794   6.955
 7569SOL    HW123606   4.370   5.699   6.984
 7569SOL    HW223607   4.440   5.837   6.931
 7570SOL     OW23608   5.946   5.347   3.780
 7570SOL    HW123609   5.930   5.445   3.768
 7570SOL    HW223610   5.962   5.305   3.691
 7571SOL     OW23611   5.906   3.999   1.437
 7571SOL    HW123612   5.828   4.023   1.494
 7571SOL    HW223613   5.874   3.961   1.350
 7572SOL     OW23614   4.001   0.902   4.239
 7572SOL    HW123615   4.055   0.850   4.305
 7572SOL    HW223616   3.981   0.993   4.276
 7573SOL     OW23617   6.815   5.929   4.692
 7573SOL    HW123618   6.846   5.969   4.778
 7573SOL    HW223619   6.894   5.898   4.640
 7574SOL     OW23620   5.627   0.856   3.430
 7574SOL    HW123621   5.581   0.772   3.459
 7574SOL    HW223622   5.659   0.846   3.336
 7575SOL     OW23623   4.081   1.095   5.719
 7575SOL    HW123624   3.993   1.114   5.675
 7575SOL    HW223625   4.156   1.118   5.656
 7576SOL     OW23626   6.266   3.904   0.148
 7576SOL    HW123627   6.205   3.973   0.188
 7576SOL    HW223628   6.308   3.940   0.066
 7577SOL     OW23629   6.483   1.058   4.709
 7577SOL    HW123630   6.420   0.982   4.698
 7577SOL    HW223631   6.553   1.054   4.638
 7578SOL     OW23632   1.835   6.102   4.730
 7578SOL    HW123633   1.930   6.108   4.764
 7578SOL    HW223634   1.785   6.183   4.760
 7579SOL     OW23635   3.858   1.707   2.627
 7579SOL    HW123636   3.783   1.769   2.649
 7579SOL    HW223637   3.944   1.745   2.663
 7580SOL     OW23638   1.946   3.885   3.026
 7580SOL    HW123639   1.879   3.885   2.952
 7580SOL    HW223640   1.911   3.939   3.103
 7581SOL     OW23641   5.339   1.650   0.973
 7581SOL    HW123642   5.269   1.714   1.004
 7581SOL    HW223643   5.425   1.669   1.020
 7582SOL     OW23644   3.367   1.715   1.376
 7582SOL    HW123645   3.287   1.767   1.406
 7582SOL    HW223646   3.446   1.776   1.368
 7583SOL     OW23647   6.025   3.526   1.979
 7583SOL    HW123648   6.059   3.519   1.885
 7583SOL    HW223649   6.052   3.614   2.018
 7584SOL     OW23650   2.759   6.940   1.143
 7584SOL    HW123651   2.818   7.015   1.113
 7584SOL    HW223652   2.716   6.964   1.230
 7585SOL     OW23653   1.567   4.597   6.590
 7585SOL    HW123654   1.639   4.643   6.640
 7585SOL    HW223655   1.528   4.524   6.646
 7586SOL     OW23656   2.744   0.137   3.047
 7586SOL    HW123657   2.778   0.105   2.958
 7586SOL    HW223658   2.726   0.235   3.043
 7587SOL     OW23659   1.084   1.857   0.218
 7587SOL    HW123660   0.997   1.895   0.190
 7587SOL    HW223661   1.112   1.786   0.153
 7588SOL     OW23662   0.296   4.850   2.638
 7588SOL    HW123663   0.241   4.828   2.718
 7588SOL    HW223664   0.382   4.798   2.641
 7589SOL     OW23665   6.109   6.070   0.314
 7589SOL    HW123666   6.074   6.140   0.252
 7589SOL    HW223667   6.048   6.062   0.393
 7590SOL     OW23668   2.509   1.808   5.788
 7590SOL    HW123669   2.560   1.829   5.705
 7590SOL    HW223670   2.418   1.849   5.782
 7591SOL     OW23671   0.227   5.384   7.014
 7591SOL    HW123672   0.274   5.328   0.055
 7591SOL    HW223673   0.179   5.459   0.034
 7592SOL     OW23674   6.476   5.513   6.940
 7592SOL    HW123675   6.458   5.416   6.927
 7592SOL    HW223676   6.532   5.526   7.022
 7593SOL     OW23677   4.961   2.269   6.848
 7593SOL    HW123678   4.885   2.328   6.876
 7593SOL    HW223679   5.039   2.285   6.909
 7594SOL     OW23680   0.884   6.053   3.574
 7594SOL    HW123681   0.886   6.116   3.652
 7594SOL    HW223682   0.882   5.959   3.607
 7595SOL     OW23683   0.137   3.377   6.202
 7595SOL    HW123684   0.095   3.369   6.293
 7595SOL    HW223685   0.177   3.289   6.176
 7596SOL     OW23686   5.004   4.330   2.235
 7596SOL    HW123687   4.931   4.275   2.194
 7596SOL    HW223688   5.093   4.298   2.201
 7597SOL     OW23689   3.463   5.433   1.683
 7597SOL    HW123690   3.488   5.473   1.771
 7597SOL    HW223691   3.423   5.343   1.697
 7598SOL     OW23692   6.706   0.223   3.242
 7598SOL    HW123693   6.781   0.177   3.290
 7598SOL    HW223694   6.723   0.321   3.240
 7599SOL     OW23695   6.023   1.540   3.621
 7599SOL    HW123696   6.091   1.477   3.585
 7599SOL    HW223697   5.932   1.512   3.592
 7600SOL     OW23698   1.458   0.506   2.240
 7600SOL    HW123699   1.511   0.555   2.309
 7600SOL    HW223700   1.515   0.437   2.196
 7601SOL     OW23701   2.124   6.059   3.594
 7601SOL    HW123702   2.094   6.150   3.566
 7601SOL    HW223703   2.166   6.065   3.685
 7602SOL     OW23704   2.140   4.180   4.406
 7602SOL    HW123705   2.061   4.124   4.430
 7602SOL    HW223706   2.175   4.152   4.317
 7603SOL     OW23707   0.899   5.945   6.994
 7603SOL    HW123708   0.803   5.917   6.995
 7603SOL    HW223709   0.914   6.008   6.917
 7604SOL     OW23710   3.333   5.985   4.455
 7604SOL    HW123711   3.294   6.055   4.515
 7604SOL    HW223712   3.343   5.900   4.507
 7605SOL     OW23713   0.676   4.775   6.910
 7605SOL    HW123714   0.756   4.834   6.919
 7605SOL    HW223715   0.658   4.730   6.997
 7606SOL     OW23716   0.300   2.927   1.961
 7606SOL    HW123717   0.259   2.836   1.954
 7606SOL    HW223718   0.228   2.995   1.979
 7607SOL     OW23719   5.179   0.112   6.860
 7607SOL    HW123720   5.155   0.036   6.800
 7607SOL    HW223721   5.267   0.150   6.832
 7608SOL     OW23722   2.952   3.665   3.313
 7608SOL    HW123723   2.966   3.595   3.243
 7608SOL    HW223724   2.967   3.755   3.273
 7609SOL     OW23725   0.310   3.380   4.110
 7609SOL    HW123726   0.249   3.393   4.188
 7609SOL    HW223727   0.384   3.446   4.114
 7610SOL     OW23728   5.650   0.645   1.097
 7610SOL    HW123729   5.629   0.561   1.048
 7610SOL    HW223730   5.636   0.632   1.195
 7611SOL     OW23731   1.164   2.041   7.016
 7611SOL    HW123732   1.188   1.991   0.073
 7611SOL    HW223733   1.123   1.977   6.950
 7612SOL     OW23734   4.113   1.860   4.143
 7612SOL    HW123735   4.093   1.783   4.083
 7612SOL    HW223736   4.177   1.922   4.097
 7613SOL     OW23737   4.717   1.023   1.282
 7613SOL    HW123738   4.702   1.099   1.345
 7613SOL    HW223739   4.765   0.949   1.330
 7614SOL     OW23740   3.647   1.838   1.723
 7614SOL    HW123741   3.716   1.766   1.725
 7614SOL    HW223742   3.556   1.797   1.725
 7615SOL     OW23743   3.637   5.218   6.796
 7615SOL    HW123744   3.572   5.293   6.785
 7615SOL    HW223745   3.713   5.231   6.732
 7616SOL     OW23746   6.818   3.597   4.161
 7616SOL    HW123747   6.901   3.547   4.136
 7616SOL    HW223748   6.843   3.683   4.206
 7617SOL     OW23749   2.879   5.439   3.106
 7617SOL    HW123750   2.824   5.393   3.175
 7617SOL    HW223751   2.913   5.373   3.039
 7618SOL     OW23752   1.272   2.292   6.622
 7618SOL    HW123753   1.285   2.194   6.639
 7618SOL    HW223754   1.276   2.309   6.523
 7619SOL     OW23755   5.521   3.229   5.389
 7619SOL    HW123756   5.577   3.147   5.395
 7619SOL    HW223757   5.517   3.274   5.478
 7620SOL     OW23758   3.763   6.893   0.659
 7620SOL    HW123759   3.850   6.855   0.626
 7620SOL    HW223760   3.782   6.973   0.716
 7621SOL     OW23761   1.498   0.944   0.594
 7621SOL    HW123762   1.516   1.029   0.544
 7621SOL    HW223763   1.580   0.915   0.642
 7622SOL     OW23764   4.558   3.082   1.167
 7622SOL    HW123765   4.613   3.028   1.104
 7622SOL    HW223766   4.495   3.022   1.217
 7623SOL     OW23767   4.429   6.281   6.523
 7623SOL    HW123768   4.455   6.262   6.429
 7623SOL    HW223769   4.454   6.376   6.546
 7624SOL     OW23770   0.421   1.988   3.318
 7624SOL    HW123771   0.365   2.059   3.361
 7624SOL    HW223772   0.425   2.004   3.219
 7625SOL     OW23773   5.402   0.834   1.074
 7625SOL    HW123774   5.322   0.774   1.078
 7625SOL    HW223775   5.476   0.787   1.027
 7626SOL     OW23776   1.055   6.735   4.968
 7626SOL    HW123777   1.147   6.718   5.001
 7626SOL    HW223778   1.013   6.808   5.023
 7627SOL     OW23779   6.459   2.902   0.894
 7627SOL    HW123780   6.499   2.988   0.926
 7627SOL    HW223781   6.456   2.836   0.970
 7628SOL     OW23782   2.613   0.883   1.296
 7628SOL    HW123783   2.593   0.969   1.343
 7628SOL    HW223784   2.680   0.830   1.348
 7629SOL     OW23785   6.528   6.257   2.312
 7629SOL    HW123786   6.516   6.350   2.276
 7629SOL    HW223787   6.486   6.251   2.402
 7630SOL     OW23788   6.381   0.226   2.244
 7630SOL    HW123789   6.417   0.216   2.151
 7630SOL    HW223790   6.292   0.272   2.240
 7631SOL     OW23791   1.053   1.722   5.408
 7631SOL    HW123792   1.131   1.667   5.438
 7631SOL    HW223793   1.083   1.788   5.340
 7632SOL     OW23794   4.121   2.100   0.799
 7632SOL    HW123795   4.048   2.143   0.747
 7632SOL    HW223796   4.102   2.002   0.809
 7633SOL     OW23797   5.614   3.701   6.614
 7633SOL    HW123798   5.585   3.750   6.696
 7633SOL    HW223799   5.587   3.753   6.533
 7634SOL     OW23800   1.535   0.775   2.121
 7634SOL    HW123801   1.518   0.692   2.174
 7634SOL    HW223802   1.531   0.855   2.182
 7635SOL     OW23803   2.523   5.898   5.848
 7635SOL    HW123804   2.522   5.997   5.835
 7635SOL    HW223805   2.520   5.876   5.945
 7636SOL     OW23806   1.156   1.439   3.881
 7636SOL    HW123807   1.074   1.456   3.826
 7636SOL    HW223808   1.236   1.443   3.822
 7637SOL     OW23809   1.350   0.030   4.107
 7637SOL    HW123810   1.322   0.032   4.203
 7637SOL    HW223811   1.409   6.977   4.091
 7638SOL     OW23812   6.014   5.789   1.941
 7638SOL    HW123813   5.935   5.848   1.961
 7638SOL    HW223814   6.079   5.839   1.883
 7639SOL     OW23815   1.187   2.054   5.993
 7639SOL    HW123816   1.092   2.068   5.965
 7639SOL    HW223817   1.216   1.961   5.970
 7640SOL     OW23818   2.478   2.385   0.624
 7640SOL    HW123819   2.429   2.449   0.565
 7640SOL    HW223820   2.433   2.296   0.620
 7641SOL     OW23821   6.935   4.525   2.120
 7641SOL    HW123822   7.021   4.556   2.080
 7641SOL    HW223823   6.950   4.499   2.216
 7642SOL     OW23824   2.824   1.771   2.610
 7642SOL    HW123825   2.796   1.855   2.564
 7642SOL    HW223826   2.771   1.760   2.694
 7643SOL     OW23827   4.483   2.524   3.245
 7643SOL    HW123828   4.393   2.567   3.234
 7643SOL    HW223829   4.537   2.538   3.162
 7644SOL     OW23830   6.938   2.908   3.069
 7644SOL    HW123831   6.921   2.858   2.985
 7644SOL    HW223832   6.979   2.847   3.137
 7645SOL     OW23833   4.551   5.080   0.034
 7645SOL    HW123834   4.454   5.057   0.035
 7645SOL    HW223835   4.604   5.002   0.070
 7646SOL     OW23836   2.328   1.824   1.959
 7646SOL    HW123837   2.257   1.800   2.026
 7646SOL    HW223838   2.418   1.814   2.002
 7647SOL     OW23839   1.904   3.679   2.076
 7647SOL    HW123840   1.988   3.701   2.126
 7647SOL    HW223841   1.917   3.593   2.027
 7648SOL     OW23842   4.464   1.390   3.783
 7648SOL    HW123843   4.389   1.325   3.772
 7648SOL    HW223844   4.443   1.475   3.735
 7649SOL     OW23845   1.929   0.570   2.153
 7649SOL    HW123846   1.906   0.488   2.204
 7649SOL    HW223847   1.923   0.650   2.213
 7650SOL     OW23848   6.646   2.857   2.231
 7650SOL    HW123849   6.548   2.848   2.213
 7650SOL    HW223850   6.676   2.782   2.291
 7651SOL     OW23851   2.666   0.022   6.994
 7651SOL    HW123852   2.709   0.052   0.053
 7651SOL    HW223853   2.733   0.025   6.920
 7652SOL     OW23854   6.310   3.473   3.832
 7652SOL    HW123855   6.244   3.529   3.882
 7652SOL    HW223856   6.389   3.529   3.807
 7653SOL     OW23857   2.762   2.292   0.916
 7653SOL    HW123858   2.818   2.221   0.872
 7653SOL    HW223859   2.759   2.276   1.015
 7654SOL     OW23860   4.725   2.889   3.523
 7654SOL    HW123861   4.693   2.809   3.473
 7654SOL    HW223862   4.713   2.874   3.621
 7655SOL     OW23863   3.318   6.859   4.645
 7655SOL    HW123864   3.239   6.821   4.692
 7655SOL    HW223865   3.322   6.958   4.660
 7656SOL     OW23866   6.937   6.244   5.133
 7656SOL    HW123867   0.001   6.284   5.141
 7656SOL    HW223868   6.870   6.318   5.120
 7657SOL     OW23869   2.588   2.486   3.487
 7657SOL    HW123870   2.581   2.583   3.507
 7657SOL    HW223871   2.589   2.472   3.387
 7658SOL     OW23872   4.679   0.367   6.190
 7658SOL    HW123873   4.744   0.292   6.200
 7658SOL    HW223874   4.697   0.416   6.105
 7659SOL     OW23875   6.399   6.971   0.915
 7659SOL    HW123876   6.413   0.013   0.987
 7659SOL    HW223877   6.409   6.880   0.954
 7660SOL     OW23878   5.376   5.137   3.170
 7660SOL    HW123879   5.360   5.076   3.248
 7660SOL    HW223880   5.347   5.091   3.086
 7661SOL     OW23881   5.950   2.453   4.164
 7661SOL    HW123882   5.977   2.540   4.205
 7661SOL    HW223883   5.864   2.422   4.205
 7662SOL     OW23884   1.603   2.913   2.131
 7662SOL    HW123885   1.538   2.985   2.158
 7662SOL    HW223886   1.693   2.934   2.170
 7663SOL     OW23887   0.518   5.574   6.819
 7663SOL    HW123888   0.459   5.537   6.890
 7663SOL    HW223889   0.604   5.522   6.817
 7664SOL     OW23890   3.026   6.389   2.850
 7664SOL    HW123891   2.948   6.447   2.870
 7664SOL    HW223892   3.092   6.395   2.924
 7665SOL     OW23893   2.721   0.865   4.561
 7665SOL    HW123894   2.626   0.834   4.559
 7665SOL    HW223895   2.774   0.813   4.495
 7666SOL     OW23896   0.745   6.881   1.228
 7666SOL    HW123897   0.692   6.940   1.289
 7666SOL    HW223898   0.816   6.935   1.183
 7667SOL     OW23899   4.666   6.680   6.739
 7667SOL    HW123900   4.698   6.652   6.649
 7667SOL    HW223901   4.669   6.780   6.747
 7668SOL     OW23902   3.574   4.379   1.371
 7668SOL    HW123903   3.495   4.352   1.316
 7668SOL    HW223904   3.636   4.301   1.382
 7669SOL     OW23905   4.968   0.120   4.236
 7669SOL    HW123906   4.958   0.195   4.170
 7669SOL    HW223907   4.890   0.059   4.228
 7670SOL     OW23908   1.281   5.738   6.994
 7670SOL    HW123909   1.257   5.828   0.005
 7670SOL    HW223910   1.381   5.731   6.988
 7671SOL     OW23911   4.922   1.306   4.749
 7671SOL    HW123912   4.929   1.285   4.651
 7671SOL    HW223913   4.869   1.233   4.794
 7672SOL     OW23914   6.121   0.447   3.995
 7672SOL    HW123915   6.080   0.356   3.996
 7672SOL    HW223916   6.099   0.494   4.081
 7673SOL     OW23917   1.026   4.642   1.107
 7673SOL    HW123918   1.100   4.708   1.094
 7673SOL    HW223919   0.981   4.625   1.020
 7674SOL     OW23920   6.758   1.808   4.725
 7674SOL    HW123921   6.832   1.746   4.699
 7674SOL    HW223922   6.692   1.759   4.782
 7675SOL     OW23923   4.978   0.220   1.665
 7675SOL    HW123924   4.916   0.144   1.645
 7675SOL    HW223925   5.050   0.189   1.727
 7676SOL     OW23926   1.580   1.165   6.608
 7676SOL    HW123927   1.655   1.230   6.620
 7676SOL    HW223928   1.494   1.214   6.597
 7677SOL     OW23929   2.135   3.683   2.437
 7677SOL    HW123930   2.145   3.594   2.483
 7677SOL    HW223931   2.073   3.673   2.359
 7678SOL     OW23932   0.827   0.979   0.139
 7678SOL    HW123933   0.882   1.061   0.122
 7678SOL    HW223934   0.882   0.897   0.122
 7679SOL     OW23935   1.246   5.136   5.011
 7679SOL    HW123936   1.210   5.227   5.029
 7679SOL    HW223937   1.294   5.136   4.923
 7680SOL     OW23938   3.481   3.366   6.644
 7680SOL    HW123939   3.465   3.359   6.743
 7680SOL    HW223940   3.438   3.450   6.610
 7681SOL     OW23941   2.797   1.477   0.371
 7681SOL    HW123942   2.739   1.531   0.432
 7681SOL    HW223943   2.836   1.400   0.422
 7682SOL     OW23944   2.967   6.795   1.607
 7682SOL    HW123945   2.925   6.770   1.520
 7682SOL    HW223946   3.066   6.783   1.601
 7683SOL     OW23947   6.381   1.883   2.706
 7683SOL    HW123948   6.452   1.818   2.734
 7683SOL    HW223949   6.313   1.892   2.778
 7684SOL     OW23950   5.249   2.253   6.493
 7684SOL    HW123951   5.158   2.293   6.481
 7684SOL    HW223952   5.258   2.174   6.433
 7685SOL     OW23953   3.487   3.065   0.405
 7685SOL    HW123954   3.559   3.129   0.433
 7685SOL    HW223955   3.425   3.049   0.482
 7686SOL     OW23956   4.582   0.285   3.469
 7686SOL    HW123957   4.534   0.367   3.439
 7686SOL    HW223958   4.569   0.211   3.403
 7687SOL     OW23959   4.951   5.013   5.618
 7687SOL    HW123960   4.922   4.917   5.628
 7687SOL    HW223961   4.880   5.064   5.570
 7688SOL     OW23962   6.699   6.874   5.418
 7688SOL    HW123963   6.750   6.903   5.499
 7688SOL    HW223964   6.747   6.799   5.373
 7689SOL     OW23965   4.312   5.916   4.543
 7689SOL    HW123966   4.411   5.929   4.535
 7689SOL    HW223967   4.292   5.845   4.610
 7690SOL     OW23968   5.474   4.404   2.731
 7690SOL    HW123969   5.515   4.491   2.705
 7690SOL    HW223970   5.511   4.376   2.820
 7691SOL     OW23971   5.158   2.458   4.091
 7691SOL    HW123972   5.243   2.505   4.112
 7691SOL    HW223973   5.163   2.419   3.999
 7692SOL     OW23974   1.319   6.225   1.324
 7692SOL    HW123975   1.310   6.246   1.421
 7692SOL    HW223976   1.282   6.133   1.307
 7693SOL     OW23977   4.225   0.928   6.393
 7693SOL    HW123978   4.168   0.987   6.337
 7693SOL    HW223979   4.183   0.838   6.401
 7694SOL     OW23980   0.130   4.536   3.970
 7694SOL    HW123981   0.225   4.545   3.943
 7694SOL    HW223982   0.123   4.542   4.070
 7695SOL     OW23983   4.317   0.363   0.613
 7695SOL    HW123984   4.276   0.275   0.590
 7695SOL    HW223985   4.348   0.409   0.530
 7696SOL     OW23986   0.088   1.990   4.227
 7696SOL    HW123987   0.153   2.036   4.287
 7696SOL    HW223988   0.043   2.057   4.169
 7697SOL     OW23989   2.447   1.707   3.700
 7697SOL    HW123990   2.380   1.767   3.743
 7697SOL    HW223991   2.441   1.616   3.742
 7698SOL     OW23992   6.497   2.792   4.809
 7698SOL    HW123993   6.410   2.747   4.789
 7698SOL    HW223994   6.567   2.723   4.827
 7699SOL     OW23995   2.439   5.804   0.425
 7699SOL    HW123996   2.364   5.862   0.458
 7699SOL    HW223997   2.520   5.819   0.481
 7700SOL     OW23998   4.963   6.984   5.080
 7700SOL    HW123999   4.955   6.885   5.072
 7700SOL    HW224000   5.040   7.017   5.025
 7701SOL     OW24001   6.842   0.769   5.344
 7701SOL    HW124002   6.823   0.832   5.269
 7701SOL    HW224003   6.772   0.697   5.346
 7702SOL     OW24004   3.452   6.660   6.080
 7702SOL    HW124005   3.400   6.745   6.082
 7702SOL    HW224006   3.391   6.583   6.100
 7703SOL     OW24007   0.238   1.123   5.319
 7703SOL    HW124008   0.220   1.046   5.379
 7703SOL    HW224009   0.269   1.201   5.373
 7704SOL     OW24010   4.211   4.381   0.004
 7704SOL    HW124011   4.196   4.353   0.099
 7704SOL    HW224012   4.124   4.404   6.988
 7705SOL     OW24013   3.634   5.006   5.266
 7705SOL    HW124014   3.700   4.986   5.194
 7705SOL    HW224015   3.552   4.951   5.254
 7706SOL     OW24016   6.038   0.147   5.633
 7706SOL    HW124017   6.034   0.051   5.605
 7706SOL    HW224018   5.948   0.189   5.623
 7707SOL     OW24019   0.208   5.674   6.367
 7707SOL    HW124020   0.187   5.577   6.368
 7707SOL    HW224021   0.290   5.690   6.311
 7708SOL     OW24022   4.961   6.302   4.590
 7708SOL    HW124023   5.003   6.332   4.504
 7708SOL    HW224024   4.910   6.218   4.574
 7709SOL     OW24025   4.538   2.511   1.824
 7709SOL    HW124026   4.595   2.587   1.856
 7709SOL    HW224027   4.500   2.534   1.734
 7710SOL     OW24028   2.733   0.238   0.558
 7710SOL    HW124029   2.730   0.203   0.652
 7710SOL    HW224030   2.644   0.279   0.535
 7711SOL     OW24031   5.898   6.055   5.740
 7711SOL    HW124032   5.911   6.068   5.838
 7711SOL    HW224033   5.871   6.142   5.699
 7712SOL     OW24034   5.886   4.812   1.214
 7712SOL    HW124035   5.866   4.749   1.289
 7712SOL    HW224036   5.850   4.903   1.237
 7713SOL     OW24037   2.171   4.266   6.884
 7713SOL    HW124038   2.222   4.351   6.871
 7713SOL    HW224039   2.194   4.228   6.974
 7714SOL     OW24040   5.920   4.582   4.371
 7714SOL    HW124041   5.890   4.656   4.310
 7714SOL    HW224042   5.881   4.496   4.340
 7715SOL     OW24043   5.172   0.467   1.301
 7715SOL    HW124044   5.152   0.554   1.346
 7715SOL    HW224045   5.171   0.479   1.202
 7716SOL     OW24046   4.316   2.382   2.084
 7716SOL    HW124047   4.250   2.322   2.037
 7716SOL    HW224048   4.399   2.389   2.029
 7717SOL     OW24049   2.936   1.486   5.178
 7717SOL    HW124050   2.998   1.450   5.247
 7717SOL    HW224051   2.953   1.584   5.165
 7718SOL     OW24052   2.196   1.437   2.896
 7718SOL    HW124053   2.205   1.354   2.950
 7718SOL    HW224054   2.109   1.482   2.918
 7719SOL     OW24055   0.282   2.439   4.652
 7719SOL    HW124056   0.320   2.400   4.568
 7719SOL    HW224057   0.343   2.421   4.728
 7720SOL     OW24058   6.392   6.470   0.955
 7720SOL    HW124059   6.449   6.406   0.905
 7720SOL    HW224060   6.296   6.453   0.933
 7721SOL     OW24061   2.289   4.215   3.325
 7721SOL    HW124062   2.266   4.312   3.318
 7721SOL    HW224063   2.236   4.173   3.398
 7722SOL     OW24064   6.314   4.914   3.018
 7722SOL    HW124065   6.351   4.840   3.073
 7722SOL    HW224066   6.388   4.961   2.971
 7723SOL     OW24067   6.940   3.303   0.488
 7723SOL    HW124068   6.870   3.236   0.462
 7723SOL    HW224069   6.931   3.325   0.585
 7724SOL     OW24070   1.471   3.839   1.471
 7724SOL    HW124071   1.524   3.757   1.493
 7724SOL    HW224072   1.447   3.888   1.555
 7725SOL     OW24073   5.662   2.247   3.498
 7725SOL    HW124074   5.737   2.263   3.433
 7725SOL    HW224075   5.602   2.327   3.499
 7726SOL     OW24076   0.349   4.354   2.904
 7726SOL    HW124077   0.385   4.360   2.997
 7726SOL    HW224078   0.278   4.424   2.891
 7727SOL     OW24079   6.319   2.441   3.540
 7727SOL    HW124080   6.418   2.452   3.532
 7727SOL    HW224081   6.277   2.530   3.562
 7728SOL     OW24082   1.585   3.247   3.181
 7728SOL    HW124083   1.651   3.313   3.146
 7728SOL    HW224084   1.496   3.264   3.140
 7729SOL     OW24085   4.987   2.091   0.915
 7729SOL    HW124086   4.957   2.092   1.010
 7729SOL    HW224087   5.027   2.180   0.892
 7730SOL     OW24088   4.849   6.134   2.691
 7730SOL    HW124089   4.837   6.066   2.764
 7730SOL    HW224090   4.823   6.224   2.725
 7731SOL     OW24091   6.239   1.026   0.580
 7731SOL    HW124092   6.142   1.046   0.563
 7731SOL    HW224093   6.276   0.972   0.505
 7732SOL     OW24094   4.943   5.999   0.553
 7732SOL    HW124095   4.873   5.929   0.550
 7732SOL    HW224096   5.034   5.957   0.551
 7733SOL     OW24097   4.097   0.313   1.433
 7733SOL    HW124098   4.096   0.332   1.531
 7733SOL    HW224099   4.054   0.225   1.415
 7734SOL     OW24100   1.599   3.015   3.353
 7734SOL    HW124101   1.573   3.056   3.440
 7734SOL    HW224102   1.575   3.077   3.278
 7735SOL     OW24103   4.826   4.332   6.651
 7735SOL    HW124104   4.767   4.343   6.571
 7735SOL    HW224105   4.922   4.342   6.623
 7736SOL     OW24106   5.390   4.056   0.124
 7736SOL    HW124107   5.363   4.142   0.167
 7736SOL    HW224108   5.372   4.060   0.026
 7737SOL     OW24109   4.787   2.241   0.615
 7737SOL    HW124110   4.762   2.197   0.529
 7737SOL    HW224111   4.709   2.293   0.650
 7738SOL     OW24112   3.145   5.719   0.631
 7738SOL    HW124113   3.083   5.768   0.692
 7738SOL    HW224114   3.095   5.650   0.579
 7739SOL     OW24115   0.930   2.435   0.598
 7739SOL    HW124116   0.948   2.376   0.519
 7739SOL    HW224117   1.009   2.432   0.659
 7740SOL     OW24118   6.817   0.080   2.451
 7740SOL    HW124119   6.888   0.146   2.477
 7740SOL    HW224120   6.729   0.128   2.445
 7741SOL     OW24121   2.245   6.048   3.824
 7741SOL    HW124122   2.218   5.979   3.891
 7741SOL    HW224123   2.335   6.084   3.849
 7742SOL     OW24124   6.062   1.780   3.368
 7742SOL    HW124125   5.979   1.835   3.373
 7742SOL    HW224126   6.083   1.758   3.273
 7743SOL     OW24127   4.722   3.002   5.599
 7743SOL    HW124128   4.704   2.914   5.555
 7743SOL    HW224129   4.635   3.047   5.619
 7744SOL     OW24130   6.272   6.697   3.818
 7744SOL    HW124131   6.340   6.623   3.819
 7744SOL    HW224132   6.303   6.771   3.877
 7745SOL     OW24133   3.507   2.749   6.828
 7745SOL    HW124134   3.438   2.692   6.782
 7745SOL    HW224135   3.497   2.844   6.798
 7746SOL     OW24136   1.813   0.240   0.281
 7746SOL    HW124137   1.805   0.141   0.267
 7746SOL    HW224138   1.848   0.283   0.197
 7747SOL     OW24139   5.229   6.554   0.959
 7747SOL    HW124140   5.263   6.463   0.936
 7747SOL    HW224141   5.278   6.588   1.040
 7748SOL     OW24142   2.583   3.883   6.336
 7748SOL    HW124143   2.621   3.932   6.415
 7748SOL    HW224144   2.483   3.878   6.345
 7749SOL     OW24145   5.117   2.980   5.772
 7749SOL    HW124146   5.116   2.882   5.790
 7749SOL    HW224147   5.069   2.998   5.686
 7750SOL     OW24148   0.543   6.044   1.870
 7750SOL    HW124149   0.492   6.050   1.785
 7750SOL    HW224150   0.486   6.073   1.946
 7751SOL     OW24151   0.999   2.076   1.533
 7751SOL    HW124152   1.093   2.077   1.568
 7751SOL    HW224153   1.001   2.064   1.434
 7752SOL     OW24154   4.684   0.975   4.522
 7752SOL    HW124155   4.698   1.002   4.427
 7752SOL    HW224156   4.593   0.936   4.533
 7753SOL     OW24157   2.398   1.365   5.327
 7753SOL    HW124158   2.473   1.400   5.383
 7753SOL    HW224159   2.435   1.323   5.244
 7754SOL     OW24160   4.237   6.517   1.546
 7754SOL    HW124161   4.250   6.418   1.538
 7754SOL    HW224162   4.201   6.553   1.459
 7755SOL     OW24163   1.898   4.452   6.030
 7755SOL    HW124164   1.934   4.439   5.938
 7755SOL    HW224165   1.921   4.373   6.087
 7756SOL     OW24166   2.820   6.125   1.602
 7756SOL    HW124167   2.777   6.164   1.520
 7756SOL    HW224168   2.847   6.031   1.584
 7757SOL     OW24169   0.513   4.577   3.232
 7757SOL    HW124170   0.491   4.480   3.222
 7757SOL    HW224171   0.561   4.592   3.318
 7758SOL     OW24172   1.284   0.966   5.242
 7758SOL    HW124173   1.234   0.930   5.163
 7758SOL    HW224174   1.220   1.008   5.306
 7759SOL     OW24175   3.266   1.968   6.822
 7759SOL    HW124176   3.175   1.935   6.798
 7759SOL    HW224177   3.270   2.067   6.811
 7760SOL     OW24178   4.661   2.711   1.424
 7760SOL    HW124179   4.715   2.689   1.343
 7760SOL    HW224180   4.623   2.803   1.415
 7761SOL     OW24181   4.301   5.544   4.499
 7761SOL    HW124182   4.335   5.590   4.417
 7761SOL    HW224183   4.238   5.604   4.548
 7762SOL     OW24184   6.895   0.748   3.660
 7762SOL    HW124185   6.810   0.758   3.608
 7762SOL    HW224186   6.887   0.669   3.721
 7763SOL     OW24187   2.737   0.129   4.713
 7763SOL    HW124188   2.689   0.143   4.626
 7763SOL    HW224189   2.831   0.162   4.705
 7764SOL     OW24190   3.447   4.013   5.262
 7764SOL    HW124191   3.450   4.113   5.265
 7764SOL    HW224192   3.375   3.980   5.322
 7765SOL     OW24193   6.279   2.912   4.328
 7765SOL    HW124194   6.243   2.966   4.403
 7765SOL    HW224195   6.377   2.895   4.342
 7766SOL     OW24196   0.397   4.406   0.187
 7766SOL    HW124197   0.332   4.361   0.248
 7766SOL    HW224198   0.430   4.341   0.118
 7767SOL     OW24199   2.561   1.021   3.158
 7767SOL    HW124200   2.506   1.090   3.206
 7767SOL    HW224201   2.654   1.023   3.193
 7768SOL     OW24202   4.594   4.908   2.966
 7768SOL    HW124203   4.605   4.967   3.046
 7768SOL    HW224204   4.595   4.964   2.883
 7769SOL     OW24205   3.492   2.335   5.312
 7769SOL    HW124206   3.434   2.368   5.237
 7769SOL    HW224207   3.471   2.387   5.395
 7770SOL     OW24208   1.461   3.403   4.678
 7770SOL    HW124209   1.377   3.457   4.676
 7770SOL    HW224210   1.536   3.455   4.639
 7771SOL     OW24211   3.425   2.515   6.267
 7771SOL    HW124212   3.484   2.562   6.202
 7771SOL    HW224213   3.474   2.502   6.353
 7772SOL     OW24214   5.477   0.419   1.454
 7772SOL    HW124215   5.518   0.363   1.526
 7772SOL    HW224216   5.392   0.460   1.488
 7773SOL     OW24217   3.502   6.439   0.530
 7773SOL    HW124218   3.452   6.357   0.558
 7773SOL    HW224219   3.594   6.413   0.501
 7774SOL     OW24220   4.446   1.338   3.059
 7774SOL    HW124221   4.468   1.432   3.087
 7774SOL    HW224222   4.357   1.338   3.014
 7775SOL     OW24223   3.609   0.827   6.829
 7775SOL    HW124224   3.694   0.774   6.835
 7775SOL    HW224225   3.566   0.831   6.919
 7776SOL     OW24226   1.447   0.690   4.994
 7776SOL    HW124227   1.495   0.756   5.051
 7776SOL    HW224228   1.514   0.627   4.953
 7777SOL     OW24229   5.062   5.449   2.922
 7777SOL    HW124230   4.967   5.434   2.950
 7777SOL    HW224231   5.089   5.543   2.944
 7778SOL     OW24232   5.642   4.708   2.901
 7778SOL    HW124233   5.710   4.636   2.890
 7778SOL    HW224234   5.567   4.674   2.958
 7779SOL     OW24235   3.690   5.877   2.312
 7779SOL    HW124236   3.760   5.877   2.383
 7779SOL    HW224237   3.690   5.788   2.266
 7780SOL     OW24238   5.972   6.058   5.150
 7780SOL    HW124239   5.898   6.011   5.200
 7780SOL    HW224240   5.968   6.156   5.170
 7781SOL     OW24241   1.602   2.664   0.420
 7781SOL    HW124242   1.673   2.715   0.371
 7781SOL    HW224243   1.549   2.610   0.355
 7782SOL     OW24244   5.479   4.243   3.355
 7782SOL    HW124245   5.383   4.215   3.351
 7782SOL    HW224246   5.487   4.340   3.331
 7783SOL     OW24247   1.121   0.804   5.064
 7783SOL    HW124248   1.155   0.728   5.119
 7783SOL    HW224249   1.023   0.815   5.079
 7784SOL     OW24250   2.317   2.763   2.865
 7784SOL    HW124251   2.307   2.862   2.867
 7784SOL    HW224252   2.228   2.720   2.851
 7785SOL     OW24253   0.908   6.282   2.526
 7785SOL    HW124254   0.946   6.285   2.434
 7785SOL    HW224255   0.819   6.326   2.528
 7786SOL     OW24256   4.649   0.054   6.180
 7786SOL    HW124257   4.659   0.143   6.224
 7786SOL    HW224258   4.690   0.056   6.089
 7787SOL     OW24259   2.778   2.442   1.407
 7787SOL    HW124260   2.869   2.418   1.372
 7787SOL    HW224261   2.787   2.502   1.486
 7788SOL     OW24262   0.417   4.079   1.596
 7788SOL    HW124263   0.508   4.042   1.618
 7788SOL    HW224264   0.390   4.048   1.505
 7789SOL     OW24265   3.714   0.964   6.426
 7789SOL    HW124266   3.759   0.875   6.415
 7789SOL    HW224267   3.689   0.977   6.522
 7790SOL     OW24268   5.006   4.547   1.734
 7790SOL    HW124269   4.996   4.474   1.801
 7790SOL    HW224270   4.937   4.536   1.663
 7791SOL     OW24271   2.711   5.562   2.670
 7791SOL    HW124272   2.642   5.498   2.638
 7791SOL    HW224273   2.719   5.557   2.769
 7792SOL     OW24274   1.548   1.679   2.160
 7792SOL    HW124275   1.511   1.762   2.202
 7792SOL    HW224276   1.614   1.703   2.090
 7793SOL     OW24277   5.366   0.835   6.379
 7793SOL    HW124278   5.460   0.801   6.386
 7793SOL    HW224279   5.323   0.832   6.469
 7794SOL     OW24280   0.511   6.285   2.872
 7794SOL    HW124281   0.431   6.232   2.844
 7794SOL    HW224282   0.496   6.381   2.850
 7795SOL     OW24283   3.135   5.666   6.542
 7795SOL    HW124284   3.209   5.706   6.596
 7795SOL    HW224285   3.170   5.640   6.452
 7796SOL     OW24286   3.599   3.274   6.171
 7796SOL    HW124287   3.511   3.242   6.208
 7796SOL    HW224288   3.631   3.353   6.223
 7797SOL     OW24289   0.936   6.130   3.006
 7797SOL    HW124290   0.872   6.112   3.080
 7797SOL    HW224291   1.028   6.103   3.034
 7798SOL     OW24292   0.811   2.659   0.862
 7798SOL    HW124293   0.854   2.585   0.810
 7798SOL    HW224294   0.744   2.620   0.926
 7799SOL     OW24295   2.627   6.203   3.678
 7799SOL    HW124296   2.699   6.253   3.630
 7799SOL    HW224297   2.546   6.262   3.687
 7800SOL     OW24298   0.174   6.464   1.744
 7800SOL    HW124299   0.253   6.406   1.765
 7800SOL    HW224300   0.099   6.408   1.709
 7801SOL     OW24301   2.263   2.116   2.134
 7801SOL    HW124302   2.223   2.060   2.207
 7801SOL    HW224303   2.315   2.191   2.175
 7802SOL     OW24304   0.023   3.367   4.693
 7802SOL    HW124305   7.000   3.450   4.720
 7802SOL    HW224306   6.995   3.317   4.626
 7803SOL     OW24307   4.378   2.494   5.790
 7803SOL    HW124308   4.444   2.430   5.752
 7803SOL    HW224309   4.286   2.473   5.755
 7804SOL     OW24310   2.748   2.186   5.407
 7804SOL    HW124311   2.816   2.241   5.359
 7804SOL    HW224312   2.792   2.133   5.479
 7805SOL     OW24313   5.743   3.262   0.641
 7805SOL    HW124314   5.753   3.197   0.715
 7805SOL    HW224315   5.782   3.224   0.557
 7806SOL     OW24316   0.161   2.269   5.622
 7806SOL    HW124317   0.194   2.363   5.625
 7806SOL    HW224318   0.093   2.255   5.693
 7807SOL     OW24319   2.080   4.979   5.619
 7807SOL    HW124320   2.132   4.894   5.633
 7807SOL    HW224321   2.001   4.959   5.561
 7808SOL     OW24322   5.196   3.847   3.112
 7808SOL    HW124323   5.130   3.803   3.051
 7808SOL    HW224324   5.175   3.825   3.207
 7809SOL     OW24325   4.653   5.234   3.667
 7809SOL    HW124326   4.710   5.281   3.735
 7809SOL    HW224327   4.558   5.263   3.677
 7810SOL     OW24328   4.108   6.291   5.345
 7810SOL    HW124329   4.150   6.250   5.426
 7810SOL    HW224330   4.180   6.317   5.280
 7811SOL     OW24331   1.468   5.594   2.506
 7811SOL    HW124332   1.515   5.547   2.432
 7811SOL    HW224333   1.517   5.578   2.592
 7812SOL     OW24334   2.725   2.113   6.390
 7812SOL    HW124335   2.646   2.114   6.330
 7812SOL    HW224336   2.740   2.020   6.424
 7813SOL     OW24337   6.106   1.340   1.075
 7813SOL    HW124338   6.107   1.277   0.997
 7813SOL    HW224339   6.063   1.426   1.047
 7814SOL     OW24340   0.547   3.084   2.475
 7814SOL    HW124341   0.606   3.106   2.397
 7814SOL    HW224342   0.472   3.149   2.479
 7815SOL     OW24343   5.728   3.043   4.872
 7815SOL    HW124344   5.720   3.106   4.795
 7815SOL    HW224345   5.639   3.003   4.892
 7816SOL     OW24346   0.879   1.417   4.893
 7816SOL    HW124347   0.868   1.359   4.811
 7816SOL    HW224348   0.796   1.413   4.948
 7817SOL     OW24349   3.133   2.924   6.495
 7817SOL    HW124350   3.124   2.825   6.505
 7817SOL    HW224351   3.151   2.965   6.584
 7818SOL     OW24352   5.501   1.107   2.016
 7818SOL    HW124353   5.598   1.082   2.017
 7818SOL    HW224354   5.450   1.038   1.965
 7819SOL     OW24355   1.302   3.966   3.916
 7819SOL    HW124356   1.395   3.937   3.937
 7819SOL    HW224357   1.303   4.057   3.875
 7820SOL     OW24358   2.079   0.245   5.542
 7820SOL    HW124359   2.103   0.200   5.456
 7820SOL    HW224360   1.987   0.282   5.537
 7821SOL     OW24361   5.855   5.447   5.887
 7821SOL    HW124362   5.877   5.530   5.938
 7821SOL    HW224363   5.756   5.431   5.891
 7822SOL     OW24364   1.114   0.949   4.679
 7822SOL    HW124365   1.134   0.871   4.738
 7822SOL    HW224366   1.188   1.016   4.685
 7823SOL     OW24367   1.395   4.417   6.705
 7823SOL    HW124368   1.462   4.347   6.730
 7823SOL    HW224369   1.303   4.383   6.725
 7824SOL     OW24370   5.005   2.597   3.153
 7824SOL    HW124371   4.976   2.503   3.135
 7824SOL    HW224372   5.017   2.610   3.252
 7825SOL     OW24373   3.524   3.368   1.988
 7825SOL    HW124374   3.590   3.330   1.923
 7825SOL    HW224375   3.518   3.467   1.974
 7826SOL     OW24376   6.855   0.895   0.279
 7826SOL    HW124377   6.812   0.807   0.296
 7826SOL    HW224378   6.786   0.960   0.247
 7827SOL     OW24379   5.328   4.842   1.418
 7827SOL    HW124380   5.242   4.840   1.468
 7827SOL    HW224381   5.390   4.772   1.454
 7828SOL     OW24382   0.745   6.698   1.037
 7828SOL    HW124383   0.773   6.611   1.078
 7828SOL    HW224384   0.751   6.771   1.105
 7829SOL     OW24385   3.621   2.734   1.659
 7829SOL    HW124386   3.642   2.641   1.688
 7829SOL    HW224387   3.521   2.747   1.658
 7830SOL     OW24388   5.794   3.000   6.713
 7830SOL    HW124389   5.759   3.001   6.806
 7830SOL    HW224390   5.739   3.060   6.655
 7831SOL     OW24391   1.306   3.174   0.465
 7831SOL    HW124392   1.377   3.154   0.533
 7831SOL    HW224393   1.245   3.244   0.500
 7832SOL     OW24394   2.761   2.567   5.672
 7832SOL    HW124395   2.665   2.562   5.697
 7832SOL    HW224396   2.803   2.646   5.717
 7833SOL     OW24397   0.190   6.935   0.477
 7833SOL    HW124398   0.150   6.859   0.529
 7833SOL    HW224399   0.133   7.016   0.489
 7834SOL     OW24400   0.830   0.689   1.614
 7834SOL    HW124401   0.787   0.610   1.570
 7834SOL    HW224402   0.899   0.657   1.679
 7835SOL     OW24403   2.121   3.115   4.923
 7835SOL    HW124404   2.040   3.057   4.914
 7835SOL    HW224405   2.202   3.057   4.928
 7836SOL     OW24406   2.262   6.215   0.107
 7836SOL    HW124407   2.267   6.115   0.106
 7836SOL    HW224408   2.300   6.250   0.021
 7837SOL     OW24409   6.107   7.008   2.808
 7837SOL    HW124410   6.173   6.932   2.810
 7837SOL    HW224411   6.054   7.003   2.724
 7838SOL     OW24412   3.965   6.635   4.776
 7838SOL    HW124413   3.925   6.679   4.858
 7838SOL    HW224414   3.926   6.677   4.694
 7839SOL     OW24415   6.610   4.465   4.575
 7839SOL    HW124416   6.531   4.405   4.580
 7839SOL    HW224417   6.688   4.421   4.619
 7840SOL     OW24418   5.491   2.743   4.331
 7840SOL    HW124419   5.573   2.779   4.287
 7840SOL    HW224420   5.515   2.661   4.383
 7841SOL     OW24421   0.724   1.571   6.229
 7841SOL    HW124422   0.658   1.496   6.224
 7841SOL    HW224423   0.701   1.640   6.160
 7842SOL     OW24424   2.383   0.975   2.590
 7842SOL    HW124425   2.347   0.985   2.683
 7842SOL    HW224426   2.441   1.053   2.567
 7843SOL     OW24427   5.415   3.429   0.722
 7843SOL    HW124428   5.511   3.407   0.708
 7843SOL    HW224429   5.361   3.399   0.643
 7844SOL     OW24430   4.126   0.574   3.538
 7844SOL    HW124431   4.145   0.569   3.636
 7844SOL    HW224432   4.080   0.661   3.518
 7845SOL     OW24433   6.106   1.713   4.595
 7845SOL    HW124434   6.061   1.797   4.624
 7845SOL    HW224435   6.081   1.693   4.500
 7846SOL     OW24436   2.837   6.933   1.837
 7846SOL    HW124437   2.844   7.021   1.790
 7846SOL    HW224438   2.858   6.859   1.773
 7847SOL     OW24439   6.667   0.696   0.552
 7847SOL    HW124440   6.706   0.626   0.492
 7847SOL    HW224441   6.691   0.675   0.647
 7848SOL     OW24442   4.464   3.713   1.635
 7848SOL    HW124443   4.425   3.667   1.556
 7848SOL    HW224444   4.503   3.801   1.607
 7849SOL     OW24445   5.771   3.199   4.639
 7849SOL    HW124446   5.868   3.207   4.662
 7849SOL    HW224447   5.760   3.131   4.566
 7850SOL     OW24448   1.051   0.636   5.451
 7850SOL    HW124449   1.013   0.727   5.468
 7850SOL    HW224450   1.030   0.607   5.358
 7851SOL     OW24451   6.128   6.740   0.383
 7851SOL    HW124452   6.187   6.712   0.458
 7851SOL    HW224453   6.121   6.840   0.382
 7852SOL     OW24454   2.630   6.255   0.046
 7852SOL    HW124455   2.707   6.311   0.015
 7852SOL    HW224456   2.554   6.263   7.008
 7853SOL     OW24457   2.537   3.127   0.167
 7853SOL    HW124458   2.568   3.106   0.260
 7853SOL    HW224459   2.548   3.225   0.149
 7854SOL     OW24460   3.293   4.131   2.469
 7854SOL    HW124461   3.379   4.117   2.421
 7854SOL    HW224462   3.238   4.198   2.420
 7855SOL     OW24463   4.286   5.877   6.141
 7855SOL    HW124464   4.224   5.799   6.129
 7855SOL    HW224465   4.234   5.961   6.152
 7856SOL     OW24466   5.516   3.530   5.489
 7856SOL    HW124467   5.449   3.511   5.418
 7856SOL    HW224468   5.513   3.458   5.559
 7857SOL     OW24469   6.551   1.574   5.826
 7857SOL    HW124470   6.625   1.555   5.761
 7857SOL    HW224471   6.464   1.549   5.785
 7858SOL     OW24472   5.961   3.839   2.938
 7858SOL    HW124473   5.958   3.747   2.977
 7858SOL    HW224474   5.878   3.855   2.884
 7859SOL     OW24475   1.340   5.251   6.247
 7859SOL    HW124476   1.277   5.249   6.170
 7859SOL    HW224477   1.291   5.224   6.330
 7860SOL     OW24478   3.811   0.112   1.863
 7860SOL    HW124479   3.734   0.084   1.921
 7860SOL    HW224480   3.881   0.155   1.920
 7861SOL     OW24481   5.138   5.099   0.740
 7861SOL    HW124482   5.107   5.194   0.730
 7861SOL    HW224483   5.126   5.069   0.834
 7862SOL     OW24484   3.155   4.469   1.403
 7862SOL    HW124485   3.131   4.562   1.375
 7862SOL    HW224486   3.164   4.465   1.502
 7863SOL     OW24487   6.521   5.968   1.739
 7863SOL    HW124488   6.544   5.872   1.759
 7863SOL    HW224489   6.519   6.019   1.825
 7864SOL     OW24490   0.954   5.256   4.896
 7864SOL    HW124491   1.007   5.312   4.832
 7864SOL    HW224492   0.932   5.168   4.854
 7865SOL     OW24493   3.354   7.007   2.968
 7865SOL    HW124494   3.291   0.051   3.001
 7865SOL    HW224495   3.320   6.917   2.994
 7866SOL     OW24496   2.529   2.025   4.029
 7866SOL    HW124497   2.429   2.029   4.035
 7866SOL    HW224498   2.569   2.050   4.118
 7867SOL     OW24499   6.039   4.420   2.025
 7867SOL    HW124500   6.133   4.394   2.046
 7867SOL    HW224501   6.031   4.439   1.927
 7868SOL     OW24502   5.477   6.229   0.542
 7868SOL    HW124503   5.480   6.239   0.642
 7868SOL    HW224504   5.456   6.133   0.520
 7869SOL     OW24505   0.665   3.578   1.748
 7869SOL    HW124506   0.694   3.486   1.775
 7869SOL    HW224507   0.735   3.621   1.692
 7870SOL     OW24508   6.938   5.473   3.976
 7870SOL    HW124509   6.897   5.388   4.009
 7870SOL    HW224510   6.951   5.468   3.877
 7871SOL     OW24511   4.998   3.362   3.064
 7871SOL    HW124512   4.930   3.362   2.990
 7871SOL    HW224513   4.953   3.339   3.150
 7872SOL     OW24514   6.918   3.127   2.723
 7872SOL    HW124515   6.838   3.126   2.663
 7872SOL    HW224516   6.919   3.211   2.777
 7873SOL     OW24517   0.252   5.348   5.186
 7873SOL    HW124518   0.334   5.314   5.139
 7873SOL    HW224519   0.209   5.419   5.131
 7874SOL     OW24520   5.967   1.846   0.298
 7874SOL    HW124521   5.965   1.747   0.284
 7874SOL    HW224522   5.873   1.881   0.307
 7875SOL     OW24523   4.401   3.160   5.882
 7875SOL    HW124524   4.440   3.187   5.794
 7875SOL    HW224525   4.303   3.182   5.883
 7876SOL     OW24526   6.517   0.586   3.679
 7876SOL    HW124527   6.493   0.492   3.654
 7876SOL    HW224528   6.435   0.632   3.715
 7877SOL     OW24529   6.948   2.206   2.697
 7877SOL    HW124530   7.014   2.269   2.655
 7877SOL    HW224531   6.994   2.153   2.768
 7878SOL     OW24532   4.852   4.068   2.365
 7878SOL    HW124533   4.805   4.129   2.301
 7878SOL    HW224534   4.918   4.012   2.316
 7879SOL     OW24535   5.154   0.110   3.899
 7879SOL    HW124536   5.192   0.031   3.849
 7879SOL    HW224537   5.134   0.183   3.834
 7880SOL     OW24538   0.222   6.995   6.469
 7880SOL    HW124539   0.278   6.943   6.405
 7880SOL    HW224540   0.270   7.000   6.557
 7881SOL     OW24541   0.169   4.521   4.637
 7881SOL    HW124542   0.205   4.598   4.689
 7881SOL    HW224543   0.073   4.538   4.614
 7882SOL     OW24544   6.706   3.470   3.374
 7882SOL    HW124545   6.609   3.476   3.399
 7882SOL    HW224546   6.762   3.487   3.455
 7883SOL     OW24547   2.983   1.367   3.340
 7883SOL    HW124548   3.038   1.320   3.409
 7883SOL    HW224549   2.916   1.426   3.386
 7884SOL     OW24550   0.774   4.376   4.704
 7884SOL    HW124551   0.803   4.378   4.609
 7884SOL    HW224552   0.781   4.283   4.740
 7885SOL     OW24553   6.136   5.873   2.891
 7885SOL    HW124554   6.228   5.879   2.853
 7885SOL    HW224555   6.123   5.782   2.932
 7886SOL     OW24556   4.879   2.665   2.095
 7886SOL    HW124557   4.783   2.669   2.067
 7886SOL    HW224558   4.931   2.735   2.046
 7887SOL     OW24559   2.952   3.413   0.207
 7887SOL    HW124560   3.003   3.470   0.142
 7887SOL    HW224561   2.968   3.316   0.186
 7888SOL     OW24562   5.711   1.357   3.788
 7888SOL    HW124563   5.744   1.406   3.707
 7888SOL    HW224564   5.700   1.260   3.765
 7889SOL     OW24565   6.061   4.697   1.061
 7889SOL    HW124566   6.039   4.602   1.039
 7889SOL    HW224567   5.980   4.743   1.097
 7890SOL     OW24568   1.033   3.792   4.320
 7890SOL    HW124569   0.949   3.739   4.329
 7890SOL    HW224570   1.098   3.764   4.391
 7891SOL     OW24571   0.469   2.489   4.070
 7891SOL    HW124572   0.467   2.581   4.111
 7891SOL    HW224573   0.440   2.495   3.974
 7892SOL     OW24574   1.228   3.207   6.010
 7892SOL    HW124575   1.287   3.130   6.036
 7892SOL    HW224576   1.136   3.191   6.044
 7893SOL     OW24577   6.356   1.284   1.618
 7893SOL    HW124578   6.395   1.281   1.526
 7893SOL    HW224579   6.422   1.327   1.680
 7894SOL     OW24580   2.444   0.882   6.032
 7894SOL    HW124581   2.396   0.935   6.103
 7894SOL    HW224582   2.530   0.847   6.069
 7895SOL     OW24583   3.971   6.369   3.433
 7895SOL    HW124584   3.950   6.349   3.337
 7895SOL    HW224585   3.924   6.304   3.492
 7896SOL     OW24586   3.943   2.322   1.303
 7896SOL    HW124587   4.021   2.261   1.320
 7896SOL    HW224588   3.865   2.269   1.270
 7897SOL     OW24589   3.751   4.117   0.277
 7897SOL    HW124590   3.660   4.081   0.258
 7897SOL    HW224591   3.818   4.068   0.222
 7898SOL     OW24592   5.526   0.348   4.376
 7898SOL    HW124593   5.620   0.374   4.354
 7898SOL    HW224594   5.527   0.260   4.425
 7899SOL     OW24595   5.378   4.787   0.924
 7899SOL    HW124596   5.453   4.723   0.939
 7899SOL    HW224597   5.349   4.826   1.012
 7900SOL     OW24598   1.097   3.779   0.272
 7900SOL    HW124599   1.064   3.840   0.199
 7900SOL    HW224600   1.046   3.796   0.356
 7901SOL     OW24601   5.912   1.056   6.313
 7901SOL    HW124602   5.979   1.067   6.386
 7901SOL    HW224603   5.957   1.070   6.224
 7902SOL     OW24604   0.727   6.667   2.805
 7902SOL    HW124605   0.781   6.697   2.883
 7902SOL    HW224606   0.784   6.669   2.723
 7903SOL     OW24607   2.126   1.961   4.711
 7903SOL    HW124608   2.064   2.035   4.737
 7903SOL    HW224609   2.220   1.992   4.719
 7904SOL     OW24610   5.770   1.031   1.985
 7904SOL    HW124611   5.756   1.102   1.916
 7904SOL    HW224612   5.867   1.007   1.988
 7905SOL     OW24613   5.772   0.126   0.533
 7905SOL    HW124614   5.800   0.036   0.565
 7905SOL    HW224615   5.849   0.171   0.488
 7906SOL     OW24616   1.275   4.787   1.344
 7906SOL    HW124617   1.332   4.794   1.263
 7906SOL    HW224618   1.202   4.855   1.341
 7907SOL     OW24619   6.176   0.140   3.642
 7907SOL    HW124620   6.233   0.148   3.560
 7907SOL    HW224621   6.096   0.199   3.633
 7908SOL     OW24622   0.370   0.468   6.593
 7908SOL    HW124623   0.439   0.521   6.545
 7908SOL    HW224624   0.398   0.454   6.688
 7909SOL     OW24625   5.777   3.763   1.738
 7909SOL    HW124626   5.798   3.784   1.834
 7909SOL    HW224627   5.689   3.716   1.733
 7910SOL     OW24628   2.257   3.520   0.572
 7910SOL    HW124629   2.353   3.492   0.570
 7910SOL    HW224630   2.204   3.456   0.627
 7911SOL     OW24631   1.326   4.385   0.388
 7911SOL    HW124632   1.270   4.469   0.390
 7911SOL    HW224633   1.266   4.306   0.397
 7912SOL     OW24634   5.947   5.243   0.237
 7912SOL    HW124635   5.924   5.313   0.169
 7912SOL    HW224636   5.904   5.266   0.324
 7913SOL     OW24637   0.544   3.462   0.605
 7913SOL    HW124638   0.473   3.391   0.596
 7913SOL    HW224639   0.631   3.427   0.570
 7914SOL     OW24640   6.297   4.920   4.882
 7914SOL    HW124641   6.388   4.879   4.894
 7914SOL    HW224642   6.280   4.986   4.955
 7915SOL     OW24643   3.608   0.059   2.954
 7915SOL    HW124644   3.595   0.155   2.933
 7915SOL    HW224645   3.520   0.017   2.977
 7916SOL     OW24646   1.463   0.747   4.479
 7916SOL    HW124647   1.376   0.706   4.451
 7916SOL    HW224648   1.465   0.843   4.452
 7917SOL     OW24649   4.058   3.355   0.017
 7917SOL    HW124650   4.107   3.432   7.003
 7917SOL    HW224651   3.964   3.384   0.038
 7918SOL     OW24652   2.244   0.800   4.761
 7918SOL    HW124653   2.245   0.900   4.773
 7918SOL    HW224654   2.170   0.775   4.699
 7919SOL     OW24655   1.171   5.366   2.269
 7919SOL    HW124656   1.090   5.380   2.212
 7919SOL    HW224657   1.248   5.418   2.231
 7920SOL     OW24658   4.763   0.147   0.456
 7920SOL    HW124659   4.724   0.199   0.380
 7920SOL    HW224660   4.695   0.138   0.528
 7921SOL     OW24661   4.692   1.429   1.710
 7921SOL    HW124662   4.615   1.388   1.759
 7921SOL    HW224663   4.704   1.524   1.739
 7922SOL     OW24664   0.575   5.764   0.884
 7922SOL    HW124665   0.577   5.850   0.935
 7922SOL    HW224666   0.608   5.690   0.942
 7923SOL     OW24667   3.816   1.264   6.721
 7923SOL    HW124668   3.880   1.251   6.796
 7923SOL    HW224669   3.759   1.182   6.712
 7924SOL     OW24670   5.989   0.611   1.120
 7924SOL    HW124671   5.947   0.524   1.094
 7924SOL    HW224672   5.945   0.685   1.069
 7925SOL     OW24673   2.620   6.557   0.849
 7925SOL    HW124674   2.528   6.585   0.879
 7925SOL    HW224675   2.681   6.553   0.928
 7926SOL     OW24676   4.947   6.173   6.303
 7926SOL    HW124677   4.968   6.140   6.395
 7926SOL    HW224678   5.032   6.183   6.251
 7927SOL     OW24679   5.018   6.796   2.301
 7927SOL    HW124680   5.088   6.777   2.370
 7927SOL    HW224681   5.045   6.754   2.214
 7928SOL     OW24682   6.708   1.325   3.496
 7928SOL    HW124683   6.743   1.411   3.459
 7928SOL    HW224684   6.627   1.343   3.552
 7929SOL     OW24685   4.168   4.305   6.121
 7929SOL    HW124686   4.115   4.390   6.124
 7929SOL    HW224687   4.187   4.275   6.214
 7930SOL     OW24688   3.993   5.913   5.593
 7930SOL    HW124689   3.905   5.929   5.638
 7930SOL    HW224690   4.048   5.850   5.649
 7931SOL     OW24691   3.129   2.393   0.599
 7931SOL    HW124692   3.078   2.310   0.622
 7931SOL    HW224693   3.076   2.447   0.533
 7932SOL     OW24694   0.368   5.669   1.475
 7932SOL    HW124695   0.411   5.721   1.400
 7932SOL    HW224696   0.286   5.717   1.505
 7933SOL     OW24697   0.105   1.323   6.054
 7933SOL    HW124698   0.061   1.387   6.118
 7933SOL    HW224699   0.042   1.248   6.033
 7934SOL     OW24700   1.224   4.425   1.031
 7934SOL    HW124701   1.224   4.417   0.931
 7934SOL    HW224702   1.163   4.500   1.058
 7935SOL     OW24703   5.212   3.542   2.535
 7935SOL    HW124704   5.187   3.553   2.631
 7935SOL    HW224705   5.285   3.606   2.512
 7936SOL     OW24706   3.335   6.432   4.202
 7936SOL    HW124707   3.372   6.339   4.189
 7936SOL    HW224708   3.262   6.430   4.270
 7937SOL     OW24709   2.442   5.683   6.672
 7937SOL    HW124710   2.358   5.687   6.618
 7937SOL    HW224711   2.518   5.719   6.619
 7938SOL     OW24712   3.757   6.670   4.583
 7938SOL    HW124713   3.684   6.677   4.651
 7938SOL    HW224714   3.721   6.626   4.500
 7939SOL     OW24715   0.794   2.378   4.998
 7939SOL    HW124716   0.888   2.392   5.032
 7939SOL    HW224717   0.743   2.322   5.063
 7940SOL     OW24718   4.897   1.087   3.156
 7940SOL    HW124719   4.989   1.094   3.116
 7940SOL    HW224720   4.854   1.177   3.155
 7941SOL     OW24721   3.855   6.695   2.200
 7941SOL    HW124722   3.855   6.661   2.106
 7941SOL    HW224723   3.940   6.668   2.246
 7942SOL     OW24724   0.683   3.983   1.600
 7942SOL    HW124725   0.747   4.059   1.594
 7942SOL    HW224726   0.699   3.919   1.524
 7943SOL     OW24727   1.899   5.338   6.604
 7943SOL    HW124728   1.891   5.239   6.589
 7943SOL    HW224729   1.991   5.368   6.576
 7944SOL     OW24730   1.369   3.171   0.872
 7944SOL    HW124731   1.449   3.124   0.909
 7944SOL    HW224732   1.290   3.110   0.875
 7945SOL     OW24733   5.862   4.442   2.501
 7945SOL    HW124734   5.960   4.457   2.508
 7945SOL    HW224735   5.828   4.405   2.588
 7946SOL     OW24736   3.997   1.306   5.149
 7946SOL    HW124737   3.953   1.275   5.065
 7946SOL    HW224738   3.947   1.384   5.187
 7947SOL     OW24739   1.076   2.691   5.287
 7947SOL    HW124740   1.147   2.685   5.356
 7947SOL    HW224741   1.061   2.601   5.246
 7948SOL     OW24742   1.435   5.029   2.517
 7948SOL    HW124743   1.416   5.028   2.615
 7948SOL    HW224744   1.495   4.952   2.495
 7949SOL     OW24745   3.721   4.990   6.553
 7949SOL    HW124746   3.633   4.975   6.507
 7949SOL    HW224747   3.717   5.074   6.606
 7950SOL     OW24748   5.857   5.019   5.623
 7950SOL    HW124749   5.822   4.959   5.551
 7950SOL    HW224750   5.941   4.980   5.662
 7951SOL     OW24751   3.152   5.500   2.760
 7951SOL    HW124752   3.146   5.458   2.851
 7951SOL    HW224753   3.100   5.446   2.694
 7952SOL     OW24754   5.627   3.026   6.934
 7952SOL    HW124755   5.540   3.060   6.899
 7952SOL    HW224756   5.652   3.077   7.016
 7953SOL     OW24757   2.907   1.615   0.823
 7953SOL    HW124758   2.810   1.627   0.848
 7953SOL    HW224759   2.923   1.521   0.796
 7954SOL     OW24760   3.557   3.323   0.465
 7954SOL    HW124761   3.595   3.415   0.458
 7954SOL    HW224762   3.465   3.328   0.504
 7955SOL     OW24763   1.659   1.410   6.727
 7955SOL    HW124764   1.660   1.456   6.638
 7955SOL    HW224765   1.698   1.470   6.796
 7956SOL     OW24766   6.793   0.378   1.064
 7956SOL    HW124767   6.815   0.320   1.142
 7956SOL    HW224768   6.873   0.386   1.005
 7957SOL     OW24769   5.025   0.344   5.137
 7957SOL    HW124770   5.023   0.283   5.216
 7957SOL    HW224771   5.024   0.290   5.053
 7958SOL     OW24772   5.707   3.413   6.963
 7958SOL    HW124773   5.656   3.354   7.026
 7958SOL    HW224774   5.781   3.360   6.921
 7959SOL     OW24775   5.202   0.839   5.957
 7959SOL    HW124776   5.227   0.932   5.983
 7959SOL    HW224777   5.215   0.827   5.858
 7960SOL     OW24778   7.002   0.975   6.339
 7960SOL    HW124779   6.927   1.035   6.311
 7960SOL    HW224780   7.001   0.893   6.282
 7961SOL     OW24781   6.472   0.607   0.299
 7961SOL    HW124782   6.486   0.697   0.257
 7961SOL    HW224783   6.491   0.535   0.232
 7962SOL     OW24784   6.206   6.711   5.897
 7962SOL    HW124785   6.273   6.782   5.920
 7962SOL    HW224786   6.254   6.628   5.871
 7963SOL     OW24787   6.818   5.244   4.043
 7963SOL    HW124788   6.780   5.215   4.131
 7963SOL    HW224789   6.763   5.206   3.969
 7964SOL     OW24790   6.479   3.510   2.227
 7964SOL    HW124791   6.422   3.498   2.308
 7964SOL    HW224792   6.422   3.498   2.145
 7965SOL     OW24793   4.327   1.739   6.869
 7965SOL    HW124794   4.351   1.714   6.775
 7965SOL    HW224795   4.342   1.660   6.929
 7966SOL     OW24796   4.315   4.024   5.311
 7966SOL    HW124797   4.256   4.085   5.257
 7966SOL    HW224798   4.381   4.078   5.362
 7967SOL     OW24799   1.315   4.856   2.159
 7967SOL    HW124800   1.329   4.908   2.075
 7967SOL    HW224801   1.230   4.802   2.151
 7968SOL     OW24802   6.493   1.980   4.308
 7968SOL    HW124803   6.559   2.052   4.288
 7968SOL    HW224804   6.522   1.929   4.389
 7969SOL     OW24805   4.842   6.046   0.024
 7969SOL    HW124806   4.916   6.001   6.999
 7969SOL    HW224807   4.878   6.080   0.110
 7970SOL     OW24808   6.003   3.318   2.504
 7970SOL    HW124809   5.965   3.266   2.580
 7970SOL    HW224810   6.060   3.258   2.448
 7971SOL     OW24811   3.063   1.491   1.089
 7971SOL    HW124812   3.013   1.524   1.009
 7971SOL    HW224813   3.099   1.399   1.071
 7972SOL     OW24814   4.001   3.173   2.955
 7972SOL    HW124815   3.959   3.108   3.019
 7972SOL    HW224816   3.960   3.263   2.967
 7973SOL     OW24817   5.808   3.658   3.389
 7973SOL    HW124818   5.831   3.564   3.363
 7973SOL    HW224819   5.772   3.707   3.310
 7974SOL     OW24820   6.367   1.827   4.889
 7974SOL    HW124821   6.268   1.817   4.904
 7974SOL    HW224822   6.399   1.753   4.831
 7975SOL     OW24823   5.471   1.234   1.132
 7975SOL    HW124824   5.437   1.327   1.121
 7975SOL    HW224825   5.401   1.179   1.178
 7976SOL     OW24826   1.187   6.665   6.811
 7976SOL    HW124827   1.228   6.624   6.893
 7976SOL    HW224828   1.259   6.686   6.745
 7977SOL     OW24829   5.607   6.262   2.894
 7977SOL    HW124830   5.515   6.299   2.888
 7977SOL    HW224831   5.636   6.258   2.990
 7978SOL     OW24832   0.515   4.371   0.995
 7978SOL    HW124833   0.418   4.383   0.975
 7978SOL    HW224834   0.560   4.460   0.996
 7979SOL     OW24835   1.442   4.011   4.885
 7979SOL    HW124836   1.530   4.038   4.923
 7979SOL    HW224837   1.454   3.982   4.790
 7980SOL     OW24838   3.775   5.447   6.166
 7980SOL    HW124839   3.765   5.463   6.265
 7980SOL    HW224840   3.817   5.357   6.152
 7981SOL     OW24841   2.004   5.217   3.117
 7981SOL    HW124842   2.099   5.187   3.130
 7981SOL    HW224843   1.964   5.241   3.205
 7982SOL     OW24844   1.023   2.437   6.207
 7982SOL    HW124845   0.933   2.478   6.214
 7982SOL    HW224846   1.061   2.452   6.116
 7983SOL     OW24847   5.188   0.651   1.084
 7983SOL    HW124848   5.114   0.646   1.017
 7983SOL    HW224849   5.164   0.717   1.155
 7984SOL     OW24850   1.435   1.875   1.690
 7984SOL    HW124851   1.412   1.864   1.786
 7984SOL    HW224852   1.485   1.795   1.657
 7985SOL     OW24853   1.961   2.480   5.838
 7985SOL    HW124854   1.998   2.537   5.764
 7985SOL    HW224855   1.997   2.513   5.926
 7986SOL     OW24856   3.161   1.078   3.743
 7986SOL    HW124857   3.210   1.133   3.810
 7986SOL    HW224858   3.224   1.012   3.702
 7987SOL     OW24859   1.180   3.669   0.694
 7987SOL    HW124860   1.226   3.619   0.621
 7987SOL    HW224861   1.246   3.728   0.740
 7988SOL     OW24862   0.277   1.770   1.313
 7988SOL    HW124863   0.314   1.860   1.293
 7988SOL    HW224864   0.177   1.776   1.321
 7989SOL     OW24865   0.808   4.490   0.634
 7989SOL    HW124866   0.828   4.401   0.675
 7989SOL    HW224867   0.737   4.480   0.564
 7990SOL     OW24868   3.030   5.525   5.436
 7990SOL    HW124869   3.069   5.581   5.363
 7990SOL    HW224870   3.103   5.476   5.484
 7991SOL     OW24871   5.766   1.251   5.281
 7991SOL    HW124872   5.790   1.248   5.183
 7991SOL    HW224873   5.732   1.343   5.303
 7992SOL     OW24874   2.536   0.696   0.312
 7992SOL    HW124875   2.601   0.736   0.247
 7992SOL    HW224876   2.586   0.643   0.380
 7993SOL     OW24877   6.690   6.331   1.507
 7993SOL    HW124878   6.725   6.267   1.575
 7993SOL    HW224879   6.758   6.401   1.488
 7994SOL     OW24880   5.185   0.926   3.153
 7994SOL    HW124881   5.125   0.937   3.074
 7994SOL    HW224882   5.265   0.872   3.127
 7995SOL     OW24883   0.159   4.541   1.557
 7995SOL    HW124884   0.128   4.632   1.532
 7995SOL    HW224885   0.102   4.505   1.631
 7996SOL     OW24886   3.842   6.761   3.264
 7996SOL    HW124887   3.833   6.690   3.193
 7996SOL    HW224888   3.854   6.850   3.220
 7997SOL     OW24889   0.610   2.112   6.548
 7997SOL    HW124890   0.591   2.068   6.636
 7997SOL    HW224891   0.638   2.207   6.564
 7998SOL     OW24892   3.162   0.684   0.173
 7998SOL    HW124893   3.204   0.607   0.127
 7998SOL    HW224894   3.081   0.653   0.224
 7999SOL     OW24895   1.547   1.274   5.197
 7999SOL    HW124896   1.558   1.198   5.261
 7999SOL    HW224897   1.632   1.289   5.148
 8000SOL     OW24898   5.921   5.954   6.157
 8000SOL    HW124899   5.996   5.908   6.110
 8000SOL    HW224900   5.957   6.030   6.211
 8001SOL     OW24901   4.591   0.378   1.205
 8001SOL    HW124902   4.504   0.345   1.242
 8001SOL    HW224903   4.607   0.471   1.236
 8002SOL     OW24904   0.596   0.187   5.969
 8002SOL    HW124905   0.564   0.148   5.883
 8002SOL    HW224906   0.632   0.114   6.028
 8003SOL     OW24907   2.027   6.627   2.631
 8003SOL    HW124908   2.022   6.699   2.701
 8003SOL    HW224909   2.047   6.539   2.674
 8004SOL     OW24910   0.997   2.956   4.082
 8004SOL    HW124911   1.041   3.033   4.129
 8004SOL    HW224912   0.936   2.909   4.145
 8005SOL     OW24913   2.585   0.572   3.378
 8005SOL    HW124914   2.595   0.569   3.279
 8005SOL    HW224915   2.585   0.667   3.409
 8006SOL     OW24916   3.889   4.798   5.384
 8006SOL    HW124917   3.941   4.741   5.448
 8006SOL    HW224918   3.803   4.826   5.428
 8007SOL     OW24919   6.075   1.302   6.671
 8007SOL    HW124920   6.170   1.330   6.689
 8007SOL    HW224921   6.032   1.274   6.757
 8008SOL     OW24922   4.733   6.581   6.965
 8008SOL    HW124923   4.705   6.614   6.875
 8008SOL    HW224924   4.799   6.507   6.954
 8009SOL     OW24925   5.292   1.375   0.960
 8009SOL    HW124926   5.205   1.374   1.008
 8009SOL    HW224927   5.314   1.468   0.931
 8010SOL     OW24928   2.960   2.563   5.429
 8010SOL    HW124929   2.894   2.558   5.504
 8010SOL    HW224930   2.963   2.475   5.382
 8011SOL     OW24931   3.699   1.925   2.091
 8011SOL    HW124932   3.767   1.987   2.128
 8011SOL    HW224933   3.623   1.977   2.052
 8012SOL     OW24934   1.166   2.833   5.554
 8012SOL    HW124935   1.074   2.857   5.524
 8012SOL    HW224936   1.222   2.915   5.559
 8013SOL     OW24937   1.778   2.743   3.389
 8013SOL    HW124938   1.739   2.835   3.391
 8013SOL    HW224939   1.838   2.733   3.310
 8014SOL     OW24940   1.879   0.832   3.221
 8014SOL    HW124941   1.802   0.873   3.271
 8014SOL    HW224942   1.849   0.746   3.179
 8015SOL     OW24943   2.419   6.845   5.331
 8015SOL    HW124944   2.323   6.845   5.303
 8015SOL    HW224945   2.455   6.752   5.326
 8016SOL     OW24946   4.517   1.686   5.795
 8016SOL    HW124947   4.454   1.702   5.871
 8016SOL    HW224948   4.497   1.751   5.721
 8017SOL     OW24949   6.795   0.469   0.463
 8017SOL    HW124950   6.807   0.443   0.368
 8017SOL    HW224951   6.711   0.427   0.499
 8018SOL     OW24952   4.059   1.323   0.549
 8018SOL    HW124953   4.000   1.370   0.483
 8018SOL    HW224954   4.151   1.317   0.513
 8019SOL     OW24955   2.991   3.266   0.899
 8019SOL    HW124956   3.029   3.358   0.887
 8019SOL    HW224957   3.052   3.199   0.856
 8020SOL     OW24958   0.297   0.278   5.013
 8020SOL    HW124959   0.283   0.373   5.038
 8020SOL    HW224960   0.350   0.232   5.085
 8021SOL     OW24961   1.591   2.168   2.330
 8021SOL    HW124962   1.560   2.242   2.270
 8021SOL    HW224963   1.597   2.202   2.424
 8022SOL     OW24964   5.061   1.192   2.265
 8022SOL    HW124965   5.126   1.252   2.218
 8022SOL    HW224966   5.022   1.127   2.199
 8023SOL     OW24967   4.855   6.162   3.674
 8023SOL    HW124968   4.789   6.088   3.688
 8023SOL    HW224969   4.846   6.197   3.581
 8024SOL     OW24970   2.066   6.155   5.973
 8024SOL    HW124971   2.035   6.206   5.893
 8024SOL    HW224972   2.013   6.183   6.053
 8025SOL     OW24973   2.182   5.057   1.376
 8025SOL    HW124974   2.183   5.045   1.475
 8025SOL    HW224975   2.267   5.021   1.337
 8026SOL     OW24976   0.760   5.554   6.589
 8026SOL    HW124977   0.760   5.558   6.489
 8026SOL    HW224978   0.782   5.644   6.625
 8027SOL     OW24979   3.603   6.332   6.708
 8027SOL    HW124980   3.672   6.287   6.764
 8027SOL    HW224981   3.640   6.351   6.618
 8028SOL     OW24982   2.928   5.366   4.414
 8028SOL    HW124983   3.024   5.365   4.443
 8028SOL    HW224984   2.891   5.273   4.420
 8029SOL     OW24985   6.455   1.252   1.335
 8029SOL    HW124986   6.507   1.334   1.311
 8029SOL    HW224987   6.358   1.276   1.343
 8030SOL     OW24988   6.056   4.884   0.861
 8030SOL    HW124989   6.050   4.808   0.926
 8030SOL    HW224990   6.141   4.934   0.877
 8031SOL     OW24991   6.767   0.740   2.948
 8031SOL    HW124992   6.680   0.689   2.945
 8031SOL    HW224993   6.790   0.762   3.043
 8032SOL     OW24994   5.448   2.645   0.628
 8032SOL    HW124995   5.431   2.547   0.635
 8032SOL    HW224996   5.517   2.662   0.557
 8033SOL     OW24997   3.845   4.422   0.839
 8033SOL    HW124998   3.911   4.448   0.770
 8033SOL    HW224999   3.757   4.465   0.820
 8034SOL     OW25000   5.896   6.920   5.459
 8034SOL    HW125001   5.886   6.935   5.360
 8034SOL    HW225002   5.987   6.883   5.478
 8035SOL     OW25003   4.894   1.827   3.018
 8035SOL    HW125004   4.802   1.794   2.996
 8035SOL    HW225005   4.950   1.825   2.935
 8036SOL     OW25006   6.200   2.937   3.925
 8036SOL    HW125007   6.212   3.036   3.919
 8036SOL    HW225008   6.285   2.896   3.959
 8037SOL     OW25009   1.350   2.948   6.540
 8037SOL    HW125010   1.304   2.969   6.453
 8037SOL    HW225011   1.356   2.849   6.552
 8038SOL     OW25012   6.183   6.394   2.322
 8038SOL    HW125013   6.168   6.364   2.416
 8038SOL    HW225014   6.208   6.316   2.265
 8039SOL     OW25015   1.499   2.184   5.606
 8039SOL    HW125016   1.471   2.177   5.702
 8039SOL    HW225017   1.425   2.227   5.553
 8040SOL     OW25018   1.719   5.488   6.012
 8040SOL    HW125019   1.635   5.446   6.046
 8040SOL    HW225020   1.705   5.587   6.002
 8041SOL     OW25021   4.117   1.682   2.953
 8041SOL    HW125022   4.089   1.658   3.046
 8041SOL    HW225023   4.059   1.754   2.918
 8042SOL     OW25024   4.441   4.369   5.657
 8042SOL    HW125025   4.378   4.331   5.588
 8042SOL    HW225026   4.390   4.390   5.740
 8043SOL     OW25027   5.348   4.085   0.631
 8043SOL    HW125028   5.434   4.119   0.594
 8043SOL    HW225029   5.332   4.126   0.721
 8044SOL     OW25030   3.374   3.812   1.145
 8044SOL    HW125031   3.343   3.822   1.239
 8044SOL    HW225032   3.322   3.875   1.086
 8045SOL     OW25033   0.770   1.272   2.554
 8045SOL    HW125034   0.866   1.294   2.567
 8045SOL    HW225035   0.760   1.174   2.536
 8046SOL     OW25036   0.250   5.279   2.221
 8046SOL    HW125037   0.261   5.370   2.260
 8046SOL    HW225038   0.283   5.279   2.127
 8047SOL     OW25039   4.168   0.124   5.453
 8047SOL    HW125040   4.088   0.182   5.438
 8047SOL    HW225041   4.246   0.182   5.480
 8048SOL     OW25042   3.388   4.194   0.180
 8048SOL    HW125043   3.320   4.219   0.249
 8048SOL    HW225044   3.422   4.102   0.200
 8049SOL     OW25045   1.836   0.018   0.531
 8049SOL    HW125046   1.811   6.970   0.469
 8049SOL    HW225047   1.801   0.104   0.495
 8050SOL     OW25048   1.765   4.429   3.997
 8050SOL    HW125049   1.686   4.470   4.043
 8050SOL    HW225050   1.791   4.484   3.918
 8051SOL     OW25051   3.070   6.341   4.359
 8051SOL    HW125052   3.113   6.381   4.440
 8051SOL    HW225053   2.971   6.350   4.366
 8052SOL     OW25054   2.437   1.987   1.775
 8052SOL    HW125055   2.362   2.010   1.713
 8052SOL    HW225056   2.405   1.920   1.843
 8053SOL     OW25057   2.725   3.503   6.306
 8053SOL    HW125058   2.682   3.454   6.231
 8053SOL    HW225059   2.681   3.477   6.392
 8054SOL     OW25060   5.488   3.991   5.019
 8054SOL    HW125061   5.467   3.995   5.117
 8054SOL    HW225062   5.504   4.083   4.985
 8055SOL     OW25063   0.325   0.513   5.130
 8055SOL    HW125064   0.238   0.561   5.121
 8055SOL    HW225065   0.401   0.579   5.124
 8056SOL     OW25066   2.255   0.924   3.876
 8056SOL    HW125067   2.304   0.937   3.962
 8056SOL    HW225068   2.310   0.959   3.800
 8057SOL     OW25069   2.546   2.655   1.758
 8057SOL    HW125070   2.464   2.671   1.703
 8057SOL    HW225071   2.534   2.571   1.812
 8058SOL     OW25072   2.901   6.777   2.968
 8058SOL    HW125073   2.896   6.853   2.902
 8058SOL    HW225074   2.984   6.788   3.024
 8059SOL     OW25075   2.647   3.401   6.561
 8059SOL    HW125076   2.728   3.354   6.526
 8059SOL    HW225077   2.565   3.363   6.518
 8060SOL     OW25078   6.504   0.157   5.830
 8060SOL    HW125079   6.464   0.229   5.773
 8060SOL    HW225080   6.572   0.107   5.777
 8061SOL     OW25081   0.648   1.506   2.483
 8061SOL    HW125082   0.684   1.414   2.498
 8061SOL    HW225083   0.680   1.542   2.396
 8062SOL     OW25084   4.239   5.972   5.228
 8062SOL    HW125085   4.237   6.021   5.140
 8062SOL    HW225086   4.268   6.035   5.300
 8063SOL     OW25087   3.443   0.783   3.079
 8063SOL    HW125088   3.410   0.689   3.064
 8063SOL    HW225089   3.510   0.807   3.010
 8064SOL     OW25090   5.991   3.043   7.019
 8064SOL    HW125091   6.042   3.127   0.013
 8064SOL    HW225092   5.921   3.064   6.950
 8065SOL     OW25093   3.131   6.859   5.264
 8065SOL    HW125094   3.209   6.871   5.204
 8065SOL    HW225095   3.076   6.782   5.232
 8066SOL     OW25096   0.154   1.078   4.879
 8066SOL    HW125097   0.239   1.130   4.891
 8066SOL    HW225098   0.102   1.078   4.964
 8067SOL     OW25099   5.050   2.886   3.528
 8067SOL    HW125100   5.041   2.909   3.625
 8067SOL    HW225101   4.987   2.943   3.474
 8068SOL     OW25102   6.201   4.659   1.327
 8068SOL    HW125103   6.293   4.691   1.304
 8068SOL    HW225104   6.139   4.678   1.250
 8069SOL     OW25105   2.963   5.211   2.410
 8069SOL    HW125106   3.017   5.295   2.411
 8069SOL    HW225107   2.997   5.150   2.338
 8070SOL     OW25108   5.382   4.486   0.429
 8070SOL    HW125109   5.469   4.448   0.461
 8070SOL    HW225110   5.390   4.585   0.423
 8071SOL     OW25111   4.035   6.664   6.099
 8071SOL    HW125112   4.019   6.689   6.195
 8071SOL    HW225113   3.982   6.724   6.039
 8072SOL     OW25114   2.021   3.069   6.632
 8072SOL    HW125115   1.930   3.102   6.658
 8072SOL    HW225116   2.072   3.143   6.589
 8073SOL     OW25117   3.213   0.251   6.797
 8073SOL    HW125118   3.293   0.223   6.745
 8073SOL    HW225119   3.160   0.170   6.823
 8074SOL     OW25120   2.090   2.058   0.233
 8074SOL    HW125121   2.183   2.060   0.196
 8074SOL    HW225122   2.039   1.983   0.190
 8075SOL     OW25123   0.011   6.383   6.666
 8075SOL    HW125124   6.938   6.375   6.665
 8075SOL    HW225125   0.040   6.437   6.746
 8076SOL     OW25126   6.583   0.101   6.916
 8076SOL    HW125127   6.680   0.105   6.892
 8076SOL    HW225128   6.565   0.021   6.972
 8077SOL     OW25129   4.308   5.734   1.952
 8077SOL    HW125130   4.384   5.718   1.889
 8077SOL    HW225131   4.234   5.669   1.933
 8078SOL     OW25132   0.946   0.992   0.829
 8078SOL    HW125133   1.005   1.064   0.793
 8078SOL    HW225134   0.902   1.024   0.914
 8079SOL     OW25135   1.322   1.244   4.974
 8079SOL    HW125136   1.239   1.298   4.960
 8079SOL    HW225137   1.346   1.245   5.072
 8080SOL     OW25138   1.327   3.627   3.063
 8080SOL    HW125139   1.356   3.617   3.158
 8080SOL    HW225140   1.304   3.723   3.046
 8081SOL     OW25141   6.089   4.916   4.699
 8081SOL    HW125142   6.068   4.821   4.721
 8081SOL    HW225143   6.174   4.943   4.744
 8082SOL     OW25144   2.756   1.542   2.472
 8082SOL    HW125145   2.659   1.537   2.497
 8082SOL    HW225146   2.802   1.608   2.530
 8083SOL     OW25147   5.509   1.953   4.757
 8083SOL    HW125148   5.462   1.985   4.839
 8083SOL    HW225149   5.527   2.030   4.697
 8084SOL     OW25150   2.552   0.199   6.347
 8084SOL    HW125151   2.642   0.180   6.387
 8084SOL    HW225152   2.498   0.254   6.409
 8085SOL     OW25153   0.580   5.588   3.925
 8085SOL    HW125154   0.586   5.493   3.955
 8085SOL    HW225155   0.656   5.640   3.964
 8086SOL     OW25156   1.082   1.390   1.985
 8086SOL    HW125157   1.140   1.402   1.904
 8086SOL    HW225158   1.068   1.292   2.002
 8087SOL     OW25159   1.326   0.470   0.031
 8087SOL    HW125160   1.316   0.446   0.127
 8087SOL    HW225161   1.420   0.452   0.002
 8088SOL     OW25162   5.257   6.659   6.437
 8088SOL    HW125163   5.300   6.688   6.523
 8088SOL    HW225164   5.263   6.733   6.370
 8089SOL     OW25165   6.335   2.616   6.373
 8089SOL    HW125166   6.428   2.586   6.392
 8089SOL    HW225167   6.308   2.687   6.438
 8090SOL     OW25168   4.413   1.653   6.624
 8090SOL    HW125169   4.500   1.672   6.578
 8090SOL    HW225170   4.374   1.568   6.588
 8091SOL     OW25171   0.932   4.348   5.064
 8091SOL    HW125172   0.982   4.365   5.149
 8091SOL    HW225173   0.956   4.258   5.029
 8092SOL     OW25174   4.648   2.095   5.224
 8092SOL    HW125175   4.733   2.135   5.259
 8092SOL    HW225176   4.610   2.034   5.294
 8093SOL     OW25177   2.586   6.305   2.655
 8093SOL    HW125178   2.507   6.274   2.603
 8093SOL    HW225179   2.556   6.352   2.738
 8094SOL     OW25180   1.021   4.013   4.159
 8094SOL    HW125181   1.021   3.937   4.223
 8094SOL    HW225182   0.940   4.006   4.100
 8095SOL     OW25183   1.320   4.206   5.620
 8095SOL    HW125184   1.402   4.211   5.563
 8095SOL    HW225185   1.282   4.298   5.631
 8096SOL     OW25186   1.180   6.665   2.168
 8096SOL    HW125187   1.204   6.570   2.187
 8096SOL    HW225188   1.085   6.670   2.137
 8097SOL     OW25189   2.867   6.527   4.842
 8097SOL    HW125190   2.864   6.497   4.747
 8097SOL    HW225191   2.962   6.525   4.874
 8098SOL     OW25192   0.820   5.807   3.675
 8098SOL    HW125193   0.875   5.724   3.671
 8098SOL    HW225194   0.734   5.792   3.628
 8099SOL     OW25195   3.710   5.655   3.801
 8099SOL    HW125196   3.791   5.628   3.748
 8099SOL    HW225197   3.628   5.617   3.758
 8100SOL     OW25198   6.318   1.155   6.314
 8100SOL    HW125199   6.346   1.118   6.225
 8100SOL    HW225200   6.294   1.251   6.305
 8101SOL     OW25201   1.980   6.163   0.986
 8101SOL    HW125202   1.883   6.159   1.009
 8101SOL    HW225203   2.004   6.256   0.960
 8102SOL     OW25204   1.142   3.318   4.697
 8102SOL    HW125205   1.045   3.316   4.717
 8102SOL    HW225206   1.194   3.295   4.779
 8103SOL     OW25207   3.826   1.038   2.366
 8103SOL    HW125208   3.833   1.129   2.407
 8103SOL    HW225209   3.855   1.042   2.270
 8104SOL     OW25210   2.038   6.523   5.833
 8104SOL    HW125211   1.970   6.454   5.807
 8104SOL    HW225212   2.000   6.615   5.816
 8105SOL     OW25213   6.715   1.693   3.020
 8105SOL    HW125214   6.746   1.748   3.097
 8105SOL    HW225215   6.640   1.633   3.049
 8106SOL     OW25216   2.098   6.522   4.210
 8106SOL    HW125217   2.088   6.620   4.189
 8106SOL    HW225218   2.083   6.507   4.308
 8107SOL     OW25219   2.014   5.724   4.364
 8107SOL    HW125220   1.978   5.759   4.278
 8107SOL    HW225221   1.945   5.735   4.436
 8108SOL     OW25222   0.241   1.084   6.308
 8108SOL    HW125223   0.144   1.074   6.330
 8108SOL    HW225224   0.295   1.077   6.391
 8109SOL     OW25225   6.686   3.712   6.335
 8109SOL    HW125226   6.680   3.654   6.416
 8109SOL    HW225227   6.777   3.753   6.329
 8110SOL     OW25228   4.620   4.940   1.018
 8110SOL    HW125229   4.620   4.921   0.920
 8110SOL    HW225230   4.712   4.968   1.046
 8111SOL     OW25231   5.655   1.274   3.316
 8111SOL    HW125232   5.721   1.237   3.381
 8111SOL    HW225233   5.570   1.222   3.321
 8112SOL     OW25234   0.381   2.867   4.940
 8112SOL    HW125235   0.345   2.896   5.029
 8112SOL    HW225236   0.332   2.913   4.867
 8113SOL     OW25237   6.232   2.738   1.238
 8113SOL    HW125238   6.289   2.758   1.318
 8113SOL    HW225239   6.138   2.723   1.266
 8114SOL     OW25240   1.466   4.201   2.261
 8114SOL    HW125241   1.434   4.200   2.166
 8114SOL    HW225242   1.401   4.151   2.319
 8115SOL     OW25243   3.000   6.939   0.125
 8115SOL    HW125244   3.056   7.013   0.163
 8115SOL    HW225245   2.940   6.904   0.197
 8116SOL     OW25246   3.347   5.240   0.907
 8116SOL    HW125247   3.352   5.185   0.824
 8116SOL    HW225248   3.275   5.203   0.967
 8117SOL     OW25249   2.323   6.915   3.279
 8117SOL    HW125250   2.236   6.907   3.230
 8117SOL    HW225251   2.398   6.890   3.217
 8118SOL     OW25252   6.131   4.031   6.517
 8118SOL    HW125253   6.214   3.990   6.554
 8118SOL    HW225254   6.061   4.034   6.588
 8119SOL     OW25255   5.369   5.522   5.299
 8119SOL    HW125256   5.328   5.487   5.383
 8119SOL    HW225257   5.451   5.576   5.321
 8120SOL     OW25258   2.218   5.634   0.616
 8120SOL    HW125259   2.302   5.686   0.633
 8120SOL    HW225260   2.242   5.539   0.593
 8121SOL     OW25261   0.988   4.287   3.126
 8121SOL    HW125262   1.015   4.300   3.031
 8121SOL    HW225263   1.051   4.335   3.186
 8122SOL     OW25264   1.045   4.424   2.834
 8122SOL    HW125265   1.074   4.405   2.740
 8122SOL    HW225266   1.067   4.519   2.858
 8123SOL     OW25267   0.663   1.963   6.854
 8123SOL    HW125268   0.739   1.898   6.859
 8123SOL    HW225269   0.697   2.056   6.872
 8124SOL     OW25270   4.916   5.921   3.900
 8124SOL    HW125271   4.820   5.944   3.886
 8124SOL    HW225272   4.952   5.877   3.818
 8125SOL     OW25273   0.416   0.867   2.793
 8125SOL    HW125274   0.398   0.938   2.861
 8125SOL    HW225275   0.415   0.778   2.837
 8126SOL     OW25276   4.094   4.792   4.184
 8126SOL    HW125277   4.002   4.821   4.155
 8126SOL    HW225278   4.105   4.808   4.282
 8127SOL     OW25279   2.309   2.770   0.169
 8127SOL    HW125280   2.274   2.846   0.223
 8127SOL    HW225281   2.403   2.791   0.139
 8128SOL     OW25282   3.360   2.733   1.670
 8128SOL    HW125283   3.315   2.644   1.684
 8128SOL    HW225284   3.309   2.785   1.602
 8129SOL     OW25285   1.130   2.242   0.385
 8129SOL    HW125286   1.196   2.178   0.345
 8129SOL    HW225287   1.153   2.335   0.357
 8130SOL     OW25288   1.254   5.234   0.344
 8130SOL    HW125289   1.327   5.295   0.312
 8130SOL    HW225290   1.232   5.168   0.272
 8131SOL     OW25291   2.413   2.716   0.795
 8131SOL    HW125292   2.351   2.671   0.859
 8131SOL    HW225293   2.481   2.769   0.847
 8132SOL     OW25294   6.563   0.019   3.874
 8132SOL    HW125295   6.530   7.010   3.961
 8132SOL    HW225296   6.499   0.086   3.838
 8133SOL     OW25297   3.683   5.160   1.338
 8133SOL    HW125298   3.627   5.078   1.330
 8133SOL    HW225299   3.660   5.208   1.422
 8134SOL     OW25300   6.440   1.054   5.587
 8134SOL    HW125301   6.459   1.076   5.491
 8134SOL    HW225302   6.526   1.039   5.635
 8135SOL     OW25303   2.329   0.231   1.914
 8135SOL    HW125304   2.256   0.235   1.845
 8135SOL    HW225305   2.345   0.135   1.938
 8136SOL     OW25306   5.100   5.417   2.597
 8136SOL    HW125307   5.181   5.421   2.655
 8136SOL    HW225308   5.127   5.430   2.502
 8137SOL     OW25309   3.503   1.422   5.465
 8137SOL    HW125310   3.453   1.504   5.437
 8137SOL    HW225311   3.438   1.348   5.483
 8138SOL     OW25312   5.403   1.358   1.709
 8138SOL    HW125313   5.432   1.274   1.755
 8138SOL    HW225314   5.442   1.362   1.617
 8139SOL     OW25315   1.365   1.876   2.603
 8139SOL    HW125316   1.308   1.936   2.548
 8139SOL    HW225317   1.460   1.907   2.599
 8140SOL     OW25318   4.547   1.185   4.668
 8140SOL    HW125319   4.614   1.132   4.617
 8140SOL    HW225320   4.535   1.275   4.625
 8141SOL     OW25321   3.961   5.285   5.989
 8141SOL    HW125322   3.973   5.196   6.032
 8141SOL    HW225323   3.880   5.284   5.931
 8142SOL     OW25324   6.222   4.526   0.462
 8142SOL    HW125325   6.194   4.549   0.555
 8142SOL    HW225326   6.315   4.559   0.446
 8143SOL     OW25327   5.857   4.374   6.033
 8143SOL    HW125328   5.839   4.450   6.095
 8143SOL    HW225329   5.854   4.288   6.084
 8144SOL     OW25330   5.411   6.633   6.729
 8144SOL    HW125331   5.426   6.730   6.745
 8144SOL    HW225332   5.493   6.592   6.689
 8145SOL     OW25333   6.181   6.165   2.962
 8145SOL    HW125334   6.173   6.077   2.916
 8145SOL    HW225335   6.098   6.183   3.015
 8146SOL     OW25336   3.817   0.878   5.649
 8146SOL    HW125337   3.909   0.840   5.642
 8146SOL    HW225338   3.815   0.969   5.606
 8147SOL     OW25339   4.373   1.740   3.944
 8147SOL    HW125340   4.422   1.709   4.026
 8147SOL    HW225341   4.438   1.749   3.869
 8148SOL     OW25342   5.391   2.531   2.605
 8148SOL    HW125343   5.448   2.475   2.546
 8148SOL    HW225344   5.335   2.593   2.549
 8149SOL     OW25345   3.904   5.048   2.603
 8149SOL    HW125346   3.981   5.106   2.632
 8149SOL    HW225347   3.847   5.099   2.538
 8150SOL     OW25348   0.619   5.296   0.797
 8150SOL    HW125349   0.595   5.356   0.721
 8150SOL    HW225350   0.599   5.201   0.774
 8151SOL     OW25351   1.142   2.641   3.612
 8151SOL    HW125352   1.185   2.701   3.680
 8151SOL    HW225353   1.072   2.585   3.656
 8152SOL     OW25354   2.139   0.738   3.318
 8152SOL    HW125355   2.184   0.827   3.327
 8152SOL    HW225356   2.040   0.752   3.311
 8153SOL     OW25357   2.894   0.110   1.634
 8153SOL    HW125358   2.804   0.152   1.637
 8153SOL    HW225359   2.960   0.169   1.680
 8154SOL     OW25360   2.187   6.383   4.013
 8154SOL    HW125361   2.165   6.417   4.104
 8154SOL    HW225362   2.164   6.451   3.944
 8155SOL     OW25363   3.204   2.817   1.962
 8155SOL    HW125364   3.164   2.725   1.967
 8155SOL    HW225365   3.133   2.884   1.984
 8156SOL     OW25366   5.925   0.831   5.469
 8156SOL    HW125367   5.850   0.799   5.527
 8156SOL    HW225368   5.994   0.759   5.460
 8157SOL     OW25369   6.026   4.297   6.420
 8157SOL    HW125370   6.053   4.213   6.468
 8157SOL    HW225371   6.108   4.346   6.391
 8158SOL     OW25372   0.918   5.887   1.242
 8158SOL    HW125373   0.939   5.797   1.205
 8158SOL    HW225374   0.865   5.878   1.326
 8159SOL     OW25375   2.017   5.227   1.903
 8159SOL    HW125376   2.003   5.259   1.809
 8159SOL    HW225377   1.994   5.300   1.967
 8160SOL     OW25378   4.502   2.343   0.897
 8160SOL    HW125379   4.441   2.285   0.842
 8160SOL    HW225380   4.591   2.350   0.852
 8161SOL     OW25381   4.700   1.178   0.257
 8161SOL    HW125382   4.625   1.231   0.218
 8161SOL    HW225383   4.676   1.148   0.349
 8162SOL     OW25384   5.823   6.965   0.824
 8162SOL    HW125385   5.880   6.933   0.748
 8162SOL    HW225386   5.839   6.908   0.904
 8163SOL     OW25387   2.363   4.308   5.189
 8163SOL    HW125388   2.332   4.333   5.097
 8163SOL    HW225389   2.396   4.214   5.189
 8164SOL     OW25390   4.866   2.098   1.167
 8164SOL    HW125391   4.767   2.096   1.186
 8164SOL    HW225392   4.915   2.061   1.245
 8165SOL     OW25393   1.698   4.344   1.310
 8165SOL    HW125394   1.636   4.266   1.300
 8165SOL    HW225395   1.647   4.422   1.348
 8166SOL     OW25396   2.406   0.365   2.164
 8166SOL    HW125397   2.405   0.306   2.083
 8166SOL    HW225398   2.339   0.439   2.153
 8167SOL     OW25399   5.910   2.612   3.468
 8167SOL    HW125400   5.930   2.548   3.543
 8167SOL    HW225401   5.983   2.609   3.400
 8168SOL     OW25402   3.776   1.594   3.084
 8168SOL    HW125403   3.812   1.519   3.029
 8168SOL    HW225404   3.781   1.570   3.181
 8169SOL     OW25405   4.305   4.020   6.525
 8169SOL    HW125406   4.319   4.100   6.583
 8169SOL    HW225407   4.262   3.947   6.580
 8170SOL     OW25408   0.750   5.833   4.144
 8170SOL    HW125409   0.758   5.932   4.128
 8170SOL    HW225410   0.779   5.813   4.238
 8171SOL     OW25411   0.859   1.707   6.445
 8171SOL    HW125412   0.823   1.796   6.418
 8171SOL    HW225413   0.828   1.638   6.380
 8172SOL     OW25414   0.005   0.154   0.516
 8172SOL    HW125415   6.953   0.151   0.578
 8172SOL    HW225416   0.030   0.249   0.499
 8173SOL     OW25417   3.371   2.445   0.032
 8173SOL    HW125418   3.467   2.420   0.017
 8173SOL    HW225419   3.365   2.544   0.049
 8174SOL     OW25420   5.451   1.363   1.427
 8174SOL    HW125421   5.504   1.284   1.397
 8174SOL    HW225422   5.402   1.402   1.349
 8175SOL     OW25423   0.642   1.727   5.985
 8175SOL    HW125424   0.716   1.698   5.925
 8175SOL    HW225425   0.657   1.822   6.014
 8176SOL     OW25426   2.746   5.442   1.791
 8176SOL    HW125427   2.798   5.444   1.706
 8176SOL    HW225428   2.779   5.514   1.853
 8177SOL     OW25429   0.820   6.756   4.476
 8177SOL    HW125430   0.760   6.812   4.533
 8177SOL    HW225431   0.765   6.696   4.418
 8178SOL     OW25432   1.334   6.488   6.978
 8178SOL    HW125433   1.338   6.421   6.904
 8178SOL    HW225434   1.419   6.540   6.981
 8179SOL     OW25435   3.344   3.112   0.005
 8179SOL    HW125436   3.385   3.040   0.060
 8179SOL    HW225437   3.286   3.169   0.063
 8180SOL     OW25438   6.914   6.879   4.483
 8180SOL    HW125439   6.865   6.861   4.568
 8180SOL    HW225440   6.986   6.946   4.499
 8181SOL     OW25441   2.821   2.252   3.164
 8181SOL    HW125442   2.879   2.252   3.245
 8181SOL    HW225443   2.865   2.199   3.091
 8182SOL     OW25444   3.198   2.064   5.755
 8182SOL    HW125445   3.210   1.968   5.727
 8182SOL    HW225446   3.128   2.069   5.826
 8183SOL     OW25447   1.073   3.486   5.027
 8183SOL    HW125448   1.163   3.449   5.048
 8183SOL    HW225449   1.019   3.493   5.111
 8184SOL     OW25450   0.515   0.387   5.311
 8184SOL    HW125451   0.533   0.291   5.290
 8184SOL    HW225452   0.420   0.409   5.289
 8185SOL     OW25453   3.070   1.672   2.478
 8185SOL    HW125454   3.055   1.664   2.379
 8185SOL    HW225455   2.999   1.729   2.518
 8186SOL     OW25456   3.419   5.936   5.801
 8186SOL    HW125457   3.381   5.883   5.726
 8186SOL    HW225458   3.349   5.999   5.836
 8187SOL     OW25459   1.310   2.327   5.492
 8187SOL    HW125460   1.230   2.278   5.455
 8187SOL    HW225461   1.301   2.425   5.474
 8188SOL     OW25462   6.063   2.195   2.796
 8188SOL    HW125463   6.142   2.255   2.795
 8188SOL    HW225464   6.000   2.224   2.869
 8189SOL     OW25465   6.157   4.658   2.711
 8189SOL    HW125466   6.230   4.646   2.778
 8189SOL    HW225467   6.069   4.650   2.756
 8190SOL     OW25468   5.341   3.161   3.741
 8190SOL    HW125469   5.401   3.085   3.765
 8190SOL    HW225470   5.348   3.179   3.643
 8191SOL     OW25471   0.252   5.196   4.170
 8191SOL    HW125472   0.301   5.117   4.206
 8191SOL    HW225473   0.253   5.269   4.239
 8192SOL     OW25474   2.228   5.266   2.232
 8192SOL    HW125475   2.267   5.249   2.323
 8192SOL    HW225476   2.219   5.179   2.183
 8193SOL     OW25477   4.485   6.980   5.002
 8193SOL    HW125478   4.525   6.901   5.048
 8193SOL    HW225479   4.507   0.036   5.053
 8194SOL     OW25480   6.587   0.725   7.012
 8194SOL    HW125481   6.534   0.666   6.952
 8194SOL    HW225482   6.684   0.704   7.001
 8195SOL     OW25483   6.499   0.161   0.292
 8195SOL    HW125484   6.424   0.127   0.349
 8195SOL    HW225485   6.554   0.083   0.261
 8196SOL     OW25486   3.378   6.560   6.458
 8196SOL    HW125487   3.381   6.605   6.547
 8196SOL    HW225488   3.321   6.478   6.464
 8197SOL     OW25489   0.169   0.630   6.508
 8197SOL    HW125490   0.187   0.625   6.409
 8197SOL    HW225491   0.248   0.594   6.557
 8198SOL     OW25492   2.429   6.569   3.216
 8198SOL    HW125493   2.457   6.644   3.157
 8198SOL    HW225494   2.385   6.497   3.162
 8199SOL     OW25495   6.923   3.410   6.648
 8199SOL    HW125496   6.892   3.334   6.705
 8199SOL    HW225497   6.993   3.378   6.585
 8200SOL     OW25498   5.161   4.320   0.970
 8200SOL    HW125499   5.137   4.377   1.049
 8200SOL    HW225500   5.175   4.378   0.890
 8201SOL     OW25501   5.807   6.951   3.392
 8201SOL    HW125502   5.741   6.990   3.457
 8201SOL    HW225503   5.838   7.023   3.330
 8202SOL     OW25504   1.360   4.184   3.778
 8202SOL    HW125505   1.329   4.251   3.846
 8202SOL    HW225506   1.338   4.217   3.686
 8203SOL     OW25507   5.521   4.146   1.397
 8203SOL    HW125508   5.573   4.091   1.463
 8203SOL    HW225509   5.428   4.160   1.432
 8204SOL     OW25510   3.200   7.003   2.104
 8204SOL    HW125511   3.279   6.997   2.164
 8204SOL    HW225512   3.216   0.045   2.033
 8205SOL     OW25513   5.658   5.635   1.521
 8205SOL    HW125514   5.728   5.694   1.480
 8205SOL    HW225515   5.593   5.607   1.451
 8206SOL     OW25516   3.891   1.877   5.340
 8206SOL    HW125517   3.845   1.928   5.412
 8206SOL    HW225518   3.970   1.830   5.378
 8207SOL     OW25519   2.905   5.416   6.444
 8207SOL    HW125520   2.971   5.346   6.416
 8207SOL    HW225521   2.951   5.487   6.498
 8208SOL     OW25522   1.742   4.471   0.992
 8208SOL    HW125523   1.741   4.371   0.998
 8208SOL    HW225524   1.665   4.508   1.044
 8209SOL     OW25525   1.100   0.339   5.113
 8209SOL    HW125526   1.191   0.342   5.154
 8209SOL    HW225527   1.046   0.415   5.150
 8210SOL     OW25528   2.151   1.231   0.302
 8210SOL    HW125529   2.074   1.196   0.356
 8210SOL    HW225530   2.231   1.172   0.317
 8211SOL     OW25531   3.359   3.078   4.039
 8211SOL    HW125532   3.434   3.022   4.074
 8211SOL    HW225533   3.334   3.047   3.948
 8212SOL     OW25534   2.764   0.597   1.252
 8212SOL    HW125535   2.824   0.671   1.284
 8212SOL    HW225536   2.802   0.509   1.281
 8213SOL     OW25537   4.513   4.417   1.673
 8213SOL    HW125538   4.601   4.443   1.712
 8213SOL    HW225539   4.473   4.342   1.727
 8214SOL     OW25540   3.366   5.412   4.458
 8214SOL    HW125541   3.439   5.461   4.411
 8214SOL    HW225542   3.405   5.336   4.509
 8215SOL     OW25543   4.450   6.539   6.664
 8215SOL    HW125544   4.374   6.572   6.721
 8215SOL    HW225545   4.534   6.587   6.691
 8216SOL     OW25546   5.049   5.693   1.670
 8216SOL    HW125547   5.135   5.648   1.695
 8216SOL    HW225548   4.978   5.667   1.736
 8217SOL     OW25549   2.098   5.432   3.499
 8217SOL    HW125550   2.171   5.441   3.431
 8217SOL    HW225551   2.112   5.497   3.573
 8218SOL     OW25552   1.731   0.194   5.465
 8218SOL    HW125553   1.655   0.129   5.473
 8218SOL    HW225554   1.702   0.283   5.500
 8219SOL     OW25555   3.892   3.983   1.267
 8219SOL    HW125556   3.981   4.011   1.231
 8219SOL    HW225557   3.862   3.900   1.219
 8220SOL     OW25558   4.040   3.308   4.111
 8220SOL    HW125559   4.010   3.263   4.195
 8220SOL    HW225560   4.094   3.389   4.133
 8221SOL     OW25561   5.659   3.212   3.361
 8221SOL    HW125562   5.593   3.179   3.294
 8221SOL    HW225563   5.665   3.147   3.437
 8222SOL     OW25564   6.247   2.829   0.719
 8222SOL    HW125565   6.224   2.911   0.665
 8222SOL    HW225566   6.326   2.849   0.777
 8223SOL     OW25567   0.518   5.902   5.347
 8223SOL    HW125568   0.420   5.917   5.359
 8223SOL    HW225569   0.561   5.987   5.314
 8224SOL     OW25570   5.516   1.636   0.519
 8224SOL    HW125571   5.527   1.735   0.521
 8224SOL    HW225572   5.424   1.614   0.487
 8225SOL     OW25573   5.257   1.648   0.681
 8225SOL    HW125574   5.228   1.561   0.641
 8225SOL    HW225575   5.265   1.638   0.780
 8226SOL     OW25576   3.812   0.061   0.107
 8226SOL    HW125577   3.828   0.150   0.065
 8226SOL    HW225578   3.714   0.046   0.117
 8227SOL     OW25579   4.941   2.099   2.935
 8227SOL    HW125580   4.939   2.015   2.989
 8227SOL    HW225581   4.976   2.079   2.844
 8228SOL     OW25582   2.041   0.576   5.597
 8228SOL    HW125583   2.032   0.567   5.696
 8228SOL    HW225584   2.110   0.512   5.564
 8229SOL     OW25585   4.637   4.476   1.217
 8229SOL    HW125586   4.593   4.514   1.299
 8229SOL    HW225587   4.735   4.469   1.232
 8230SOL     OW25588   5.369   0.497   5.865
 8230SOL    HW125589   5.341   0.484   5.960
 8230SOL    HW225590   5.346   0.415   5.813
 8231SOL     OW25591   2.416   1.716   3.202
 8231SOL    HW125592   2.475   1.783   3.247
 8231SOL    HW225593   2.387   1.648   3.270
 8232SOL     OW25594   3.684   6.462   2.983
 8232SOL    HW125595   3.746   6.539   2.989
 8232SOL    HW225596   3.665   6.441   2.887
 8233SOL     OW25597   0.992   1.219   5.895
 8233SOL    HW125598   0.942   1.246   5.978
 8233SOL    HW225599   0.937   1.154   5.843
 8234SOL     OW25600   1.869   1.879   0.591
 8234SOL    HW125601   1.809   1.884   0.670
 8234SOL    HW225602   1.888   1.783   0.570
 8235SOL     OW25603   0.192   5.460   1.059
 8235SOL    HW125604   0.145   5.376   1.032
 8235SOL    HW225605   0.214   5.515   0.978
 8236SOL     OW25606   0.454   6.459   6.989
 8236SOL    HW125607   0.418   6.543   6.948
 8236SOL    HW225608   0.528   6.481   0.026
 8237SOL     OW25609   4.494   5.477   6.696
 8237SOL    HW125610   4.538   5.442   6.613
 8237SOL    HW225611   4.395   5.464   6.688
 8238SOL     OW25612   0.975   4.183   7.011
 8238SOL    HW125613   0.949   4.210   0.077
 8238SOL    HW225614   0.903   4.208   6.947
 8239SOL     OW25615   0.912   1.199   5.237
 8239SOL    HW125616   0.867   1.288   5.248
 8239SOL    HW225617   0.949   1.192   5.145
 8240SOL     OW25618   3.643   3.691   4.666
 8240SOL    HW125619   3.678   3.768   4.720
 8240SOL    HW225620   3.697   3.681   4.582
 8241SOL     OW25621   1.673   3.992   5.859
 8241SOL    HW125622   1.711   4.073   5.905
 8241SOL    HW225623   1.644   4.017   5.767
 8242SOL     OW25624   0.600   2.871   3.997
 8242SOL    HW125625   0.535   2.821   4.055
 8242SOL    HW225626   0.580   2.969   4.000
 8243SOL     OW25627   0.689   4.850   4.909
 8243SOL    HW125628   0.710   4.913   4.984
 8243SOL    HW225629   0.745   4.768   4.919
 8244SOL     OW25630   1.161   0.293   4.460
 8244SOL    HW125631   1.154   0.242   4.375
 8244SOL    HW225632   1.095   0.368   4.460
 8245SOL     OW25633   5.371   1.607   4.051
 8245SOL    HW125634   5.286   1.557   4.066
 8245SOL    HW225635   5.442   1.570   4.111
 8246SOL     OW25636   1.629   5.278   6.256
 8246SOL    HW125637   1.533   5.297   6.239
 8246SOL    HW225638   1.671   5.358   6.301
 8247SOL     OW25639   3.202   5.370   2.987
 8247SOL    HW125640   3.300   5.353   2.997
 8247SOL    HW225641   3.151   5.293   3.026
 8248SOL     OW25642   0.539   5.040   2.809
 8248SOL    HW125643   0.475   5.092   2.752
 8248SOL    HW225644   0.629   5.083   2.806
 8249SOL     OW25645   2.817   1.849   6.380
 8249SOL    HW125646   2.815   1.807   6.289
 8249SOL    HW225647   2.909   1.881   6.400
 8250SOL     OW25648   1.603   1.424   6.460
 8250SOL    HW125649   1.516   1.454   6.422
 8250SOL    HW225650   1.647   1.359   6.398
 8251SOL     OW25651   0.264   1.718   4.695
 8251SOL    HW125652   0.313   1.792   4.742
 8251SOL    HW225653   0.292   1.716   4.599
 8252SOL     OW25654   1.617   2.082   6.725
 8252SOL    HW125655   1.687   2.133   6.675
 8252SOL    HW225656   1.531   2.086   6.674
 8253SOL     OW25657   4.617   6.061   0.990
 8253SOL    HW125658   4.639   5.982   0.933
 8253SOL    HW225659   4.571   6.131   0.934
 8254SOL     OW25660   5.351   4.813   0.054
 8254SOL    HW125661   5.350   4.841   0.150
 8254SOL    HW225662   5.358   4.713   0.048
 8255SOL     OW25663   0.856   6.147   6.459
 8255SOL    HW125664   0.861   6.049   6.440
 8255SOL    HW225665   0.949   6.184   6.464
 8256SOL     OW25666   1.579   5.585   3.497
 8256SOL    HW125667   1.647   5.579   3.570
 8256SOL    HW225668   1.600   5.519   3.426
 8257SOL     OW25669   5.009   3.679   2.986
 8257SOL    HW125670   4.962   3.635   2.910
 8257SOL    HW225671   5.064   3.611   3.035
 8258SOL     OW25672   0.101   3.096   1.998
 8258SOL    HW125673   0.012   3.131   1.968
 8258SOL    HW225674   0.111   3.110   2.096
 8259SOL     OW25675   4.690   1.537   4.401
 8259SOL    HW125676   4.625   1.522   4.475
 8259SOL    HW225677   4.776   1.573   4.438
 8260SOL     OW25678   4.224   1.358   1.187
 8260SOL    HW125679   4.309   1.409   1.178
 8260SOL    HW225680   4.171   1.367   1.103
 8261SOL     OW25681   5.728   0.501   2.968
 8261SOL    HW125682   5.712   0.406   2.997
 8261SOL    HW225683   5.820   0.509   2.930
 8262SOL     OW25684   6.522   4.055   2.231
 8262SOL    HW125685   6.467   4.122   2.282
 8262SOL    HW225686   6.548   3.981   2.292
 8263SOL     OW25687   0.437   2.010   6.319
 8263SOL    HW125688   0.415   2.073   6.393
 8263SOL    HW225689   0.493   1.935   6.354
 8264SOL     OW25690   2.639   6.980   2.366
 8264SOL    HW125691   2.665   6.904   2.307
 8264SOL    HW225692   2.540   6.976   2.383
 8265SOL     OW25693   5.320   0.135   0.713
 8265SOL    HW125694   5.243   0.072   0.714
 8265SOL    HW225695   5.386   0.108   0.783
 8266SOL     OW25696   2.569   0.675   3.733
 8266SOL    HW125697   2.644   0.656   3.795
 8266SOL    HW225698   2.543   0.772   3.741
 8267SOL     OW25699   1.045   3.955   3.515
 8267SOL    HW125700   1.012   4.047   3.534
 8267SOL    HW225701   1.023   3.930   3.421
 8268SOL     OW25702   3.105   4.633   6.474
 8268SOL    HW125703   3.200   4.644   6.505
 8268SOL    HW225704   3.044   4.639   6.553
 8269SOL     OW25705   5.407   2.123   3.687
 8269SOL    HW125706   5.342   2.143   3.613
 8269SOL    HW225707   5.495   2.165   3.666
 8270SOL     OW25708   3.698   0.511   6.226
 8270SOL    HW125709   3.600   0.524   6.216
 8270SOL    HW225710   3.717   0.419   6.258
 8271SOL     OW25711   3.826   6.239   6.087
 8271SOL    HW125712   3.765   6.316   6.070
 8271SOL    HW225713   3.851   6.196   6.000
 8272SOL     OW25714   1.033   0.205   1.810
 8272SOL    HW125715   0.949   0.187   1.758
 8272SOL    HW225716   1.112   0.193   1.751
 8273SOL     OW25717   3.418   0.417   6.470
 8273SOL    HW125718   3.402   0.336   6.527
 8273SOL    HW225719   3.359   0.491   6.500
 8274SOL     OW25720   5.446   6.150   5.979
 8274SOL    HW125721   5.476   6.105   6.063
 8274SOL    HW225722   5.429   6.247   5.998
 8275SOL     OW25723   5.247   0.885   3.746
 8275SOL    HW125724   5.251   0.984   3.734
 8275SOL    HW225725   5.197   0.844   3.670
 8276SOL     OW25726   0.225   2.260   6.232
 8276SOL    HW125727   0.187   2.218   6.314
 8276SOL    HW225728   0.294   2.328   6.259
 8277SOL     OW25729   1.237   5.890   5.894
 8277SOL    HW125730   1.260   5.950   5.970
 8277SOL    HW225731   1.281   5.923   5.810
 8278SOL     OW25732   3.756   1.072   0.779
 8278SOL    HW125733   3.820   1.008   0.736
 8278SOL    HW225734   3.745   1.048   0.876
 8279SOL     OW25735   5.294   5.186   5.921
 8279SOL    HW125736   5.309   5.269   5.867
 8279SOL    HW225737   5.242   5.209   6.003
 8280SOL     OW25738   5.162   3.208   6.860
 8280SOL    HW125739   5.192   3.279   6.797
 8280SOL    HW225740   5.065   3.221   6.882
 8281SOL     OW25741   2.626   5.162   7.026
 8281SOL    HW125742   2.676   5.082   6.993
 8281SOL    HW225743   2.548   5.179   6.965
 8282SOL     OW25744   2.913   2.930   0.892
 8282SOL    HW125745   2.831   2.986   0.877
 8282SOL    HW225746   2.886   2.835   0.908
 8283SOL     OW25747   0.397   5.424   2.981
 8283SOL    HW125748   0.395   5.507   3.036
 8283SOL    HW225749   0.318   5.423   2.919
 8284SOL     OW25750   2.588   2.046   1.987
 8284SOL    HW125751   2.681   2.037   1.952
 8284SOL    HW225752   2.524   2.054   1.910
 8285SOL     OW25753   3.473   4.441   6.287
 8285SOL    HW125754   3.563   4.421   6.247
 8285SOL    HW225755   3.438   4.526   6.247
 8286SOL     OW25756   5.683   1.043   5.640
 8286SOL    HW125757   5.606   0.984   5.617
 8286SOL    HW225758   5.768   0.990   5.637
 8287SOL     OW25759   2.179   0.600   2.909
 8287SOL    HW125760   2.117   0.661   2.959
 8287SOL    HW225761   2.137   0.573   2.822
 8288SOL     OW25762   1.790   1.065   3.024
 8288SOL    HW125763   1.861   1.127   2.990
 8288SOL    HW225764   1.715   1.118   3.063
 8289SOL     OW25765   6.509   1.840   5.667
 8289SOL    HW125766   6.443   1.766   5.660
 8289SOL    HW225767   6.531   1.875   5.576
 8290SOL     OW25768   4.447   2.609   1.571
 8290SOL    HW125769   4.390   2.544   1.522
 8290SOL    HW225770   4.510   2.653   1.507
 8291SOL     OW25771   4.717   4.907   6.191
 8291SOL    HW125772   4.692   4.994   6.148
 8291SOL    HW225773   4.665   4.896   6.276
 8292SOL     OW25774   0.718   4.019   4.632
 8292SOL    HW125775   0.689   3.955   4.560
 8292SOL    HW225776   0.639   4.047   4.686
 8293SOL     OW25777   2.852   5.023   3.642
 8293SOL    HW125778   2.798   5.101   3.674
 8293SOL    HW225779   2.896   5.045   3.555
 8294SOL     OW25780   5.219   3.364   5.983
 8294SOL    HW125781   5.233   3.431   5.909
 8294SOL    HW225782   5.178   3.410   6.062
 8295SOL     OW25783   5.219   4.173   2.129
 8295SOL    HW125784   5.295   4.197   2.190
 8295SOL    HW225785   5.250   4.180   2.034
 8296SOL     OW25786   3.948   6.577   1.955
 8296SOL    HW125787   3.959   6.632   1.872
 8296SOL    HW225788   3.954   6.480   1.931
 8297SOL     OW25789   5.612   4.335   2.963
 8297SOL    HW125790   5.577   4.356   3.054
 8297SOL    HW225791   5.653   4.243   2.964
 8298SOL     OW25792   6.307   0.228   5.997
 8298SOL    HW125793   6.301   0.323   6.027
 8298SOL    HW225794   6.375   0.220   5.925
 8299SOL     OW25795   0.870   3.675   1.064
 8299SOL    HW125796   0.926   3.748   1.104
 8299SOL    HW225797   0.869   3.686   0.964
 8300SOL     OW25798   5.919   5.071   2.938
 8300SOL    HW125799   5.985   4.996   2.946
 8300SOL    HW225800   5.834   5.045   2.986
 8301SOL     OW25801   4.516   6.719   0.562
 8301SOL    HW125802   4.615   6.707   0.571
 8301SOL    HW225803   4.474   6.720   0.652
 8302SOL     OW25804   4.016   6.653   5.420
 8302SOL    HW125805   4.087   6.648   5.491
 8302SOL    HW225806   3.993   6.748   5.403
 8303SOL     OW25807   0.036   6.439   2.706
 8303SOL    HW125808   6.964   6.438   2.721
 8303SOL    HW225809   0.076   6.520   2.750
 8304SOL     OW25810   5.192   3.850   3.392
 8304SOL    HW125811   5.115   3.912   3.410
 8304SOL    HW225812   5.277   3.901   3.392
 8305SOL     OW25813   4.884   6.402   4.829
 8305SOL    HW125814   4.883   6.375   4.733
 8305SOL    HW225815   4.919   6.326   4.885
 8306SOL     OW25816   0.244   1.017   2.083
 8306SOL    HW125817   0.314   0.982   2.021
 8306SOL    HW225818   0.192   1.088   2.036
 8307SOL     OW25819   1.554   4.011   3.070
 8307SOL    HW125820   1.478   3.957   3.106
 8307SOL    HW225821   1.602   3.958   2.999
 8308SOL     OW25822   1.095   5.474   0.928
 8308SOL    HW125823   1.192   5.461   0.948
 8308SOL    HW225824   1.060   5.393   0.881
 8309SOL     OW25825   5.757   4.295   4.475
 8309SOL    HW125826   5.666   4.255   4.471
 8309SOL    HW225827   5.819   4.243   4.415
 8310SOL     OW25828   1.149   6.947   0.107
 8310SOL    HW125829   1.061   6.912   0.074
 8310SOL    HW225830   1.158   6.927   0.205
 8311SOL     OW25831   5.725   0.229   3.061
 8311SOL    HW125832   5.649   0.210   3.123
 8311SOL    HW225833   5.811   0.205   3.106
 8312SOL     OW25834   5.674   1.489   0.342
 8312SOL    HW125835   5.638   1.552   0.410
 8312SOL    HW225836   5.615   1.489   0.262
 8313SOL     OW25837   4.924   2.125   5.031
 8313SOL    HW125838   4.921   2.081   5.121
 8313SOL    HW225839   4.878   2.067   4.964
 8314SOL     OW25840   4.838   6.328   5.277
 8314SOL    HW125841   4.907   6.291   5.215
 8314SOL    HW225842   4.757   6.269   5.276
 8315SOL     OW25843   3.655   3.868   5.118
 8315SOL    HW125844   3.564   3.903   5.142
 8315SOL    HW225845   3.717   3.880   5.196
 8316SOL     OW25846   2.543   2.560   6.208
 8316SOL    HW125847   2.449   2.577   6.237
 8316SOL    HW225848   2.584   2.647   6.180
 8317SOL     OW25849   2.004   0.999   3.553
 8317SOL    HW125850   2.085   0.991   3.494
 8317SOL    HW225851   1.965   0.909   3.568
 8318SOL     OW25852   4.001   6.918   7.014
 8318SOL    HW125853   3.944   6.982   0.041
 8318SOL    HW225854   3.990   6.938   6.917
 8319SOL     OW25855   1.445   6.698   6.673
 8319SOL    HW125856   1.396   6.651   6.599
 8319SOL    HW225857   1.516   6.756   6.633
 8320SOL     OW25858   2.945   3.326   4.548
 8320SOL    HW125859   2.952   3.334   4.448
 8320SOL    HW225860   2.854   3.294   4.573
 8321SOL     OW25861   0.289   6.589   1.460
 8321SOL    HW125862   0.329   6.505   1.498
 8321SOL    HW225863   0.229   6.631   1.528
 8322SOL     OW25864   1.229   0.034   6.440
 8322SOL    HW125865   1.294   0.107   6.462
 8322SOL    HW225866   1.258   7.015   6.356
 8323SOL     OW25867   5.291   3.831   0.467
 8323SOL    HW125868   5.336   3.871   0.547
 8323SOL    HW225869   5.235   3.900   0.422
 8324SOL     OW25870   5.067   5.923   6.391
 8324SOL    HW125871   5.137   5.859   6.423
 8324SOL    HW225872   5.062   5.920   6.291
 8325SOL     OW25873   1.073   5.447   6.258
 8325SOL    HW125874   1.022   5.384   6.200
 8325SOL    HW225875   1.110   5.521   6.202
 8326SOL     OW25876   1.784   3.897   1.503
 8326SOL    HW125877   1.802   3.802   1.530
 8326SOL    HW225878   1.766   3.902   1.405
 8327SOL     OW25879   0.651   6.924   4.640
 8327SOL    HW125880   0.744   6.953   4.664
 8327SOL    HW225881   0.593   7.004   4.630
 8328SOL     OW25882   1.572   6.906   0.058
 8328SOL    HW125883   1.563   6.819   0.010
 8328SOL    HW225884   1.531   6.979   0.003
 8329SOL     OW25885   1.839   2.783   5.163
 8329SOL    HW125886   1.774   2.807   5.235
 8329SOL    HW225887   1.932   2.788   5.199
 8330SOL     OW25888   3.379   1.402   6.003
 8330SOL    HW125889   3.367   1.302   5.998
 8330SOL    HW225890   3.296   1.444   6.040
 8331SOL     OW25891   2.091   2.503   6.527
 8331SOL    HW125892   2.165   2.533   6.587
 8331SOL    HW225893   2.004   2.540   6.562
 8332SOL     OW25894   6.050   5.412   1.824
 8332SOL    HW125895   5.986   5.376   1.893
 8332SOL    HW225896   5.999   5.462   1.755
 8333SOL     OW25897   2.330   4.745   1.465
 8333SOL    HW125898   2.401   4.764   1.533
 8333SOL    HW225899   2.339   4.650   1.434
 8334SOL     OW25900   3.799   2.180   6.133
 8334SOL    HW125901   3.707   2.187   6.170
 8334SOL    HW225902   3.853   2.116   6.187
 8335SOL     OW25903   5.127   3.723   6.262
 8335SOL    HW125904   5.146   3.799   6.323
 8335SOL    HW225905   5.211   3.696   6.215
 8336SOL     OW25906   0.851   3.900   3.945
 8336SOL    HW125907   0.811   3.869   3.859
 8336SOL    HW225908   0.924   3.838   3.972
 8337SOL     OW25909   1.224   1.477   4.629
 8337SOL    HW125910   1.223   1.577   4.636
 8337SOL    HW225911   1.240   1.450   4.534
 8338SOL     OW25912   4.542   5.635   2.414
 8338SOL    HW125913   4.639   5.628   2.437
 8338SOL    HW225914   4.516   5.731   2.409
 8339SOL     OW25915   6.127   6.537   0.720
 8339SOL    HW125916   6.149   6.442   0.741
 8339SOL    HW225917   6.106   6.587   0.805
 8340SOL     OW25918   5.993   2.393   0.039
 8340SOL    HW125919   5.935   2.474   0.048
 8340SOL    HW225920   5.966   2.324   0.105
 8341SOL     OW25921   3.258   0.903   0.419
 8341SOL    HW125922   3.204   0.905   0.503
 8341SOL    HW225923   3.272   0.808   0.391
 8342SOL     OW25924   5.076   0.318   0.290
 8342SOL    HW125925   4.987   0.306   0.246
 8342SOL    HW225926   5.078   0.268   0.376
 8343SOL     OW25927   5.973   3.706   3.614
 8343SOL    HW125928   6.026   3.625   3.636
 8343SOL    HW225929   5.935   3.697   3.521
 8344SOL     OW25930   1.350   4.668   5.287
 8344SOL    HW125931   1.413   4.590   5.288
 8344SOL    HW225932   1.400   4.751   5.314
 8345SOL     OW25933   4.241   1.222   3.775
 8345SOL    HW125934   4.292   1.156   3.719
 8345SOL    HW225935   4.243   1.194   3.870
 8346SOL     OW25936   5.501   2.963   4.996
 8346SOL    HW125937   5.551   2.929   5.075
 8346SOL    HW225938   5.432   2.897   4.968
 8347SOL     OW25939   2.847   0.286   6.721
 8347SOL    HW125940   2.765   0.229   6.712
 8347SOL    HW225941   2.850   0.327   6.812
 8348SOL     OW25942   3.526   6.594   2.154
 8348SOL    HW125943   3.574   6.676   2.186
 8348SOL    HW225944   3.483   6.613   2.066
 8349SOL     OW25945   0.850   6.041   1.915
 8349SOL    HW125946   0.887   6.056   1.824
 8349SOL    HW225947   0.750   6.052   1.914
 8350SOL     OW25948   2.548   0.384   0.399
 8350SOL    HW125949   2.497   0.445   0.459
 8350SOL    HW225950   2.499   0.373   0.313
 8351SOL     OW25951   6.382   3.517   2.505
 8351SOL    HW125952   6.347   3.463   2.581
 8351SOL    HW225953   6.482   3.514   2.505
 8352SOL     OW25954   2.242   5.914   1.499
 8352SOL    HW125955   2.245   6.011   1.475
 8352SOL    HW225956   2.235   5.859   1.416
 8353SOL     OW25957   1.185   4.413   2.096
 8353SOL    HW125958   1.146   4.333   2.049
 8353SOL    HW225959   1.267   4.443   2.048
 8354SOL     OW25960   3.118   0.214   3.240
 8354SOL    HW125961   3.046   0.283   3.249
 8354SOL    HW225962   3.083   0.135   3.189
 8355SOL     OW25963   2.145   5.773   6.030
 8355SOL    HW125964   2.145   5.733   5.938
 8355SOL    HW225965   2.102   5.710   6.094
 8356SOL     OW25966   1.616   5.554   1.001
 8356SOL    HW125967   1.713   5.564   1.025
 8356SOL    HW225968   1.606   5.555   0.901
 8357SOL     OW25969   3.965   6.205   5.853
 8357SOL    HW125970   3.999   6.175   5.764
 8357SOL    HW225971   4.000   6.296   5.873
 8358SOL     OW25972   0.839   1.875   4.836
 8358SOL    HW125973   0.906   1.915   4.899
 8358SOL    HW225974   0.836   1.929   4.752
 8359SOL     OW25975   3.005   2.137   5.516
 8359SOL    HW125976   3.074   2.068   5.538
 8359SOL    HW225977   3.050   2.225   5.502
 8360SOL     OW25978   4.796   0.231   1.105
 8360SOL    HW125979   4.833   0.173   1.178
 8360SOL    HW225980   4.722   0.288   1.142
 8361SOL     OW25981   3.439   0.149   6.662
 8361SOL    HW125982   3.518   0.144   6.601
 8361SOL    HW225983   3.396   0.059   6.668
 8362SOL     OW25984   0.003   3.909   1.634
 8362SOL    HW125985   0.014   3.811   1.618
 8362SOL    HW225986   0.084   3.945   1.680
 8363SOL     OW25987   2.731   3.260   6.960
 8363SOL    HW125988   2.669   3.183   6.941
 8363SOL    HW225989   2.763   3.253   0.028
 8364SOL     OW25990   6.978   2.978   4.441
 8364SOL    HW125991   6.927   2.906   4.489
 8364SOL    HW225992   0.049   2.958   4.446
 8365SOL     OW25993   1.880   2.789   2.494
 8365SOL    HW125994   1.822   2.721   2.537
 8365SOL    HW225995   1.824   2.866   2.463
 8366SOL     OW25996   4.902   5.428   1.774
 8366SOL    HW125997   4.979   5.368   1.795
 8366SOL    HW225998   4.872   5.473   1.859
 8367SOL     OW25999   3.919   4.951   4.461
 8367SOL    HW126000   3.861   4.904   4.395
 8367SOL    HW226001   3.999   4.895   4.481
 8368SOL     OW26002   6.691   6.938   0.585
 8368SOL    HW126003   6.704   0.005   0.618
 8368SOL    HW226004   6.746   6.876   0.641
 8369SOL     OW26005   2.220   0.430   0.432
 8369SOL    HW126006   2.132   0.474   0.416
 8369SOL    HW226007   2.280   0.444   0.352
 8370SOL     OW26008   2.690   3.159   0.436
 8370SOL    HW126009   2.669   3.105   0.518
 8370SOL    HW226010   2.783   3.193   0.442
 8371SOL     OW26011   1.612   4.849   6.289
 8371SOL    HW126012   1.610   4.875   6.386
 8371SOL    HW226013   1.664   4.765   6.278
 8372SOL     OW26014   2.287   5.365   2.511
 8372SOL    HW126015   2.379   5.351   2.548
 8372SOL    HW226016   2.293   5.416   2.425
 8373SOL     OW26017   7.021   0.985   4.301
 8373SOL    HW126018   0.025   1.079   4.290
 8373SOL    HW226019   6.971   0.956   4.220
 8374SOL     OW26020   1.452   0.544   4.658
 8374SOL    HW126021   1.476   0.598   4.577
 8374SOL    HW226022   1.510   0.571   4.735
 8375SOL     OW26023   4.010   1.128   4.437
 8375SOL    HW126024   3.976   1.144   4.530
 8375SOL    HW226025   4.039   1.215   4.397
 8376SOL     OW26026   2.023   0.805   2.977
 8376SOL    HW126027   1.981   0.810   2.887
 8376SOL    HW226028   1.961   0.845   3.045
 8377SOL     OW26029   4.825   5.690   0.172
 8377SOL    HW126030   4.729   5.673   0.191
 8377SOL    HW226031   4.834   5.743   0.087
 8378SOL     OW26032   5.693   5.865   3.649
 8378SOL    HW126033   5.730   5.802   3.582
 8378SOL    HW226034   5.709   5.830   3.741
 8379SOL     OW26035   6.150   1.328   1.998
 8379SOL    HW126036   6.120   1.358   2.088
 8379SOL    HW226037   6.229   1.267   2.007
 8380SOL     OW26038   6.308   5.696   0.558
 8380SOL    HW126039   6.213   5.698   0.526
 8380SOL    HW226040   6.358   5.774   0.519
 8381SOL     OW26041   0.399   1.945   1.909
 8381SOL    HW126042   0.460   2.005   1.961
 8381SOL    HW226043   0.304   1.964   1.936
 8382SOL     OW26044   2.462   0.571   0.616
 8382SOL    HW126045   2.470   0.515   0.698
 8382SOL    HW226046   2.412   0.655   0.637
 8383SOL     OW26047   2.713   6.261   6.565
 8383SOL    HW126048   2.713   6.360   6.579
 8383SOL    HW226049   2.725   6.215   6.653
 8384SOL     OW26050   0.804   2.278   0.808
 8384SOL    HW126051   0.826   2.181   0.795
 8384SOL    HW226052   0.814   2.326   0.721
 8385SOL     OW26053   3.607   3.824   1.374
 8385SOL    HW126054   3.593   3.750   1.308
 8385SOL    HW226055   3.535   3.893   1.362
 8386SOL     OW26056   1.954   5.667   1.936
 8386SOL    HW126057   1.932   5.577   1.974
 8386SOL    HW226058   2.053   5.682   1.942
 8387SOL     OW26059   1.455   0.920   2.403
 8387SOL    HW126060   1.369   0.872   2.419
 8387SOL    HW226061   1.441   0.994   2.338
 8388SOL     OW26062   3.490   6.995   1.365
 8388SOL    HW126063   3.586   6.973   1.350
 8388SOL    HW226064   3.467   0.054   1.319
 8389SOL     OW26065   0.813   2.552   3.987
 8389SOL    HW126066   0.770   2.634   3.949
 8389SOL    HW226067   0.858   2.501   3.913
 8390SOL     OW26068   2.613   0.491   6.012
 8390SOL    HW126069   2.528   0.454   5.975
 8390SOL    HW226070   2.660   0.421   6.065
 8391SOL     OW26071   5.490   5.885   1.331
 8391SOL    HW126072   5.473   5.888   1.233
 8391SOL    HW226073   5.416   5.836   1.377
 8392SOL     OW26074   5.454   5.807   5.123
 8392SOL    HW126075   5.462   5.730   5.059
 8392SOL    HW226076   5.391   5.875   5.085
 8393SOL     OW26077   0.292   6.420   3.183
 8393SOL    HW126078   0.249   6.486   3.244
 8393SOL    HW226079   0.298   6.331   3.229
 8394SOL     OW26080   0.691   2.095   2.880
 8394SOL    HW126081   0.672   2.018   2.940
 8394SOL    HW226082   0.630   2.171   2.902
 8395SOL     OW26083   6.721   5.687   5.210
 8395SOL    HW126084   6.654   5.618   5.238
 8395SOL    HW226085   6.677   5.777   5.205
 8396SOL     OW26086   4.892   3.726   2.304
 8396SOL    HW126087   4.863   3.656   2.239
 8396SOL    HW226088   4.945   3.796   2.257
 8397SOL     OW26089   2.079   6.187   2.970
 8397SOL    HW126090   1.982   6.178   2.992
 8397SOL    HW226091   2.115   6.097   2.943
 8398SOL     OW26092   4.293   1.339   0.402
 8398SOL    HW126093   4.294   1.253   0.350
 8398SOL    HW226094   4.247   1.409   0.348
 8399SOL     OW26095   5.746   6.216   0.366
 8399SOL    HW126096   5.759   6.272   0.284
 8399SOL    HW226097   5.659   6.240   0.409
 8400SOL     OW26098   0.246   0.287   2.890
 8400SOL    HW126099   0.185   0.219   2.849
 8400SOL    HW226100   0.316   0.313   2.824
 8401SOL     OW26101   3.494   4.813   6.442
 8401SOL    HW126102   3.417   4.808   6.378
 8401SOL    HW226103   3.464   4.784   6.533
 8402SOL     OW26104   4.524   1.474   6.930
 8402SOL    HW126105   4.569   1.445   6.845
 8402SOL    HW226106   4.593   1.489   7.000
 8403SOL     OW26107   1.455   1.337   4.662
 8403SOL    HW126108   1.381   1.402   4.675
 8403SOL    HW226109   1.501   1.321   4.750
 8404SOL     OW26110   4.499   5.557   5.700
 8404SOL    HW126111   4.514   5.573   5.798
 8404SOL    HW226112   4.558   5.482   5.670
 8405SOL     OW26113   0.379   2.426   5.922
 8405SOL    HW126114   0.455   2.365   5.901
 8405SOL    HW226115   0.412   2.521   5.922
 8406SOL     OW26116   5.282   2.504   1.325
 8406SOL    HW126117   5.211   2.551   1.378
 8406SOL    HW226118   5.330   2.439   1.383
 8407SOL     OW26119   4.738   4.110   2.994
 8407SOL    HW126120   4.726   4.088   2.898
 8407SOL    HW226121   4.720   4.208   3.009
 8408SOL     OW26122   4.648   2.273   4.348
 8408SOL    HW126123   4.596   2.327   4.414
 8408SOL    HW226124   4.662   2.326   4.265
 8409SOL     OW26125   1.014   1.760   3.821
 8409SOL    HW126126   0.954   1.682   3.802
 8409SOL    HW226127   1.048   1.754   3.915
 8410SOL     OW26128   4.147   6.863   1.658
 8410SOL    HW126129   4.076   6.795   1.636
 8410SOL    HW226130   4.178   6.850   1.752
 8411SOL     OW26131   1.783   3.942   4.248
 8411SOL    HW126132   1.698   3.890   4.248
 8411SOL    HW226133   1.769   4.028   4.198
 8412SOL     OW26134   4.939   2.653   3.428
 8412SOL    HW126135   4.844   2.654   3.397
 8412SOL    HW226136   4.965   2.744   3.460
 8413SOL     OW26137   3.629   4.593   0.850
 8413SOL    HW126138   3.602   4.560   0.759
 8413SOL    HW226139   3.670   4.683   0.842
 8414SOL     OW26140   4.110   6.635   3.404
 8414SOL    HW126141   4.036   6.694   3.437
 8414SOL    HW226142   4.076   6.541   3.397
 8415SOL     OW26143   6.321   4.157   3.013
 8415SOL    HW126144   6.257   4.111   3.075
 8415SOL    HW226145   6.271   4.192   2.933
 8416SOL     OW26146   5.812   3.844   2.002
 8416SOL    HW126147   5.752   3.907   2.052
 8416SOL    HW226148   5.883   3.809   2.063
 8417SOL     OW26149   2.290   5.991   6.094
 8417SOL    HW126150   2.232   6.053   6.040
 8417SOL    HW226151   2.255   5.898   6.086
 8418SOL     OW26152   0.070   5.725   3.101
 8418SOL    HW126153   0.068   5.647   3.164
 8418SOL    HW226154   0.146   5.785   3.125
 8419SOL     OW26155   4.574   0.678   3.381
 8419SOL    HW126156   4.665   0.640   3.401
 8419SOL    HW226157   4.508   0.604   3.374
 8420SOL     OW26158   3.638   0.423   5.922
 8420SOL    HW126159   3.733   0.439   5.945
 8420SOL    HW226160   3.591   0.381   6.000
 8421SOL     OW26161   1.702   6.340   2.200
 8421SOL    HW126162   1.640   6.311   2.273
 8421SOL    HW226163   1.742   6.428   2.223
 8422SOL     OW26164   4.304   6.996   0.568
 8422SOL    HW126165   4.390   6.948   0.553
 8422SOL    HW226166   4.228   6.931   0.560
 8423SOL     OW26167   3.272   4.258   0.844
 8423SOL    HW126168   3.240   4.183   0.786
 8423SOL    HW226169   3.358   4.231   0.889
 8424SOL     OW26170   3.522   1.711   3.025
 8424SOL    HW126171   3.611   1.666   3.017
 8424SOL    HW226172   3.452   1.642   3.046
 8425SOL     OW26173   6.422   4.920   0.718
 8425SOL    HW126174   6.372   4.980   0.780
 8425SOL    HW226175   6.366   4.902   0.637
 8426SOL     OW26176   3.748   3.698   3.237
 8426SOL    HW126177   3.803   3.779   3.216
 8426SOL    HW226178   3.708   3.707   3.328
 8427SOL     OW26179   2.486   4.181   6.426
 8427SOL    HW126180   2.455   4.243   6.497
 8427SOL    HW226181   2.459   4.217   6.336
 8428SOL     OW26182   6.877   4.202   2.016
 8428SOL    HW126183   6.934   4.144   2.074
 8428SOL    HW226184   6.908   4.196   1.921
 8429SOL     OW26185   1.641   6.053   3.562
 8429SOL    HW126186   1.543   6.064   3.574
 8429SOL    HW226187   1.659   5.977   3.499
 8430SOL     OW26188   4.221   4.731   3.111
 8430SOL    HW126189   4.288   4.686   3.052
 8430SOL    HW226190   4.163   4.661   3.153
 8431SOL     OW26191   3.270   4.929   1.556
 8431SOL    HW126192   3.298   4.848   1.606
 8431SOL    HW226193   3.178   4.915   1.519
 8432SOL     OW26194   3.781   6.477   6.466
 8432SOL    HW126195   3.803   6.393   6.416
 8432SOL    HW226196   3.711   6.528   6.417
 8433SOL     OW26197   1.490   2.327   6.327
 8433SOL    HW126198   1.533   2.253   6.276
 8433SOL    HW226199   1.392   2.309   6.336
 8434SOL     OW26200   5.146   6.223   5.579
 8434SOL    HW126201   5.198   6.233   5.664
 8434SOL    HW226202   5.097   6.308   5.559
 8435SOL     OW26203   4.344   2.094   1.722
 8435SOL    HW126204   4.357   2.146   1.638
 8435SOL    HW226205   4.429   2.046   1.745
 8436SOL     OW26206   4.357   4.509   1.886
 8436SOL    HW126207   4.357   4.484   1.789
 8436SOL    HW226208   4.403   4.438   1.939
 8437SOL     OW26209   0.790   1.877   0.902
 8437SOL    HW126210   0.732   1.796   0.907
 8437SOL    HW226211   0.873   1.856   0.851
 8438SOL     OW26212   1.186   4.678   2.865
 8438SOL    HW126213   1.168   4.734   2.784
 8438SOL    HW226214   1.283   4.655   2.868
 8439SOL     OW26215   6.791   5.403   2.358
 8439SOL    HW126216   6.708   5.459   2.360
 8439SOL    HW226217   6.861   5.445   2.415
 8440SOL     OW26218   0.941   1.088   1.629
 8440SOL    HW126219   1.019   1.053   1.680
 8440SOL    HW226220   0.921   1.026   1.553
 8441SOL     OW26221   4.729   5.479   6.149
 8441SOL    HW126222   4.643   5.442   6.184
 8441SOL    HW226223   4.756   5.558   6.205
 8442SOL     OW26224   1.997   4.813   6.806
 8442SOL    HW126225   1.911   4.770   6.832
 8442SOL    HW226226   2.000   4.907   6.841
 8443SOL     OW26227   2.054   0.190   2.673
 8443SOL    HW126228   1.999   0.125   2.619
 8443SOL    HW226229   2.026   0.184   2.769
 8444SOL     OW26230   3.637   6.436   3.492
 8444SOL    HW126231   3.587   6.350   3.482
 8444SOL    HW226232   3.726   6.429   3.448
 8445SOL     OW26233   3.833   4.869   2.839
 8445SOL    HW126234   3.842   4.927   2.758
 8445SOL    HW226235   3.742   4.827   2.839
 8446SOL     OW26236   5.906   4.731   2.365
 8446SOL    HW126237   5.940   4.645   2.404
 8446SOL    HW226238   5.983   4.790   2.342
 8447SOL     OW26239   4.820   2.350   2.045
 8447SOL    HW126240   4.767   2.279   1.999
 8447SOL    HW226241   4.857   2.413   1.977
 8448SOL     OW26242   0.281   3.600   6.571
 8448SOL    HW126243   0.202   3.595   6.510
 8448SOL    HW226244   0.250   3.607   6.666
 8449SOL     OW26245   1.163   3.113   4.484
 8449SOL    HW126246   1.069   3.127   4.516
 8449SOL    HW226247   1.217   3.196   4.500
 8450SOL     OW26248   2.419   5.920   2.928
 8450SOL    HW126249   2.513   5.947   2.949
 8450SOL    HW226250   2.386   5.858   3.000
 8451SOL     OW26251   4.046   2.839   1.341
 8451SOL    HW126252   4.003   2.929   1.337
 8451SOL    HW226253   4.091   2.826   1.429
 8452SOL     OW26254   0.049   0.156   1.082
 8452SOL    HW126255   0.147   0.140   1.099
 8452SOL    HW226256   0.007   0.195   1.164
 8453SOL     OW26257   6.548   3.792   5.985
 8453SOL    HW126258   6.465   3.750   5.949
 8453SOL    HW226259   6.533   3.821   6.079
 8454SOL     OW26260   1.764   0.122   4.092
 8454SOL    HW126261   1.685   0.176   4.122
 8454SOL    HW226262   1.762   0.111   3.993
 8455SOL     OW26263   4.748   1.435   1.186
 8455SOL    HW126264   4.742   1.403   1.281
 8455SOL    HW226265   4.749   1.355   1.125
 8456SOL     OW26266   5.056   5.463   3.227
 8456SOL    HW126267   5.085   5.409   3.306
 8456SOL    HW226268   5.133   5.476   3.165
 8457SOL     OW26269   0.093   6.404   5.885
 8457SOL    HW126270   0.170   6.360   5.932
 8457SOL    HW226271   0.054   6.341   5.818
 8458SOL     OW26272   1.701   1.603   0.376
 8458SOL    HW126273   1.682   1.506   0.361
 8458SOL    HW226274   1.756   1.614   0.459
 8459SOL     OW26275   3.436   5.554   2.318
 8459SOL    HW126276   3.359   5.550   2.381
 8459SOL    HW226277   3.503   5.483   2.343
 8460SOL     OW26278   4.899   1.670   0.391
 8460SOL    HW126279   4.909   1.573   0.368
 8460SOL    HW226280   4.937   1.686   0.482
 8461SOL     OW26281   6.983   3.951   1.350
 8461SOL    HW126282   6.892   3.914   1.329
 8461SOL    HW226283   7.004   3.933   1.446
 8462SOL     OW26284   3.463   4.358   6.532
 8462SOL    HW126285   3.471   4.390   6.438
 8462SOL    HW226286   3.537   4.399   6.587
 8463SOL     OW26287   6.915   1.793   0.232
 8463SOL    HW126288   6.921   1.871   0.294
 8463SOL    HW226289   7.002   1.782   0.184
 8464SOL     OW26290   0.466   3.126   6.956
 8464SOL    HW126291   0.385   3.180   6.932
 8464SOL    HW226292   0.445   3.029   6.943
 8465SOL     OW26293   4.121   3.158   1.132
 8465SOL    HW126294   4.177   3.076   1.119
 8465SOL    HW226295   4.072   3.178   1.047
 8466SOL     OW26296   5.510   0.497   5.270
 8466SOL    HW126297   5.569   0.488   5.350
 8466SOL    HW226298   5.564   0.526   5.191
 8467SOL     OW26299   3.454   1.247   1.009
 8467SOL    HW126300   3.447   1.173   0.943
 8467SOL    HW226301   3.513   1.219   1.085
 8468SOL     OW26302   6.261   3.501   6.839
 8468SOL    HW126303   6.354   3.532   6.859
 8468SOL    HW226304   6.221   3.561   6.769
 8469SOL     OW26305   3.813   2.554   5.763
 8469SOL    HW126306   3.787   2.498   5.685
 8469SOL    HW226307   3.757   2.638   5.763
 8470SOL     OW26308   0.953   4.884   1.436
 8470SOL    HW126309   0.999   4.925   1.357
 8470SOL    HW226310   0.995   4.918   1.520
 8471SOL     OW26311   3.423   1.746   5.502
 8471SOL    HW126312   3.466   1.834   5.485
 8471SOL    HW226313   3.338   1.739   5.449
 8472SOL     OW26314   5.904   1.292   5.975
 8472SOL    HW126315   5.908   1.350   5.893
 8472SOL    HW226316   5.834   1.327   6.036
 8473SOL     OW26317   4.721   4.400   6.393
 8473SOL    HW126318   4.709   4.335   6.317
 8473SOL    HW226319   4.773   4.479   6.361
 8474SOL     OW26320   3.152   3.669   2.628
 8474SOL    HW126321   3.119   3.599   2.564
 8474SOL    HW226322   3.079   3.734   2.647
 8475SOL     OW26323   6.812   2.969   1.731
 8475SOL    HW126324   6.845   2.893   1.675
 8475SOL    HW226325   6.734   2.939   1.786
 8476SOL     OW26326   6.293   0.177   1.842
 8476SOL    HW126327   6.209   0.193   1.791
 8476SOL    HW226328   6.348   0.107   1.797
 8477SOL     OW26329   5.482   6.619   1.530
 8477SOL    HW126330   5.542   6.559   1.477
 8477SOL    HW226331   5.523   6.638   1.619
 8478SOL     OW26332   0.482   7.009   5.101
 8478SOL    HW126333   0.511   6.949   5.026
 8478SOL    HW226334   0.540   6.992   5.181
 8479SOL     OW26335   1.393   2.480   1.419
 8479SOL    HW126336   1.441   2.568   1.421
 8479SOL    HW226337   1.312   2.486   1.476
 8480SOL     OW26338   4.987   3.912   0.127
 8480SOL    HW126339   4.918   3.905   0.198
 8480SOL    HW226340   5.037   3.826   0.120
 8481SOL     OW26341   3.863   2.094   3.979
 8481SOL    HW126342   3.948   2.134   3.943
 8481SOL    HW226343   3.864   2.101   4.079
 8482SOL     OW26344   4.482   1.254   0.147
 8482SOL    HW126345   4.391   1.218   0.169
 8482SOL    HW226346   4.499   1.243   0.049
 8483SOL     OW26347   3.057   5.932   3.846
 8483SOL    HW126348   3.124   6.003   3.870
 8483SOL    HW226349   2.966   5.972   3.842
 8484SOL     OW26350   6.263   5.749   4.535
 8484SOL    HW126351   6.351   5.705   4.555
 8484SOL    HW226352   6.264   5.842   4.571
 8485SOL     OW26353   3.092   2.336   6.934
 8485SOL    HW126354   3.153   2.381   6.999
 8485SOL    HW226355   3.013   2.395   6.916
 8486SOL     OW26356   1.165   0.937   2.450
 8486SOL    HW126357   1.090   0.871   2.450
 8486SOL    HW226358   1.187   0.962   2.545
 8487SOL     OW26359   5.201   1.971   6.055
 8487SOL    HW126360   5.272   1.969   5.985
 8487SOL    HW226361   5.115   1.938   6.017
 8488SOL     OW26362   5.214   5.528   2.081
 8488SOL    HW126363   5.151   5.601   2.103
 8488SOL    HW226364   5.277   5.558   2.009
 8489SOL     OW26365   5.095   0.898   1.292
 8489SOL    HW126366   5.096   0.921   1.390
 8489SOL    HW226367   5.005   0.863   1.267
 8490SOL     OW26368   2.420   6.845   6.967
 8490SOL    HW126369   2.381   6.819   0.029
 8490SOL    HW226370   2.505   6.896   6.982
 8491SOL     OW26371   2.901   6.054   2.385
 8491SOL    HW126372   2.924   6.150   2.399
 8491SOL    HW226373   2.966   5.996   2.434
 8492SOL     OW26374   5.862   4.438   4.665
 8492SOL    HW126375   5.828   4.383   4.588
 8492SOL    HW226376   5.962   4.445   4.659
 8493SOL     OW26377   3.539   0.872   0.297
 8493SOL    HW126378   3.519   0.906   0.205
 8493SOL    HW226379   3.475   0.914   0.362
 8494SOL     OW26380   5.945   5.368   2.096
 8494SOL    HW126381   5.910   5.282   2.060
 8494SOL    HW226382   5.872   5.436   2.096
 8495SOL     OW26383   6.850   6.121   0.520
 8495SOL    HW126384   6.782   6.051   0.544
 8495SOL    HW226385   6.942   6.083   0.532
 8496SOL     OW26386   4.827   1.364   2.216
 8496SOL    HW126387   4.832   1.327   2.123
 8496SOL    HW226388   4.917   1.355   2.260
 8497SOL     OW26389   6.628   0.997   4.000
 8497SOL    HW126390   6.566   0.921   3.982
 8497SOL    HW226391   6.577   1.083   3.997
 8498SOL     OW26392   4.731   6.803   4.385
 8498SOL    HW126393   4.808   6.820   4.447
 8498SOL    HW226394   4.646   6.820   4.434
 8499SOL     OW26395   6.759   5.782   0.039
 8499SOL    HW126396   6.822   5.855   0.065
 8499SOL    HW226397   6.766   5.765   6.967
 8500SOL     OW26398   2.006   0.520   5.901
 8500SOL    HW126399   2.059   0.601   5.924
 8500SOL    HW226400   1.964   0.483   5.983
 8501SOL     OW26401   0.922   1.314   0.398
 8501SOL    HW126402   0.998   1.377   0.378
 8501SOL    HW226403   0.839   1.347   0.352
 8502SOL     OW26404   0.679   3.069   6.537
 8502SOL    HW126405   0.652   3.071   6.441
 8502SOL    HW226406   0.759   3.008   6.548
 8503SOL     OW26407   6.161   5.951   4.183
 8503SOL    HW126408   6.243   5.954   4.125
 8503SOL    HW226409   6.094   5.890   4.144
 8504SOL     OW26410   2.358   4.966   2.780
 8504SOL    HW126411   2.395   4.922   2.698
 8504SOL    HW226412   2.429   4.971   2.850
 8505SOL     OW26413   5.177   3.202   2.719
 8505SOL    HW126414   5.116   3.240   2.649
 8505SOL    HW226415   5.251   3.267   2.738
 8506SOL     OW26416   2.402   0.147   6.959
 8506SOL    HW126417   2.490   0.103   6.978
 8506SOL    HW226418   2.357   0.099   6.883
 8507SOL     OW26419   4.863   6.538   5.783
 8507SOL    HW126420   4.764   6.537   5.800
 8507SOL    HW226421   4.882   6.596   5.704
 8508SOL     OW26422   4.129   1.366   0.160
 8508SOL    HW126423   4.037   1.404   0.167
 8508SOL    HW226424   4.166   1.385   0.069
 8509SOL     OW26425   5.991   0.527   3.730
 8509SOL    HW126426   5.957   0.446   3.682
 8509SOL    HW226427   6.029   0.500   3.818
 8510SOL     OW26428   5.716   2.339   4.245
 8510SOL    HW126429   5.679   2.283   4.170
 8510SOL    HW226430   5.641   2.379   4.297
 8511SOL     OW26431   5.927   2.903   1.868
 8511SOL    HW126432   5.856   2.883   1.935
 8511SOL    HW226433   5.896   2.877   1.777
 8512SOL     OW26434   1.782   6.949   4.303
 8512SOL    HW126435   1.766   7.008   4.224
 8512SOL    HW226436   1.710   6.962   4.370
 8513SOL     OW26437   6.188   6.181   6.813
 8513SOL    HW126438   6.210   6.256   6.876
 8513SOL    HW226439   6.089   6.176   6.800
 8514SOL     OW26440   2.596   6.502   4.209
 8514SOL    HW126441   2.592   6.402   4.201
 8514SOL    HW226442   2.691   6.532   4.209
 8515SOL     OW26443   5.187   1.943   1.543
 8515SOL    HW126444   5.209   1.874   1.612
 8515SOL    HW226445   5.188   2.034   1.584
 8516SOL     OW26446   6.262   2.408   2.178
 8516SOL    HW126447   6.188   2.433   2.241
 8516SOL    HW226448   6.223   2.377   2.091
 8517SOL     OW26449   1.720   2.682   6.260
 8517SOL    HW126450   1.745   2.585   6.263
 8517SOL    HW226451   1.799   2.735   6.229
 8518SOL     OW26452   3.693   5.335   0.583
 8518SOL    HW126453   3.711   5.279   0.664
 8518SOL    HW226454   3.764   5.317   0.515
 8519SOL     OW26455   0.733   5.458   2.307
 8519SOL    HW126456   0.746   5.413   2.395
 8519SOL    HW226457   0.680   5.399   2.246
 8520SOL     OW26458   4.354   0.829   0.240
 8520SOL    HW126459   4.349   0.739   0.197
 8520SOL    HW226460   4.447   0.865   0.233
 8521SOL     OW26461   1.398   5.799   5.523
 8521SOL    HW126462   1.477   5.815   5.464
 8521SOL    HW226463   1.427   5.756   5.608
 8522SOL     OW26464   1.172   5.800   4.837
 8522SOL    HW126465   1.145   5.712   4.799
 8522SOL    HW226466   1.201   5.789   4.931
 8523SOL     OW26467   1.527   6.668   6.945
 8523SOL    HW126468   1.497   6.695   6.853
 8523SOL    HW226469   1.616   6.625   6.939
 8524SOL     OW26470   1.558   3.136   6.293
 8524SOL    HW126471   1.644   3.185   6.277
 8524SOL    HW226472   1.539   3.076   6.215
 8525SOL     OW26473   6.123   3.427   3.288
 8525SOL    HW126474   6.023   3.428   3.294
 8525SOL    HW226475   6.150   3.392   3.198
 8526SOL     OW26476   2.216   2.996   2.368
 8526SOL    HW126477   2.293   3.058   2.352
 8526SOL    HW226478   2.186   3.005   2.463
 8527SOL     OW26479   4.601   0.623   4.628
 8527SOL    HW126480   4.647   0.558   4.568
 8527SOL    HW226481   4.669   0.671   4.684
 8528SOL     OW26482   4.643   2.736   6.315
 8528SOL    HW126483   4.708   2.767   6.246
 8528SOL    HW226484   4.561   2.702   6.270
 8529SOL     OW26485   0.979   4.789   6.889
 8529SOL    HW126486   0.987   4.861   6.821
 8529SOL    HW226487   1.006   4.701   6.849
 8530SOL     OW26488   1.523   3.895   5.392
 8530SOL    HW126489   1.458   3.824   5.364
 8530SOL    HW226490   1.526   3.966   5.321
 8531SOL     OW26491   5.030   5.064   2.503
 8531SOL    HW126492   5.054   5.161   2.511
 8531SOL    HW226493   4.939   5.049   2.539
 8532SOL     OW26494   3.502   4.322   5.969
 8532SOL    HW126495   3.575   4.320   6.037
 8532SOL    HW226496   3.499   4.413   5.926
 8533SOL     OW26497   3.834   1.223   4.950
 8533SOL    HW126498   3.867   1.221   4.855
 8533SOL    HW226499   3.751   1.278   4.954
 8534SOL     OW26500   1.662   3.224   2.243
 8534SOL    HW126501   1.716   3.302   2.274
 8534SOL    HW226502   1.574   3.222   2.291
 8535SOL     OW26503   0.629   2.294   4.622
 8535SOL    HW126504   0.715   2.257   4.585
 8535SOL    HW226505   0.560   2.222   4.623
 8536SOL     OW26506   0.580   1.393   5.882
 8536SOL    HW126507   0.513   1.450   5.931
 8536SOL    HW226508   0.654   1.451   5.848
 8537SOL     OW26509   5.524   0.502   2.012
 8537SOL    HW126510   5.543   0.538   1.920
 8537SOL    HW226511   5.518   0.578   2.077
 8538SOL     OW26512   5.919   0.670   4.949
 8538SOL    HW126513   5.964   0.588   4.984
 8538SOL    HW226514   5.959   0.694   4.860
 8539SOL     OW26515   0.524   3.133   1.957
 8539SOL    HW126516   0.507   3.035   1.960
 8539SOL    HW226517   0.451   3.181   2.006
 8540SOL     OW26518   3.935   0.311   0.257
 8540SOL    HW126519   3.954   0.408   0.270
 8540SOL    HW226520   3.837   0.295   0.271
 8541SOL     OW26521   3.218   0.905   4.718
 8541SOL    HW126522   3.213   0.996   4.676
 8541SOL    HW226523   3.125   0.868   4.727
 8542SOL     OW26524   1.908   5.031   6.489
 8542SOL    HW126525   1.864   4.952   6.531
 8542SOL    HW226526   1.921   5.014   6.391
 8543SOL     OW26527   2.317   1.871   6.001
 8543SOL    HW126528   2.378   1.825   6.065
 8543SOL    HW226529   2.293   1.961   6.037
 8544SOL     OW26530   4.741   4.041   5.197
 8544SOL    HW126531   4.742   4.018   5.294
 8544SOL    HW226532   4.780   3.966   5.144
 8545SOL     OW26533   3.072   0.388   6.234
 8545SOL    HW126534   2.978   0.394   6.268
 8545SOL    HW226535   3.091   0.466   6.175
 8546SOL     OW26536   5.858   0.374   1.602
 8546SOL    HW126537   5.859   0.443   1.530
 8546SOL    HW226538   5.849   0.418   1.691
 8547SOL     OW26539   6.263   6.262   5.808
 8547SOL    HW126540   6.309   6.244   5.895
 8547SOL    HW226541   6.316   6.327   5.755
 8548SOL     OW26542   0.494   2.692   6.104
 8548SOL    HW126543   0.429   2.708   6.030
 8548SOL    HW226544   0.498   2.772   6.164
 8549SOL     OW26545   1.796   0.620   3.011
 8549SOL    HW126546   1.746   0.701   2.978
 8549SOL    HW226547   1.796   0.550   2.940
 8550SOL     OW26548   0.395   4.588   6.599
 8550SOL    HW126549   0.478   4.641   6.615
 8550SOL    HW226550   0.338   4.588   6.681
 8551SOL     OW26551   2.268   1.845   5.633
 8551SOL    HW126552   2.274   1.760   5.580
 8551SOL    HW226553   2.301   1.921   5.578
 8552SOL     OW26554   2.542   1.923   3.357
 8552SOL    HW126555   2.630   1.961   3.385
 8552SOL    HW226556   2.472   1.946   3.425
 8553SOL     OW26557   5.304   2.853   0.157
 8553SOL    HW126558   5.359   2.903   0.225
 8553SOL    HW226559   5.303   2.756   0.180
 8554SOL     OW26560   1.181   0.196   0.192
 8554SOL    HW126561   1.171   0.123   0.125
 8554SOL    HW226562   1.168   0.159   0.284
 8555SOL     OW26563   4.438   0.871   4.571
 8555SOL    HW126564   4.359   0.931   4.571
 8555SOL    HW226565   4.417   0.786   4.522
 8556SOL     OW26566   1.554   6.394   0.511
 8556SOL    HW126567   1.529   6.303   0.478
 8556SOL    HW226568   1.573   6.454   0.433
 8557SOL     OW26569   0.543   0.988   0.278
 8557SOL    HW126570   0.453   1.029   0.262
 8557SOL    HW226571   0.614   1.058   0.267
 8558SOL     OW26572   2.812   4.749   3.654
 8558SOL    HW126573   2.829   4.845   3.630
 8558SOL    HW226574   2.812   4.694   3.570
 8559SOL     OW26575   0.951   5.431   2.706
 8559SOL    HW126576   0.931   5.428   2.804
 8559SOL    HW226577   1.038   5.387   2.688
 8560SOL     OW26578   2.903   4.168   1.751
 8560SOL    HW126579   2.939   4.114   1.827
 8560SOL    HW226580   2.916   4.265   1.771
 8561SOL     OW26581   4.768   6.839   2.399
 8561SOL    HW126582   4.724   6.910   2.346
 8561SOL    HW226583   4.858   6.819   2.360
 8562SOL     OW26584   4.553   1.117   6.938
 8562SOL    HW126585   4.643   1.105   6.895
 8562SOL    HW226586   4.518   1.027   6.965
 8563SOL     OW26587   1.843   5.033   2.473
 8563SOL    HW126588   1.907   5.008   2.400
 8563SOL    HW226589   1.758   4.981   2.463
 8564SOL     OW26590   4.569   0.800   6.766
 8564SOL    HW126591   4.579   0.701   6.761
 8564SOL    HW226592   4.625   0.842   6.695
 8565SOL     OW26593   2.783   5.264   1.274
 8565SOL    HW126594   2.860   5.205   1.251
 8565SOL    HW226595   2.722   5.216   1.338
 8566SOL     OW26596   3.236   1.199   2.730
 8566SOL    HW126597   3.161   1.249   2.687
 8566SOL    HW226598   3.200   1.122   2.782
 8567SOL     OW26599   2.337   2.286   1.821
 8567SOL    HW126600   2.239   2.299   1.804
 8567SOL    HW226601   2.359   2.189   1.812
 8568SOL     OW26602   6.928   0.954   6.952
 8568SOL    HW126603   6.975   0.964   6.865
 8568SOL    HW226604   6.975   1.008   7.022
 8569SOL     OW26605   4.866   2.233   6.410
 8569SOL    HW126606   4.769   2.248   6.396
 8569SOL    HW226607   4.894   2.274   6.497
 8570SOL     OW26608   1.813   3.078   4.309
 8570SOL    HW126609   1.835   3.024   4.228
 8570SOL    HW226610   1.723   3.050   4.344
 8571SOL     OW26611   1.509   0.728   3.480
 8571SOL    HW126612   1.428   0.728   3.421
 8571SOL    HW226613   1.486   0.684   3.568
 8572SOL     OW26614   3.048   4.107   5.387
 8572SOL    HW126615   3.065   4.206   5.383
 8572SOL    HW226616   3.015   4.083   5.478
 8573SOL     OW26617   3.748   6.233   0.721
 8573SOL    HW126618   3.804   6.155   0.692
 8573SOL    HW226619   3.728   6.290   0.642
 8574SOL     OW26620   6.110   6.764   5.562
 8574SOL    HW126621   6.145   6.685   5.612
 8574SOL    HW226622   6.181   6.834   5.554
 8575SOL     OW26623   3.016   6.150   3.027
 8575SOL    HW126624   3.055   6.241   3.013
 8575SOL    HW226625   2.927   6.144   2.982
 8576SOL     OW26626   0.669   4.145   3.695
 8576SOL    HW126627   0.684   4.143   3.794
 8576SOL    HW226628   0.592   4.086   3.672
 8577SOL     OW26629   1.980   1.867   0.033
 8577SOL    HW126630   1.950   1.784   0.080
 8577SOL    HW226631   1.901   1.916   7.024
 8578SOL     OW26632   6.390   6.967   5.952
 8578SOL    HW126633   6.437   0.026   5.932
 8578SOL    HW226634   6.362   6.966   6.048
 8579SOL     OW26635   3.260   6.053   2.525
 8579SOL    HW126636   3.224   5.964   2.551
 8579SOL    HW226637   3.238   6.121   2.595
 8580SOL     OW26638   1.810   0.718   1.532
 8580SOL    HW126639   1.745   0.680   1.598
 8580SOL    HW226640   1.903   0.701   1.565
 8581SOL     OW26641   3.363   4.834   1.216
 8581SOL    HW126642   3.438   4.856   1.278
 8581SOL    HW226643   3.385   4.751   1.164
 8582SOL     OW26644   3.730   4.552   5.655
 8582SOL    HW126645   3.775   4.498   5.726
 8582SOL    HW226646   3.769   4.528   5.566
 8583SOL     OW26647   4.490   0.415   2.933
 8583SOL    HW126648   4.497   0.322   2.898
 8583SOL    HW226649   4.398   0.431   2.968
 8584SOL     OW26650   6.743   1.304   4.312
 8584SOL    HW126651   6.700   1.284   4.223
 8584SOL    HW226652   6.842   1.313   4.300
 8585SOL     OW26653   4.893   1.725   2.214
 8585SOL    HW126654   4.803   1.718   2.172
 8585SOL    HW226655   4.896   1.805   2.274
 8586SOL     OW26656   6.169   5.736   0.947
 8586SOL    HW126657   6.169   5.700   1.040
 8586SOL    HW226658   6.258   5.718   0.904
 8587SOL     OW26659   2.106   1.408   6.020
 8587SOL    HW126660   2.014   1.426   5.984
 8587SOL    HW226661   2.170   1.475   5.982
 8588SOL     OW26662   3.182   1.524   6.886
 8588SOL    HW126663   3.185   1.484   6.978
 8588SOL    HW226664   3.239   1.470   6.825
 8589SOL     OW26665   6.842   2.909   6.219
 8589SOL    HW126666   6.819   2.813   6.238
 8589SOL    HW226667   6.759   2.961   6.202
 8590SOL     OW26668   1.393   1.420   2.891
 8590SOL    HW126669   1.403   1.387   2.985
 8590SOL    HW226670   1.425   1.514   2.884
 8591SOL     OW26671   0.026   4.980   6.921
 8591SOL    HW126672   0.098   4.942   6.980
 8591SOL    HW226673   0.030   5.079   6.923
 8592SOL     OW26674   1.475   1.987   5.991
 8592SOL    HW126675   1.432   2.068   5.952
 8592SOL    HW226676   1.560   1.967   5.942
 8593SOL     OW26677   3.478   0.853   6.348
 8593SOL    HW126678   3.572   0.883   6.358
 8593SOL    HW226679   3.437   0.841   6.438
 8594SOL     OW26680   6.688   2.632   5.670
 8594SOL    HW126681   6.673   2.715   5.722
 8594SOL    HW226682   6.668   2.552   5.728
 8595SOL     OW26683   5.015   6.489   2.656
 8595SOL    HW126684   5.076   6.551   2.607
 8595SOL    HW226685   5.066   6.406   2.682
 8596SOL     OW26686   0.682   2.462   3.565
 8596SOL    HW126687   0.705   2.449   3.468
 8596SOL    HW226688   0.727   2.546   3.598
 8597SOL     OW26689   6.053   3.268   0.839
 8597SOL    HW126690   6.039   3.186   0.895
 8597SOL    HW226691   5.993   3.341   0.872
 8598SOL     OW26692   5.740   6.796   4.126
 8598SOL    HW126693   5.746   6.745   4.212
 8598SOL    HW226694   5.707   6.889   4.145
 8599SOL     OW26695   1.148   2.896   3.852
 8599SOL    HW126696   1.213   2.820   3.860
 8599SOL    HW226697   1.084   2.894   3.929
 8600SOL     OW26698   4.004   2.589   1.176
 8600SOL    HW126699   3.977   2.656   1.246
 8600SOL    HW226700   3.966   2.500   1.199
 8601SOL     OW26701   0.883   7.026   3.585
 8601SOL    HW126702   0.803   6.968   3.567
 8601SOL    HW226703   0.911   7.015   3.680
 8602SOL     OW26704   1.977   6.761   4.303
 8602SOL    HW126705   1.914   6.836   4.323
 8602SOL    HW226706   1.964   6.688   4.369
 8603SOL     OW26707   6.985   0.609   0.742
 8603SOL    HW126708   6.891   0.639   0.756
 8603SOL    HW226709   7.004   0.530   0.799
 8604SOL     OW26710   0.293   4.159   5.966
 8604SOL    HW126711   0.337   4.244   5.993
 8604SOL    HW226712   0.229   4.130   6.037
 8605SOL     OW26713   0.041   5.140   4.019
 8605SOL    HW126714   0.110   5.183   4.077
 8605SOL    HW226715   6.977   5.174   4.045
 8606SOL     OW26716   2.319   2.913   6.845
 8606SOL    HW126717   2.246   2.846   6.829
 8606SOL    HW226718   2.279   3.004   6.857
 8607SOL     OW26719   2.438   4.362   1.741
 8607SOL    HW126720   2.363   4.295   1.744
 8607SOL    HW226721   2.520   4.318   1.705
 8608SOL     OW26722   2.197   4.782   2.892
 8608SOL    HW126723   2.256   4.843   2.840
 8608SOL    HW226724   2.150   4.719   2.830
 8609SOL     OW26725   4.374   1.122   4.240
 8609SOL    HW126726   4.433   1.176   4.181
 8609SOL    HW226727   4.345   1.177   4.318
 8610SOL     OW26728   0.890   6.691   2.584
 8610SOL    HW126729   0.905   6.701   2.485
 8610SOL    HW226730   0.914   6.777   2.630
 8611SOL     OW26731   2.593   1.457   4.434
 8611SOL    HW126732   2.648   1.525   4.386
 8611SOL    HW226733   2.623   1.451   4.529
 8612SOL     OW26734   4.083   3.633   3.266
 8612SOL    HW126735   4.092   3.709   3.330
 8612SOL    HW226736   4.028   3.561   3.307
 8613SOL     OW26737   3.350   2.993   1.191
 8613SOL    HW126738   3.267   3.047   1.199
 8613SOL    HW226739   3.356   2.953   1.099
 8614SOL     OW26740   1.384   2.651   2.208
 8614SOL    HW126741   1.483   2.649   2.222
 8614SOL    HW226742   1.363   2.697   2.122
 8615SOL     OW26743   3.866   1.056   3.572
 8615SOL    HW126744   3.871   1.090   3.666
 8615SOL    HW226745   3.771   1.052   3.542
 8616SOL     OW26746   4.482   4.657   2.647
 8616SOL    HW126747   4.403   4.700   2.604
 8616SOL    HW226748   4.558   4.723   2.650
 8617SOL     OW26749   4.256   0.265   4.111
 8617SOL    HW126750   4.260   0.231   4.205
 8617SOL    HW226751   4.338   0.319   4.092
 8618SOL     OW26752   5.470   3.915   1.150
 8618SOL    HW126753   5.521   3.994   1.116
 8618SOL    HW226754   5.372   3.927   1.130
 8619SOL     OW26755   5.771   4.407   1.042
 8619SOL    HW126756   5.868   4.431   1.041
 8619SOL    HW226757   5.759   4.321   1.090
 8620SOL     OW26758   1.750   0.953   4.611
 8620SOL    HW126759   1.667   1.008   4.598
 8620SOL    HW226760   1.813   0.970   4.535
 8621SOL     OW26761   5.186   2.603   1.596
 8621SOL    HW126762   5.150   2.642   1.681
 8621SOL    HW226763   5.244   2.524   1.618
 8622SOL     OW26764   6.475   5.254   3.059
 8622SOL    HW126765   6.461   5.352   3.077
 8622SOL    HW226766   6.522   5.212   3.136
 8623SOL     OW26767   6.485   2.983   4.602
 8623SOL    HW126768   6.498   2.931   4.517
 8623SOL    HW226769   6.485   2.920   4.680
 8624SOL     OW26770   2.883   4.022   5.643
 8624SOL    HW126771   2.834   4.106   5.669
 8624SOL    HW226772   2.891   3.963   5.723
 8625SOL     OW26773   3.934   2.218   5.711
 8625SOL    HW126774   3.952   2.190   5.805
 8625SOL    HW226775   3.864   2.159   5.671
 8626SOL     OW26776   4.334   4.335   0.401
 8626SOL    HW126777   4.278   4.342   0.318
 8626SOL    HW226778   4.277   4.308   0.478
 8627SOL     OW26779   1.905   0.820   2.671
 8627SOL    HW126780   1.854   0.785   2.592
 8627SOL    HW226781   1.920   0.918   2.660
 8628SOL     OW26782   0.631   6.422   0.301
 8628SOL    HW126783   0.643   6.514   0.338
 8628SOL    HW226784   0.704   6.363   0.334
 8629SOL     OW26785   0.234   0.401   4.573
 8629SOL    HW126786   0.288   0.348   4.638
 8629SOL    HW226787   0.280   0.400   4.484
 8630SOL     OW26788   5.190   2.958   2.508
 8630SOL    HW126789   5.201   3.037   2.569
 8630SOL    HW226790   5.132   2.889   2.552
 8631SOL     OW26791   2.912   6.065   0.121
 8631SOL    HW126792   2.941   6.141   0.179
 8631SOL    HW226793   2.993   6.014   0.091
 8632SOL     OW26794   4.725   4.762   5.523
 8632SOL    HW126795   4.662   4.827   5.481
 8632SOL    HW226796   4.772   4.711   5.451
 8633SOL     OW26797   5.745   3.651   6.225
 8633SOL    HW126798   5.775   3.727   6.282
 8633SOL    HW226799   5.668   3.604   6.269
 8634SOL     OW26800   5.508   4.427   0.739
 8634SOL    HW126801   5.412   4.441   0.714
 8634SOL    HW226802   5.521   4.332   0.767
 8635SOL     OW26803   6.010   2.735   6.278
 8635SOL    HW126804   5.997   2.740   6.377
 8635SOL    HW226805   6.021   2.827   6.241
 8636SOL     OW26806   4.958   6.642   0.997
 8636SOL    HW126807   4.943   6.622   0.900
 8636SOL    HW226808   5.036   6.589   1.030
 8637SOL     OW26809   2.305   1.719   6.421
 8637SOL    HW126810   2.342   1.730   6.329
 8637SOL    HW226811   2.265   1.805   6.452
 8638SOL     OW26812   4.535   2.658   5.315
 8638SOL    HW126813   4.477   2.578   5.332
 8638SOL    HW226814   4.483   2.726   5.264
 8639SOL     OW26815   4.160   3.373   6.401
 8639SOL    HW126816   4.223   3.297   6.381
 8639SOL    HW226817   4.116   3.402   6.316
 8640SOL     OW26818   2.993   3.391   1.712
 8640SOL    HW126819   2.922   3.393   1.783
 8640SOL    HW226820   3.018   3.296   1.693
 8641SOL     OW26821   4.347   5.793   2.816
 8641SOL    HW126822   4.434   5.843   2.808
 8641SOL    HW226823   4.276   5.855   2.851
 8642SOL     OW26824   1.485   6.292   4.293
 8642SOL    HW126825   1.453   6.277   4.199
 8642SOL    HW226826   1.419   6.255   4.358
 8643SOL     OW26827   4.118   7.013   0.908
 8643SOL    HW126828   4.217   7.020   0.895
 8643SOL    HW226829   4.084   6.935   0.856
 8644SOL     OW26830   5.964   1.738   6.839
 8644SOL    HW126831   5.881   1.704   6.883
 8644SOL    HW226832   6.038   1.672   6.851
 8645SOL     OW26833   6.161   4.081   2.021
 8645SOL    HW126834   6.083   4.095   1.960
 8645SOL    HW226835   6.130   4.084   2.116
 8646SOL     OW26836   0.080   1.537   5.731
 8646SOL    HW126837   0.046   1.585   5.811
 8646SOL    HW226838   0.133   1.457   5.760
 8647SOL     OW26839   2.317   4.838   1.843
 8647SOL    HW126840   2.386   4.834   1.915
 8647SOL    HW226841   2.324   4.758   1.785
 8648SOL     OW26842   5.695   5.266   0.731
 8648SOL    HW126843   5.728   5.269   0.637
 8648SOL    HW226844   5.761   5.217   0.788
 8649SOL     OW26845   4.511   6.899   0.824
 8649SOL    HW126846   4.535   6.996   0.837
 8649SOL    HW226847   4.594   6.843   0.827
 8650SOL     OW26848   1.992   6.802   4.006
 8650SOL    HW126849   1.894   6.789   3.992
 8650SOL    HW226850   2.013   6.798   4.104
 8651SOL     OW26851   3.394   2.020   1.143
 8651SOL    HW126852   3.329   2.095   1.134
 8651SOL    HW226853   3.349   1.933   1.124
 8652SOL     OW26854   1.378   3.612   3.848
 8652SOL    HW126855   1.446   3.680   3.875
 8652SOL    HW226856   1.295   3.658   3.817
 8653SOL     OW26857   0.383   1.251   6.085
 8653SOL    HW126858   0.302   1.194   6.099
 8653SOL    HW226859   0.354   1.343   6.059
 8654SOL     OW26860   0.649   4.493   1.637
 8654SOL    HW126861   0.620   4.576   1.590
 8654SOL    HW226862   0.568   4.438   1.660
 8655SOL     OW26863   0.191   0.933   5.485
 8655SOL    HW126864   0.245   0.972   5.559
 8655SOL    HW226865   0.095   0.955   5.498
 8656SOL     OW26866   5.158   0.238   1.448
 8656SOL    HW126867   5.175   0.335   1.429
 8656SOL    HW226868   5.127   0.228   1.542
 8657SOL     OW26869   5.177   0.866   2.381
 8657SOL    HW126870   5.252   0.864   2.447
 8657SOL    HW226871   5.208   0.912   2.298
 8658SOL     OW26872   0.183   4.968   0.609
 8658SOL    HW126873   0.126   4.997   0.686
 8658SOL    HW226874   0.230   5.048   0.572
 8659SOL     OW26875   4.616   1.343   2.394
 8659SOL    HW126876   4.672   1.390   2.326
 8659SOL    HW226877   4.597   1.250   2.363
 8660SOL     OW26878   0.515   3.182   1.563
 8660SOL    HW126879   0.483   3.205   1.471
 8660SOL    HW226880   0.437   3.176   1.625
 8661SOL     OW26881   6.156   3.372   3.017
 8661SOL    HW126882   6.231   3.398   2.956
 8661SOL    HW226883   6.169   3.277   3.047
 8662SOL     OW26884   2.947   5.226   2.955
 8662SOL    HW126885   2.957   5.191   2.862
 8662SOL    HW226886   2.935   5.150   3.018
 8663SOL     OW26887   3.677   5.936   3.217
 8663SOL    HW126888   3.678   5.918   3.119
 8663SOL    HW226889   3.664   5.850   3.267
 8664SOL     OW26890   2.730   5.268   3.264
 8664SOL    HW126891   2.672   5.216   3.202
 8664SOL    HW226892   2.778   5.206   3.326
 8665SOL     OW26893   5.825   3.474   6.031
 8665SOL    HW126894   5.800   3.527   6.112
 8665SOL    HW226895   5.764   3.395   6.022
 8666SOL     OW26896   4.550   6.530   2.904
 8666SOL    HW126897   4.612   6.560   2.832
 8666SOL    HW226898   4.494   6.455   2.870
 8667SOL     OW26899   4.928   1.925   4.299
 8667SOL    HW126900   4.860   1.917   4.372
 8667SOL    HW226901   5.018   1.900   4.334
 8668SOL     OW26902   4.847   2.934   5.178
 8668SOL    HW126903   4.828   2.926   5.080
 8668SOL    HW226904   4.762   2.953   5.226
 8669SOL     OW26905   6.175   6.573   6.256
 8669SOL    HW126906   6.262   6.526   6.245
 8669SOL    HW226907   6.105   6.527   6.200
 8670SOL     OW26908   6.399   4.799   6.005
 8670SOL    HW126909   6.408   4.700   5.994
 8670SOL    HW226910   6.348   4.837   5.927
 8671SOL     OW26911   6.939   2.025   2.437
 8671SOL    HW126912   6.897   2.051   2.525
 8671SOL    HW226913   6.989   1.939   2.449
 8672SOL     OW26914   0.413   1.319   3.615
 8672SOL    HW126915   0.488   1.312   3.549
 8672SOL    HW226916   0.392   1.228   3.651
 8673SOL     OW26917   0.886   1.769   1.249
 8673SOL    HW126918   0.972   1.812   1.274
 8673SOL    HW226919   0.823   1.838   1.213
 8674SOL     OW26920   6.685   4.749   2.683
 8674SOL    HW126921   6.738   4.833   2.671
 8674SOL    HW226922   6.743   4.679   2.724
 8675SOL     OW26923   3.893   1.749   5.658
 8675SOL    HW126924   3.843   1.834   5.640
 8675SOL    HW226925   3.936   1.755   5.749
 8676SOL     OW26926   5.526   1.067   0.937
 8676SOL    HW126927   5.514   1.144   0.999
 8676SOL    HW226928   5.503   0.982   0.984
 8677SOL     OW26929   1.553   0.014   5.523
 8677SOL    HW126930   1.509   6.952   5.506
 8677SOL    HW226931   1.485   0.079   5.556
 8678SOL     OW26932   2.007   1.054   0.981
 8678SOL    HW126933   2.070   1.108   0.925
 8678SOL    HW226934   2.026   0.956   0.968
 8679SOL     OW26935   1.866   1.551   4.691
 8679SOL    HW126936   1.965   1.564   4.695
 8679SOL    HW226937   1.845   1.462   4.651
 8680SOL     OW26938   6.973   1.901   6.236
 8680SOL    HW126939   6.973   1.874   6.140
 8680SOL    HW226940   6.880   1.926   6.263
 8681SOL     OW26941   5.402   5.948   1.032
 8681SOL    HW126942   5.430   5.878   0.967
 8681SOL    HW226943   5.417   6.039   0.991
 8682SOL     OW26944   0.663   0.829   1.114
 8682SOL    HW126945   0.651   0.917   1.161
 8682SOL    HW226946   0.753   0.792   1.138
 8683SOL     OW26947   2.286   4.287   4.629
 8683SOL    HW126948   2.318   4.204   4.674
 8683SOL    HW226949   2.242   4.264   4.543
 8684SOL     OW26950   0.515   3.367   4.432
 8684SOL    HW126951   0.433   3.387   4.486
 8684SOL    HW226952   0.488   3.314   4.351
 8685SOL     OW26953   4.960   2.351   5.368
 8685SOL    HW126954   4.862   2.332   5.371
 8685SOL    HW226955   5.009   2.273   5.329
 8686SOL     OW26956   0.062   6.173   2.761
 8686SOL    HW126957   0.036   6.102   2.696
 8686SOL    HW226958   0.040   6.263   2.723
 8687SOL     OW26959   6.113   3.278   3.735
 8687SOL    HW126960   6.192   3.327   3.771
 8687SOL    HW226961   6.032   3.299   3.791
 8688SOL     OW26962   0.889   4.202   6.466
 8688SOL    HW126963   0.789   4.198   6.463
 8688SOL    HW226964   0.925   4.213   6.374
 8689SOL     OW26965   4.782   3.942   6.698
 8689SOL    HW126966   4.706   3.920   6.636
 8689SOL    HW226967   4.749   4.000   6.772
 8690SOL     OW26968   2.178   1.988   3.697
 8690SOL    HW126969   2.103   1.923   3.706
 8690SOL    HW226970   2.227   1.972   3.611
 8691SOL     OW26971   2.927   2.343   5.259
 8691SOL    HW126972   3.016   2.315   5.224
 8691SOL    HW226973   2.870   2.374   5.183
 8692SOL     OW26974   4.201   1.948   5.760
 8692SOL    HW126975   4.189   1.934   5.662
 8692SOL    HW226976   4.127   1.903   5.810
 8693SOL     OW26977   6.449   0.528   6.297
 8693SOL    HW126978   6.482   0.594   6.365
 8693SOL    HW226979   6.364   0.487   6.328
 8694SOL     OW26980   5.325   3.593   4.106
 8694SOL    HW126981   5.288   3.504   4.080
 8694SOL    HW226982   5.372   3.634   4.027
 8695SOL     OW26983   3.701   4.410   6.128
 8695SOL    HW126984   3.722   4.508   6.117
 8695SOL    HW226985   3.783   4.362   6.159
 8696SOL     OW26986   3.272   5.800   6.060
 8696SOL    HW126987   3.278   5.843   5.970
 8696SOL    HW226988   3.187   5.747   6.066
 8697SOL     OW26989   1.225   3.825   5.893
 8697SOL    HW126990   1.309   3.781   5.923
 8697SOL    HW226991   1.245   3.886   5.816
 8698SOL     OW26992   5.236   5.544   5.074
 8698SOL    HW126993   5.296   5.520   5.150
 8698SOL    HW226994   5.146   5.504   5.090
 8699SOL     OW26995   1.995   3.272   6.892
 8699SOL    HW126996   1.946   3.358   6.902
 8699SOL    HW226997   1.940   3.208   6.837
 8700SOL     OW26998   0.789   0.233   5.267
 8700SOL    HW126999   0.793   0.323   5.310
 8700SOL    HW227000   0.881   0.204   5.242
 8701SOL     OW27001   1.079   1.863   6.830
 8701SOL    HW127002   0.992   1.815   6.844
 8701SOL    HW227003   1.115   1.840   6.739
 8702SOL     OW27004   5.861   4.169   1.192
 8702SOL    HW127005   5.937   4.200   1.248
 8702SOL    HW227006   5.858   4.069   1.190
 8703SOL     OW27007   2.954   4.704   1.559
 8703SOL    HW127008   2.916   4.613   1.575
 8703SOL    HW227009   2.970   4.749   1.647
 8704SOL     OW27010   1.348   2.172   3.522
 8704SOL    HW127011   1.292   2.250   3.491
 8704SOL    HW227012   1.436   2.205   3.556
 8705SOL     OW27013   4.407   2.534   0.265
 8705SOL    HW127014   4.342   2.604   0.293
 8705SOL    HW227015   4.456   2.564   0.184
 8706SOL     OW27016   4.850   3.504   6.331
 8706SOL    HW127017   4.799   3.418   6.334
 8706SOL    HW227018   4.817   3.565   6.403
 8707SOL     OW27019   1.492   1.942   4.287
 8707SOL    HW127020   1.585   1.930   4.252
 8707SOL    HW227021   1.449   2.020   4.242
 8708SOL     OW27022   5.545   1.986   2.186
 8708SOL    HW127023   5.497   1.913   2.138
 8708SOL    HW227024   5.623   1.949   2.235
 8709SOL     OW27025   6.929   0.323   5.401
 8709SOL    HW127026   6.884   0.347   5.488
 8709SOL    HW227027   6.859   0.305   5.332
 8710SOL     OW27028   2.230   1.304   3.815
 8710SOL    HW127029   2.277   1.282   3.900
 8710SOL    HW227030   2.138   1.264   3.816
 8711SOL     OW27031   1.479   0.252   1.836
 8711SOL    HW127032   1.495   0.156   1.859
 8711SOL    HW227033   1.537   0.277   1.758
 8712SOL     OW27034   1.795   3.039   5.892
 8712SOL    HW127035   1.871   3.066   5.833
 8712SOL    HW227036   1.820   3.056   5.987
 8713SOL     OW27037   0.346   4.902   1.655
 8713SOL    HW127038   0.300   4.881   1.568
 8713SOL    HW227039   0.278   4.915   1.727
 8714SOL     OW27040   6.676   6.678   6.766
 8714SOL    HW127041   6.587   6.668   6.810
 8714SOL    HW227042   6.727   6.751   6.812
 8715SOL     OW27043   2.686   2.255   0.491
 8715SOL    HW127044   2.770   2.235   0.540
 8715SOL    HW227045   2.615   2.282   0.556
 8716SOL     OW27046   6.939   6.537   1.506
 8716SOL    HW127047   6.993   6.546   1.422
 8716SOL    HW227048   6.955   6.447   1.546
 8717SOL     OW27049   2.924   4.298   0.603
 8717SOL    HW127050   2.838   4.304   0.653
 8717SOL    HW227051   2.992   4.358   0.645
 8718SOL     OW27052   2.320   4.712   6.260
 8718SOL    HW127053   2.361   4.656   6.331
 8718SOL    HW227054   2.232   4.673   6.233
 8719SOL     OW27055   4.080   0.807   5.642
 8719SOL    HW127056   4.096   0.878   5.711
 8719SOL    HW227057   4.097   0.717   5.683
 8720SOL     OW27058   6.854   4.261   5.222
 8720SOL    HW127059   6.851   4.239   5.320
 8720SOL    HW227060   6.811   4.350   5.207
 8721SOL     OW27061   0.377   6.990   6.073
 8721SOL    HW127062   0.353   6.909   6.127
 8721SOL    HW227063   0.460   0.005   6.109
 8722SOL     OW27064   4.094   0.898   1.796
 8722SOL    HW127065   3.998   0.871   1.797
 8722SOL    HW227066   4.137   0.862   1.713
 8723SOL     OW27067   4.608   6.700   2.576
 8723SOL    HW127068   4.669   6.626   2.605
 8723SOL    HW227069   4.658   6.762   2.515
 8724SOL     OW27070   4.012   0.797   4.989
 8724SOL    HW127071   3.964   0.833   5.069
 8724SOL    HW227072   4.087   0.738   5.019
 8725SOL     OW27073   0.311   6.421   4.319
 8725SOL    HW127074   0.369   6.429   4.238
 8725SOL    HW227075   0.268   6.331   4.321
 8726SOL     OW27076   1.060   1.191   0.636
 8726SOL    HW127077   1.055   1.097   0.603
 8726SOL    HW227078   1.001   1.250   0.580
 8727SOL     OW27079   4.931   5.155   6.277
 8727SOL    HW127080   5.015   5.184   6.230
 8727SOL    HW227081   4.861   5.134   6.209
 8728SOL     OW27082   6.586   1.028   3.189
 8728SOL    HW127083   6.494   1.011   3.225
 8728SOL    HW227084   6.646   1.055   3.264
 8729SOL     OW27085   3.322   5.821   6.674
 8729SOL    HW127086   3.322   5.835   6.773
 8729SOL    HW227087   3.331   5.910   6.628
 8730SOL     OW27088   4.895   4.906   2.039
 8730SOL    HW127089   4.850   4.817   2.048
 8730SOL    HW227090   4.877   4.961   2.121
 8731SOL     OW27091   0.696   2.085   3.443
 8731SOL    HW127092   0.625   2.030   3.398
 8731SOL    HW227093   0.782   2.033   3.445
 8732SOL     OW27094   5.476   5.754   0.832
 8732SOL    HW127095   5.549   5.689   0.810
 8732SOL    HW227096   5.395   5.733   0.777
 8733SOL     OW27097   6.428   5.197   2.198
 8733SOL    HW127098   6.417   5.286   2.153
 8733SOL    HW227099   6.342   5.146   2.193
 8734SOL     OW27100   0.106   3.449   2.002
 8734SOL    HW127101   0.065   3.374   1.951
 8734SOL    HW227102   0.124   3.525   1.940
 8735SOL     OW27103   1.485   4.129   6.145
 8735SOL    HW127104   1.565   4.091   6.191
 8735SOL    HW227105   1.508   4.150   6.050
 8736SOL     OW27106   0.936   5.864   2.208
 8736SOL    HW127107   1.021   5.858   2.260
 8736SOL    HW227108   0.880   5.940   2.242
 8737SOL     OW27109   1.704   6.064   6.652
 8737SOL    HW127110   1.650   6.028   6.576
 8737SOL    HW227111   1.738   5.987   6.707
 8738SOL     OW27112   1.193   3.498   3.486
 8738SOL    HW127113   1.274   3.441   3.492
 8738SOL    HW227114   1.112   3.444   3.510
 8739SOL     OW27115   5.701   4.322   5.141
 8739SOL    HW127116   5.616   4.322   5.192
 8739SOL    HW227117   5.755   4.242   5.166
 8740SOL     OW27118   3.176   1.457   4.224
 8740SOL    HW127119   3.203   1.546   4.263
 8740SOL    HW227120   3.081   1.462   4.193
 8741SOL     OW27121   1.189   6.994   2.537
 8741SOL    HW127122   1.214   6.975   2.633
 8741SOL    HW227123   1.093   6.970   2.522
 8742SOL     OW27124   3.043   1.622   2.764
 8742SOL    HW127125   3.119   1.674   2.725
 8742SOL    HW227126   2.965   1.624   2.701
 8743SOL     OW27127   1.676   1.178   1.231
 8743SOL    HW127128   1.760   1.125   1.221
 8743SOL    HW227129   1.664   1.206   1.326
 8744SOL     OW27130   3.658   4.546   6.616
 8744SOL    HW127131   3.709   4.631   6.603
 8744SOL    HW227132   3.699   4.494   6.691
 8745SOL     OW27133   6.483   1.461   6.471
 8745SOL    HW127134   6.414   1.448   6.400
 8745SOL    HW227135   6.569   1.491   6.430
 8746SOL     OW27136   4.817   5.155   4.640
 8746SOL    HW127137   4.841   5.148   4.543
 8746SOL    HW227138   4.792   5.065   4.675
 8747SOL     OW27139   0.147   0.856   1.803
 8747SOL    HW127140   0.169   0.803   1.885
 8747SOL    HW227141   0.110   0.795   1.733
 8748SOL     OW27142   1.225   2.408   3.452
 8748SOL    HW127143   1.148   2.402   3.390
 8748SOL    HW227144   1.219   2.493   3.504
 8749SOL     OW27145   2.810   1.283   5.366
 8749SOL    HW127146   2.807   1.376   5.402
 8749SOL    HW227147   2.900   1.243   5.385
 8750SOL     OW27148   3.999   2.733   6.141
 8750SOL    HW127149   3.997   2.831   6.122
 8750SOL    HW227150   4.086   2.709   6.185
 8751SOL     OW27151   0.406   5.782   1.803
 8751SOL    HW127152   0.504   5.800   1.801
 8751SOL    HW227153   0.363   5.820   1.721
 8752SOL     OW27154   4.549   3.407   6.564
 8752SOL    HW127155   4.531   3.473   6.637
 8752SOL    HW227156   4.526   3.446   6.476
 8753SOL     OW27157   1.827   3.062   0.328
 8753SOL    HW127158   1.769   2.998   0.278
 8753SOL    HW227159   1.856   3.021   0.415
 8754SOL     OW27160   3.204   5.567   6.855
 8754SOL    HW127161   3.131   5.541   6.791
 8754SOL    HW227162   3.225   5.664   6.844
 8755SOL     OW27163   0.141   2.355   2.570
 8755SOL    HW127164   0.191   2.441   2.563
 8755SOL    HW227165   0.192   2.291   2.627
 8756SOL     OW27166   1.815   2.368   3.216
 8756SOL    HW127167   1.867   2.292   3.177
 8756SOL    HW227168   1.840   2.381   3.312
 8757SOL     OW27169   5.261   6.157   5.326
 8757SOL    HW127170   5.212   6.182   5.410
 8757SOL    HW227171   5.235   6.064   5.299
 8758SOL     OW27172   3.323   6.700   4.109
 8758SOL    HW127173   3.386   6.718   4.033
 8758SOL    HW227174   3.324   6.602   4.130
 8759SOL     OW27175   6.094   1.511   0.438
 8759SOL    HW127176   6.132   1.419   0.442
 8759SOL    HW227177   6.052   1.534   0.526
 8760SOL     OW27178   2.241   2.235   4.560
 8760SOL    HW127179   2.276   2.213   4.470
 8760SOL    HW227180   2.293   2.186   4.630
 8761SOL     OW27181   4.665   0.437   2.333
 8761SOL    HW127182   4.712   0.411   2.249
 8761SOL    HW227183   4.718   0.506   2.381
 8762SOL     OW27184   1.339   5.046   3.230
 8762SOL    HW127185   1.283   4.992   3.167
 8762SOL    HW227186   1.351   5.138   3.194
 8763SOL     OW27187   0.802   1.272   6.094
 8763SOL    HW127188   0.762   1.180   6.099
 8763SOL    HW227189   0.733   1.337   6.062
 8764SOL     OW27190   3.651   5.035   5.943
 8764SOL    HW127191   3.552   5.042   5.935
 8764SOL    HW227192   3.684   4.954   5.895
 8765SOL     OW27193   5.061   6.665   5.070
 8765SOL    HW127194   5.109   6.659   5.157
 8765SOL    HW227195   4.965   6.643   5.082
 8766SOL     OW27196   4.940   4.754   5.711
 8766SOL    HW127197   4.939   4.691   5.788
 8766SOL    HW227198   4.860   4.738   5.653
 8767SOL     OW27199   2.931   0.916   3.956
 8767SOL    HW127200   2.986   0.858   3.895
 8767SOL    HW227201   2.950   1.012   3.938
 8768SOL     OW27202   6.545   2.346   0.099
 8768SOL    HW127203   6.598   2.291   0.164
 8768SOL    HW227204   6.500   2.285   0.033
 8769SOL     OW27205   6.883   1.151   0.576
 8769SOL    HW127206   6.897   1.114   0.668
 8769SOL    HW227207   6.791   1.128   0.544
 8770SOL     OW27208   4.827   4.051   1.751
 8770SOL    HW127209   4.833   4.142   1.791
 8770SOL    HW227210   4.736   4.037   1.712
 8771SOL     OW27211   0.182   3.224   6.657
 8771SOL    HW127212   0.128   3.240   6.740
 8771SOL    HW227213   0.269   3.181   6.682
 8772SOL     OW27214   5.344   0.078   3.645
 8772SOL    HW127215   5.284   0.010   3.688
 8772SOL    HW227216   5.288   0.151   3.604
 8773SOL     OW27217   0.267   1.471   3.857
 8773SOL    HW127218   0.350   1.460   3.804
 8773SOL    HW227219   0.201   1.400   3.833
 8774SOL     OW27220   1.577   0.663   0.812
 8774SOL    HW127221   1.558   0.565   0.810
 8774SOL    HW227222   1.626   0.690   0.729
 8775SOL     OW27223   5.118   1.812   4.496
 8775SOL    HW127224   5.107   1.876   4.572
 8775SOL    HW227225   5.210   1.822   4.458
 8776SOL     OW27226   3.969   2.811   0.359
 8776SOL    HW127227   3.957   2.858   0.446
 8776SOL    HW227228   3.974   2.878   0.285
 8777SOL     OW27229   0.906   1.911   3.348
 8777SOL    HW127230   0.964   1.881   3.425
 8777SOL    HW227231   0.850   1.834   3.317
 8778SOL     OW27232   3.869   5.109   6.357
 8778SOL    HW127233   3.846   5.109   6.260
 8778SOL    HW227234   3.826   5.031   6.401
 8779SOL     OW27235   3.584   4.874   3.109
 8779SOL    HW127236   3.548   4.836   3.194
 8779SOL    HW227237   3.661   4.934   3.130
 8780SOL     OW27238   6.203   5.423   3.281
 8780SOL    HW127239   6.237   5.398   3.372
 8780SOL    HW227240   6.188   5.340   3.227
 8781SOL     OW27241   3.619   6.360   2.262
 8781SOL    HW127242   3.546   6.313   2.313
 8781SOL    HW227243   3.579   6.435   2.209
 8782SOL     OW27244   4.805   0.778   1.692
 8782SOL    HW127245   4.854   0.773   1.779
 8782SOL    HW227246   4.844   0.712   1.628
 8783SOL     OW27247   5.013   3.437   5.020
 8783SOL    HW127248   4.932   3.494   5.000
 8783SOL    HW227249   4.990   3.341   5.007
 8784SOL     OW27250   5.605   6.430   0.712
 8784SOL    HW127251   5.569   6.489   0.785
 8784SOL    HW227252   5.677   6.372   0.748
 8785SOL     OW27253   0.860   5.771   6.173
 8785SOL    HW127254   0.886   5.783   6.077
 8785SOL    HW227255   0.767   5.804   6.188
 8786SOL     OW27256   3.875   1.524   2.045
 8786SOL    HW127257   3.801   1.552   2.105
 8786SOL    HW227258   3.917   1.441   2.080
 8787SOL     OW27259   3.126   0.107   1.477
 8787SOL    HW127260   3.036   0.123   1.518
 8787SOL    HW227261   3.190   0.076   1.548
 8788SOL     OW27262   0.400   0.408   4.335
 8788SOL    HW127263   0.488   0.363   4.351
 8788SOL    HW227264   0.416   0.502   4.302
 8789SOL     OW27265   0.030   3.027   5.139
 8789SOL    HW127266   0.056   3.004   5.233
 8789SOL    HW227267   0.106   3.072   5.093
 8790SOL     OW27268   5.519   2.404   6.431
 8790SOL    HW127269   5.548   2.454   6.513
 8790SOL    HW227270   5.419   2.401   6.427
 8791SOL     OW27271   4.180   5.402   6.104
 8791SOL    HW127272   4.096   5.369   6.061
 8791SOL    HW227273   4.210   5.336   6.173
 8792SOL     OW27274   5.349   5.536   1.026
 8792SOL    HW127275   5.282   5.593   1.073
 8792SOL    HW227276   5.374   5.579   0.939
 8793SOL     OW27277   0.087   4.569   4.241
 8793SOL    HW127278   0.002   4.522   4.263
 8793SOL    HW227279   0.163   4.525   4.288
 8794SOL     OW27280   0.426   0.645   2.428
 8794SOL    HW127281   0.447   0.563   2.375
 8794SOL    HW227282   0.374   0.709   2.372
 8795SOL     OW27283   1.591   5.267   5.427
 8795SOL    HW127284   1.680   5.237   5.391
 8795SOL    HW227285   1.519   5.239   5.364
 8796SOL     OW27286   6.845   3.463   3.621
 8796SOL    HW127287   6.877   3.485   3.713
 8796SOL    HW227288   6.802   3.373   3.621
 8797SOL     OW27289   5.377   6.862   3.898
 8797SOL    HW127290   5.431   6.800   3.841
 8797SOL    HW227291   5.438   6.913   3.959
 8798SOL     OW27292   4.053   6.465   5.900
 8798SOL    HW127293   4.059   6.499   5.994
 8798SOL    HW227294   4.076   6.538   5.836
 8799SOL     OW27295   1.662   5.272   2.063
 8799SOL    HW127296   1.660   5.172   2.054
 8799SOL    HW227297   1.629   5.314   1.978
 8800SOL     OW27298   6.988   6.004   5.298
 8800SOL    HW127299   7.005   5.908   5.276
 8800SOL    HW227300   6.964   6.054   5.215
 8801SOL     OW27301   6.135   2.633   5.253
 8801SOL    HW127302   6.101   2.727   5.257
 8801SOL    HW227303   6.107   2.591   5.167
 8802SOL     OW27304   1.755   6.442   5.713
 8802SOL    HW127305   1.666   6.483   5.692
 8802SOL    HW227306   1.752   6.399   5.804
 8803SOL     OW27307   6.451   0.030   6.676
 8803SOL    HW127308   6.503   0.057   6.757
 8803SOL    HW227309   6.463   6.958   6.660
 8804SOL     OW27310   1.521   5.860   2.532
 8804SOL    HW127311   1.511   5.766   2.497
 8804SOL    HW227312   1.443   5.915   2.502
 8805SOL     OW27313   4.776   5.006   2.570
 8805SOL    HW127314   4.702   5.021   2.636
 8805SOL    HW227315   4.751   4.932   2.508
 8806SOL     OW27316   1.830   6.815   0.409
 8806SOL    HW127317   1.928   6.824   0.422
 8806SOL    HW227318   1.801   6.721   0.430
 8807SOL     OW27319   4.843   2.641   1.187
 8807SOL    HW127320   4.779   2.658   1.112
 8807SOL    HW227321   4.853   2.543   1.200
 8808SOL     OW27322   2.287   2.463   0.896
 8808SOL    HW127323   2.348   2.401   0.847
 8808SOL    HW227324   2.287   2.440   0.994
 8809SOL     OW27325   1.224   3.762   3.602
 8809SOL    HW127326   1.158   3.836   3.587
 8809SOL    HW227327   1.184   3.675   3.571
 8810SOL     OW27328   0.581   0.828   6.097
 8810SOL    HW127329   0.669   0.875   6.101
 8810SOL    HW227330   0.524   0.872   6.028
 8811SOL     OW27331   3.841   5.874   2.555
 8811SOL    HW127332   3.908   5.922   2.611
 8811SOL    HW227333   3.879   5.787   2.524
 8812SOL     OW27334   4.374   1.418   6.499
 8812SOL    HW127335   4.276   1.402   6.503
 8812SOL    HW227336   4.421   1.350   6.555
 8813SOL     OW27337   1.915   4.379   3.537
 8813SOL    HW127338   1.959   4.382   3.627
 8813SOL    HW227339   1.918   4.469   3.495
 8814SOL     OW27340   5.584   6.425   6.119
 8814SOL    HW127341   5.589   6.387   6.212
 8814SOL    HW227342   5.635   6.366   6.056
 8815SOL     OW27343   5.328   1.244   0.498
 8815SOL    HW127344   5.269   1.164   0.485
 8815SOL    HW227345   5.272   1.326   0.509
 8816SOL     OW27346   0.901   6.630   5.388
 8816SOL    HW127347   0.819   6.584   5.423
 8816SOL    HW227348   0.880   6.674   5.301
 8817SOL     OW27349   1.538   2.722   4.571
 8817SOL    HW127350   1.602   2.717   4.648
 8817SOL    HW227351   1.542   2.813   4.530
 8818SOL     OW27352   1.914   0.136   4.470
 8818SOL    HW127353   1.889   0.041   4.453
 8818SOL    HW227354   1.832   0.189   4.493
 8819SOL     OW27355   5.797   4.552   5.770
 8819SOL    HW127356   5.844   4.497   5.840
 8819SOL    HW227357   5.852   4.633   5.750
 8820SOL     OW27358   3.417   0.286   4.233
 8820SOL    HW127359   3.450   0.298   4.327
 8820SOL    HW227360   3.343   0.351   4.215
 8821SOL     OW27361   0.778   4.580   0.262
 8821SOL    HW127362   0.858   4.580   0.202
 8821SOL    HW227363   0.697   4.601   0.207
 8822SOL     OW27364   6.955   6.773   4.033
 8822SOL    HW127365   0.017   6.727   4.033
 8822SOL    HW227366   6.953   6.842   3.961
 8823SOL     OW27367   3.680   1.007   2.939
 8823SOL    HW127368   3.704   1.093   2.895
 8823SOL    HW227369   3.722   1.002   3.030
 8824SOL     OW27370   2.063   0.930   1.490
 8824SOL    HW127371   1.970   0.929   1.453
 8824SOL    HW227372   2.128   0.950   1.416
 8825SOL     OW27373   6.828   6.879   6.914
 8825SOL    HW127374   6.816   6.978   6.921
 8825SOL    HW227375   6.800   6.836   6.999
 8826SOL     OW27376   0.774   3.329   0.454
 8826SOL    HW127377   0.752   3.232   0.442
 8826SOL    HW227378   0.871   3.339   0.475
 8827SOL     OW27379   4.065   0.035   2.188
 8827SOL    HW127380   4.143   7.017   2.144
 8827SOL    HW227381   4.076   0.030   2.287
 8828SOL     OW27382   4.106   2.986   6.191
 8828SOL    HW127383   4.169   2.986   6.269
 8828SOL    HW227384   4.052   3.070   6.192
 8829SOL     OW27385   0.424   1.789   2.391
 8829SOL    HW127386   0.348   1.784   2.326
 8829SOL    HW227387   0.479   1.705   2.384
 8830SOL     OW27388   2.884   1.772   3.839
 8830SOL    HW127389   2.821   1.778   3.762
 8830SOL    HW227390   2.834   1.785   3.925
 8831SOL     OW27391   0.563   2.646   2.112
 8831SOL    HW127392   0.598   2.561   2.152
 8831SOL    HW227393   0.548   2.633   2.014
 8832SOL     OW27394   6.514   0.377   4.162
 8832SOL    HW127395   6.558   0.313   4.225
 8832SOL    HW227396   6.564   0.464   4.162
 8833SOL     OW27397   3.349   3.043   0.632
 8833SOL    HW127398   3.422   3.100   0.670
 8833SOL    HW227399   3.272   3.040   0.696
 8834SOL     OW27400   5.091   3.284   5.690
 8834SOL    HW127401   5.167   3.269   5.754
 8834SOL    HW227402   5.111   3.238   5.604
 8835SOL     OW27403   6.263   1.074   5.340
 8835SOL    HW127404   6.274   1.151   5.402
 8835SOL    HW227405   6.171   1.035   5.351
 8836SOL     OW27406   5.079   1.861   0.287
 8836SOL    HW127407   5.046   1.919   0.213
 8836SOL    HW227408   5.006   1.800   0.317
 8837SOL     OW27409   5.858   6.843   1.388
 8837SOL    HW127410   5.884   6.747   1.374
 8837SOL    HW227411   5.909   6.880   1.466
 8838SOL     OW27412   0.140   4.534   2.879
 8838SOL    HW127413   0.179   4.582   2.958
 8838SOL    HW227414   0.126   4.598   2.804
 8839SOL     OW27415   5.325   5.631   3.165
 8839SOL    HW127416   5.287   5.688   3.238
 8839SOL    HW227417   5.365   5.549   3.205
 8840SOL     OW27418   0.209   1.264   1.288
 8840SOL    HW127419   0.135   1.296   1.230
 8840SOL    HW227420   0.174   1.198   1.354
 8841SOL     OW27421   3.529   1.237   1.757
 8841SOL    HW127422   3.587   1.181   1.817
 8841SOL    HW227423   3.583   1.266   1.678
 8842SOL     OW27424   3.827   3.420   3.945
 8842SOL    HW127425   3.735   3.381   3.954
 8842SOL    HW227426   3.886   3.384   4.016
 8843SOL     OW27427   1.758   4.347   5.671
 8843SOL    HW127428   1.845   4.319   5.713
 8843SOL    HW227429   1.774   4.427   5.612
 8844SOL     OW27430   4.815   1.830   5.172
 8844SOL    HW127431   4.721   1.796   5.166
 8844SOL    HW227432   4.877   1.764   5.129
 8845SOL     OW27433   0.623   4.919   1.986
 8845SOL    HW127434   0.525   4.926   2.002
 8845SOL    HW227435   0.664   4.862   2.057
 8846SOL     OW27436   5.930   5.067   3.246
 8846SOL    HW127437   5.861   5.126   3.203
 8846SOL    HW227438   6.020   5.094   3.213
 8847SOL     OW27439   2.443   2.260   2.877
 8847SOL    HW127440   2.433   2.356   2.852
 8847SOL    HW227441   2.540   2.237   2.881
 8848SOL     OW27442   3.772   1.787   1.435
 8848SOL    HW127443   3.684   1.835   1.438
 8848SOL    HW227444   3.778   1.733   1.352
 8849SOL     OW27445   2.856   5.087   4.459
 8849SOL    HW127446   2.930   5.048   4.404
 8849SOL    HW227447   2.842   5.032   4.541
 8850SOL     OW27448   3.028   1.731   1.238
 8850SOL    HW127449   3.050   1.633   1.231
 8850SOL    HW227450   3.034   1.759   1.334
 8851SOL     OW27451   0.261   5.012   3.309
 8851SOL    HW127452   0.352   5.018   3.269
 8851SOL    HW227453   0.260   5.060   3.397
 8852SOL     OW27454   5.379   2.139   5.724
 8852SOL    HW127455   5.356   2.100   5.635
 8852SOL    HW227456   5.307   2.202   5.753
 8853SOL     OW27457   4.438   0.698   5.482
 8853SOL    HW127458   4.514   0.634   5.472
 8853SOL    HW227459   4.354   0.648   5.499
 8854SOL     OW27460   2.051   1.663   6.214
 8854SOL    HW127461   2.033   1.663   6.116
 8854SOL    HW227462   2.013   1.580   6.255
 8855SOL     OW27463   6.105   5.687   6.646
 8855SOL    HW127464   6.168   5.763   6.661
 8855SOL    HW227465   6.156   5.607   6.613
 8856SOL     OW27466   6.037   0.834   5.163
 8856SOL    HW127467   5.982   0.813   5.082
 8856SOL    HW227468   5.978   0.839   5.244
 8857SOL     OW27469   6.430   2.039   4.038
 8857SOL    HW127470   6.449   2.032   4.135
 8857SOL    HW227471   6.332   2.050   4.023
 8858SOL     OW27472   0.693   3.467   6.326
 8858SOL    HW127473   0.763   3.537   6.340
 8858SOL    HW227474   0.632   3.465   6.405
 8859SOL     OW27475   1.597   5.724   5.672
 8859SOL    HW127476   1.634   5.736   5.764
 8859SOL    HW227477   1.647   5.784   5.609
 8860SOL     OW27478   1.326   2.071   2.837
 8860SOL    HW127479   1.313   1.976   2.806
 8860SOL    HW227480   1.260   2.091   2.909
 8861SOL     OW27481   4.247   3.629   0.360
 8861SOL    HW127482   4.297   3.657   0.441
 8861SOL    HW227483   4.299   3.654   0.278
 8862SOL     OW27484   5.727   1.396   4.501
 8862SOL    HW127485   5.731   1.361   4.594
 8862SOL    HW227486   5.721   1.496   4.502
 8863SOL     OW27487   2.117   5.677   4.989
 8863SOL    HW127488   2.181   5.753   4.980
 8863SOL    HW227489   2.028   5.712   5.019
 8864SOL     OW27490   1.695   2.828   6.541
 8864SOL    HW127491   1.653   2.914   6.569
 8864SOL    HW227492   1.702   2.825   6.441
 8865SOL     OW27493   2.748   1.965   6.000
 8865SOL    HW127494   2.736   1.870   6.026
 8865SOL    HW227495   2.659   2.011   5.999
 8866SOL     OW27496   3.539   6.458   3.740
 8866SOL    HW127497   3.581   6.455   3.649
 8866SOL    HW227498   3.475   6.381   3.750
 8867SOL     OW27499   6.380   2.226   3.725
 8867SOL    HW127500   6.336   2.292   3.664
 8867SOL    HW227501   6.414   2.149   3.672
 8868SOL     OW27502   4.750   4.292   0.306
 8868SOL    HW127503   4.750   4.361   0.378
 8868SOL    HW227504   4.700   4.326   0.227
 8869SOL     OW27505   4.873   3.096   3.376
 8869SOL    HW127506   4.802   3.041   3.420
 8869SOL    HW227507   4.859   3.096   3.277
 8870SOL     OW27508   4.365   1.262   0.642
 8870SOL    HW127509   4.341   1.292   0.549
 8870SOL    HW227510   4.401   1.339   0.694
 8871SOL     OW27511   2.296   1.908   3.463
 8871SOL    HW127512   2.334   1.816   3.477
 8871SOL    HW227513   2.239   1.909   3.381
 8872SOL     OW27514   1.215   3.874   4.594
 8872SOL    HW127515   1.157   3.934   4.539
 8872SOL    HW227516   1.285   3.928   4.641
 8873SOL     OW27517   0.201   5.211   4.547
 8873SOL    HW127518   0.214   5.122   4.504
 8873SOL    HW227519   0.273   5.226   4.615
 8874SOL     OW27520   2.559   0.372   0.825
 8874SOL    HW127521   2.639   0.369   0.884
 8874SOL    HW227522   2.476   0.387   0.880
 8875SOL     OW27523   1.736   2.793   4.232
 8875SOL    HW127524   1.729   2.805   4.331
 8875SOL    HW227525   1.825   2.755   4.209
 8876SOL     OW27526   0.817   0.421   4.859
 8876SOL    HW127527   0.767   0.352   4.911
 8876SOL    HW227528   0.896   0.379   4.814
 8877SOL     OW27529   3.007   0.221   4.733
 8877SOL    HW127530   3.101   0.210   4.699
 8877SOL    HW227531   2.982   0.318   4.731
 8878SOL     OW27532   0.187   4.110   6.914
 8878SOL    HW127533   0.101   4.153   6.886
 8878SOL    HW227534   0.184   4.012   6.891
 8879SOL     OW27535   5.675   6.512   6.459
 8879SOL    HW127536   5.768   6.474   6.455
 8879SOL    HW227537   5.663   6.563   6.545
 8880SOL     OW27538   6.680   4.933   4.436
 8880SOL    HW127539   6.629   4.847   4.428
 8880SOL    HW227540   6.713   4.943   4.530
 8881SOL     OW27541   6.995   1.505   1.506
 8881SOL    HW127542   0.001   1.590   1.549
 8881SOL    HW227543   6.903   1.484   1.538
 8882SOL     OW27544   5.367   1.832   6.874
 8882SOL    HW127545   5.364   1.743   6.920
 8882SOL    HW227546   5.406   1.822   6.783
 8883SOL     OW27547   6.686   0.704   5.622
 8883SOL    HW127548   6.644   0.688   5.533
 8883SOL    HW227549   6.768   0.647   5.631
 8884SOL     OW27550   6.187   0.408   6.309
 8884SOL    HW127551   6.177   0.431   6.212
 8884SOL    HW227552   6.182   0.309   6.321
 8885SOL     OW27553   5.508   3.626   1.769
 8885SOL    HW127554   5.458   3.569   1.834
 8885SOL    HW227555   5.444   3.681   1.716
 8886SOL     OW27556   3.159   6.771   5.787
 8886SOL    HW127557   3.111   6.753   5.701
 8886SOL    HW227558   3.236   6.708   5.796
 8887SOL     OW27559   2.728   0.687   0.870
 8887SOL    HW127560   2.637   0.661   0.837
 8887SOL    HW227561   2.721   0.765   0.931
 8888SOL     OW27562   2.880   1.764   1.861
 8888SOL    HW127563   2.902   1.826   1.786
 8888SOL    HW227564   2.955   1.700   1.874
 8889SOL     OW27565   4.168   6.980   4.519
 8889SOL    HW127566   4.073   6.961   4.494
 8889SOL    HW227567   4.207   6.900   4.566
 8890SOL     OW27568   0.399   5.290   4.772
 8890SOL    HW127569   0.464   5.344   4.718
 8890SOL    HW227570   0.437   5.275   4.864
 8891SOL     OW27571   5.083   2.754   6.380
 8891SOL    HW127572   5.133   2.798   6.455
 8891SOL    HW227573   5.114   2.660   6.370
 8892SOL     OW27574   1.990   0.250   2.933
 8892SOL    HW127575   2.087   0.268   2.947
 8892SOL    HW227576   1.957   0.189   3.005
 8893SOL     OW27577   0.420   1.594   0.867
 8893SOL    HW127578   0.353   1.667   0.882
 8893SOL    HW227579   0.380   1.507   0.894
 8894SOL     OW27580   4.185   2.638   6.326
 8894SOL    HW127581   4.192   2.538   6.336
 8894SOL    HW227582   4.135   2.676   6.404
 8895SOL     OW27583   0.601   6.706   2.089
 8895SOL    HW127584   0.620   6.711   2.187
 8895SOL    HW227585   0.505   6.727   2.072
 8896SOL     OW27586   1.950   4.032   4.479
 8896SOL    HW127587   1.972   3.956   4.540
 8896SOL    HW227588   1.892   3.999   4.405
 8897SOL     OW27589   1.755   1.600   1.506
 8897SOL    HW127590   1.846   1.625   1.538
 8897SOL    HW227591   1.760   1.565   1.413
 8898SOL     OW27592   5.999   3.832   4.312
 8898SOL    HW127593   5.928   3.822   4.382
 8898SOL    HW227594   6.070   3.763   4.326
 8899SOL     OW27595   1.658   4.868   0.524
 8899SOL    HW127596   1.568   4.890   0.485
 8899SOL    HW227597   1.692   4.784   0.482
 8900SOL     OW27598   4.906   2.347   3.125
 8900SOL    HW127599   4.976   2.301   3.070
 8900SOL    HW227600   4.865   2.281   3.188
 8901SOL     OW27601   1.229   0.377   2.736
 8901SOL    HW127602   1.201   0.391   2.641
 8901SOL    HW227603   1.328   0.378   2.743
 8902SOL     OW27604   1.439   5.489   6.095
 8902SOL    HW127605   1.347   5.515   6.124
 8902SOL    HW227606   1.432   5.422   6.021
 8903SOL     OW27607   1.857   1.820   3.892
 8903SOL    HW127608   1.794   1.743   3.890
 8903SOL    HW227609   1.916   1.817   3.812
 8904SOL     OW27610   0.369   6.230   3.715
 8904SOL    HW127611   0.449   6.287   3.701
 8904SOL    HW227612   0.361   6.163   3.641
 8905SOL     OW27613   2.348   3.341   5.503
 8905SOL    HW127614   2.265   3.395   5.490
 8905SOL    HW227615   2.366   3.330   5.601
 8906SOL     OW27616   6.573   6.399   5.693
 8906SOL    HW127617   6.526   6.456   5.761
 8906SOL    HW227618   6.618   6.322   5.739
 8907SOL     OW27619   3.292   2.858   5.147
 8907SOL    HW127620   3.262   2.791   5.215
 8907SOL    HW227621   3.229   2.936   5.149
 8908SOL     OW27622   1.474   2.228   1.430
 8908SOL    HW127623   1.455   2.326   1.424
 8908SOL    HW227624   1.562   2.214   1.474
 8909SOL     OW27625   2.120   0.995   6.748
 8909SOL    HW127626   2.212   0.956   6.747
 8909SOL    HW227627   2.062   0.943   6.811
 8910SOL     OW27628   2.818   3.466   6.801
 8910SOL    HW127629   2.782   3.405   6.871
 8910SOL    HW227630   2.768   3.452   6.716
 8911SOL     OW27631   3.458   2.111   4.628
 8911SOL    HW127632   3.411   2.132   4.542
 8911SOL    HW227633   3.548   2.073   4.608
 8912SOL     OW27634   4.703   1.821   6.086
 8912SOL    HW127635   4.706   1.903   6.030
 8912SOL    HW227636   4.702   1.740   6.028
 8913SOL     OW27637   5.043   4.214   1.512
 8913SOL    HW127638   4.981   4.148   1.469
 8913SOL    HW227639   4.992   4.296   1.537
 8914SOL     OW27640   3.321   1.868   4.998
 8914SOL    HW127641   3.322   1.769   5.007
 8914SOL    HW227642   3.361   1.910   5.080
 8915SOL     OW27643   1.378   3.475   2.810
 8915SOL    HW127644   1.334   3.546   2.754
 8915SOL    HW227645   1.389   3.508   2.903
 8916SOL     OW27646   6.632   4.086   2.800
 8916SOL    HW127647   6.574   4.166   2.787
 8916SOL    HW227648   6.675   4.090   2.890
 8917SOL     OW27649   6.240   5.957   0.101
 8917SOL    HW127650   6.174   5.952   0.177
 8917SOL    HW227651   6.212   5.894   0.028
 8918SOL     OW27652   5.414   5.283   6.342
 8918SOL    HW127653   5.428   5.276   6.441
 8918SOL    HW227654   5.455   5.368   6.309
 8919SOL     OW27655   3.443   5.123   1.480
 8919SOL    HW127656   3.408   5.162   1.395
 8919SOL    HW227657   3.371   5.070   1.525
 8920SOL     OW27658   6.301   5.330   5.682
 8920SOL    HW127659   6.214   5.324   5.732
 8920SOL    HW227660   6.372   5.283   5.733
 8921SOL     OW27661   1.101   0.797   3.708
 8921SOL    HW127662   1.017   0.752   3.679
 8921SOL    HW227663   1.139   0.751   3.788
 8922SOL     OW27664   1.292   4.414   0.772
 8922SOL    HW127665   1.295   4.324   0.729
 8922SOL    HW227666   1.340   4.480   0.713
 8923SOL     OW27667   2.127   4.373   6.428
 8923SOL    HW127668   2.064   4.329   6.364
 8923SOL    HW227669   2.089   4.370   6.520
 8924SOL     OW27670   3.106   5.357   5.217
 8924SOL    HW127671   3.024   5.367   5.274
 8924SOL    HW227672   3.087   5.388   5.125
 8925SOL     OW27673   6.974   0.260   2.661
 8925SOL    HW127674   0.045   0.280   2.654
 8925SOL    HW227675   6.921   0.344   2.654
 8926SOL     OW27676   5.680   2.400   1.317
 8926SOL    HW127677   5.587   2.393   1.352
 8926SOL    HW227678   5.681   2.457   1.235
 8927SOL     OW27679   2.215   2.499   5.186
 8927SOL    HW127680   2.242   2.533   5.096
 8927SOL    HW227681   2.294   2.460   5.233
 8928SOL     OW27682   0.553   6.957   5.588
 8928SOL    HW127683   0.646   6.992   5.585
 8928SOL    HW227684   0.538   6.907   5.673
 8929SOL     OW27685   0.037   3.706   3.833
 8929SOL    HW127686   0.123   3.654   3.837
 8929SOL    HW227687   0.024   3.755   3.919
 8930SOL     OW27688   1.407   4.558   4.553
 8930SOL    HW127689   1.382   4.649   4.588
 8930SOL    HW227690   1.338   4.491   4.580
 8931SOL     OW27691   4.446   1.560   1.133
 8931SOL    HW127692   4.491   1.597   1.052
 8931SOL    HW227693   4.516   1.527   1.197
 8932SOL     OW27694   6.616   0.420   6.590
 8932SOL    HW127695   6.686   0.466   6.536
 8932SOL    HW227696   6.562   0.360   6.532
 8933SOL     OW27697   1.644   0.531   4.897
 8933SOL    HW127698   1.649   0.434   4.921
 8933SOL    HW227699   1.696   0.584   4.963
 8934SOL     OW27700   3.556   5.409   2.641
 8934SOL    HW127701   3.474   5.400   2.585
 8934SOL    HW227702   3.540   5.475   2.714
 8935SOL     OW27703   4.600   2.543   2.767
 8935SOL    HW127704   4.667   2.470   2.754
 8935SOL    HW227705   4.585   2.590   2.679
 8936SOL     OW27706   0.558   5.328   1.724
 8936SOL    HW127707   0.573   5.268   1.645
 8936SOL    HW227708   0.646   5.349   1.767
 8937SOL     OW27709   6.713   6.711   3.843
 8937SOL    HW127710   6.656   6.740   3.920
 8937SOL    HW227711   6.788   6.777   3.830
 8938SOL     OW27712   6.601   1.097   0.497
 8938SOL    HW127713   6.643   1.086   0.406
 8938SOL    HW227714   6.525   1.032   0.506
 8939SOL     OW27715   0.370   2.770   3.608
 8939SOL    HW127716   0.426   2.700   3.563
 8939SOL    HW227717   0.395   2.860   3.571
 8940SOL     OW27718   6.708   3.254   1.264
 8940SOL    HW127719   6.805   3.244   1.285
 8940SOL    HW227720   6.659   3.282   1.347
 8941SOL     OW27721   5.045   2.373   1.494
 8941SOL    HW127722   5.078   2.465   1.514
 8941SOL    HW227723   5.085   2.308   1.559
 8942SOL     OW27724   5.845   4.289   3.746
 8942SOL    HW127725   5.910   4.228   3.791
 8942SOL    HW227726   5.895   4.357   3.692
 8943SOL     OW27727   5.102   3.925   6.894
 8943SOL    HW127728   5.049   3.924   6.979
 8943SOL    HW227729   5.199   3.931   6.916
 8944SOL     OW27730   4.827   5.485   4.214
 8944SOL    HW127731   4.791   5.539   4.139
 8944SOL    HW227732   4.864   5.546   4.284
 8945SOL     OW27733   6.025   4.062   5.600
 8945SOL    HW127734   5.947   4.002   5.616
 8945SOL    HW227735   6.109   4.019   5.634
 8946SOL     OW27736   5.382   0.780   4.430
 8946SOL    HW127737   5.321   0.855   4.456
 8946SOL    HW227738   5.405   0.726   4.511
 8947SOL     OW27739   1.829   5.155   6.127
 8947SOL    HW127740   1.757   5.186   6.189
 8947SOL    HW227741   1.803   5.174   6.032
 8948SOL     OW27742   6.327   1.016   3.305
 8948SOL    HW127743   6.315   0.920   3.277
 8948SOL    HW227744   6.239   1.054   3.331
 8949SOL     OW27745   3.061   6.174   0.538
 8949SOL    HW127746   3.025   6.081   0.537
 8949SOL    HW227747   3.013   6.229   0.470
 8950SOL     OW27748   4.860   4.052   1.381
 8950SOL    HW127749   4.833   4.095   1.295
 8950SOL    HW227750   4.905   3.965   1.362
 8951SOL     OW27751   1.737   1.810   4.657
 8951SOL    HW127752   1.778   1.720   4.641
 8951SOL    HW227753   1.741   1.831   4.755
 8952SOL     OW27754   1.986   4.559   3.766
 8952SOL    HW127755   2.036   4.624   3.709
 8952SOL    HW227756   2.052   4.502   3.816
 8953SOL     OW27757   1.346   5.183   1.828
 8953SOL    HW127758   1.322   5.093   1.866
 8953SOL    HW227759   1.420   5.172   1.761
 8954SOL     OW27760   1.350   5.145   4.759
 8954SOL    HW127761   1.400   5.085   4.821
 8954SOL    HW227762   1.415   5.207   4.714
 8955SOL     OW27763   5.595   2.501   3.941
 8955SOL    HW127764   5.652   2.419   3.936
 8955SOL    HW227765   5.609   2.557   3.859
 8956SOL     OW27766   0.870   5.593   5.823
 8956SOL    HW127767   0.782   5.584   5.776
 8956SOL    HW227768   0.900   5.689   5.818
 8957SOL     OW27769   0.854   5.642   2.494
 8957SOL    HW127770   0.811   5.572   2.437
 8957SOL    HW227771   0.917   5.598   2.558
 8958SOL     OW27772   1.698   4.119   5.250
 8958SOL    HW127773   1.770   4.070   5.298
 8958SOL    HW227774   1.692   4.087   5.156
 8959SOL     OW27775   0.116   3.091   2.548
 8959SOL    HW127776   0.186   3.154   2.582
 8959SOL    HW227777   0.042   3.085   2.615
 8960SOL     OW27778   5.342   4.201   3.916
 8960SOL    HW127779   5.437   4.227   3.902
 8960SOL    HW227780   5.306   4.246   3.998
 8961SOL     OW27781   3.094   6.596   5.069
 8961SOL    HW127782   3.019   6.584   5.134
 8961SOL    HW227783   3.178   6.556   5.107
 8962SOL     OW27784   0.780   5.876   1.482
 8962SOL    HW127785   0.793   5.935   1.561
 8962SOL    HW227786   0.708   5.809   1.502
 8963SOL     OW27787   3.377   5.733   4.567
 8963SOL    HW127788   3.289   5.697   4.599
 8963SOL    HW227789   3.408   5.681   4.487
 8964SOL     OW27790   0.220   2.904   4.448
 8964SOL    HW127791   0.235   2.901   4.349
 8964SOL    HW227792   0.275   2.833   4.491
 8965SOL     OW27793   4.451   5.351   0.520
 8965SOL    HW127794   4.523   5.407   0.561
 8965SOL    HW227795   4.366   5.404   0.514
 8966SOL     OW27796   4.787   5.327   6.431
 8966SOL    HW127797   4.847   5.254   6.399
 8966SOL    HW227798   4.829   5.416   6.411
 8967SOL     OW27799   2.994   0.017   3.122
 8967SOL    HW127800   2.935   0.034   3.043
 8967SOL    HW227801   2.949   6.980   3.185
 8968SOL     OW27802   3.249   4.883   2.249
 8968SOL    HW127803   3.279   4.881   2.344
 8968SOL    HW227804   3.320   4.842   2.191
 8969SOL     OW27805   0.116   1.121   3.202
 8969SOL    HW127806   0.164   1.175   3.132
 8969SOL    HW227807   0.052   1.179   3.252
 8970SOL     OW27808   2.046   0.811   5.385
 8970SOL    HW127809   2.004   0.817   5.476
 8970SOL    HW227810   2.106   0.889   5.370
 8971SOL     OW27811   4.742   5.451   0.712
 8971SOL    HW127812   4.802   5.530   0.704
 8971SOL    HW227813   4.733   5.406   0.623
 8972SOL     OW27814   6.431   4.661   0.822
 8972SOL    HW127815   6.359   4.598   0.792
 8972SOL    HW227816   6.402   4.755   0.805
 8973SOL     OW27817   0.987   2.816   2.361
 8973SOL    HW127818   0.992   2.775   2.270
 8973SOL    HW227819   0.971   2.743   2.429
 8974SOL     OW27820   1.850   4.219   4.178
 8974SOL    HW127821   1.848   4.315   4.150
 8974SOL    HW227822   1.942   4.196   4.212
 8975SOL     OW27823   0.715   6.724   6.212
 8975SOL    HW127824   0.807   6.687   6.218
 8975SOL    HW227825   0.676   6.703   6.122
 8976SOL     OW27826   6.716   6.781   2.051
 8976SOL    HW127827   6.760   6.752   1.965
 8976SOL    HW227828   6.630   6.827   2.031
 8977SOL     OW27829   0.169   5.125   6.094
 8977SOL    HW127830   0.243   5.181   6.057
 8977SOL    HW227831   0.205   5.037   6.125
 8978SOL     OW27832   5.604   5.290   5.818
 8978SOL    HW127833   5.628   5.193   5.822
 8978SOL    HW227834   5.631   5.327   5.729
 8979SOL     OW27835   0.691   5.127   5.912
 8979SOL    HW127836   0.757   5.059   5.946
 8979SOL    HW227837   0.652   5.095   5.826
 8980SOL     OW27838   3.485   0.805   4.728
 8980SOL    HW127839   3.471   0.708   4.748
 8980SOL    HW227840   3.401   0.844   4.690
 8981SOL     OW27841   3.814   3.031   6.952
 8981SOL    HW127842   3.855   3.050   0.015
 8981SOL    HW227843   3.767   2.943   6.955
 8982SOL     OW27844   0.689   1.342   1.299
 8982SOL    HW127845   0.598   1.319   1.265
 8982SOL    HW227846   0.681   1.409   1.373
 8983SOL     OW27847   1.268   0.152   2.267
 8983SOL    HW127848   1.294   0.200   2.183
 8983SOL    HW227849   1.259   0.054   2.248
 8984SOL     OW27850   6.097   0.123   4.275
 8984SOL    HW127851   6.058   0.117   4.183
 8984SOL    HW227852   6.103   0.031   4.314
 8985SOL     OW27853   4.459   2.891   0.832
 8985SOL    HW127854   4.549   2.916   0.870
 8985SOL    HW227855   4.468   2.809   0.777
 8986SOL     OW27856   0.351   5.458   0.637
 8986SOL    HW127857   0.346   5.365   0.674
 8986SOL    HW227858   0.293   5.518   0.692
 8987SOL     OW27859   2.164   0.181   1.301
 8987SOL    HW127860   2.145   0.274   1.269
 8987SOL    HW227861   2.079   0.129   1.303
 8988SOL     OW27862   0.836   5.488   1.538
 8988SOL    HW127863   0.894   5.570   1.538
 8988SOL    HW227864   0.749   5.509   1.583
 8989SOL     OW27865   5.007   1.722   1.966
 8989SOL    HW127866   4.988   1.698   2.061
 8989SOL    HW227867   5.096   1.767   1.960
 8990SOL     OW27868   3.792   0.442   1.977
 8990SOL    HW127869   3.732   0.366   1.955
 8990SOL    HW227870   3.797   0.454   2.076
 8991SOL     OW27871   2.205   2.509   0.155
 8991SOL    HW127872   2.224   2.443   0.082
 8991SOL    HW227873   2.260   2.591   0.141
 8992SOL     OW27874   0.325   3.349   0.313
 8992SOL    HW127875   0.415   3.342   0.271
 8992SOL    HW227876   0.306   3.444   0.337
 8993SOL     OW27877   5.696   3.032   3.842
 8993SOL    HW127878   5.700   3.132   3.837
 8993SOL    HW227879   5.621   3.003   3.901
 8994SOL     OW27880   0.415   5.171   3.131
 8994SOL    HW127881   0.381   5.091   3.082
 8994SOL    HW227882   0.407   5.252   3.072
 8995SOL     OW27883   1.909   3.789   4.655
 8995SOL    HW127884   1.869   3.751   4.571
 8995SOL    HW227885   1.959   3.718   4.704
 8996SOL     OW27886   0.102   4.127   2.569
 8996SOL    HW127887   0.178   4.147   2.631
 8996SOL    HW227888   0.137   4.079   2.488
 8997SOL     OW27889   4.591   1.850   5.551
 8997SOL    HW127890   4.554   1.908   5.479
 8997SOL    HW227891   4.683   1.821   5.527
 8998SOL     OW27892   1.433   2.442   6.062
 8998SOL    HW127893   1.441   2.537   6.032
 8998SOL    HW227894   1.494   2.426   6.140
 8999SOL     OW27895   6.216   1.211   4.474
 8999SOL    HW127896   6.272   1.290   4.448
 8999SOL    HW227897   6.119   1.232   4.460
 9000SOL     OW27898   3.147   3.759   0.348
 9000SOL    HW127899   3.050   3.769   0.324
 9000SOL    HW227900   3.183   3.848   0.374
 9001SOL     OW27901   1.503   5.222   3.716
 9001SOL    HW127902   1.587   5.244   3.765
 9001SOL    HW227903   1.442   5.301   3.717
 9002SOL     OW27904   5.719   4.200   5.849
 9002SOL    HW127905   5.800   4.256   5.867
 9002SOL    HW227906   5.650   4.217   5.920
 9003SOL     OW27907   5.726   2.478   6.896
 9003SOL    HW127908   5.716   2.499   6.799
 9003SOL    HW227909   5.723   2.379   6.909
 9004SOL     OW27910   4.535   6.514   1.323
 9004SOL    HW127911   4.540   6.603   1.368
 9004SOL    HW227912   4.590   6.448   1.374
 9005SOL     OW27913   5.241   1.878   3.375
 9005SOL    HW127914   5.248   1.853   3.279
 9005SOL    HW227915   5.319   1.841   3.425
 9006SOL     OW27916   1.073   4.997   1.220
 9006SOL    HW127917   0.993   5.056   1.227
 9006SOL    HW227918   1.149   5.048   1.180
 9007SOL     OW27919   2.873   6.834   4.118
 9007SOL    HW127920   2.923   6.767   4.063
 9007SOL    HW227921   2.906   6.926   4.097
 9008SOL     OW27922   6.960   4.501   2.418
 9008SOL    HW127923   6.865   4.527   2.439
 9008SOL    HW227924   6.982   4.415   2.465
 9009SOL     OW27925   2.890   6.343   0.740
 9009SOL    HW127926   2.934   6.433   0.743
 9009SOL    HW227927   2.958   6.272   0.763
 9010SOL     OW27928   1.131   6.042   5.438
 9010SOL    HW127929   1.095   5.961   5.391
 9010SOL    HW227930   1.139   6.024   5.535
 9011SOL     OW27931   4.752   1.931   0.890
 9011SOL    HW127932   4.720   1.941   0.985
 9011SOL    HW227933   4.838   1.981   0.879
 9012SOL     OW27934   0.144   5.134   1.185
 9012SOL    HW127935   0.206   5.140   1.263
 9012SOL    HW227936   0.064   5.192   1.201
 9013SOL     OW27937   6.113   5.829   3.626
 9013SOL    HW127938   6.209   5.828   3.655
 9013SOL    HW227939   6.104   5.781   3.539
 9014SOL     OW27940   2.855   0.998   0.723
 9014SOL    HW127941   2.916   1.016   0.800
 9014SOL    HW227942   2.762   1.029   0.745
 9015SOL     OW27943   0.323   0.744   6.113
 9015SOL    HW127944   0.414   0.779   6.092
 9015SOL    HW227945   0.254   0.811   6.086
 9016SOL     OW27946   5.925   5.685   6.414
 9016SOL    HW127947   5.961   5.612   6.356
 9016SOL    HW227948   5.988   5.702   6.489
 9017SOL     OW27949   6.794   2.328   3.693
 9017SOL    HW127950   6.841   2.264   3.633
 9017SOL    HW227951   6.733   2.278   3.754
 9018SOL     OW27952   3.762   2.419   5.415
 9018SOL    HW127953   3.665   2.414   5.392
 9018SOL    HW227954   3.786   2.511   5.444
 9019SOL     OW27955   2.255   0.044   0.458
 9019SOL    HW127956   2.309   0.096   0.524
 9019SOL    HW227957   2.298   0.050   0.368
 9020SOL     OW27958   0.783   4.583   2.989
 9020SOL    HW127959   0.796   4.664   3.046
 9020SOL    HW227960   0.766   4.504   3.048
 9021SOL     OW27961   6.497   5.580   5.358
 9021SOL    HW127962   6.487   5.661   5.416
 9021SOL    HW227963   6.407   5.551   5.326
 9022SOL     OW27964   3.236   0.853   6.941
 9022SOL    HW127965   3.213   0.804   7.026
 9022SOL    HW227966   3.163   0.839   6.874
 9023SOL     OW27967   3.671   3.178   3.311
 9023SOL    HW127968   3.684   3.272   3.280
 9023SOL    HW227969   3.639   3.122   3.235
 9024SOL     OW27970   2.009   6.575   6.609
 9024SOL    HW127971   2.098   6.532   6.595
 9024SOL    HW227972   1.977   6.555   6.702
 9025SOL     OW27973   5.785   5.060   1.191
 9025SOL    HW127974   5.839   5.135   1.229
 9025SOL    HW227975   5.689   5.072   1.214
 9026SOL     OW27976   3.395   2.840   4.883
 9026SOL    HW127977   3.328   2.810   4.950
 9026SOL    HW227978   3.472   2.884   4.929
 9027SOL     OW27979   2.488   2.676   3.966
 9027SOL    HW127980   2.563   2.726   3.924
 9027SOL    HW227981   2.521   2.586   3.995
 9028SOL     OW27982   3.030   4.837   5.066
 9028SOL    HW127983   3.052   4.827   5.163
 9028SOL    HW227984   2.962   4.769   5.040
 9029SOL     OW27985   4.931   6.318   3.071
 9029SOL    HW127986   4.856   6.268   3.114
 9029SOL    HW227987   4.904   6.347   2.979
 9030SOL     OW27988   2.231   0.891   2.224
 9030SOL    HW127989   2.272   0.886   2.133
 9030SOL    HW227990   2.159   0.960   2.224
 9031SOL     OW27991   2.811   6.137   6.342
 9031SOL    HW127992   2.793   6.193   6.423
 9031SOL    HW227993   2.905   6.103   6.345
 9032SOL     OW27994   2.421   1.633   1.735
 9032SOL    HW127995   2.347   1.688   1.775
 9032SOL    HW227996   2.496   1.625   1.800
 9033SOL     OW27997   1.703   3.458   2.963
 9033SOL    HW127998   1.615   3.471   2.918
 9033SOL    HW227999   1.774   3.507   2.913
 9034SOL     OW28000   3.457   6.736   5.727
 9034SOL    HW128001   3.485   6.642   5.749
 9034SOL    HW228002   3.504   6.800   5.787
 9035SOL     OW28003   0.138   1.240   4.244
 9035SOL    HW128004   0.070   1.251   4.172
 9035SOL    HW228005   0.221   1.201   4.206
 9036SOL     OW28006   0.817   2.346   5.479
 9036SOL    HW128007   0.896   2.296   5.516
 9036SOL    HW228008   0.837   2.444   5.477
 9037SOL     OW28009   2.206   4.986   6.341
 9037SOL    HW128010   2.113   4.973   6.305
 9037SOL    HW228011   2.268   4.920   6.298
 9038SOL     OW28012   4.775   6.240   5.796
 9038SOL    HW128013   4.740   6.213   5.706
 9038SOL    HW228014   4.821   6.329   5.788
 9039SOL     OW28015   2.197   5.768   5.290
 9039SOL    HW128016   2.248   5.727   5.366
 9039SOL    HW228017   2.185   5.701   5.217
 9040SOL     OW28018   1.791   1.417   2.634
 9040SOL    HW128019   1.857   1.349   2.602
 9040SOL    HW228020   1.705   1.371   2.658
 9041SOL     OW28021   1.470   3.412   0.916
 9041SOL    HW128022   1.523   3.399   1.000
 9041SOL    HW228023   1.424   3.326   0.893
 9042SOL     OW28024   2.542   4.765   3.240
 9042SOL    HW128025   2.498   4.698   3.180
 9042SOL    HW228026   2.474   4.802   3.303
 9043SOL     OW28027   0.566   2.522   5.530
 9043SOL    HW128028   0.616   2.435   5.537
 9043SOL    HW228029   0.624   2.597   5.561
 9044SOL     OW28030   6.273   0.282   0.974
 9044SOL    HW128031   6.338   0.230   1.030
 9044SOL    HW228032   6.323   0.345   0.915
 9045SOL     OW28033   2.865   6.868   3.288
 9045SOL    HW128034   2.807   6.800   3.242
 9045SOL    HW228035   2.885   6.837   3.381
 9046SOL     OW28036   3.254   4.124   4.866
 9046SOL    HW128037   3.215   4.156   4.952
 9046SOL    HW228038   3.191   4.144   4.791
 9047SOL     OW28039   1.056   4.500   4.666
 9047SOL    HW128040   1.025   4.564   4.595
 9047SOL    HW228041   1.060   4.547   4.754
 9048SOL     OW28042   0.788   3.420   4.450
 9048SOL    HW128043   0.689   3.418   4.437
 9048SOL    HW228044   0.835   3.411   4.362
 9049SOL     OW28045   5.308   5.771   6.355
 9049SOL    HW128046   5.407   5.768   6.372
 9049SOL    HW228047   5.290   5.830   6.277
 9050SOL     OW28048   6.873   4.950   6.372
 9050SOL    HW128049   6.857   4.929   6.468
 9050SOL    HW228050   6.957   4.905   6.341
 9051SOL     OW28051   5.506   6.079   6.563
 9051SOL    HW128052   5.409   6.061   6.579
 9051SOL    HW228053   5.560   6.002   6.598
 9052SOL     OW28054   2.329   5.200   4.451
 9052SOL    HW128055   2.279   5.183   4.537
 9052SOL    HW228056   2.371   5.115   4.421
 9053SOL     OW28057   2.589   2.448   4.074
 9053SOL    HW128058   2.678   2.404   4.063
 9053SOL    HW228059   2.518   2.378   4.082
 9054SOL     OW28060   2.456   0.392   1.509
 9054SOL    HW128061   2.445   0.462   1.579
 9054SOL    HW228062   2.488   0.435   1.424
 9055SOL     OW28063   0.980   2.469   3.780
 9055SOL    HW128064   0.957   2.373   3.761
 9055SOL    HW228065   1.070   2.472   3.825
 9056SOL     OW28066   5.442   0.469   3.227
 9056SOL    HW128067   5.423   0.482   3.324
 9056SOL    HW228068   5.467   0.374   3.211
 9057SOL     OW28069   5.777   5.645   6.093
 9057SOL    HW128070   5.832   5.705   6.151
 9057SOL    HW228071   5.724   5.583   6.150
 9058SOL     OW28072   1.677   2.792   4.811
 9058SOL    HW128073   1.746   2.734   4.854
 9058SOL    HW228074   1.704   2.888   4.818
 9059SOL     OW28075   6.832   1.839   2.804
 9059SOL    HW128076   6.774   1.920   2.795
 9059SOL    HW228077   6.786   1.772   2.863
 9060SOL     OW28078   0.408   3.613   1.601
 9060SOL    HW128079   0.490   3.612   1.657
 9060SOL    HW228080   0.365   3.523   1.602
 9061SOL     OW28081   5.278   5.370   1.794
 9061SOL    HW128082   5.224   5.304   1.742
 9061SOL    HW228083   5.354   5.323   1.839
 9062SOL     OW28084   0.531   5.174   3.379
 9062SOL    HW128085   0.480   5.207   3.458
 9062SOL    HW228086   0.478   5.188   3.296
 9063SOL     OW28087   3.287   0.725   2.448
 9063SOL    HW128088   3.332   0.796   2.502
 9063SOL    HW228089   3.283   0.754   2.352
 9064SOL     OW28090   0.627   4.194   3.411
 9064SOL    HW128091   0.672   4.186   3.500
 9064SOL    HW228092   0.688   4.159   3.340
 9065SOL     OW28093   2.523   5.204   5.200
 9065SOL    HW128094   2.537   5.105   5.202
 9065SOL    HW228095   2.571   5.246   5.277
 9066SOL     OW28096   5.157   4.925   5.840
 9066SOL    HW128097   5.200   5.015   5.831
 9066SOL    HW228098   5.082   4.918   5.774
 9067SOL     OW28099   6.928   0.353   4.898
 9067SOL    HW128100   6.957   0.442   4.861
 9067SOL    HW228101   6.934   0.356   4.998
 9068SOL     OW28102   5.026   6.771   4.486
 9068SOL    HW128103   5.092   6.772   4.561
 9068SOL    HW228104   5.022   6.679   4.447
 9069SOL     OW28105   4.700   2.066   2.051
 9069SOL    HW128106   4.634   2.134   2.021
 9069SOL    HW228107   4.679   2.036   2.144
 9070SOL     OW28108   1.465   1.924   5.552
 9070SOL    HW128109   1.489   1.873   5.634
 9070SOL    HW228110   1.486   2.021   5.565
 9071SOL     OW28111   5.185   1.338   5.718
 9071SOL    HW128112   5.208   1.263   5.780
 9071SOL    HW228113   5.087   1.355   5.721
 9072SOL     OW28114   5.257   0.458   2.567
 9072SOL    HW128115   5.179   0.479   2.627
 9072SOL    HW228116   5.332   0.422   2.622
 9073SOL     OW28117   4.289   1.043   6.782
 9073SOL    HW128118   4.322   1.009   6.694
 9073SOL    HW228119   4.352   1.017   6.855
 9074SOL     OW28120   1.214   0.128   1.632
 9074SOL    HW128121   1.207   0.028   1.634
 9074SOL    HW228122   1.302   0.154   1.593
 9075SOL     OW28123   6.931   0.874   1.471
 9075SOL    HW128124   6.879   0.951   1.434
 9075SOL    HW228125   6.944   0.805   1.400
 9076SOL     OW28126   6.405   0.736   1.990
 9076SOL    HW128127   6.404   0.649   1.941
 9076SOL    HW228128   6.375   0.809   1.928
 9077SOL     OW28129   6.079   1.117   6.085
 9077SOL    HW128130   6.172   1.147   6.062
 9077SOL    HW228131   6.013   1.184   6.050
 9078SOL     OW28132   5.565   5.527   0.057
 9078SOL    HW128133   5.580   5.595   0.129
 9078SOL    HW228134   5.478   5.546   0.011
 9079SOL     OW28135   1.299   0.307   5.916
 9079SOL    HW128136   1.304   0.399   5.877
 9079SOL    HW228137   1.247   0.309   6.001
 9080SOL     OW28138   6.586   3.732   1.104
 9080SOL    HW128139   6.598   3.638   1.074
 9080SOL    HW228140   6.595   3.793   1.026
 9081SOL     OW28141   3.662   2.276   0.792
 9081SOL    HW128142   3.673   2.347   0.722
 9081SOL    HW228143   3.593   2.305   0.858
 9082SOL     OW28144   3.192   6.064   5.919
 9082SOL    HW128145   3.156   6.155   5.900
 9082SOL    HW228146   3.190   6.047   6.018
 9083SOL     OW28147   4.449   5.170   6.811
 9083SOL    HW128148   4.502   5.135   6.887
 9083SOL    HW228149   4.441   5.269   6.818
 9084SOL     OW28150   0.563   2.786   5.653
 9084SOL    HW128151   0.652   2.753   5.621
 9084SOL    HW228152   0.551   2.882   5.624
 9085SOL     OW28153   2.713   5.370   0.165
 9085SOL    HW128154   2.694   5.295   0.101
 9085SOL    HW228155   2.810   5.372   0.186
 9086SOL     OW28156   0.014   4.638   0.251
 9086SOL    HW128157   0.086   4.655   0.184
 9086SOL    HW228158   0.039   4.679   0.338
 9087SOL     OW28159   5.956   1.823   1.639
 9087SOL    HW128160   5.872   1.871   1.615
 9087SOL    HW228161   6.030   1.889   1.650
 9088SOL     OW28162   6.199   0.925   1.551
 9088SOL    HW128163   6.163   1.005   1.503
 9088SOL    HW228164   6.260   0.875   1.490
 9089SOL     OW28165   4.640   5.709   3.760
 9089SOL    HW128166   4.566   5.644   3.778
 9089SOL    HW228167   4.694   5.677   3.683
 9090SOL     OW28168   6.023   6.296   4.691
 9090SOL    HW128169   5.966   6.314   4.611
 9090SOL    HW228170   6.021   6.199   4.713
 9091SOL     OW28171   3.638   2.066   0.612
 9091SOL    HW128172   3.729   2.025   0.608
 9091SOL    HW228173   3.641   2.150   0.665
 9092SOL     OW28174   1.490   6.496   5.644
 9092SOL    HW128175   1.407   6.446   5.671
 9092SOL    HW228176   1.493   6.500   5.544
 9093SOL     OW28177   1.668   5.409   0.264
 9093SOL    HW128178   1.731   5.433   0.190
 9093SOL    HW228179   1.575   5.404   0.228
 9094SOL     OW28180   0.006   5.722   2.269
 9094SOL    HW128181   0.065   5.769   2.203
 9094SOL    HW228182   6.937   5.735   2.243
 9095SOL     OW28183   4.468   3.661   6.465
 9095SOL    HW128184   4.463   3.619   6.374
 9095SOL    HW228185   4.511   3.751   6.458
 9096SOL     OW28186   5.804   2.928   2.757
 9096SOL    HW128187   5.737   2.889   2.694
 9096SOL    HW228188   5.801   2.879   2.844
 9097SOL     OW28189   0.787   3.782   6.782
 9097SOL    HW128190   0.753   3.692   6.756
 9097SOL    HW228191   0.852   3.774   6.858
 9098SOL     OW28192   3.927   3.932   2.206
 9098SOL    HW128193   3.851   3.918   2.269
 9098SOL    HW228194   3.934   4.029   2.182
 9099SOL     OW28195   2.760   3.467   0.823
 9099SOL    HW128196   2.856   3.489   0.806
 9099SOL    HW228197   2.719   3.537   0.881
 9100SOL     OW28198   0.641   3.683   1.194
 9100SOL    HW128199   0.580   3.734   1.134
 9100SOL    HW228200   0.727   3.665   1.146
 9101SOL     OW28201   1.497   2.821   2.504
 9101SOL    HW128202   1.476   2.785   2.594
 9101SOL    HW228203   1.547   2.752   2.451
 9102SOL     OW28204   3.710   5.319   1.578
 9102SOL    HW128205   3.763   5.399   1.550
 9102SOL    HW228206   3.613   5.343   1.582
 9103SOL     OW28207   0.342   3.896   0.690
 9103SOL    HW128208   0.349   3.951   0.606
 9103SOL    HW228209   0.255   3.915   0.735
 9104SOL     OW28210   4.508   6.239   1.752
 9104SOL    HW128211   4.593   6.285   1.777
 9104SOL    HW228212   4.488   6.258   1.656
 9105SOL     OW28213   1.571   0.522   6.448
 9105SOL    HW128214   1.567   0.455   6.373
 9105SOL    HW228215   1.479   0.560   6.463
 9106SOL     OW28216   5.840   4.668   0.017
 9106SOL    HW128217   5.753   4.626   0.044
 9106SOL    HW228218   5.903   4.597   7.013
 9107SOL     OW28219   3.584   6.822   6.962
 9107SOL    HW128220   3.561   6.896   7.024
 9107SOL    HW228221   3.509   6.756   6.958
 9108SOL     OW28222   4.992   4.264   5.376
 9108SOL    HW128223   4.903   4.305   5.353
 9108SOL    HW228224   5.064   4.311   5.326
 9109SOL     OW28225   2.620   2.426   3.208
 9109SOL    HW128226   2.695   2.368   3.176
 9109SOL    HW228227   2.539   2.369   3.225
 9110SOL     OW28228   1.892   5.281   3.364
 9110SOL    HW128229   1.798   5.312   3.381
 9110SOL    HW228230   1.953   5.360   3.364
 9111SOL     OW28231   3.467   4.050   1.404
 9111SOL    HW128232   3.399   4.110   1.361
 9111SOL    HW228233   3.559   4.083   1.383
 9112SOL     OW28234   0.663   3.732   3.488
 9112SOL    HW128235   0.566   3.728   3.468
 9112SOL    HW228236   0.713   3.669   3.428
 9113SOL     OW28237   5.211   0.696   0.488
 9113SOL    HW128238   5.135   0.643   0.526
 9113SOL    HW228239   5.221   0.673   0.391
 9114SOL     OW28240   2.405   4.654   2.119
 9114SOL    HW128241   2.320   4.623   2.076
 9114SOL    HW228242   2.481   4.643   2.055
 9115SOL     OW28243   1.003   4.683   4.467
 9115SOL    HW128244   1.095   4.695   4.432
 9115SOL    HW228245   0.973   4.766   4.514
 9116SOL     OW28246   6.854   1.668   6.683
 9116SOL    HW128247   6.775   1.729   6.678
 9116SOL    HW228248   6.882   1.658   6.778
 9117SOL     OW28249   6.382   3.053   5.946
 9117SOL    HW128250   6.376   3.149   5.919
 9117SOL    HW228251   6.304   3.030   6.004
 9118SOL     OW28252   6.483   0.091   1.424
 9118SOL    HW128253   6.484   0.077   1.523
 9118SOL    HW228254   6.415   0.030   1.383
 9119SOL     OW28255   5.504   1.099   2.454
 9119SOL    HW128256   5.532   1.079   2.360
 9119SOL    HW228257   5.481   1.014   2.501
 9120SOL     OW28258   5.614   2.281   5.830
 9120SOL    HW128259   5.566   2.354   5.879
 9120SOL    HW228260   5.550   2.206   5.811
 9121SOL     OW28261   0.765   3.002   5.121
 9121SOL    HW128262   0.859   3.017   5.152
 9121SOL    HW228263   0.712   3.086   5.132
 9122SOL     OW28264   1.612   2.616   2.334
 9122SOL    HW128265   1.689   2.559   2.305
 9122SOL    HW228266   1.551   2.561   2.390
 9123SOL     OW28267   3.303   6.283   5.308
 9123SOL    HW128268   3.341   6.229   5.383
 9123SOL    HW228269   3.217   6.324   5.338
 9124SOL     OW28270   6.211   5.515   5.141
 9124SOL    HW128271   6.223   5.593   5.080
 9124SOL    HW228272   6.238   5.431   5.094
 9125SOL     OW28273   4.815   4.680   3.514
 9125SOL    HW128274   4.770   4.634   3.438
 9125SOL    HW228275   4.828   4.616   3.589
 9126SOL     OW28276   6.132   1.378   2.280
 9126SOL    HW128277   6.201   1.329   2.334
 9126SOL    HW228278   6.171   1.463   2.245
 9127SOL     OW28279   5.600   6.966   6.007
 9127SOL    HW128280   5.580   6.902   6.081
 9127SOL    HW228281   5.672   0.003   6.037
 9128SOL     OW28282   4.253   1.463   5.111
 9128SOL    HW128283   4.181   1.424   5.053
 9128SOL    HW228284   4.220   1.468   5.205
 9129SOL     OW28285   2.205   3.377   0.114
 9129SOL    HW128286   2.183   3.441   0.039
 9129SOL    HW228287   2.128   3.316   0.129
 9130SOL     OW28288   0.031   4.252   6.541
 9130SOL    HW128289   0.057   4.332   6.487
 9130SOL    HW228290   0.091   4.175   6.519
 9131SOL     OW28291   0.350   4.092   5.061
 9131SOL    HW128292   0.396   4.033   4.994
 9131SOL    HW228293   0.290   4.036   5.118
 9132SOL     OW28294   6.897   3.928   3.746
 9132SOL    HW128295   6.923   3.876   3.828
 9132SOL    HW228296   6.926   3.877   3.665
 9133SOL     OW28297   2.681   4.806   0.870
 9133SOL    HW128298   2.722   4.895   0.892
 9133SOL    HW228299   2.686   4.790   0.772
 9134SOL     OW28300   3.303   6.879   0.626
 9134SOL    HW128301   3.328   6.917   0.715
 9134SOL    HW228302   3.363   6.917   0.555
 9135SOL     OW28303   0.191   0.292   2.547
 9135SOL    HW128304   0.263   0.256   2.487
 9135SOL    HW228305   0.222   0.377   2.589
 9136SOL     OW28306   4.854   5.055   5.868
 9136SOL    HW128307   4.907   5.037   5.785
 9136SOL    HW228308   4.868   5.150   5.895
 9137SOL     OW28309   5.862   1.292   1.283
 9137SOL    HW128310   5.904   1.337   1.362
 9137SOL    HW228311   5.885   1.343   1.200
 9138SOL     OW28312   6.517   5.191   5.772
 9138SOL    HW128313   6.602   5.191   5.824
 9138SOL    HW228314   6.534   5.155   5.680
 9139SOL     OW28315   2.439   1.486   5.016
 9139SOL    HW128316   2.517   1.468   5.075
 9139SOL    HW228317   2.463   1.554   4.947
 9140SOL     OW28318   6.422   2.651   2.385
 9140SOL    HW128319   6.356   2.696   2.445
 9140SOL    HW228320   6.379   2.574   2.338
 9141SOL     OW28321   5.594   6.263   6.360
 9141SOL    HW128322   5.625   6.331   6.426
 9141SOL    HW228323   5.546   6.190   6.408
 9142SOL     OW28324   0.021   2.671   5.382
 9142SOL    HW128325   0.026   2.770   5.393
 9142SOL    HW228326   0.069   2.644   5.298
 9143SOL     OW28327   4.521   4.136   0.470
 9143SOL    HW128328   4.598   4.133   0.407
 9143SOL    HW228329   4.448   4.191   0.430
 9144SOL     OW28330   2.362   5.645   6.244
 9144SOL    HW128331   2.412   5.559   6.245
 9144SOL    HW228332   2.407   5.709   6.182
 9145SOL     OW28333   0.131   5.221   0.934
 9145SOL    HW128334   0.151   5.170   1.017
 9145SOL    HW228335   0.041   5.194   0.899
 9146SOL     OW28336   4.985   1.686   1.615
 9146SOL    HW128337   4.941   1.672   1.704
 9146SOL    HW228338   5.083   1.699   1.628
 9147SOL     OW28339   5.772   6.663   4.691
 9147SOL    HW128340   5.790   6.761   4.689
 9147SOL    HW228341   5.839   6.617   4.749
 9148SOL     OW28342   6.125   6.703   1.604
 9148SOL    HW128343   6.208   6.653   1.579
 9148SOL    HW228344   6.046   6.642   1.595
 9149SOL     OW28345   4.980   2.683   4.167
 9149SOL    HW128346   5.023   2.600   4.132
 9149SOL    HW228347   5.000   2.760   4.107
 9150SOL     OW28348   3.964   5.986   3.558
 9150SOL    HW128349   3.913   6.060   3.603
 9150SOL    HW228350   3.926   5.970   3.467
 9151SOL     OW28351   0.940   3.837   3.276
 9151SOL    HW128352   0.958   3.845   3.178
 9151SOL    HW228353   0.932   3.740   3.300
 9152SOL     OW28354   2.513   5.899   3.912
 9152SOL    HW128355   2.513   5.996   3.936
 9152SOL    HW228356   2.522   5.889   3.813
 9153SOL     OW28357   1.588   3.178   0.592
 9153SOL    HW128358   1.549   3.098   0.545
 9153SOL    HW228359   1.675   3.153   0.634
 9154SOL     OW28360   2.616   5.344   6.489
 9154SOL    HW128361   2.592   5.354   6.586
 9154SOL    HW228362   2.712   5.367   6.476
 9155SOL     OW28363   1.964   3.867   0.657
 9155SOL    HW128364   2.005   3.886   0.568
 9155SOL    HW228365   1.864   3.864   0.648
 9156SOL     OW28366   2.969   2.809   1.203
 9156SOL    HW128367   2.954   2.862   1.119
 9156SOL    HW228368   3.060   2.831   1.239
 9157SOL     OW28369   6.070   4.753   5.872
 9157SOL    HW128370   6.075   4.735   5.970
 9157SOL    HW228371   6.129   4.689   5.823
 9158SOL     OW28372   6.301   3.247   4.364
 9158SOL    HW128373   6.348   3.325   4.405
 9158SOL    HW228374   6.271   3.185   4.437
 9159SOL     OW28375   0.568   6.070   3.585
 9159SOL    HW128376   0.663   6.058   3.554
 9159SOL    HW228377   0.564   6.057   3.684
 9160SOL     OW28378   0.034   0.329   5.148
 9160SOL    HW128379   0.033   0.362   5.243
 9160SOL    HW228380   0.110   0.265   5.137
 9161SOL     OW28381   4.846   4.241   4.594
 9161SOL    HW128382   4.891   4.242   4.683
 9161SOL    HW228383   4.805   4.151   4.578
 9162SOL     OW28384   4.730   1.853   3.532
 9162SOL    HW128385   4.830   1.853   3.538
 9162SOL    HW228386   4.702   1.799   3.453
 9163SOL     OW28387   1.773   3.103   3.922
 9163SOL    HW128388   1.695   3.040   3.915
 9163SOL    HW228389   1.856   3.057   3.894
 9164SOL     OW28390   2.882   1.195   6.675
 9164SOL    HW128391   2.864   1.276   6.619
 9164SOL    HW228392   2.937   1.221   6.754
 9165SOL     OW28393   6.348   1.032   6.036
 9165SOL    HW128394   6.446   1.034   6.016
 9165SOL    HW228395   6.296   1.023   5.951
 9166SOL     OW28396   4.824   6.116   1.157
 9166SOL    HW128397   4.727   6.113   1.132
 9166SOL    HW228398   4.854   6.211   1.164
 9167SOL     OW28399   1.918   3.738   6.425
 9167SOL    HW128400   1.933   3.643   6.397
 9167SOL    HW228401   1.821   3.750   6.448
 9168SOL     OW28402   1.399   6.462   5.380
 9168SOL    HW128403   1.423   6.478   5.285
 9168SOL    HW228404   1.303   6.489   5.396
 9169SOL     OW28405   0.286   1.338   5.131
 9169SOL    HW128406   0.274   1.274   5.207
 9169SOL    HW228407   0.338   1.293   5.057
 9170SOL     OW28408   0.642   5.211   0.436
 9170SOL    HW128409   0.655   5.288   0.498
 9170SOL    HW228410   0.619   5.245   0.345
 9171SOL     OW28411   3.670   5.618   0.589
 9171SOL    HW128412   3.573   5.607   0.613
 9171SOL    HW228413   3.708   5.528   0.567
 9172SOL     OW28414   3.111   1.050   5.106
 9172SOL    HW128415   3.109   1.140   5.062
 9172SOL    HW228416   3.129   0.980   5.037
 9173SOL     OW28417   6.032   4.330   5.006
 9173SOL    HW128418   5.982   4.405   5.050
 9173SOL    HW228419   5.971   4.253   4.991
 9174SOL     OW28420   6.347   4.433   1.014
 9174SOL    HW128421   6.393   4.521   1.008
 9174SOL    HW228422   6.412   4.363   1.045
 9175SOL     OW28423   1.827   6.691   4.650
 9175SOL    HW128424   1.832   6.598   4.685
 9175SOL    HW228425   1.920   6.729   4.643
 9176SOL     OW28426   2.749   0.595   5.628
 9176SOL    HW128427   2.679   0.531   5.596
 9176SOL    HW228428   2.760   0.669   5.561
 9177SOL     OW28429   1.594   5.329   4.695
 9177SOL    HW128430   1.689   5.304   4.675
 9177SOL    HW228431   1.591   5.422   4.731
 9178SOL     OW28432   1.872   5.603   1.064
 9178SOL    HW128433   1.901   5.697   1.083
 9178SOL    HW228434   1.951   5.549   1.037
 9179SOL     OW28435   3.250   6.110   3.938
 9179SOL    HW128436   3.323   6.042   3.938
 9179SOL    HW228437   3.234   6.143   4.031
 9180SOL     OW28438   5.814   2.135   3.131
 9180SOL    HW128439   5.836   2.203   3.201
 9180SOL    HW228440   5.829   2.043   3.167
 9181SOL     OW28441   4.061   2.123   3.593
 9181SOL    HW128442   3.973   2.158   3.561
 9181SOL    HW228443   4.082   2.161   3.683
 9182SOL     OW28444   2.267   6.846   2.511
 9182SOL    HW128445   2.219   6.811   2.592
 9182SOL    HW228446   2.305   6.936   2.531
 9183SOL     OW28447   5.260   6.294   0.235
 9183SOL    HW128448   5.276   6.243   0.319
 9183SOL    HW228449   5.306   6.383   0.239
 9184SOL     OW28450   4.739   1.493   0.097
 9184SOL    HW128451   4.780   1.574   0.139
 9184SOL    HW228452   4.811   1.434   0.061
 9185SOL     OW28453   4.448   6.559   4.859
 9185SOL    HW128454   4.431   6.495   4.784
 9185SOL    HW228455   4.537   6.603   4.846
 9186SOL     OW28456   6.002   0.764   3.925
 9186SOL    HW128457   5.919   0.789   3.974
 9186SOL    HW228458   5.987   0.679   3.874
 9187SOL     OW28459   2.445   0.787   1.585
 9187SOL    HW128460   2.535   0.742   1.591
 9187SOL    HW228461   2.442   0.865   1.648
 9188SOL     OW28462   2.236   6.814   2.055
 9188SOL    HW128463   2.166   6.781   1.992
 9188SOL    HW228464   2.224   6.772   2.145
 9189SOL     OW28465   6.008   6.097   1.915
 9189SOL    HW128466   5.925   6.086   1.861
 9189SOL    HW228467   6.087   6.065   1.862
 9190SOL     OW28468   1.297   4.712   0.134
 9190SOL    HW128469   1.303   4.644   0.061
 9190SOL    HW228470   1.292   4.665   0.222
 9191SOL     OW28471   5.872   0.524   5.963
 9191SOL    HW128472   5.826   0.439   5.987
 9191SOL    HW228473   5.811   0.601   5.979
 9192SOL     OW28474   0.495   4.424   5.565
 9192SOL    HW128475   0.502   4.329   5.536
 9192SOL    HW228476   0.536   4.435   5.655
 9193SOL     OW28477   4.731   4.782   0.379
 9193SOL    HW128478   4.655   4.726   0.412
 9193SOL    HW228479   4.712   4.879   0.395
 9194SOL     OW28480   2.843   1.117   3.317
 9194SOL    HW128481   2.847   1.082   3.411
 9194SOL    HW228482   2.881   1.209   3.314
 9195SOL     OW28483   1.757   2.396   4.039
 9195SOL    HW128484   1.730   2.402   3.943
 9195SOL    HW228485   1.856   2.383   4.045
 9196SOL     OW28486   3.869   0.514   4.384
 9196SOL    HW128487   3.886   0.521   4.286
 9196SOL    HW228488   3.839   0.421   4.406
 9197SOL     OW28489   1.348   4.708   1.729
 9197SOL    HW128490   1.375   4.664   1.815
 9197SOL    HW228491   1.284   4.648   1.680
 9198SOL     OW28492   6.748   5.170   5.955
 9198SOL    HW128493   6.762   5.077   5.988
 9198SOL    HW228494   6.836   5.210   5.931
 9199SOL     OW28495   1.324   3.295   6.320
 9199SOL    HW128496   1.415   3.270   6.288
 9199SOL    HW228497   1.292   3.376   6.271
 9200SOL     OW28498   3.055   0.500   0.529
 9200SOL    HW128499   3.011   0.577   0.577
 9200SOL    HW228500   3.147   0.487   0.565
 9201SOL     OW28501   0.347   2.848   0.564
 9201SOL    HW128502   0.431   2.834   0.616
 9201SOL    HW228503   0.267   2.827   0.621
 9202SOL     OW28504   2.114   6.708   3.167
 9202SOL    HW128505   2.081   6.630   3.114
 9202SOL    HW228506   2.131   6.678   3.261
 9203SOL     OW28507   0.694   5.120   6.883
 9203SOL    HW128508   0.784   5.138   6.843
 9203SOL    HW228509   0.676   5.188   6.955
 9204SOL     OW28510   4.249   2.793   6.643
 9204SOL    HW128511   4.169   2.772   6.587
 9204SOL    HW228512   4.219   2.811   6.737
 9205SOL     OW28513   5.782   4.396   2.756
 9205SOL    HW128514   5.730   4.384   2.840
 9205SOL    HW228515   5.857   4.460   2.772
 9206SOL     OW28516   3.915   5.554   1.782
 9206SOL    HW128517   3.975   5.626   1.747
 9206SOL    HW228518   3.820   5.576   1.759
 9207SOL     OW28519   4.137   4.984   6.807
 9207SOL    HW128520   4.206   5.001   6.736
 9207SOL    HW228521   4.123   4.886   6.817
 9208SOL     OW28522   5.695   4.078   3.968
 9208SOL    HW128523   5.652   4.166   3.949
 9208SOL    HW228524   5.782   4.071   3.919
 9209SOL     OW28525   3.070   1.004   0.144
 9209SOL    HW128526   3.165   0.975   0.142
 9209SOL    HW228527   3.013   0.930   0.181
 9210SOL     OW28528   6.777   1.176   2.638
 9210SOL    HW128529   6.862   1.185   2.690
 9210SOL    HW228530   6.708   1.236   2.677
 9211SOL     OW28531   6.557   2.903   4.335
 9211SOL    HW128532   6.647   2.860   4.339
 9211SOL    HW228533   6.566   3.001   4.319
 9212SOL     OW28534   4.406   5.151   4.092
 9212SOL    HW128535   4.359   5.081   4.145
 9212SOL    HW228536   4.369   5.241   4.114
 9213SOL     OW28537   5.570   2.999   5.900
 9213SOL    HW128538   5.472   3.000   5.921
 9213SOL    HW228539   5.583   2.967   5.806
 9214SOL     OW28540   0.007   5.771   5.692
 9214SOL    HW128541   0.051   5.859   5.709
 9214SOL    HW228542   0.045   5.702   5.753
 9215SOL     OW28543   1.582   2.575   6.717
 9215SOL    HW128544   1.489   2.611   6.720
 9215SOL    HW228545   1.600   2.522   6.800
 9216SOL     OW28546   2.762   0.439   3.018
 9216SOL    HW128547   2.672   0.479   3.037
 9216SOL    HW228548   2.772   0.425   2.920
 9217SOL     OW28549   0.328   0.703   5.760
 9217SOL    HW128550   0.234   0.728   5.737
 9217SOL    HW228551   0.328   0.619   5.814
 9218SOL     OW28552   3.961   6.535   0.358
 9218SOL    HW128553   3.963   6.631   0.384
 9218SOL    HW228554   3.971   6.526   0.259
 9219SOL     OW28555   0.134   2.681   0.277
 9219SOL    HW128556   0.209   2.640   0.225
 9219SOL    HW228557   0.124   2.777   0.250
 9220SOL     OW28558   2.363   7.015   1.340
 9220SOL    HW128559   2.298   6.940   1.321
 9220SOL    HW228560   2.315   0.076   1.335
 9221SOL     OW28561   3.218   0.492   4.274
 9221SOL    HW128562   3.169   0.523   4.192
 9221SOL    HW228563   3.241   0.570   4.331
 9222SOL     OW28564   2.494   6.894   6.715
 9222SOL    HW128565   2.446   6.879   6.802
 9222SOL    HW228566   2.428   6.895   6.640
 9223SOL     OW28567   1.508   1.803   4.522
 9223SOL    HW128568   1.604   1.797   4.549
 9223SOL    HW228569   1.502   1.836   4.428
 9224SOL     OW28570   2.742   5.375   4.805
 9224SOL    HW128571   2.753   5.284   4.847
 9224SOL    HW228572   2.666   5.422   4.848
 9225SOL     OW28573   3.874   6.793   5.900
 9225SOL    HW128574   3.878   6.823   5.805
 9225SOL    HW228575   3.902   6.868   5.961
 9226SOL     OW28576   5.624   6.979   1.843
 9226SOL    HW128577   5.721   6.961   1.858
 9226SOL    HW228578   5.603   0.046   1.870
 9227SOL     OW28579   0.997   5.600   1.756
 9227SOL    HW128580   1.042   5.518   1.721
 9227SOL    HW228581   1.034   5.623   1.846
 9228SOL     OW28582   1.595   0.270   6.279
 9228SOL    HW128583   1.680   0.223   6.303
 9228SOL    HW228584   1.603   0.309   6.188
 9229SOL     OW28585   1.586   5.744   4.559
 9229SOL    HW128586   1.524   5.793   4.498
 9229SOL    HW228587   1.630   5.809   4.621
 9230SOL     OW28588   6.102   0.668   2.868
 9230SOL    HW128589   6.197   0.698   2.862
 9230SOL    HW228590   6.066   0.691   2.959
 9231SOL     OW28591   1.645   4.325   4.349
 9231SOL    HW128592   1.681   4.414   4.376
 9231SOL    HW228593   1.695   4.292   4.269
 9232SOL     OW28594   2.961   5.555   1.073
 9232SOL    HW128595   2.919   5.511   1.152
 9232SOL    HW228596   2.996   5.485   1.011
 9233SOL     OW28597   5.458   5.438   1.264
 9233SOL    HW128598   5.410   5.464   1.180
 9233SOL    HW228599   5.392   5.417   1.336
 9234SOL     OW28600   3.493   4.956   4.579
 9234SOL    HW128601   3.457   4.924   4.666
 9234SOL    HW228602   3.422   4.950   4.509
 9235SOL     OW28603   1.484   2.518   3.685
 9235SOL    HW128604   1.521   2.477   3.601
 9235SOL    HW228605   1.559   2.541   3.747
 9236SOL     OW28606   2.817   4.282   5.696
 9236SOL    HW128607   2.884   4.339   5.649
 9236SOL    HW228608   2.825   4.296   5.795
 9237SOL     OW28609   2.237   4.717   4.905
 9237SOL    HW128610   2.274   4.695   4.996
 9237SOL    HW228611   2.278   4.657   4.837
 9238SOL     OW28612   4.457   2.092   6.168
 9238SOL    HW128613   4.531   2.086   6.102
 9238SOL    HW228614   4.369   2.086   6.121
 9239SOL     OW28615   0.384   3.831   1.420
 9239SOL    HW128616   0.421   3.777   1.496
 9239SOL    HW228617   0.460   3.877   1.373
 9240SOL     OW28618   5.591   1.612   0.771
 9240SOL    HW128619   5.571   1.706   0.800
 9240SOL    HW228620   5.571   1.602   0.674
 9241SOL     OW28621   0.039   5.856   6.228
 9241SOL    HW128622   0.100   5.934   6.208
 9241SOL    HW228623   0.079   5.802   6.302
 9242SOL     OW28624   6.672   5.917   0.597
 9242SOL    HW128625   6.594   5.893   0.540
 9242SOL    HW228626   6.736   5.840   0.599
 9243SOL     OW28627   5.942   6.059   2.641
 9243SOL    HW128628   5.943   5.978   2.698
 9243SOL    HW228629   5.916   6.139   2.696
 9244SOL     OW28630   4.544   5.623   5.957
 9244SOL    HW128631   4.588   5.563   6.024
 9244SOL    HW228632   4.548   5.717   5.990
 9245SOL     OW28633   1.625   5.585   2.747
 9245SOL    HW128634   1.693   5.585   2.674
 9245SOL    HW228635   1.649   5.517   2.816
 9246SOL     OW28636   6.512   4.627   3.137
 9246SOL    HW128637   6.560   4.572   3.206
 9246SOL    HW228638   6.573   4.699   3.104
 9247SOL     OW28639   0.858   6.795   3.008
 9247SOL    HW128640   0.835   6.837   3.095
 9247SOL    HW228641   0.899   6.705   3.024
 9248SOL     OW28642   2.281   2.533   6.262
 9248SOL    HW128643   2.259   2.610   6.321
 9248SOL    HW228644   2.245   2.449   6.302
 9249SOL     OW28645   6.017   2.632   6.041
 9249SOL    HW128646   5.942   2.565   6.046
 9249SOL    HW228647   6.039   2.665   6.132
 9250SOL     OW28648   5.227   3.466   4.847
 9250SOL    HW128649   5.158   3.446   4.916
 9250SOL    HW228650   5.318   3.451   4.886
 9251SOL     OW28651   3.568   2.103   3.250
 9251SOL    HW128652   3.526   2.043   3.182
 9251SOL    HW228653   3.665   2.116   3.228
 9252SOL     OW28654   6.420   6.987   4.118
 9252SOL    HW128655   6.323   6.962   4.120
 9252SOL    HW228656   6.441   0.016   4.199
 9253SOL     OW28657   4.721   5.887   5.996
 9253SOL    HW128658   4.795   5.827   6.024
 9253SOL    HW228659   4.734   5.978   6.037
 9254SOL     OW28660   6.183   4.436   1.543
 9254SOL    HW128661   6.126   4.495   1.486
 9254SOL    HW228662   6.279   4.453   1.522
 9255SOL     OW28663   5.039   2.937   0.100
 9255SOL    HW128664   5.005   2.965   0.190
 9255SOL    HW228665   5.131   2.897   0.110
 9256SOL     OW28666   3.927   4.825   3.377
 9256SOL    HW128667   3.834   4.813   3.341
 9256SOL    HW228668   3.924   4.827   3.477
 9257SOL     OW28669   0.507   3.905   2.659
 9257SOL    HW128670   0.469   3.814   2.671
 9257SOL    HW228671   0.510   3.929   2.562
 9258SOL     OW28672   4.002   3.175   3.676
 9258SOL    HW128673   4.019   3.182   3.577
 9258SOL    HW228674   3.936   3.103   3.694
 9259SOL     OW28675   1.816   2.606   0.892
 9259SOL    HW128676   1.751   2.641   0.825
 9259SOL    HW228677   1.907   2.601   0.850
 9260SOL     OW28678   5.080   1.646   5.507
 9260SOL    HW128679   5.088   1.618   5.603
 9260SOL    HW228680   5.164   1.623   5.458
 9261SOL     OW28681   5.065   0.027   6.295
 9261SOL    HW128682   5.153   0.040   6.251
 9261SOL    HW228683   5.067   0.067   6.387
 9262SOL     OW28684   6.467   2.857   5.467
 9262SOL    HW128685   6.393   2.870   5.533
 9262SOL    HW228686   6.524   2.939   5.463
 9263SOL     OW28687   6.222   4.153   0.755
 9263SOL    HW128688   6.196   4.167   0.850
 9263SOL    HW228689   6.178   4.071   0.720
 9264SOL     OW28690   5.934   3.948   0.477
 9264SOL    HW128691   5.917   3.874   0.412
 9264SOL    HW228692   5.989   3.914   0.553
 9265SOL     OW28693   3.254   1.412   0.794
 9265SOL    HW128694   3.242   1.314   0.804
 9265SOL    HW228695   3.342   1.431   0.752
 9266SOL     OW28696   2.438   5.930   2.236
 9266SOL    HW128697   2.524   5.951   2.282
 9266SOL    HW228698   2.456   5.875   2.154
 9267SOL     OW28699   6.925   4.058   5.411
 9267SOL    HW128700   6.927   3.997   5.332
 9267SOL    HW228701   6.913   4.005   5.494
 9268SOL     OW28702   0.976   6.389   1.740
 9268SOL    HW128703   0.887   6.399   1.696
 9268SOL    HW228704   1.048   6.409   1.674
 9269SOL     OW28705   3.287   2.648   6.721
 9269SOL    HW128706   3.228   2.636   6.642
 9269SOL    HW228707   3.268   2.577   6.789
 9270SOL     OW28708   4.580   6.562   5.539
 9270SOL    HW128709   4.588   6.654   5.499
 9270SOL    HW228710   4.635   6.557   5.622
 9271SOL     OW28711   1.195   6.023   0.524
 9271SOL    HW128712   1.180   5.962   0.601
 9271SOL    HW228713   1.182   5.973   0.438
 9272SOL     OW28714   3.211   4.873   5.720
 9272SOL    HW128715   3.170   4.793   5.763
 9272SOL    HW228716   3.281   4.912   5.780
 9273SOL     OW28717   5.147   6.147   3.685
 9273SOL    HW128718   5.181   6.132   3.777
 9273SOL    HW228719   5.047   6.158   3.688
 9274SOL     OW28720   6.265   2.392   6.983
 9274SOL    HW128721   6.165   2.388   6.974
 9274SOL    HW228722   6.299   2.473   6.935
 9275SOL     OW28723   0.567   1.810   0.519
 9275SOL    HW128724   0.546   1.907   0.532
 9275SOL    HW228725   0.661   1.801   0.484
 9276SOL     OW28726   2.508   5.093   3.860
 9276SOL    HW128727   2.470   5.011   3.904
 9276SOL    HW228728   2.591   5.121   3.908
 9277SOL     OW28729   3.903   3.992   0.081
 9277SOL    HW128730   3.909   3.896   0.055
 9277SOL    HW228731   3.874   4.046   0.002
 9278SOL     OW28732   1.957   1.168   3.891
 9278SOL    HW128733   1.962   1.070   3.875
 9278SOL    HW228734   1.877   1.206   3.844
 9279SOL     OW28735   4.546   0.713   1.435
 9279SOL    HW128736   4.565   0.718   1.337
 9279SOL    HW228737   4.540   0.806   1.473
 9280SOL     OW28738   1.890   0.191   3.419
 9280SOL    HW128739   1.951   0.235   3.484
 9280SOL    HW228740   1.908   0.226   3.327
 9281SOL     OW28741   3.456   3.582   0.998
 9281SOL    HW128742   3.485   3.677   1.009
 9281SOL    HW228743   3.363   3.572   1.031
 9282SOL     OW28744   4.498   2.040   4.362
 9282SOL    HW128745   4.459   2.068   4.450
 9282SOL    HW228746   4.567   2.106   4.334
 9283SOL     OW28747   5.914   1.119   2.853
 9283SOL    HW128748   5.977   1.096   2.927
 9283SOL    HW228749   5.920   1.048   2.782
 9284SOL     OW28750   3.556   5.059   0.173
 9284SOL    HW128751   3.517   4.971   0.145
 9284SOL    HW228752   3.540   5.073   0.271
 9285SOL     OW28753   4.933   3.356   6.984
 9285SOL    HW128754   4.908   3.281   0.019
 9285SOL    HW228755   4.864   3.428   6.990
 9286SOL     OW28756   5.501   0.116   5.632
 9286SOL    HW128757   5.469   0.167   5.552
 9286SOL    HW228758   5.589   0.072   5.610
 9287SOL     OW28759   3.337   5.506   0.698
 9287SOL    HW128760   3.403   5.551   0.758
 9287SOL    HW228761   3.284   5.575   0.649
 9288SOL     OW28762   2.902   1.409   5.626
 9288SOL    HW128763   2.950   1.488   5.588
 9288SOL    HW228764   2.968   1.335   5.642
 9289SOL     OW28765   3.649   1.676   2.181
 9289SOL    HW128766   3.681   1.678   2.276
 9289SOL    HW228767   3.653   1.769   2.143
 9290SOL     OW28768   4.809   1.805   4.584
 9290SOL    HW128769   4.875   1.735   4.556
 9290SOL    HW228770   4.762   1.774   4.667
 9291SOL     OW28771   2.641   0.273   5.389
 9291SOL    HW128772   2.566   0.265   5.455
 9291SOL    HW228773   2.631   0.357   5.337
 9292SOL     OW28774   6.522   3.507   6.096
 9292SOL    HW128775   6.502   3.584   6.036
 9292SOL    HW228776   6.597   3.531   6.158
 9293SOL     OW28777   6.355   4.160   1.218
 9293SOL    HW128778   6.349   4.106   1.301
 9293SOL    HW228779   6.430   4.226   1.226
 9294SOL     OW28780   3.709   6.515   5.676
 9294SOL    HW128781   3.802   6.487   5.654
 9294SOL    HW228782   3.701   6.529   5.775
 9295SOL     OW28783   4.874   2.129   3.866
 9295SOL    HW128784   4.850   2.225   3.883
 9295SOL    HW228785   4.964   2.109   3.903
 9296SOL     OW28786   7.021   6.001   6.753
 9296SOL    HW128787   6.932   5.982   6.713
 9296SOL    HW228788   0.058   6.031   6.682
 9297SOL     OW28789   0.179   0.699   1.284
 9297SOL    HW128790   0.165   0.795   1.261
 9297SOL    HW228791   0.272   0.672   1.258
 9298SOL     OW28792   2.255   6.051   5.743
 9298SOL    HW128793   2.324   6.119   5.768
 9298SOL    HW228794   2.299   5.973   5.698
 9299SOL     OW28795   0.884   3.067   4.553
 9299SOL    HW128796   0.864   3.016   4.470
 9299SOL    HW228797   0.828   3.150   4.555
 9300SOL     OW28798   0.189   4.971   4.404
 9300SOL    HW128799   0.179   4.933   4.313
 9300SOL    HW228800   0.247   4.911   4.460
 9301SOL     OW28801   4.775   4.912   3.380
 9301SOL    HW128802   4.788   4.860   3.296
 9301SOL    HW228803   4.760   4.850   3.457
 9302SOL     OW28804   2.282   2.964   4.262
 9302SOL    HW128805   2.267   2.928   4.354
 9302SOL    HW228806   2.269   3.063   4.263
 9303SOL     OW28807   3.931   6.391   1.067
 9303SOL    HW128808   3.911   6.297   1.095
 9303SOL    HW228809   3.878   6.414   0.986
 9304SOL     OW28810   4.246   4.291   1.316
 9304SOL    HW128811   4.343   4.299   1.293
 9304SOL    HW228812   4.235   4.284   1.415
 9305SOL     OW28813   4.258   1.508   1.664
 9305SOL    HW128814   4.300   1.570   1.599
 9305SOL    HW228815   4.176   1.551   1.703
 9306SOL     OW28816   0.219   4.717   4.824
 9306SOL    HW128817   0.304   4.769   4.827
 9306SOL    HW228818   0.213   4.659   4.905
 9307SOL     OW28819   1.368   3.455   1.296
 9307SOL    HW128820   1.319   3.540   1.315
 9307SOL    HW228821   1.446   3.475   1.236
 9308SOL     OW28822   1.011   3.875   1.237
 9308SOL    HW128823   1.066   3.873   1.154
 9308SOL    HW228824   1.063   3.919   1.310
 9309SOL     OW28825   3.675   4.944   5.505
 9309SOL    HW128826   3.673   4.982   5.413
 9309SOL    HW228827   3.587   4.900   5.525
 9310SOL     OW28828   4.550   5.926   6.257
 9310SOL    HW128829   4.509   5.999   6.313
 9310SOL    HW228830   4.479   5.885   6.200
 9311SOL     OW28831   6.129   4.735   1.559
 9311SOL    HW128832   6.154   4.705   1.467
 9311SOL    HW228833   6.165   4.671   1.626
 9312SOL     OW28834   1.551   4.125   1.369
 9312SOL    HW128835   1.452   4.115   1.382
 9312SOL    HW228836   1.595   4.036   1.381
 9313SOL     OW28837   0.189   0.946   1.162
 9313SOL    HW128838   0.146   1.028   1.199
 9313SOL    HW228839   0.255   0.972   1.091
 9314SOL     OW28840   3.982   5.610   6.349
 9314SOL    HW128841   3.998   5.617   6.250
 9314SOL    HW228842   3.983   5.702   6.388
 9315SOL     OW28843   6.471   0.603   5.124
 9315SOL    HW128844   6.405   0.663   5.170
 9315SOL    HW228845   6.480   0.630   5.029
 9316SOL     OW28846   4.121   5.730   5.773
 9316SOL    HW128847   4.118   5.631   5.788
 9316SOL    HW228848   4.096   5.777   5.858
 9317SOL     OW28849   6.728   5.903   3.238
 9317SOL    HW128850   6.663   5.897   3.163
 9317SOL    HW228851   6.786   5.984   3.226
 9318SOL     OW28852   6.798   1.186   4.882
 9318SOL    HW128853   6.793   1.188   4.783
 9318SOL    HW228854   6.739   1.112   4.917
 9319SOL     OW28855   0.384   2.705   5.853
 9319SOL    HW128856   0.319   2.772   5.817
 9319SOL    HW228857   0.470   2.712   5.803
 9320SOL     OW28858   4.500   1.981   6.702
 9320SOL    HW128859   4.598   2.001   6.688
 9320SOL    HW228860   4.491   1.899   6.758
 9321SOL     OW28861   6.020   6.884   2.272
 9321SOL    HW128862   5.981   6.851   2.186
 9321SOL    HW228863   5.987   6.977   2.290
 9322SOL     OW28864   6.775   6.122   6.317
 9322SOL    HW128865   6.869   6.157   6.324
 9322SOL    HW228866   6.777   6.033   6.270
 9323SOL     OW28867   2.153   0.034   5.741
 9323SOL    HW128868   2.248   0.053   5.763
 9323SOL    HW228869   2.120   0.099   5.673
 9324SOL     OW28870   1.507   4.893   0.747
 9324SOL    HW128871   1.433   4.958   0.727
 9324SOL    HW228872   1.562   4.879   0.665
 9325SOL     OW28873   5.018   1.756   0.613
 9325SOL    HW128874   5.112   1.723   0.613
 9325SOL    HW228875   4.971   1.720   0.694
 9326SOL     OW28876   2.585   0.263   1.135
 9326SOL    HW128877   2.626   0.208   1.208
 9326SOL    HW228878   2.539   0.342   1.175
 9327SOL     OW28879   4.752   6.429   2.523
 9327SOL    HW128880   4.746   6.387   2.614
 9327SOL    HW228881   4.845   6.463   2.508
 9328SOL     OW28882   4.141   1.325   5.864
 9328SOL    HW128883   4.095   1.244   5.828
 9328SOL    HW228884   4.238   1.305   5.876
 9329SOL     OW28885   0.046   3.726   2.606
 9329SOL    HW128886   6.988   3.684   2.641
 9329SOL    HW228887   0.023   3.789   2.531
 9330SOL     OW28888   0.168   6.254   0.457
 9330SOL    HW128889   0.085   6.267   0.402
 9330SOL    HW228890   0.249   6.273   0.400
 9331SOL     OW28891   1.094   0.973   5.935
 9331SOL    HW128892   1.191   0.991   5.950
 9331SOL    HW228893   1.046   1.060   5.921
 9332SOL     OW28894   3.453   4.181   2.966
 9332SOL    HW128895   3.552   4.194   2.959
 9332SOL    HW228896   3.426   4.183   3.062
 9333SOL     OW28897   4.998   3.788   1.658
 9333SOL    HW128898   5.019   3.870   1.712
 9333SOL    HW228899   4.993   3.813   1.561
 9334SOL     OW28900   3.829   7.016   3.865
 9334SOL    HW128901   3.813   6.985   3.771
 9334SOL    HW228902   3.911   6.971   3.901
 9335SOL     OW28903   1.323   0.593   5.880
 9335SOL    HW128904   1.238   0.645   5.888
 9335SOL    HW228905   1.401   0.654   5.897
 9336SOL     OW28906   3.584   5.994   6.841
 9336SOL    HW128907   3.602   5.957   6.750
 9336SOL    HW228908   3.671   6.021   6.883
 9337SOL     OW28909   5.035   0.598   3.270
 9337SOL    HW128910   5.099   0.661   3.314
 9337SOL    HW228911   4.972   0.649   3.211
 9338SOL     OW28912   4.628   0.644   1.878
 9338SOL    HW128913   4.599   0.732   1.917
 9338SOL    HW228914   4.683   0.661   1.796
 9339SOL     OW28915   5.476   6.748   0.545
 9339SOL    HW128916   5.474   6.785   0.637
 9339SOL    HW228917   5.565   6.705   0.527
 9340SOL     OW28918   5.110   3.684   5.135
 9340SOL    HW128919   5.090   3.586   5.122
 9340SOL    HW228920   5.193   3.707   5.085
 9341SOL     OW28921   0.626   5.882   6.256
 9341SOL    HW128922   0.628   5.976   6.220
 9341SOL    HW228923   0.611   5.885   6.354
 9342SOL     OW28924   2.111   0.635   4.219
 9342SOL    HW128925   2.182   0.619   4.150
 9342SOL    HW228926   2.058   0.716   4.196
 9343SOL     OW28927   6.251   4.506   3.195
 9343SOL    HW128928   6.265   4.494   3.293
 9343SOL    HW228929   6.339   4.515   3.150
 9344SOL     OW28930   4.510   5.629   1.799
 9344SOL    HW128931   4.565   5.706   1.832
 9344SOL    HW228932   4.531   5.612   1.703
 9345SOL     OW28933   6.178   3.493   1.746
 9345SOL    HW128934   6.214   3.575   1.700
 9345SOL    HW228935   6.147   3.427   1.678
 9346SOL     OW28936   6.131   0.970   1.037
 9346SOL    HW128937   6.035   0.978   1.064
 9346SOL    HW228938   6.146   1.022   0.953
 9347SOL     OW28939   1.472   5.593   0.709
 9347SOL    HW128940   1.393   5.655   0.716
 9347SOL    HW228941   1.556   5.647   0.712
 9348SOL     OW28942   4.267   5.658   1.434
 9348SOL    HW128943   4.218   5.598   1.371
 9348SOL    HW228944   4.266   5.751   1.400
 9349SOL     OW28945   0.996   0.197   2.343
 9349SOL    HW128946   1.093   0.184   2.320
 9349SOL    HW228947   0.985   0.284   2.391
 9350SOL     OW28948   0.830   2.707   5.542
 9350SOL    HW128949   0.886   2.684   5.622
 9350SOL    HW228950   0.875   2.779   5.489
 9351SOL     OW28951   3.268   1.370   6.385
 9351SOL    HW128952   3.245   1.285   6.337
 9351SOL    HW228953   3.213   1.445   6.349
 9352SOL     OW28954   2.467   3.627   0.279
 9352SOL    HW128955   2.505   3.535   0.268
 9352SOL    HW228956   2.370   3.620   0.301
 9353SOL     OW28957   0.809   5.137   1.996
 9353SOL    HW128958   0.742   5.069   1.968
 9353SOL    HW228959   0.901   5.099   1.987
 9354SOL     OW28960   6.764   2.356   6.331
 9354SOL    HW128961   6.841   2.303   6.365
 9354SOL    HW228962   6.738   2.323   6.241
 9355SOL     OW28963   0.927   2.360   4.765
 9355SOL    HW128964   0.866   2.356   4.844
 9355SOL    HW228965   1.006   2.418   4.786
 9356SOL     OW28966   3.773   6.828   1.456
 9356SOL    HW128967   3.702   6.778   1.507
 9356SOL    HW228968   3.804   6.906   1.510
 9357SOL     OW28969   0.823   2.556   6.724
 9357SOL    HW128970   0.822   2.648   6.764
 9357SOL    HW228971   0.917   2.529   6.705
 9358SOL     OW28972   0.260   4.340   2.462
 9358SOL    HW128973   0.185   4.320   2.525
 9358SOL    HW228974   0.329   4.395   2.510
 9359SOL     OW28975   2.068   5.271   6.290
 9359SOL    HW128976   2.150   5.215   6.276
 9359SOL    HW228977   1.987   5.220   6.261
 9360SOL     OW28978   1.966   6.221   6.223
 9360SOL    HW128979   1.892   6.255   6.280
 9360SOL    HW228980   1.985   6.125   6.247
 9361SOL     OW28981   1.919   5.902   3.607
 9361SOL    HW128982   1.839   5.957   3.631
 9361SOL    HW228983   2.000   5.960   3.604
 9362SOL     OW28984   1.858   1.743   1.900
 9362SOL    HW128985   1.907   1.711   1.818
 9362SOL    HW228986   1.796   1.816   1.875
 9363SOL     OW28987   3.193   5.291   2.045
 9363SOL    HW128988   3.241   5.278   1.958
 9363SOL    HW228989   3.181   5.202   2.089
 9364SOL     OW28990   2.658   2.892   1.724
 9364SOL    HW128991   2.630   2.800   1.752
 9364SOL    HW228992   2.576   2.948   1.711
 9365SOL     OW28993   2.727   1.866   4.395
 9365SOL    HW128994   2.808   1.883   4.451
 9365SOL    HW228995   2.713   1.942   4.332
 9366SOL     OW28996   3.832   5.840   0.528
 9366SOL    HW128997   3.753   5.784   0.556
 9366SOL    HW228998   3.815   5.878   0.437
 9367SOL     OW28999   5.357   0.547   0.850
 9367SOL    HW129000   5.293   0.542   0.927
 9367SOL    HW229001   5.324   0.490   0.775
 9368SOL     OW29002   3.903   0.083   2.806
 9368SOL    HW129003   3.837   0.061   2.734
 9368SOL    HW229004   3.913   0.182   2.813
 9369SOL     OW29005   0.538   5.710   5.020
 9369SOL    HW129006   0.586   5.724   5.107
 9369SOL    HW229007   0.587   5.641   4.966
 9370SOL     OW29008   4.410   1.471   4.127
 9370SOL    HW129009   4.467   1.547   4.159
 9370SOL    HW229010   4.449   1.434   4.042
 9371SOL     OW29011   3.670   5.378   1.184
 9371SOL    HW129012   3.685   5.310   1.256
 9371SOL    HW229013   3.682   5.335   1.095
 9372SOL     OW29014   4.488   0.075   1.484
 9372SOL    HW129015   4.434   0.040   1.560
 9372SOL    HW229016   4.539   0.000   1.442
 9373SOL     OW29017   6.105   2.598   0.340
 9373SOL    HW129018   6.119   2.571   0.435
 9373SOL    HW229019   6.032   2.666   0.335
 9374SOL     OW29020   0.285   4.643   5.561
 9374SOL    HW129021   0.356   4.576   5.540
 9374SOL    HW229022   0.206   4.627   5.502
 9375SOL     OW29023   6.547   1.747   6.972
 9375SOL    HW129024   6.483   1.821   6.993
 9375SOL    HW229025   6.638   1.784   6.954
 9376SOL     OW29026   2.179   3.741   2.164
 9376SOL    HW129027   2.205   3.670   2.099
 9376SOL    HW229028   2.227   3.727   2.250
 9377SOL     OW29029   1.770   4.989   2.075
 9377SOL    HW129030   1.719   4.911   2.113
 9377SOL    HW229031   1.863   4.988   2.111
 9378SOL     OW29032   3.763   0.707   3.987
 9378SOL    HW129033   3.718   0.694   3.899
 9378SOL    HW229034   3.782   0.804   4.001
 9379SOL     OW29035   4.219   6.719   4.753
 9379SOL    HW129036   4.125   6.684   4.749
 9379SOL    HW229037   4.280   6.646   4.783
 9380SOL     OW29038   3.549   5.629   6.142
 9380SOL    HW129039   3.530   5.679   6.058
 9380SOL    HW229040   3.607   5.550   6.122
 9381SOL     OW29041   4.954   1.582   4.494
 9381SOL    HW129042   4.995   1.491   4.501
 9381SOL    HW229043   5.024   1.652   4.509
 9382SOL     OW29044   3.559   0.689   4.195
 9382SOL    HW129045   3.621   0.737   4.133
 9382SOL    HW229046   3.471   0.675   4.150
 9383SOL     OW29047   4.820   4.193   3.320
 9383SOL    HW129048   4.904   4.209   3.269
 9383SOL    HW229049   4.747   4.168   3.256
 9384SOL     OW29050   1.712   6.658   1.998
 9384SOL    HW129051   1.614   6.643   2.017
 9384SOL    HW229052   1.764   6.639   2.082
 9385SOL     OW29053   4.054   1.461   3.803
 9385SOL    HW129054   4.038   1.485   3.707
 9385SOL    HW229055   4.123   1.388   3.808
 9386SOL     OW29056   3.830   5.775   5.166
 9386SOL    HW129057   3.794   5.683   5.180
 9386SOL    HW229058   3.900   5.794   5.235
 9387SOL     OW29059   3.995   1.868   6.692
 9387SOL    HW129060   4.045   1.927   6.755
 9387SOL    HW229061   4.058   1.833   6.622
 9388SOL     OW29062   2.015   0.060   3.872
 9388SOL    HW129063   1.931   0.112   3.862
 9388SOL    HW229064   1.997   7.003   3.924
 9389SOL     OW29065   3.308   5.163   2.409
 9389SOL    HW129066   3.357   5.161   2.323
 9389SOL    HW229067   3.320   5.252   2.453
 9390SOL     OW29068   5.373   4.299   5.570
 9390SOL    HW129069   5.397   4.211   5.529
 9390SOL    HW229070   5.456   4.352   5.587
 9391SOL     OW29071   1.382   6.789   4.646
 9391SOL    HW129072   1.442   6.731   4.701
 9391SOL    HW229073   1.358   6.871   4.698
 9392SOL     OW29074   5.252   4.343   3.016
 9392SOL    HW129075   5.314   4.411   3.055
 9392SOL    HW229076   5.275   4.252   3.052
 9393SOL     OW29077   3.341   5.965   6.263
 9393SOL    HW129078   3.405   6.034   6.230
 9393SOL    HW229079   3.339   5.888   6.199
 9394SOL     OW29080   5.532   0.411   1.193
 9394SOL    HW129081   5.513   0.440   1.287
 9394SOL    HW229082   5.488   0.323   1.176
 9395SOL     OW29083   2.985   1.357   0.753
 9395SOL    HW129084   2.970   1.310   0.666
 9395SOL    HW229085   3.084   1.361   0.772
 9396SOL     OW29086   1.940   5.969   6.393
 9396SOL    HW129087   1.979   5.883   6.425
 9396SOL    HW229088   1.932   6.033   6.469
 9397SOL     OW29089   4.151   0.262   6.289
 9397SOL    HW129090   4.101   0.322   6.226
 9397SOL    HW229091   4.243   0.246   6.254
 9398SOL     OW29092   7.012   1.516   6.487
 9398SOL    HW129093   6.956   1.576   6.545
 9398SOL    HW229094   0.009   1.433   6.539
 9399SOL     OW29095   1.670   2.867   3.717
 9399SOL    HW129096   1.632   2.900   3.804
 9399SOL    HW229097   1.705   2.774   3.730
 9400SOL     OW29098   5.197   1.136   0.749
 9400SOL    HW129099   5.237   1.130   0.658
 9400SOL    HW229100   5.246   1.205   0.802
 9401SOL     OW29101   1.198   2.360   2.680
 9401SOL    HW129102   1.126   2.349   2.749
 9401SOL    HW229103   1.194   2.284   2.616
 9402SOL     OW29104   1.760   5.628   3.099
 9402SOL    HW129105   1.812   5.570   3.162
 9402SOL    HW229106   1.797   5.617   3.007
 9403SOL     OW29107   6.825   1.919   2.129
 9403SOL    HW129108   6.815   1.986   2.203
 9403SOL    HW229109   6.837   1.967   2.042
 9404SOL     OW29110   1.838   3.370   0.788
 9404SOL    HW129111   1.803   3.277   0.773
 9404SOL    HW229112   1.770   3.436   0.757
 9405SOL     OW29113   0.153   4.599   5.100
 9405SOL    HW129114   0.085   4.663   5.138
 9405SOL    HW229115   0.242   4.618   5.141
 9406SOL     OW29116   0.011   3.070   6.316
 9406SOL    HW129117   0.078   2.996   6.318
 9406SOL    HW229118   6.960   3.044   6.260
 9407SOL     OW29119   1.996   4.818   4.758
 9407SOL    HW129120   1.900   4.808   4.786
 9407SOL    HW229121   2.056   4.794   4.834
 9408SOL     OW29122   6.732   4.017   5.171
 9408SOL    HW129123   6.634   4.014   5.154
 9408SOL    HW229124   6.763   4.112   5.175
 9409SOL     OW29125   6.915   5.119   1.825
 9409SOL    HW129126   6.912   5.144   1.922
 9409SOL    HW229127   6.848   5.174   1.775
 9410SOL     OW29128   4.211   0.398   1.952
 9410SOL    HW129129   4.310   0.386   1.950
 9410SOL    HW229130   4.187   0.487   1.913
 9411SOL     OW29131   3.871   3.016   3.422
 9411SOL    HW129132   3.804   3.081   3.386
 9411SOL    HW229133   3.956   3.064   3.443
 9412SOL     OW29134   0.118   1.073   1.462
 9412SOL    HW129135   0.056   0.995   1.463
 9412SOL    HW229136   0.213   1.040   1.469
 9413SOL     OW29137   4.174   4.751   3.920
 9413SOL    HW129138   4.267   4.714   3.925
 9413SOL    HW229139   4.130   4.743   4.009
 9414SOL     OW29140   2.083   2.539   5.611
 9414SOL    HW129141   2.115   2.445   5.623
 9414SOL    HW229142   2.034   2.546   5.524
 9415SOL     OW29143   3.928   0.618   2.415
 9415SOL    HW129144   3.942   0.712   2.384
 9415SOL    HW229145   4.006   0.562   2.386
 9416SOL     OW29146   0.171   6.105   6.249
 9416SOL    HW129147   0.259   6.110   6.297
 9416SOL    HW229148   0.111   6.176   6.283
 9417SOL     OW29149   2.798   6.430   1.237
 9417SOL    HW129150   2.877   6.456   1.291
 9417SOL    HW229151   2.771   6.506   1.178
 9418SOL     OW29152   2.972   1.994   4.502
 9418SOL    HW129153   3.009   2.086   4.497
 9418SOL    HW229154   2.930   1.979   4.591
 9419SOL     OW29155   3.076   2.537   0.240
 9419SOL    HW129156   3.147   2.593   0.197
 9419SOL    HW229157   3.043   2.583   0.322
 9420SOL     OW29158   5.609   3.229   0.122
 9420SOL    HW129159   5.658   3.235   0.209
 9420SOL    HW229160   5.511   3.219   0.140
 9421SOL     OW29161   3.957   6.409   5.609
 9421SOL    HW129162   4.020   6.337   5.581
 9421SOL    HW229163   4.008   6.486   5.647
 9422SOL     OW29164   2.641   5.813   4.443
 9422SOL    HW129165   2.711   5.753   4.407
 9422SOL    HW229166   2.653   5.822   4.542
 9423SOL     OW29167   4.091   5.964   3.239
 9423SOL    HW129168   4.040   6.015   3.170
 9423SOL    HW229169   4.083   5.866   3.220
 9424SOL     OW29170   5.236   0.644   4.642
 9424SOL    HW129171   5.225   0.692   4.729
 9424SOL    HW229172   5.151   0.649   4.590
 9425SOL     OW29173   6.853   5.056   0.280
 9425SOL    HW129174   6.866   4.973   0.333
 9425SOL    HW229175   6.942   5.099   0.263
 9426SOL     OW29176   0.357   1.601   6.351
 9426SOL    HW129177   0.422   1.578   6.278
 9426SOL    HW229178   0.289   1.666   6.315
 9427SOL     OW29179   3.496   5.838   2.790
 9427SOL    HW129180   3.431   5.904   2.828
 9427SOL    HW229181   3.488   5.838   2.690
 9428SOL     OW29182   6.714   0.434   6.825
 9428SOL    HW129183   6.669   0.427   6.736
 9428SOL    HW229184   6.747   0.344   6.853
 9429SOL     OW29185   1.332   2.465   4.096
 9429SOL    HW129186   1.275   2.409   4.036
 9429SOL    HW229187   1.331   2.426   4.188
 9430SOL     OW29188   0.716   2.386   4.298
 9430SOL    HW129189   0.672   2.433   4.222
 9430SOL    HW229190   0.719   2.288   4.280
 9431SOL     OW29191   0.167   5.015   6.568
 9431SOL    HW129192   0.099   5.078   6.605
 9431SOL    HW229193   0.130   4.922   6.569
 9432SOL     OW29194   0.037   1.861   3.499
 9432SOL    HW129195   7.010   1.938   3.534
 9432SOL    HW229196   0.030   1.859   3.399
 9433SOL     OW29197   3.442   6.368   3.145
 9433SOL    HW129198   3.477   6.344   3.054
 9433SOL    HW229199   3.410   6.285   3.191
 9434SOL     OW29200   5.209   5.474   4.100
 9434SOL    HW129201   5.135   5.406   4.096
 9434SOL    HW229202   5.271   5.452   4.175
 9435SOL     OW29203   0.653   2.909   1.813
 9435SOL    HW129204   0.704   2.994   1.801
 9435SOL    HW229205   0.656   2.881   1.909
 9436SOL     OW29206   1.062   0.702   3.200
 9436SOL    HW129207   1.134   0.691   3.132
 9436SOL    HW229208   1.048   0.616   3.248
 9437SOL     OW29209   6.964   5.181   4.560
 9437SOL    HW129210   6.935   5.095   4.518
 9437SOL    HW229211   0.037   5.191   4.551
 9438SOL     OW29212   2.733   6.388   1.768
 9438SOL    HW129213   2.649   6.385   1.822
 9438SOL    HW229214   2.720   6.448   1.689
 9439SOL     OW29215   0.580   3.121   0.435
 9439SOL    HW129216   0.574   3.176   0.352
 9439SOL    HW229217   0.504   3.144   0.496
 9440SOL     OW29218   3.125   4.850   3.233
 9440SOL    HW129219   3.118   4.837   3.332
 9440SOL    HW229220   3.204   4.907   3.212
 9441SOL     OW29221   6.742   6.145   4.551
 9441SOL    HW129222   6.652   6.124   4.512
 9441SOL    HW229223   6.773   6.067   4.605
 9442SOL     OW29224   4.380   3.629   0.636
 9442SOL    HW129225   4.412   3.582   0.718
 9442SOL    HW229226   4.404   3.726   0.641
 9443SOL     OW29227   2.377   4.504   2.752
 9443SOL    HW129228   2.312   4.545   2.688
 9443SOL    HW229229   2.371   4.404   2.746
 9444SOL     OW29230   1.869   4.082   0.339
 9444SOL    HW129231   1.948   4.099   0.399
 9444SOL    HW229232   1.892   4.008   0.276
 9445SOL     OW29233   0.615   1.484   3.717
 9445SOL    HW129234   0.608   1.385   3.704
 9445SOL    HW229235   0.648   1.503   3.810
 9446SOL     OW29236   6.606   5.183   3.273
 9446SOL    HW129237   6.594   5.087   3.300
 9446SOL    HW229238   6.598   5.242   3.353
 9447SOL     OW29239   5.423   4.963   2.486
 9447SOL    HW129240   5.507   4.913   2.470
 9447SOL    HW229241   5.371   4.918   2.559
 9448SOL     OW29242   5.605   0.237   6.191
 9448SOL    HW129243   5.664   0.279   6.261
 9448SOL    HW229244   5.528   0.192   6.235
 9449SOL     OW29245   6.331   6.582   1.471
 9449SOL    HW129246   6.285   6.532   1.398
 9449SOL    HW229247   6.401   6.642   1.430
 9450SOL     OW29248   1.729   5.919   4.237
 9450SOL    HW129249   1.719   5.946   4.333
 9450SOL    HW229250   1.738   6.001   4.180
 9451SOL     OW29251   3.358   5.818   6.939
 9451SOL    HW129252   3.390   5.729   6.971
 9451SOL    HW229253   3.434   5.883   6.940
 9452SOL     OW29254   0.001   4.120   1.012
 9452SOL    HW129255   0.082   4.140   1.066
 9452SOL    HW229256   0.018   4.040   0.954
 9453SOL     OW29257   3.846   5.547   3.475
 9453SOL    HW129258   3.848   5.481   3.400
 9453SOL    HW229259   3.833   5.499   3.561
 9454SOL     OW29260   4.407   4.575   0.798
 9454SOL    HW129261   4.463   4.616   0.870
 9454SOL    HW229262   4.405   4.476   0.810
 9455SOL     OW29263   2.653   2.272   2.137
 9455SOL    HW129264   2.631   2.182   2.100
 9455SOL    HW229265   2.747   2.296   2.113
 9456SOL     OW29266   5.675   2.540   2.440
 9456SOL    HW129267   5.742   2.467   2.448
 9456SOL    HW229268   5.681   2.599   2.521
 9457SOL     OW29269   0.933   4.941   3.703
 9457SOL    HW129270   0.982   5.011   3.757
 9457SOL    HW229271   0.845   4.922   3.746
 9458SOL     OW29272   6.705   4.220   0.152
 9458SOL    HW129273   6.705   4.126   0.185
 9458SOL    HW229274   6.729   4.281   0.228
 9459SOL     OW29275   5.040   4.903   5.069
 9459SOL    HW129276   5.122   4.879   5.017
 9459SOL    HW229277   5.059   4.896   5.166
 9460SOL     OW29278   1.005   2.802   2.910
 9460SOL    HW129279   1.048   2.737   2.847
 9460SOL    HW229280   0.919   2.764   2.944
 9461SOL     OW29281   1.737   2.474   1.676
 9461SOL    HW129282   1.693   2.390   1.646
 9461SOL    HW229283   1.828   2.481   1.635
 9462SOL     OW29284   2.114   1.523   4.491
 9462SOL    HW129285   2.109   1.576   4.576
 9462SOL    HW229286   2.070   1.574   4.417
 9463SOL     OW29287   5.827   6.222   0.772
 9463SOL    HW129288   5.862   6.182   0.688
 9463SOL    HW229289   5.880   6.304   0.795
 9464SOL     OW29290   0.448   1.180   1.703
 9464SOL    HW129291   0.384   1.246   1.663
 9464SOL    HW229292   0.399   1.121   1.767
 9465SOL     OW29293   0.210   4.220   1.173
 9465SOL    HW129294   0.298   4.175   1.157
 9465SOL    HW229295   0.191   4.221   1.271
 9466SOL     OW29296   3.753   5.060   6.999
 9466SOL    HW129297   3.699   5.059   0.056
 9466SOL    HW229298   3.701   5.104   6.926
 9467SOL     OW29299   2.187   3.339   0.782
 9467SOL    HW129300   2.259   3.313   0.846
 9467SOL    HW229301   2.108   3.374   0.832
 9468SOL     OW29302   6.419   3.123   0.614
 9468SOL    HW129303   6.321   3.136   0.596
 9468SOL    HW229304   6.437   3.143   0.711
 9469SOL     OW29305   0.070   6.320   0.700
 9469SOL    HW129306   0.129   6.301   0.621
 9469SOL    HW229307   0.058   6.236   0.753
 9470SOL     OW29308   4.453   3.918   0.610
 9470SOL    HW129309   4.515   3.948   0.682
 9470SOL    HW229310   4.460   3.981   0.532
 9471SOL     OW29311   5.867   2.373   5.077
 9471SOL    HW129312   5.958   2.367   5.119
 9471SOL    HW229313   5.851   2.467   5.046
 9472SOL     OW29314   2.006   4.007   6.411
 9472SOL    HW129315   2.100   4.022   6.382
 9472SOL    HW229316   1.987   3.909   6.414
 9473SOL     OW29317   2.806   4.439   0.381
 9473SOL    HW129318   2.862   4.397   0.452
 9473SOL    HW229319   2.709   4.427   0.405
 9474SOL     OW29320   5.567   3.538   1.495
 9474SOL    HW129321   5.583   3.587   1.581
 9474SOL    HW229322   5.507   3.593   1.437
 9475SOL     OW29323   4.822   3.770   5.865
 9475SOL    HW129324   4.908   3.792   5.817
 9475SOL    HW229325   4.840   3.763   5.963
 9476SOL     OW29326   3.780   3.721   6.280
 9476SOL    HW129327   3.795   3.735   6.378
 9476SOL    HW229328   3.780   3.809   6.233
 9477SOL     OW29329   1.974   4.260   1.628
 9477SOL    HW129330   1.951   4.221   1.539
 9477SOL    HW229331   1.997   4.357   1.617
 9478SOL     OW29332   5.527   2.671   0.361
 9478SOL    HW129333   5.476   2.623   0.289
 9478SOL    HW229334   5.610   2.619   0.383
 9479SOL     OW29335   4.025   0.614   1.920
 9479SOL    HW129336   4.037   0.613   1.820
 9479SOL    HW229337   3.945   0.559   1.944
 9480SOL     OW29338   6.202   6.721   6.896
 9480SOL    HW129339   6.175   6.725   6.992
 9480SOL    HW229340   6.173   6.804   6.849
 9481SOL     OW29341   4.380   1.817   3.024
 9481SOL    HW129342   4.310   1.813   2.953
 9481SOL    HW229343   4.355   1.758   3.100
 9482SOL     OW29344   5.831   0.787   0.934
 9482SOL    HW129345   5.833   0.871   0.988
 9482SOL    HW229346   5.750   0.734   0.958
 9483SOL     OW29347   0.332   0.749   0.701
 9483SOL    HW129348   0.378   0.836   0.682
 9483SOL    HW229349   0.275   0.760   0.783
 9484SOL     OW29350   3.137   5.677   4.651
 9484SOL    HW129351   3.162   5.659   4.746
 9484SOL    HW229352   3.044   5.643   4.634
 9485SOL     OW29353   6.860   1.526   6.936
 9485SOL    HW129354   6.907   1.612   6.958
 9485SOL    HW229355   6.919   1.449   6.958
 9486SOL     OW29356   4.560   5.653   0.190
 9486SOL    HW129357   4.510   5.605   0.118
 9486SOL    HW229358   4.496   5.693   0.255
 9487SOL     OW29359   3.596   3.284   3.960
 9487SOL    HW129360   3.505   3.251   3.985
 9487SOL    HW229361   3.641   3.215   3.902
 9488SOL     OW29362   1.444   1.499   0.825
 9488SOL    HW129363   1.375   1.571   0.826
 9488SOL    HW229364   1.400   1.410   0.837
 9489SOL     OW29365   4.993   4.451   0.381
 9489SOL    HW129366   4.931   4.435   0.458
 9489SOL    HW229367   4.990   4.373   0.319
 9490SOL     OW29368   5.926   3.978   3.630
 9490SOL    HW129369   5.838   4.010   3.596
 9490SOL    HW229370   5.940   3.882   3.603
 9491SOL     OW29371   5.033   6.475   3.278
 9491SOL    HW129372   4.975   6.459   3.359
 9491SOL    HW229373   4.981   6.454   3.195
 9492SOL     OW29374   4.859   2.896   4.561
 9492SOL    HW129375   4.907   2.809   4.560
 9492SOL    HW229376   4.919   2.967   4.599
 9493SOL     OW29377   4.397   6.496   3.631
 9493SOL    HW129378   4.328   6.423   3.636
 9493SOL    HW229379   4.386   6.546   3.545
 9494SOL     OW29380   5.473   2.418   1.950
 9494SOL    HW129381   5.497   2.453   2.041
 9494SOL    HW229382   5.403   2.346   1.960
 9495SOL     OW29383   0.699   1.025   2.473
 9495SOL    HW129384   0.771   0.988   2.415
 9495SOL    HW229385   0.643   0.949   2.508
 9496SOL     OW29386   4.102   2.214   2.284
 9496SOL    HW129387   4.197   2.181   2.279
 9496SOL    HW229388   4.098   2.307   2.246
 9497SOL     OW29389   5.957   4.990   4.487
 9497SOL    HW129390   6.010   4.978   4.571
 9497SOL    HW229391   6.001   4.939   4.413
 9498SOL     OW29392   6.670   5.232   4.656
 9498SOL    HW129393   6.662   5.199   4.749
 9498SOL    HW229394   6.761   5.210   4.620
 9499SOL     OW29395   5.711   5.627   5.550
 9499SOL    HW129396   5.648   5.550   5.564
 9499SOL    HW229397   5.686   5.674   5.465
 9500SOL     OW29398   4.169   0.706   0.792
 9500SOL    HW129399   4.168   0.805   0.811
 9500SOL    HW229400   4.249   0.685   0.736
 9501SOL     OW29401   1.746   2.295   4.677
 9501SOL    HW129402   1.724   2.220   4.740
 9501SOL    HW229403   1.680   2.370   4.690
 9502SOL     OW29404   5.978   4.513   5.491
 9502SOL    HW129405   5.974   4.428   5.438
 9502SOL    HW229406   6.055   4.509   5.554
 9503SOL     OW29407   0.315   2.112   6.851
 9503SOL    HW129408   0.365   2.036   6.809
 9503SOL    HW229409   0.219   2.108   6.822
 9504SOL     OW29410   6.180   4.979   1.848
 9504SOL    HW129411   6.270   5.023   1.849
 9504SOL    HW229412   6.187   4.889   1.891
 9505SOL     OW29413   4.227   4.816   5.149
 9505SOL    HW129414   4.244   4.897   5.205
 9505SOL    HW229415   4.131   4.791   5.154
 9506SOL     OW29416   3.323   2.381   1.391
 9506SOL    HW129417   3.321   2.448   1.316
 9506SOL    HW229418   3.296   2.291   1.356
 9507SOL     OW29419   6.140   0.219   2.055
 9507SOL    HW129420   6.053   0.204   2.008
 9507SOL    HW229421   6.214   0.180   2.001
 9508SOL     OW29422   4.752   1.322   3.150
 9508SOL    HW129423   4.676   1.268   3.186
 9508SOL    HW229424   4.761   1.406   3.203
 9509SOL     OW29425   6.371   0.642   2.603
 9509SOL    HW129426   6.338   0.713   2.665
 9509SOL    HW229427   6.415   0.569   2.656
 9510SOL     OW29428   0.313   3.003   3.434
 9510SOL    HW129429   0.385   3.072   3.433
 9510SOL    HW229430   0.308   2.958   3.346
 9511SOL     OW29431   1.358   1.334   0.222
 9511SOL    HW129432   1.314   1.246   0.242
 9511SOL    HW229433   1.350   1.394   0.301
 9512SOL     OW29434   6.413   2.587   1.390
 9512SOL    HW129435   6.423   2.675   1.435
 9512SOL    HW229436   6.428   2.514   1.457
 9513SOL     OW29437   3.800   4.818   6.923
 9513SOL    HW129438   3.789   4.917   6.923
 9513SOL    HW229439   3.795   4.784   6.829
 9514SOL     OW29440   3.303   3.181   6.506
 9514SOL    HW129441   3.367   3.213   6.575
 9514SOL    HW229442   3.236   3.120   6.548
 9515SOL     OW29443   2.429   4.858   3.615
 9515SOL    HW129444   2.467   4.950   3.617
 9515SOL    HW229445   2.371   4.847   3.535
 9516SOL     OW29446   6.708   3.946   0.545
 9516SOL    HW129447   6.654   3.863   0.531
 9516SOL    HW229448   6.775   3.930   0.618
 9517SOL     OW29449   0.793   4.304   1.326
 9517SOL    HW129450   0.810   4.283   1.423
 9517SOL    HW229451   0.786   4.403   1.315
 9518SOL     OW29452   2.411   1.422   0.402
 9518SOL    HW129453   2.446   1.338   0.359
 9518SOL    HW229454   2.312   1.426   0.391
 9519SOL     OW29455   0.964   2.920   5.394
 9519SOL    HW129456   0.987   2.830   5.355
 9519SOL    HW229457   0.965   2.988   5.321
 9520SOL     OW29458   2.243   0.232   2.983
 9520SOL    HW129459   2.286   0.240   3.073
 9520SOL    HW229460   2.304   0.269   2.913
 9521SOL     OW29461   5.387   5.481   4.294
 9521SOL    HW129462   5.399   5.559   4.355
 9521SOL    HW229463   5.417   5.398   4.340
 9522SOL     OW29464   3.516   6.104   1.080
 9522SOL    HW129465   3.527   6.133   0.985
 9522SOL    HW229466   3.476   6.179   1.133
 9523SOL     OW29467   3.425   4.935   4.854
 9523SOL    HW129468   3.462   5.023   4.885
 9523SOL    HW229469   3.437   4.866   4.926
 9524SOL     OW29470   3.936   3.452   1.048
 9524SOL    HW129471   3.914   3.512   0.971
 9524SOL    HW229472   4.013   3.489   1.099
 9525SOL     OW29473   2.197   0.718   6.020
 9525SOL    HW129474   2.291   0.751   6.009
 9525SOL    HW229475   2.135   0.797   6.025
 9526SOL     OW29476   4.836   5.944   2.935
 9526SOL    HW129477   4.909   5.887   2.898
 9526SOL    HW229478   4.855   5.966   3.030
 9527SOL     OW29479   1.186   1.217   2.367
 9527SOL    HW129480   1.111   1.154   2.350
 9527SOL    HW229481   1.152   1.311   2.369
 9528SOL     OW29482   6.647   0.717   2.094
 9528SOL    HW129483   6.558   0.746   2.057
 9528SOL    HW229484   6.674   0.779   2.168
 9529SOL     OW29485   0.977   2.732   6.235
 9529SOL    HW129486   0.990   2.638   6.266
 9529SOL    HW229487   1.051   2.757   6.172
 9530SOL     OW29488   1.389   2.429   3.253
 9530SOL    HW129489   1.337   2.415   3.169
 9530SOL    HW229490   1.328   2.425   3.332
 9531SOL     OW29491   3.559   0.203   3.240
 9531SOL    HW129492   3.583   0.134   3.308
 9531SOL    HW229493   3.641   0.247   3.206
 9532SOL     OW29494   1.970   6.995   1.688
 9532SOL    HW129495   1.889   7.015   1.633
 9532SOL    HW229496   2.009   0.055   1.722
 9533SOL     OW29497   1.704   0.790   5.766
 9533SOL    HW129498   1.688   0.706   5.817
 9533SOL    HW229499   1.676   0.777   5.671
 9534SOL     OW29500   5.461   2.032   5.008
 9534SOL    HW129501   5.462   1.936   5.037
 9534SOL    HW229502   5.375   2.075   5.036
 9535SOL     OW29503   2.612   1.169   5.553
 9535SOL    HW129504   2.527   1.206   5.590
 9535SOL    HW229505   2.648   1.231   5.483
 9536SOL     OW29506   1.635   5.784   5.332
 9536SOL    HW129507   1.717   5.790   5.389
 9536SOL    HW229508   1.636   5.859   5.265
 9537SOL     OW29509   3.094   0.260   1.830
 9537SOL    HW129510   3.112   0.164   1.847
 9537SOL    HW229511   3.158   0.316   1.883
 9538SOL     OW29512   6.536   2.435   4.935
 9538SOL    HW129513   6.623   2.484   4.946
 9538SOL    HW229514   6.482   2.477   4.863
 9539SOL     OW29515   0.562   6.083   0.188
 9539SOL    HW129516   0.629   6.131   0.131
 9539SOL    HW229517   0.551   5.989   0.156
 9540SOL     OW29518   4.488   5.120   4.654
 9540SOL    HW129519   4.420   5.052   4.630
 9540SOL    HW229520   4.502   5.183   4.577
 9541SOL     OW29521   2.016   2.719   4.231
 9541SOL    HW129522   2.016   2.753   4.326
 9541SOL    HW229523   2.060   2.786   4.172
 9542SOL     OW29524   4.877   3.370   4.713
 9542SOL    HW129525   4.858   3.465   4.738
 9542SOL    HW229526   4.855   3.311   4.790
 9543SOL     OW29527   5.304   1.397   3.086
 9543SOL    HW129528   5.311   1.334   3.163
 9543SOL    HW229529   5.220   1.450   3.094
 9544SOL     OW29530   4.917   1.263   2.707
 9544SOL    HW129531   4.981   1.227   2.639
 9544SOL    HW229532   4.943   1.356   2.732
 9545SOL     OW29533   6.657   1.116   3.760
 9545SOL    HW129534   6.670   1.069   3.847
 9545SOL    HW229535   6.640   1.213   3.777
 9546SOL     OW29536   2.641   5.554   0.376
 9546SOL    HW129537   2.659   5.521   0.283
 9546SOL    HW229538   2.558   5.610   0.375
 9547SOL     OW29539   0.715   6.535   4.306
 9547SOL    HW129540   0.638   6.598   4.292
 9547SOL    HW229541   0.682   6.452   4.350
 9548SOL     OW29542   4.868   5.998   4.192
 9548SOL    HW129543   4.958   6.026   4.226
 9548SOL    HW229544   4.873   5.980   4.094
 9549SOL     OW29545   2.541   6.350   0.683
 9549SOL    HW129546   2.550   6.435   0.733
 9549SOL    HW229547   2.563   6.273   0.743
 9550SOL     OW29548   1.326   1.883   0.391
 9550SOL    HW129549   1.247   1.856   0.336
 9550SOL    HW229550   1.366   1.967   0.353
 9551SOL     OW29551   0.622   6.550   4.982
 9551SOL    HW129552   0.564   6.469   4.969
 9551SOL    HW229553   0.581   6.629   4.936
 9552SOL     OW29554   1.737   5.914   3.129
 9552SOL    HW129555   1.670   5.857   3.082
 9552SOL    HW229556   1.801   5.857   3.179
 9553SOL     OW29557   6.141   4.332   5.702
 9553SOL    HW129558   6.199   4.283   5.767
 9553SOL    HW229559   6.065   4.273   5.674
 9554SOL     OW29560   2.359   1.168   1.902
 9554SOL    HW129561   2.440   1.154   1.959
 9554SOL    HW229562   2.288   1.213   1.956
 9555SOL     OW29563   6.935   2.466   0.701
 9555SOL    HW129564   7.012   2.499   0.645
 9555SOL    HW229565   6.942   2.504   0.793
 9556SOL     OW29566   2.158   1.542   1.309
 9556SOL    HW129567   2.183   1.491   1.391
 9556SOL    HW229568   2.152   1.639   1.331
 9557SOL     OW29569   5.449   0.164   2.389
 9557SOL    HW129570   5.488   0.199   2.474
 9557SOL    HW229571   5.410   0.074   2.405
 9558SOL     OW29572   6.564   5.008   2.784
 9558SOL    HW129573   6.651   5.030   2.739
 9558SOL    HW229574   6.506   4.956   2.722
 9559SOL     OW29575   6.663   3.242   1.557
 9559SOL    HW129576   6.587   3.216   1.617
 9559SOL    HW229577   6.750   3.223   1.602
 9560SOL     OW29578   3.214   1.461   3.765
 9560SOL    HW129579   3.136   1.424   3.817
 9560SOL    HW229580   3.181   1.529   3.700
 9561SOL     OW29581   4.284   6.763   0.859
 9561SOL    HW129582   4.353   6.835   0.870
 9561SOL    HW229583   4.328   6.674   0.863
 9562SOL     OW29584   5.187   4.822   3.073
 9562SOL    HW129585   5.105   4.857   3.029
 9562SOL    HW229586   5.268   4.859   3.026
 9563SOL     OW29587   6.492   5.809   0.160
 9563SOL    HW129588   6.428   5.871   0.114
 9563SOL    HW229589   6.575   5.801   0.105
 9564SOL     OW29590   2.921   6.631   0.194
 9564SOL    HW129591   3.016   6.599   0.200
 9564SOL    HW229592   2.903   6.695   0.269
 9565SOL     OW29593   3.915   5.610   4.629
 9565SOL    HW129594   3.845   5.579   4.694
 9565SOL    HW229595   3.883   5.596   4.536
 9566SOL     OW29596   2.735   4.377   5.333
 9566SOL    HW129597   2.719   4.284   5.298
 9566SOL    HW229598   2.820   4.413   5.295
 9567SOL     OW29599   6.022   5.542   5.571
 9567SOL    HW129600   6.037   5.448   5.602
 9567SOL    HW229601   5.924   5.559   5.563
 9568SOL     OW29602   4.763   3.667   6.535
 9568SOL    HW129603   4.799   3.669   6.629
 9568SOL    HW229604   4.673   3.709   6.533
 9569SOL     OW29605   6.361   0.891   0.244
 9569SOL    HW129606   6.339   0.987   0.260
 9569SOL    HW229607   6.388   0.879   0.148
 9570SOL     OW29608   1.220   1.072   0.328
 9570SOL    HW129609   1.156   1.089   0.403
 9570SOL    HW229610   1.283   0.999   0.355
 9571SOL     OW29611   2.081   3.879   0.413
 9571SOL    HW129612   2.137   3.796   0.419
 9571SOL    HW229613   2.048   3.890   0.319
 9572SOL     OW29614   1.288   4.192   1.712
 9572SOL    HW129615   1.252   4.282   1.687
 9572SOL    HW229616   1.383   4.184   1.682
 9573SOL     OW29617   1.869   1.580   0.576
 9573SOL    HW129618   1.828   1.500   0.621
 9573SOL    HW229619   1.967   1.567   0.567
 9574SOL     OW29620   2.953   2.705   5.811
 9574SOL    HW129621   2.980   2.621   5.859
 9574SOL    HW229622   3.029   2.738   5.756
 9575SOL     OW29623   5.424   0.835   2.554
 9575SOL    HW129624   5.490   0.764   2.531
 9575SOL    HW229625   5.387   0.818   2.645
 9576SOL     OW29626   3.064   1.322   4.989
 9576SOL    HW129627   3.024   1.370   5.067
 9576SOL    HW229628   2.998   1.320   4.914
 9577SOL     OW29629   0.945   6.356   3.233
 9577SOL    HW129630   1.032   6.355   3.184
 9577SOL    HW229631   0.870   6.354   3.167
 9578SOL     OW29632   6.032   2.495   2.283
 9578SOL    HW129633   6.064   2.581   2.244
 9578SOL    HW229634   5.945   2.470   2.241
 9579SOL     OW29635   0.938   6.563   2.336
 9579SOL    HW129636   1.024   6.523   2.302
 9579SOL    HW229637   0.912   6.517   2.421
 9580SOL     OW29638   4.426   3.267   5.629
 9580SOL    HW129639   4.518   3.301   5.648
 9580SOL    HW229640   4.359   3.339   5.646
 9581SOL     OW29641   0.792   4.527   6.090
 9581SOL    HW129642   0.866   4.539   6.155
 9581SOL    HW229643   0.774   4.613   6.042
 9582SOL     OW29644   4.379   4.846   4.644
 9582SOL    HW129645   4.412   4.766   4.594
 9582SOL    HW229646   4.355   4.820   4.737
 9583SOL     OW29647   1.704   4.480   2.109
 9583SOL    HW129648   1.633   4.410   2.115
 9583SOL    HW229649   1.690   4.535   2.027
 9584SOL     OW29650   6.140   5.814   6.045
 9584SOL    HW129651   6.161   5.747   5.974
 9584SOL    HW229652   6.201   5.799   6.123
 9585SOL     OW29653   5.938   0.268   4.704
 9585SOL    HW129654   5.927   0.239   4.609
 9585SOL    HW229655   6.031   0.299   4.719
 9586SOL     OW29656   5.691   3.383   3.004
 9586SOL    HW129657   5.683   3.397   2.906
 9586SOL    HW229658   5.601   3.367   3.043
 9587SOL     OW29659   4.941   7.014   2.587
 9587SOL    HW129660   4.900   6.951   2.521
 9587SOL    HW229661   4.915   0.081   2.563
 9588SOL     OW29662   0.800   0.707   1.943
 9588SOL    HW129663   0.741   0.786   1.928
 9588SOL    HW229664   0.892   0.739   1.967
 9589SOL     OW29665   2.780   1.447   6.497
 9589SOL    HW129666   2.805   1.514   6.567
 9589SOL    HW229667   2.682   1.429   6.502
 9590SOL     OW29668   6.661   4.285   4.013
 9590SOL    HW129669   6.706   4.361   4.061
 9590SOL    HW229670   6.628   4.317   3.925
 9591SOL     OW29671   1.280   5.192   1.491
 9591SOL    HW129672   1.265   5.203   1.393
 9591SOL    HW229673   1.376   5.167   1.507
 9592SOL     OW29674   4.698   5.175   1.847
 9592SOL    HW129675   4.669   5.252   1.790
 9592SOL    HW229676   4.798   5.172   1.849
 9593SOL     OW29677   0.394   2.693   4.487
 9593SOL    HW129678   0.381   2.594   4.474
 9593SOL    HW229679   0.488   2.711   4.516
 9594SOL     OW29680   6.182   0.117   2.562
 9594SOL    HW129681   6.122   0.172   2.620
 9594SOL    HW229682   6.133   0.088   2.480
 9595SOL     OW29683   1.239   5.552   4.003
 9595SOL    HW129684   1.230   5.639   4.052
 9595SOL    HW229685   1.333   5.541   3.971
 9596SOL     OW29686   5.272   5.974   4.947
 9596SOL    HW129687   5.342   5.973   4.876
 9596SOL    HW229688   5.233   6.066   4.953
 9597SOL     OW29689   1.748   3.903   1.233
 9597SOL    HW129690   1.779   3.949   1.150
 9597SOL    HW229691   1.671   3.843   1.211
 9598SOL     OW29692   0.039   5.581   6.125
 9598SOL    HW129693   0.023   5.679   6.116
 9598SOL    HW229694   0.066   5.559   6.218
 9599SOL     OW29695   4.762   1.498   5.296
 9599SOL    HW129696   4.705   1.577   5.318
 9599SOL    HW229697   4.837   1.527   5.236
 9600SOL     OW29698   1.433   0.202   6.481
 9600SOL    HW129699   1.502   0.148   6.528
 9600SOL    HW229700   1.471   0.238   6.395
 9601SOL     OW29701   0.106   5.412   5.420
 9601SOL    HW129702   0.018   5.365   5.408
 9601SOL    HW229703   0.174   5.373   5.358
 9602SOL     OW29704   1.266   5.622   0.305
 9602SOL    HW129705   1.210   5.680   0.246
 9602SOL    HW229706   1.213   5.594   0.385
 9603SOL     OW29707   1.669   6.015   4.514
 9603SOL    HW129708   1.723   6.059   4.586
 9603SOL    HW229709   1.572   6.034   4.530
 9604SOL     OW29710   6.208   1.345   0.036
 9604SOL    HW129711   6.193   1.337   0.135
 9604SOL    HW229712   6.303   1.323   0.015
 9605SOL     OW29713   2.133   6.224   6.611
 9605SOL    HW129714   2.186   6.307   6.594
 9605SOL    HW229715   2.179   6.145   6.570
 9606SOL     OW29716   6.054   6.603   3.667
 9606SOL    HW129717   6.081   6.621   3.573
 9606SOL    HW229718   6.121   6.644   3.729
 9607SOL     OW29719   1.315   1.966   1.945
 9607SOL    HW129720   1.270   1.960   2.035
 9607SOL    HW229721   1.358   2.055   1.936
 9608SOL     OW29722   0.785   0.063   2.163
 9608SOL    HW129723   0.850   0.135   2.191
 9608SOL    HW229724   0.837   7.009   2.131
 9609SOL     OW29725   1.239   3.706   5.087
 9609SOL    HW129726   1.190   3.623   5.062
 9609SOL    HW229727   1.206   3.783   5.033
 9610SOL     OW29728   2.468   1.747   6.166
 9610SOL    HW129729   2.566   1.765   6.156
 9610SOL    HW229730   2.450   1.649   6.156
 9611SOL     OW29731   6.486   0.139   1.107
 9611SOL    HW129732   6.559   0.072   1.112
 9611SOL    HW229733   6.491   0.200   1.187
 9612SOL     OW29734   5.529   2.733   1.580
 9612SOL    HW129735   5.527   2.727   1.480
 9612SOL    HW229736   5.492   2.649   1.619
 9613SOL     OW29737   5.994   6.330   5.241
 9613SOL    HW129738   5.953   6.277   5.316
 9613SOL    HW229739   5.924   6.349   5.172
 9614SOL     OW29740   3.881   3.570   2.456
 9614SOL    HW129741   3.785   3.587   2.478
 9614SOL    HW229742   3.934   3.563   2.540
 9615SOL     OW29743   1.156   6.082   3.170
 9615SOL    HW129744   1.120   6.074   3.263
 9615SOL    HW229745   1.226   6.013   3.156
 9616SOL     OW29746   3.240   3.524   0.691
 9616SOL    HW129747   3.162   3.558   0.743
 9616SOL    HW229748   3.207   3.479   0.608
 9617SOL     OW29749   0.410   3.764   4.034
 9617SOL    HW129750   0.379   3.687   3.978
 9617SOL    HW229751   0.428   3.843   3.976
 9618SOL     OW29752   4.257   6.194   6.721
 9618SOL    HW129753   4.206   6.263   6.772
 9618SOL    HW229754   4.308   6.238   6.647
 9619SOL     OW29755   2.539   6.714   0.265
 9619SOL    HW129756   2.533   6.633   0.323
 9619SOL    HW229757   2.556   6.794   0.323
 9620SOL     OW29758   3.244   1.145   6.244
 9620SOL    HW129759   3.211   1.080   6.312
 9620SOL    HW229760   3.337   1.120   6.216
 9621SOL     OW29761   0.883   0.731   1.239
 9621SOL    HW129762   0.937   0.759   1.319
 9621SOL    HW229763   0.860   0.634   1.248
 9622SOL     OW29764   6.174   0.467   6.047
 9622SOL    HW129765   6.244   0.539   6.044
 9622SOL    HW229766   6.101   0.489   5.983
 9623SOL     OW29767   4.145   6.290   6.360
 9623SOL    HW129768   4.197   6.226   6.417
 9623SOL    HW229769   4.153   6.382   6.398
 9624SOL     OW29770   3.715   5.054   4.769
 9624SOL    HW129771   3.774   5.106   4.707
 9624SOL    HW229772   3.644   5.009   4.717
 9625SOL     OW29773   4.933   4.137   6.071
 9625SOL    HW129774   4.998   4.181   6.134
 9625SOL    HW229775   4.861   4.202   6.048
 9626SOL     OW29776   2.456   3.999   5.930
 9626SOL    HW129777   2.436   4.039   5.840
 9626SOL    HW229778   2.543   4.034   5.963
 9627SOL     OW29779   0.967   5.609   0.238
 9627SOL    HW129780   0.969   5.651   0.329
 9627SOL    HW229781   0.977   5.510   0.247
 9628SOL     OW29782   5.775   2.402   6.605
 9628SOL    HW129783   5.835   2.434   6.532
 9628SOL    HW229784   5.819   2.326   6.653
 9629SOL     OW29785   0.253   5.661   3.701
 9629SOL    HW129786   0.324   5.602   3.662
 9629SOL    HW229787   0.258   5.657   3.801
 9630SOL     OW29788   6.296   5.946   6.717
 9630SOL    HW129789   6.293   5.889   6.800
 9630SOL    HW229790   6.283   6.042   6.742
 9631SOL     OW29791   4.361   0.718   0.530
 9631SOL    HW129792   4.342   0.670   0.445
 9631SOL    HW229793   4.458   0.742   0.534
 9632SOL     OW29794   3.552   6.154   1.883
 9632SOL    HW129795   3.627   6.090   1.871
 9632SOL    HW229796   3.519   6.151   1.977
 9633SOL     OW29797   3.168   2.950   2.742
 9633SOL    HW129798   3.156   2.940   2.841
 9633SOL    HW229799   3.252   2.904   2.714
 9634SOL     OW29800   5.256   4.643   2.485
 9634SOL    HW129801   5.170   4.694   2.487
 9634SOL    HW229802   5.321   4.683   2.549
 9635SOL     OW29803   0.482   4.345   4.050
 9635SOL    HW129804   0.533   4.271   4.094
 9635SOL    HW229805   0.384   4.329   4.062
 9636SOL     OW29806   4.734   2.682   4.792
 9636SOL    HW129807   4.812   2.626   4.822
 9636SOL    HW229808   4.686   2.634   4.718
 9637SOL     OW29809   2.411   2.757   0.503
 9637SOL    HW129810   2.359   2.842   0.499
 9637SOL    HW229811   2.424   2.731   0.599
 9638SOL     OW29812   6.836   4.910   5.619
 9638SOL    HW129813   6.907   4.923   5.550
 9638SOL    HW229814   6.875   4.864   5.699
 9639SOL     OW29815   3.710   1.254   2.830
 9639SOL    HW129816   3.625   1.301   2.810
 9639SOL    HW229817   3.769   1.256   2.750
 9640SOL     OW29818   3.660   0.582   3.272
 9640SOL    HW129819   3.638   0.519   3.197
 9640SOL    HW229820   3.752   0.619   3.258
 9641SOL     OW29821   6.212   4.169   2.748
 9641SOL    HW129822   6.114   4.184   2.742
 9641SOL    HW229823   6.234   4.079   2.709
 9642SOL     OW29824   1.627   0.364   3.913
 9642SOL    HW129825   1.577   0.322   3.989
 9642SOL    HW229826   1.711   0.406   3.948
 9643SOL     OW29827   5.117   4.606   4.177
 9643SOL    HW129828   5.060   4.560   4.245
 9643SOL    HW229829   5.212   4.604   4.206
 9644SOL     OW29830   1.384   5.943   4.462
 9644SOL    HW129831   1.311   5.936   4.393
 9644SOL    HW229832   1.344   5.934   4.553
 9645SOL     OW29833   0.659   5.544   0.090
 9645SOL    HW129834   0.730   5.552   0.020
 9645SOL    HW229835   0.644   5.633   0.134
 9646SOL     OW29836   3.528   6.120   6.165
 9646SOL    HW129837   3.587   6.051   6.123
 9646SOL    HW229838   3.566   6.146   6.254
 9647SOL     OW29839   6.096   6.968   3.095
 9647SOL    HW129840   6.094   6.971   2.995
 9647SOL    HW229841   6.190   6.980   3.126
 9648SOL     OW29842   4.357   2.360   1.114
 9648SOL    HW129843   4.431   2.353   1.047
 9648SOL    HW229844   4.296   2.281   1.105
 9649SOL     OW29845   1.767   5.043   6.953
 9649SOL    HW129846   1.725   5.131   6.974
 9649SOL    HW229847   1.866   5.055   6.941
 9650SOL     OW29848   0.032   4.963   4.878
 9650SOL    HW129849   0.093   4.888   4.901
 9650SOL    HW229850   0.081   5.050   4.888
 9651SOL     OW29851   3.925   1.082   0.454
 9651SOL    HW129852   3.968   1.158   0.503
 9651SOL    HW229853   3.896   1.013   0.520
 9652SOL     OW29854   6.969   3.864   0.451
 9652SOL    HW129855   6.954   3.779   0.502
 9652SOL    HW229856   7.001   3.842   0.359
 9653SOL     OW29857   4.113   4.126   6.337
 9653SOL    HW129858   4.131   4.069   6.257
 9653SOL    HW229859   4.163   4.089   6.416
 9654SOL     OW29860   3.677   3.439   3.184
 9654SOL    HW129861   3.736   3.519   3.182
 9654SOL    HW229862   3.599   3.457   3.244
 9655SOL     OW29863   3.947   1.151   1.863
 9655SOL    HW129864   3.924   1.227   1.802
 9655SOL    HW229865   4.041   1.121   1.845
 9656SOL     OW29866   5.802   3.875   1.221
 9656SOL    HW129867   5.823   3.785   1.183
 9656SOL    HW229868   5.704   3.893   1.210
 9657SOL     OW29869   5.684   3.284   3.733
 9657SOL    HW129870   5.622   3.323   3.665
 9657SOL    HW229871   5.775   3.275   3.693
 9658SOL     OW29872   5.084   2.031   2.543
 9658SOL    HW129873   5.110   2.033   2.446
 9658SOL    HW229874   5.156   1.988   2.597
 9659SOL     OW29875   2.884   3.317   0.590
 9659SOL    HW129876   2.844   3.337   0.680
 9659SOL    HW229877   2.891   3.401   0.537
 9660SOL     OW29878   0.398   5.981   1.194
 9660SOL    HW129879   0.384   6.012   1.288
 9660SOL    HW229880   0.496   5.975   1.175
 9661SOL     OW29881   5.314   4.974   0.581
 9661SOL    HW129882   5.239   5.022   0.628
 9661SOL    HW229883   5.394   4.972   0.641
 9662SOL     OW29884   5.180   4.538   6.553
 9662SOL    HW129885   5.128   4.586   6.623
 9662SOL    HW229886   5.276   4.567   6.556
 9663SOL     OW29887   0.782   5.068   3.427
 9663SOL    HW129888   0.695   5.117   3.428
 9663SOL    HW229889   0.784   5.003   3.504
 9664SOL     OW29890   5.331   4.082   3.060
 9664SOL    HW129891   5.269   4.004   3.069
 9664SOL    HW229892   5.416   4.063   3.110
 9665SOL     OW29893   5.364   5.433   5.855
 9665SOL    HW129894   5.451   5.385   5.864
 9665SOL    HW229895   5.380   5.526   5.821
 9666SOL     OW29896   5.704   3.554   0.358
 9666SOL    HW129897   5.750   3.466   0.347
 9666SOL    HW229898   5.605   3.539   0.361
 9667SOL     OW29899   5.818   6.022   0.071
 9667SOL    HW129900   5.897   6.070   0.109
 9667SOL    HW229901   5.735   6.071   0.096
 9668SOL     OW29902   0.329   0.213   5.461
 9668SOL    HW129903   0.276   0.298   5.468
 9668SOL    HW229904   0.384   0.201   5.544
 9669SOL     OW29905   3.546   0.023   0.107
 9669SOL    HW129906   3.571   6.983   0.178
 9669SOL    HW229907   3.478   0.086   0.143
 9670SOL     OW29908   0.635   0.176   6.505
 9670SOL    HW129909   0.598   0.097   6.456
 9670SOL    HW229910   0.584   0.191   6.589
 9671SOL     OW29911   1.150   5.200   6.027
 9671SOL    HW129912   1.200   5.129   5.978
 9671SOL    HW229913   1.143   5.282   5.969
 9672SOL     OW29914   0.244   3.455   4.584
 9672SOL    HW129915   0.253   3.554   4.587
 9672SOL    HW229916   0.179   3.425   4.654
 9673SOL     OW29917   2.435   4.187   1.277
 9673SOL    HW129918   2.446   4.093   1.310
 9673SOL    HW229919   2.348   4.223   1.309
 9674SOL     OW29920   3.027   6.382   3.952
 9674SOL    HW129921   3.004   6.474   3.981
 9674SOL    HW229922   3.076   6.334   4.025
 9675SOL     OW29923   4.734   4.254   1.503
 9675SOL    HW129924   4.666   4.211   1.563
 9675SOL    HW229925   4.789   4.183   1.458
 9676SOL     OW29926   1.519   2.960   5.972
 9676SOL    HW129927   1.446   2.956   5.903
 9676SOL    HW229928   1.605   2.988   5.928
 9677SOL     OW29929   6.675   5.459   0.700
 9677SOL    HW129930   6.618   5.472   0.781
 9677SOL    HW229931   6.616   5.442   0.621
 9678SOL     OW29932   3.666   3.338   4.986
 9678SOL    HW129933   3.613   3.254   4.998
 9678SOL    HW229934   3.751   3.332   5.037
 9679SOL     OW29935   1.809   1.438   5.176
 9679SOL    HW129936   1.810   1.499   5.256
 9679SOL    HW229937   1.833   1.345   5.204
 9680SOL     OW29938   4.380   5.605   3.080
 9680SOL    HW129939   4.450   5.666   3.118
 9680SOL    HW229940   4.362   5.632   2.985
 9681SOL     OW29941   1.782   1.978   2.230
 9681SOL    HW129942   1.857   2.014   2.175
 9681SOL    HW229943   1.736   2.052   2.278
 9682SOL     OW29944   4.981   5.447   5.129
 9682SOL    HW129945   4.913   5.450   5.056
 9682SOL    HW229946   4.966   5.367   5.186
 9683SOL     OW29947   3.221   6.245   1.564
 9683SOL    HW129948   3.152   6.256   1.636
 9683SOL    HW229949   3.192   6.294   1.482
 9684SOL     OW29950   1.006   4.095   5.787
 9684SOL    HW129951   0.937   4.115   5.718
 9684SOL    HW229952   0.983   4.144   5.872
 9685SOL     OW29953   3.885   4.820   1.592
 9685SOL    HW129954   3.955   4.769   1.542
 9685SOL    HW229955   3.909   4.917   1.595
 9686SOL     OW29956   0.211   2.010   5.856
 9686SOL    HW129957   0.234   1.990   5.760
 9686SOL    HW229958   0.292   2.046   5.902
 9687SOL     OW29959   6.198   0.724   2.289
 9687SOL    HW129960   6.172   0.729   2.385
 9687SOL    HW229961   6.265   0.652   2.276
 9688SOL     OW29962   0.387   4.459   1.389
 9688SOL    HW129963   0.310   4.482   1.449
 9688SOL    HW229964   0.409   4.538   1.332
 9689SOL     OW29965   1.203   6.791   0.953
 9689SOL    HW129966   1.204   6.777   1.052
 9689SOL    HW229967   1.112   6.823   0.925
 9690SOL     OW29968   5.459   5.292   5.181
 9690SOL    HW129969   5.383   5.228   5.182
 9690SOL    HW229970   5.432   5.378   5.224
 9691SOL     OW29971   3.271   3.468   1.701
 9691SOL    HW129972   3.307   3.445   1.611
 9691SOL    HW229973   3.182   3.424   1.713
 9692SOL     OW29974   4.784   5.377   0.460
 9692SOL    HW129975   4.791   5.344   0.366
 9692SOL    HW229976   4.872   5.368   0.506
 9693SOL     OW29977   5.106   3.815   4.251
 9693SOL    HW129978   5.049   3.830   4.170
 9693SOL    HW229979   5.186   3.874   4.246
 9694SOL     OW29980   3.391   6.204   2.359
 9694SOL    HW129981   3.362   6.171   2.449
 9694SOL    HW229982   3.311   6.218   2.301
 9695SOL     OW29983   0.452   2.492   3.768
 9695SOL    HW129984   0.513   2.572   3.770
 9695SOL    HW229985   0.417   2.480   3.674
 9696SOL     OW29986   5.423   1.680   2.584
 9696SOL    HW129987   5.413   1.692   2.485
 9696SOL    HW229988   5.426   1.770   2.628
 9697SOL     OW29989   0.155   6.076   0.190
 9697SOL    HW129990   0.223   6.004   0.197
 9697SOL    HW229991   0.194   6.155   0.144
 9698SOL     OW29992   5.887   3.741   0.313
 9698SOL    HW129993   5.811   3.686   0.347
 9698SOL    HW229994   5.907   3.714   0.219
 9699SOL     OW29995   1.249   4.734   0.904
 9699SOL    HW129996   1.168   4.693   0.862
 9699SOL    HW229997   1.296   4.791   0.837
 9700SOL     OW29998   5.771   6.404   5.082
 9700SOL    HW129999   5.694   6.340   5.083
 9700SOL    HW230000   5.739   6.494   5.113
 9701SOL     OW30001   4.744   3.250   6.295
 9701SOL    HW130002   4.732   3.237   6.197
 9701SOL    HW230003   4.676   3.195   6.344
 9702SOL     OW30004   3.804   3.276   1.200
 9702SOL    HW130005   3.848   3.337   1.135
 9702SOL    HW230006   3.825   3.181   1.177
 9703SOL     OW30007   6.178   3.894   5.010
 9703SOL    HW130008   6.113   3.929   4.943
 9703SOL    HW230009   6.248   3.964   5.029
 9704SOL     OW30010   2.209   4.081   3.088
 9704SOL    HW130011   2.214   3.995   3.138
 9704SOL    HW230012   2.247   4.154   3.145
 9705SOL     OW30013   5.972   3.612   5.644
 9705SOL    HW130014   5.928   3.694   5.681
 9705SOL    HW230015   6.017   3.634   5.558
 9706SOL     OW30016   1.658   2.041   1.997
 9706SOL    HW130017   1.592   2.046   2.072
 9706SOL    HW230018   1.746   2.079   2.026
 9707SOL     OW30019   6.508   4.913   2.506
 9707SOL    HW130020   6.591   4.955   2.471
 9707SOL    HW230021   6.504   4.817   2.478
 9708SOL     OW30022   2.061   0.637   1.674
 9708SOL    HW130023   2.102   0.685   1.752
 9708SOL    HW230024   2.072   0.538   1.686
 9709SOL     OW30025   5.455   2.305   2.451
 9709SOL    HW130026   5.407   2.287   2.365
 9709SOL    HW230027   5.554   2.299   2.436
 9710SOL     OW30028   5.904   5.381   4.666
 9710SOL    HW130029   5.941   5.366   4.574
 9710SOL    HW230030   5.821   5.436   4.660
 9711SOL     OW30031   3.819   6.705   0.029
 9711SOL    HW130032   3.736   6.733   7.008
 9711SOL    HW230033   3.882   6.782   0.034
 9712SOL     OW30034   6.046   2.168   0.233
 9712SOL    HW130035   6.085   2.080   0.207
 9712SOL    HW230036   6.116   2.239   0.224
 9713SOL     OW30037   1.652   6.328   3.901
 9713SOL    HW130038   1.599   6.395   3.849
 9713SOL    HW230039   1.596   6.246   3.917
 9714SOL     OW30040   3.106   4.936   4.839
 9714SOL    HW130041   3.075   4.900   4.927
 9714SOL    HW230042   3.205   4.945   4.839
 9715SOL     OW30043   6.158   3.889   0.676
 9715SOL    HW130044   6.144   3.795   0.707
 9715SOL    HW230045   6.233   3.892   0.610
 9716SOL     OW30046   2.757   4.949   6.959
 9716SOL    HW130047   2.708   4.863   6.943
 9716SOL    HW230048   2.854   4.929   6.974
 9717SOL     OW30049   4.272   0.836   5.951
 9717SOL    HW130050   4.323   0.917   5.922
 9717SOL    HW230051   4.310   0.755   5.905
 9718SOL     OW30052   3.042   1.664   0.334
 9718SOL    HW130053   3.055   1.664   0.433
 9718SOL    HW230054   2.951   1.628   0.312
 9719SOL     OW30055   4.505   6.359   5.339
 9719SOL    HW130056   4.438   6.399   5.277
 9719SOL    HW230057   4.532   6.427   5.407
 9720SOL     OW30058   1.829   3.979   3.245
 9720SOL    HW130059   1.839   4.002   3.342
 9720SOL    HW230060   1.808   3.881   3.236
 9721SOL     OW30061   0.758   2.146   0.581
 9721SOL    HW130062   0.852   2.110   0.575
 9721SOL    HW230063   0.744   2.214   0.509
 9722SOL     OW30064   3.836   2.929   4.965
 9722SOL    HW130065   3.796   2.866   4.899
 9722SOL    HW230066   3.841   2.886   5.055
 9723SOL     OW30067   6.351   5.385   4.156
 9723SOL    HW130068   6.371   5.318   4.227
 9723SOL    HW230069   6.256   5.374   4.126
 9724SOL     OW30070   0.647   5.756   0.277
 9724SOL    HW130071   0.720   5.810   0.318
 9724SOL    HW230072   0.574   5.742   0.344
 9725SOL     OW30073   3.202   5.366   5.558
 9725SOL    HW130074   3.283   5.308   5.553
 9725SOL    HW230075   3.148   5.341   5.638
 9726SOL     OW30076   5.842   0.921   4.386
 9726SOL    HW130077   5.872   0.864   4.462
 9726SOL    HW230078   5.756   0.966   4.410
 9727SOL     OW30079   0.943   1.388   6.952
 9727SOL    HW130080   0.878   1.315   6.932
 9727SOL    HW230081   1.005   1.359   7.024
 9728SOL     OW30082   5.259   0.056   6.069
 9728SOL    HW130083   5.246   6.983   6.061
 9728SOL    HW230084   5.333   0.084   6.008
 9729SOL     OW30085   0.505   4.826   3.473
 9729SOL    HW130086   0.555   4.739   3.481
 9729SOL    HW230087   0.512   4.860   3.380
 9730SOL     OW30088   0.410   4.331   3.215
 9730SOL    HW130089   0.373   4.314   3.306
 9730SOL    HW230090   0.417   4.244   3.165
 9731SOL     OW30091   5.222   3.787   2.797
 9731SOL    HW130092   5.222   3.693   2.832
 9731SOL    HW230093   5.133   3.809   2.758
 9732SOL     OW30094   1.416   3.206   2.372
 9732SOL    HW130095   1.413   3.289   2.428
 9732SOL    HW230096   1.330   3.197   2.321
 9733SOL     OW30097   6.539   5.242   2.598
 9733SOL    HW130098   6.572   5.186   2.522
 9733SOL    HW230099   6.469   5.305   2.565
 9734SOL     OW30100   6.154   6.937   6.486
 9734SOL    HW130101   6.240   6.930   6.536
 9734SOL    HW230102   6.079   6.951   6.552
 9735SOL     OW30103   1.479   1.916   2.270
 9735SOL    HW130104   1.382   1.940   2.274
 9735SOL    HW230105   1.533   1.992   2.307
 9736SOL     OW30106   4.671   2.505   5.100
 9736SOL    HW130107   4.733   2.565   5.050
 9736SOL    HW230108   4.624   2.557   5.171
 9737SOL     OW30109   6.038   2.093   2.457
 9737SOL    HW130110   6.016   2.090   2.555
 9737SOL    HW230111   5.963   2.135   2.407
 9738SOL     OW30112   1.733   6.020   1.374
 9738SOL    HW130113   1.768   5.932   1.405
 9738SOL    HW230114   1.757   6.091   1.440
 9739SOL     OW30115   5.619   0.180   0.283
 9739SOL    HW130116   5.645   0.158   0.377
 9739SOL    HW230117   5.593   0.276   0.277
 9740SOL     OW30118   6.988   0.733   2.778
 9740SOL    HW130119   0.027   0.792   2.824
 9740SOL    HW230120   6.901   0.734   2.828
 9741SOL     OW30121   3.202   1.142   4.595
 9741SOL    HW130122   3.249   1.225   4.625
 9741SOL    HW230123   3.190   1.146   4.495
 9742SOL     OW30124   4.227   2.059   6.037
 9742SOL    HW130125   4.141   2.109   6.032
 9742SOL    HW230126   4.243   2.011   5.951
 9743SOL     OW30127   6.023   2.879   3.476
 9743SOL    HW130128   5.982   2.847   3.391
 9743SOL    HW230129   5.961   2.945   3.520
 9744SOL     OW30130   1.570   6.956   3.500
 9744SOL    HW130131   1.579   6.911   3.411
 9744SOL    HW230132   1.596   0.026   3.491
 9745SOL     OW30133   6.688   0.975   5.687
 9745SOL    HW130134   6.786   0.989   5.673
 9745SOL    HW230135   6.665   0.879   5.668
 9746SOL     OW30136   4.805   5.356   5.908
 9746SOL    HW130137   4.792   5.410   5.991
 9746SOL    HW230138   4.897   5.369   5.873
 9747SOL     OW30139   2.387   2.667   2.106
 9747SOL    HW130140   2.363   2.621   2.191
 9747SOL    HW230141   2.455   2.612   2.057
 9748SOL     OW30142   1.311   0.636   3.045
 9748SOL    HW130143   1.275   0.619   2.953
 9748SOL    HW230144   1.381   0.568   3.067
 9749SOL     OW30145   7.015   1.762   2.437
 9749SOL    HW130146   0.058   1.730   2.501
 9749SOL    HW230147   0.005   1.722   2.347
 9750SOL     OW30148   6.139   4.454   3.708
 9750SOL    HW130149   6.192   4.415   3.784
 9750SOL    HW230150   6.055   4.495   3.744
 9751SOL     OW30151   2.528   1.047   1.724
 9751SOL    HW130152   2.615   1.081   1.687
 9751SOL    HW230153   2.473   1.124   1.757
 9752SOL     OW30154   3.900   2.947   0.605
 9752SOL    HW130155   3.858   3.026   0.560
 9752SOL    HW230156   3.836   2.910   0.672
 9753SOL     OW30157   6.203   5.962   5.110
 9753SOL    HW130158   6.250   5.951   5.198
 9753SOL    HW230159   6.108   5.987   5.127
 9754SOL     OW30160   3.726   0.325   1.520
 9754SOL    HW130161   3.687   0.322   1.428
 9754SOL    HW230162   3.780   0.409   1.530
 9755SOL     OW30163   3.528   4.050   6.154
 9755SOL    HW130164   3.624   4.028   6.139
 9755SOL    HW230165   3.492   4.098   6.074
 9756SOL     OW30166   6.082   0.834   6.516
 9756SOL    HW130167   6.081   0.934   6.526
 9756SOL    HW230168   6.117   0.810   6.426
 9757SOL     OW30169   4.890   3.810   4.083
 9757SOL    HW130170   4.852   3.823   3.992
 9757SOL    HW230171   4.864   3.719   4.117
 9758SOL     OW30172   2.118   0.426   0.728
 9758SOL    HW130173   2.167   0.423   0.641
 9758SOL    HW230174   2.130   0.339   0.775
 9759SOL     OW30175   1.496   1.726   0.538
 9759SOL    HW130176   1.427   1.770   0.481
 9759SOL    HW230177   1.569   1.690   0.481
 9760SOL     OW30178   4.563   1.894   0.657
 9760SOL    HW130179   4.620   1.911   0.738
 9760SOL    HW230180   4.606   1.935   0.577
 9761SOL     OW30181   1.677   1.301   1.522
 9761SOL    HW130182   1.733   1.382   1.504
 9761SOL    HW230183   1.704   1.261   1.609
 9762SOL     OW30184   2.946   1.903   5.687
 9762SOL    HW130185   2.852   1.905   5.653
 9762SOL    HW230186   2.970   1.992   5.725
 9763SOL     OW30187   6.709   1.552   1.453
 9763SOL    HW130188   6.706   1.648   1.481
 9763SOL    HW230189   6.630   1.532   1.394
 9764SOL     OW30190   5.346   1.720   2.322
 9764SOL    HW130191   5.273   1.658   2.292
 9764SOL    HW230192   5.428   1.705   2.267
 9765SOL     OW30193   6.603   1.782   2.067
 9765SOL    HW130194   6.623   1.690   2.102
 9765SOL    HW230195   6.675   1.845   2.095
 9766SOL     OW30196   1.939   0.823   4.151
 9766SOL    HW130197   1.913   0.899   4.211
 9766SOL    HW230198   1.940   0.855   4.056
 9767SOL     OW30199   2.243   3.088   5.802
 9767SOL    HW130200   2.243   3.047   5.894
 9767SOL    HW230201   2.319   3.152   5.794
 9768SOL     OW30202   5.902   2.442   1.044
 9768SOL    HW130203   5.991   2.485   1.061
 9768SOL    HW230204   5.895   2.419   0.947
 9769SOL     OW30205   2.879   1.724   5.098
 9769SOL    HW130206   2.873   1.706   5.000
 9769SOL    HW230207   2.918   1.815   5.113
 9770SOL     OW30208   3.270   2.151   6.517
 9770SOL    HW130209   3.188   2.096   6.504
 9770SOL    HW230210   3.260   2.209   6.598
 9771SOL     OW30211   2.393   6.127   2.547
 9771SOL    HW130212   2.393   6.032   2.578
 9771SOL    HW230213   2.321   6.141   2.480
 9772SOL     OW30214   1.156   6.193   1.792
 9772SOL    HW130215   1.075   6.252   1.793
 9772SOL    HW230216   1.188   6.179   1.885
 9773SOL     OW30217   5.143   5.216   2.094
 9773SOL    HW130218   5.207   5.167   2.152
 9773SOL    HW230219   5.183   5.303   2.065
 9774SOL     OW30220   0.539   5.479   4.645
 9774SOL    HW130221   0.499   5.567   4.619
 9774SOL    HW230222   0.620   5.462   4.591
 9775SOL     OW30223   2.516   1.058   3.846
 9775SOL    HW130224   2.553   0.973   3.883
 9775SOL    HW230225   2.458   1.102   3.915
 9776SOL     OW30226   1.506   5.693   6.335
 9776SOL    HW130227   1.558   5.633   6.275
 9776SOL    HW230228   1.431   5.642   6.376
 9777SOL     OW30229   5.382   6.882   6.299
 9777SOL    HW130230   5.464   6.834   6.267
 9777SOL    HW230231   5.407   6.974   6.328
 9778SOL     OW30232   0.651   1.925   4.213
 9778SOL    HW130233   0.702   2.011   4.203
 9778SOL    HW230234   0.596   1.929   4.297
 9779SOL     OW30235   0.965   1.983   3.668
 9779SOL    HW130236   0.880   2.025   3.700
 9779SOL    HW230237   0.984   1.900   3.721
 9780SOL     OW30238   1.519   1.815   1.081
 9780SOL    HW130239   1.432   1.808   1.033
 9780SOL    HW230240   1.509   1.778   1.173
 9781SOL     OW30241   1.085   3.237   3.509
 9781SOL    HW130242   1.141   3.225   3.427
 9781SOL    HW230243   1.071   3.148   3.552
 9782SOL     OW30244   0.398   2.165   0.999
 9782SOL    HW130245   0.318   2.116   0.965
 9782SOL    HW230246   0.449   2.203   0.921
 9783SOL     OW30247   3.400   1.238   3.464
 9783SOL    HW130248   3.307   1.270   3.482
 9783SOL    HW230249   3.442   1.296   3.394
 9784SOL     OW30250   2.143   1.723   0.519
 9784SOL    HW130251   2.223   1.768   0.480
 9784SOL    HW230252   2.124   1.639   0.469
 9785SOL     OW30253   0.029   2.186   4.731
 9785SOL    HW130254   0.067   2.203   4.640
 9785SOL    HW230255   0.003   2.272   4.774
 9786SOL     OW30256   2.237   4.513   1.144
 9786SOL    HW130257   2.317   4.557   1.103
 9786SOL    HW230258   2.157   4.533   1.088
 9787SOL     OW30259   3.668   2.885   2.832
 9787SOL    HW130260   3.746   2.945   2.815
 9787SOL    HW230261   3.662   2.816   2.759
 9788SOL     OW30262   0.159   6.297   2.028
 9788SOL    HW130263   0.148   6.254   2.118
 9788SOL    HW230264   0.198   6.389   2.039
 9789SOL     OW30265   3.254   6.815   6.530
 9789SOL    HW130266   3.163   6.790   6.561
 9789SOL    HW230267   3.306   6.852   6.607
 9790SOL     OW30268   6.584   3.658   4.444
 9790SOL    HW130269   6.547   3.628   4.356
 9790SOL    HW230270   6.678   3.688   4.433
 9791SOL     OW30271   0.872   6.361   0.775
 9791SOL    HW130272   0.830   6.281   0.733
 9791SOL    HW230273   0.924   6.412   0.705
 9792SOL     OW30274   3.821   5.858   0.901
 9792SOL    HW130275   3.775   5.829   0.986
 9792SOL    HW230276   3.841   5.777   0.845
 9793SOL     OW30277   4.615   1.583   2.736
 9793SOL    HW130278   4.548   1.638   2.688
 9793SOL    HW230279   4.684   1.549   2.672
 9794SOL     OW30280   4.654   4.706   4.795
 9794SOL    HW130281   4.605   4.784   4.835
 9794SOL    HW230282   4.608   4.621   4.821
 9795SOL     OW30283   0.750   2.910   3.597
 9795SOL    HW130284   0.850   2.916   3.594
 9795SOL    HW230285   0.711   3.001   3.586
 9796SOL     OW30286   3.127   4.071   3.518
 9796SOL    HW130287   3.120   4.074   3.618
 9796SOL    HW230288   3.120   4.164   3.482
 9797SOL     OW30289   2.889   6.318   6.971
 9797SOL    HW130290   2.871   6.221   6.953
 9797SOL    HW230291   2.957   6.326   0.017
 9798SOL     OW30292   1.140   3.156   1.086
 9798SOL    HW130293   1.083   3.075   1.071
 9798SOL    HW230294   1.082   3.237   1.090
 9799SOL     OW30295   2.800   6.106   6.772
 9799SOL    HW130296   2.750   6.072   6.851
 9799SOL    HW230297   2.897   6.088   6.783
 9800SOL     OW30298   5.713   2.746   4.126
 9800SOL    HW130299   5.685   2.835   4.090
 9800SOL    HW230300   5.742   2.687   4.051
 9801SOL     OW30301   6.318   5.209   6.336
 9801SOL    HW130302   6.367   5.126   6.366
 9801SOL    HW230303   6.291   5.198   6.240
 9802SOL     OW30304   4.251   4.967   1.272
 9802SOL    HW130305   4.170   4.951   1.216
 9802SOL    HW230306   4.323   5.009   1.216
 9803SOL     OW30307   1.169   4.019   6.391
 9803SOL    HW130308   1.209   4.098   6.345
 9803SOL    HW230309   1.070   4.029   6.395
 9804SOL     OW30310   6.452   5.487   3.212
 9804SOL    HW130311   6.358   5.466   3.239
 9804SOL    HW230312   6.461   5.586   3.199
 9805SOL     OW30313   0.020   6.658   3.575
 9805SOL    HW130314   6.983   6.637   3.501
 9805SOL    HW230315   0.072   6.576   3.599
 9806SOL     OW30316   3.685   2.878   6.035
 9806SOL    HW130317   3.766   2.878   5.976
 9806SOL    HW230318   3.645   2.787   6.036
 9807SOL     OW30319   2.993   3.178   2.362
 9807SOL    HW130320   3.019   3.203   2.269
 9807SOL    HW230321   3.051   3.103   2.394
 9808SOL     OW30322   4.582   6.379   4.064
 9808SOL    HW130323   4.652   6.450   4.054
 9808SOL    HW230324   4.492   6.419   4.048
 9809SOL     OW30325   0.125   2.762   0.728
 9809SOL    HW130326   0.087   2.847   0.692
 9809SOL    HW230327   0.156   2.777   0.822
 9810SOL     OW30328   2.358   1.538   5.888
 9810SOL    HW130329   2.391   1.622   5.843
 9810SOL    HW230330   2.417   1.517   5.966
 9811SOL     OW30331   6.289   3.923   4.222
 9811SOL    HW130332   6.369   3.892   4.170
 9811SOL    HW230333   6.236   3.843   4.252
 9812SOL     OW30334   2.621   6.509   4.603
 9812SOL    HW130335   2.526   6.492   4.575
 9812SOL    HW230336   2.639   6.607   4.603
 9813SOL     OW30337   5.191   2.258   0.477
 9813SOL    HW130338   5.148   2.177   0.516
 9813SOL    HW230339   5.127   2.335   0.481
 9814SOL     OW30340   5.918   1.949   0.038
 9814SOL    HW130341   5.873   1.860   0.042
 9814SOL    HW230342   5.975   1.961   0.119
 9815SOL     OW30343   4.649   2.688   4.493
 9815SOL    HW130344   4.645   2.719   4.398
 9815SOL    HW230345   4.686   2.761   4.550
 9816SOL     OW30346   1.102   0.359   0.525
 9816SOL    HW130347   1.128   0.381   0.619
 9816SOL    HW230348   1.011   0.396   0.505
 9817SOL     OW30349   0.184   0.095   3.553
 9817SOL    HW130350   0.154   0.147   3.633
 9817SOL    HW230351   0.158   0.143   3.470
 9818SOL     OW30352   5.728   2.153   4.628
 9818SOL    HW130353   5.766   2.151   4.720
 9818SOL    HW230354   5.631   2.178   4.632
 9819SOL     OW30355   3.904   1.711   3.380
 9819SOL    HW130356   3.956   1.713   3.295
 9819SOL    HW230357   3.806   1.707   3.360
 9820SOL     OW30358   3.518   4.304   5.541
 9820SOL    HW130359   3.447   4.244   5.504
 9820SOL    HW230360   3.574   4.253   5.607
 9821SOL     OW30361   5.336   5.569   6.947
 9821SOL    HW130362   5.373   5.636   6.883
 9821SOL    HW230363   5.239   5.553   6.927
 9822SOL     OW30364   0.393   6.806   2.871
 9822SOL    HW130365   0.370   6.847   2.783
 9822SOL    HW230366   0.470   6.856   2.911
 9823SOL     OW30367   3.509   0.940   2.734
 9823SOL    HW130368   3.411   0.942   2.753
 9823SOL    HW230369   3.560   0.956   2.819
 9824SOL     OW30370   0.806   4.153   5.591
 9824SOL    HW130371   0.835   4.225   5.527
 9824SOL    HW230372   0.771   4.075   5.539
 9825SOL     OW30373   3.775   4.799   5.742
 9825SOL    HW130374   3.708   4.855   5.692
 9825SOL    HW230375   3.773   4.706   5.707
 9826SOL     OW30376   4.435   6.232   6.234
 9826SOL    HW130377   4.339   6.203   6.227
 9826SOL    HW230378   4.488   6.192   6.160
 9827SOL     OW30379   1.986   4.193   4.703
 9827SOL    HW130380   2.058   4.131   4.736
 9827SOL    HW230381   1.963   4.171   4.608
 9828SOL     OW30382   3.494   2.807   6.486
 9828SOL    HW130383   3.568   2.867   6.516
 9828SOL    HW230384   3.416   2.815   6.548
 9829SOL     OW30385   3.261   6.598   0.661
 9829SOL    HW130386   3.327   6.524   0.645
 9829SOL    HW230387   3.296   6.683   0.622
 9830SOL     OW30388   5.591   1.794   1.125
 9830SOL    HW130389   5.639   1.812   1.210
 9830SOL    HW230390   5.633   1.716   1.078
 9831SOL     OW30391   1.047   6.282   0.980
 9831SOL    HW130392   0.972   6.305   0.918
 9831SOL    HW230393   1.118   6.353   0.975
 9832SOL     OW30394   4.427   5.302   2.786
 9832SOL    HW130395   4.483   5.375   2.825
 9832SOL    HW230396   4.331   5.318   2.809
 9833SOL     OW30397   3.379   3.527   5.000
 9833SOL    HW130398   3.388   3.611   4.947
 9833SOL    HW230399   3.469   3.492   5.024
 9834SOL     OW30400   2.430   3.692   5.573
 9834SOL    HW130401   2.400   3.688   5.477
 9834SOL    HW230402   2.525   3.664   5.580
 9835SOL     OW30403   4.732   1.911   4.076
 9835SOL    HW130404   4.796   1.956   4.139
 9835SOL    HW230405   4.782   1.873   3.998
 9836SOL     OW30406   5.427   3.654   3.048
 9836SOL    HW130407   5.371   3.595   3.105
 9836SOL    HW230408   5.372   3.731   3.015
 9837SOL     OW30409   2.080   0.287   3.617
 9837SOL    HW130410   2.149   0.336   3.563
 9837SOL    HW230411   2.093   0.189   3.607
 9838SOL     OW30412   1.194   6.414   5.974
 9838SOL    HW130413   1.229   6.437   5.883
 9838SOL    HW230414   1.120   6.347   5.965
 9839SOL     OW30415   7.008   1.729   2.094
 9839SOL    HW130416   6.941   1.803   2.089
 9839SOL    HW230417   6.978   1.654   2.034
 9840SOL     OW30418   0.256   0.484   0.735
 9840SOL    HW130419   0.283   0.580   0.724
 9840SOL    HW230420   0.317   0.440   0.801
 9841SOL     OW30421   1.469   3.947   4.613
 9841SOL    HW130422   1.488   3.884   4.538
 9841SOL    HW230423   1.483   4.041   4.581
 9842SOL     OW30424   3.438   3.220   3.452
 9842SOL    HW130425   3.447   3.309   3.497
 9842SOL    HW230426   3.523   3.198   3.404
 9843SOL     OW30427   6.518   2.448   1.178
 9843SOL    HW130428   6.480   2.492   1.259
 9843SOL    HW230429   6.485   2.354   1.172
 9844SOL     OW30430   4.239   0.068   3.162
 9844SOL    HW130431   4.190   7.008   3.168
 9844SOL    HW230432   4.198   0.125   3.092
 9845SOL     OW30433   2.375   1.835   5.012
 9845SOL    HW130434   2.323   1.852   5.096
 9845SOL    HW230435   2.440   1.909   4.997
 9846SOL     OW30436   3.079   3.820   3.670
 9846SOL    HW130437   3.112   3.870   3.590
 9846SOL    HW230438   2.994   3.773   3.648
 9847SOL     OW30439   2.948   3.041   6.349
 9847SOL    HW130440   2.915   2.962   6.297
 9847SOL    HW230441   3.015   3.011   6.417
 9848SOL     OW30442   4.161   2.335   6.671
 9848SOL    HW130443   4.207   2.250   6.646
 9848SOL    HW230444   4.109   2.369   6.593
 9849SOL     OW30445   6.161   0.354   6.597
 9849SOL    HW130446   6.251   0.375   6.559
 9849SOL    HW230447   6.101   0.433   6.584
 9850SOL     OW30448   4.367   6.284   2.548
 9850SOL    HW130449   4.404   6.373   2.523
 9850SOL    HW230450   4.365   6.224   2.468
 9851SOL     OW30451   4.171   1.747   5.280
 9851SOL    HW130452   4.195   1.680   5.350
 9851SOL    HW230453   4.175   1.704   5.190
 9852SOL     OW30454   4.345   1.624   3.201
 9852SOL    HW130455   4.427   1.595   3.251
 9852SOL    HW230456   4.283   1.671   3.264
 9853SOL     OW30457   4.958   3.899   2.557
 9853SOL    HW130458   4.972   3.987   2.512
 9853SOL    HW230459   4.915   3.835   2.494
 9854SOL     OW30460   6.115   5.084   5.310
 9854SOL    HW130461   6.051   5.142   5.361
 9854SOL    HW230462   6.112   5.108   5.213
 9855SOL     OW30463   0.523   4.220   1.335
 9855SOL    HW130464   0.465   4.293   1.371
 9855SOL    HW230465   0.608   4.259   1.301
 9856SOL     OW30466   3.952   4.519   0.004
 9856SOL    HW130467   3.963   4.615   7.006
 9856SOL    HW230468   3.884   4.510   0.077
 9857SOL     OW30469   5.112   1.523   2.785
 9857SOL    HW130470   5.055   1.498   2.863
 9857SOL    HW230471   5.174   1.447   2.763
 9858SOL     OW30472   5.342   0.666   1.596
 9858SOL    HW130473   5.356   0.763   1.576
 9858SOL    HW230474   5.255   0.636   1.558
 9859SOL     OW30475   6.751   0.078   1.663
 9859SOL    HW130476   6.815   0.071   1.740
 9859SOL    HW230477   6.775   0.011   1.593
 9860SOL     OW30478   0.715   1.251   1.732
 9860SOL    HW130479   0.634   1.192   1.728
 9860SOL    HW230480   0.789   1.211   1.678
 9861SOL     OW30481   3.512   6.685   4.731
 9861SOL    HW130482   3.450   6.746   4.682
 9861SOL    HW230483   3.466   6.597   4.746
 9862SOL     OW30484   2.514   3.450   0.549
 9862SOL    HW130485   2.530   3.398   0.633
 9862SOL    HW230486   2.587   3.430   0.483
 9863SOL     OW30487   2.855   7.011   2.810
 9863SOL    HW130488   2.790   6.990   2.737
 9863SOL    HW230489   2.918   0.056   2.780
 9864SOL     OW30490   4.100   6.113   3.746
 9864SOL    HW130491   4.044   6.057   3.684
 9864SOL    HW230492   4.123   6.199   3.702
 9865SOL     OW30493   0.830   1.183   3.225
 9865SOL    HW130494   0.916   1.227   3.199
 9865SOL    HW230495   0.820   1.097   3.175
 9866SOL     OW30496   4.937   4.584   4.748
 9866SOL    HW130497   4.863   4.651   4.739
 9866SOL    HW230498   4.908   4.513   4.813
 9867SOL     OW30499   4.346   0.997   0.785
 9867SOL    HW130500   4.335   1.094   0.762
 9867SOL    HW230501   4.441   0.980   0.813
 9868SOL     OW30502   1.337   4.952   6.192
 9868SOL    HW130503   1.389   5.029   6.229
 9868SOL    HW230504   1.385   4.866   6.211
 9869SOL     OW30505   1.985   3.737   3.735
 9869SOL    HW130506   2.033   3.712   3.651
 9869SOL    HW230507   1.906   3.795   3.713
 9870SOL     OW30508   4.295   5.949   2.244
 9870SOL    HW130509   4.294   5.930   2.342
 9870SOL    HW230510   4.389   5.966   2.214
 9871SOL     OW30511   0.900   6.517   6.180
 9871SOL    HW130512   0.943   6.541   6.267
 9871SOL    HW230513   0.911   6.419   6.164
 9872SOL     OW30514   2.608   5.130   3.059
 9872SOL    HW130515   2.631   5.165   2.969
 9872SOL    HW230516   2.629   5.032   3.063
 9873SOL     OW30517   2.249   2.309   1.151
 9873SOL    HW130518   2.207   2.244   1.088
 9873SOL    HW230519   2.177   2.354   1.204
 9874SOL     OW30520   0.869   2.142   4.265
 9874SOL    HW130521   0.840   2.161   4.359
 9874SOL    HW230522   0.957   2.095   4.266
 9875SOL     OW30523   0.193   0.410   2.122
 9875SOL    HW130524   0.127   0.351   2.169
 9875SOL    HW230525   0.265   0.436   2.186
 9876SOL     OW30526   0.058   0.586   2.563
 9876SOL    HW130527   0.151   0.624   2.552
 9876SOL    HW230528   0.019   0.620   2.649
 9877SOL     OW30529   1.659   5.927   2.741
 9877SOL    HW130530   1.603   5.872   2.678
 9877SOL    HW230531   1.751   5.937   2.703
 9878SOL     OW30532   2.183   4.914   5.173
 9878SOL    HW130533   2.232   4.834   5.138
 9878SOL    HW230534   2.228   4.997   5.140
 9879SOL     OW30535   5.644   5.483   4.606
 9879SOL    HW130536   5.617   5.390   4.578
 9879SOL    HW230537   5.572   5.524   4.661
 9880SOL     OW30538   1.643   2.822   5.369
 9880SOL    HW130539   1.688   2.868   5.446
 9880SOL    HW230540   1.557   2.868   5.349
 9881SOL     OW30541   1.932   2.438   5.241
 9881SOL    HW130542   2.025   2.453   5.207
 9881SOL    HW230543   1.888   2.526   5.256
 9882SOL     OW30544   1.595   2.242   3.531
 9882SOL    HW130545   1.591   2.333   3.490
 9882SOL    HW230546   1.687   2.227   3.567
 9883SOL     OW30547   0.793   6.109   0.765
 9883SOL    HW130548   0.742   6.032   0.726
 9883SOL    HW230549   0.761   6.125   0.859
 9884SOL     OW30550   4.070   1.538   3.212
 9884SOL    HW130551   4.163   1.565   3.189
 9884SOL    HW230552   4.065   1.518   3.310
 9885SOL     OW30553   0.321   3.361   5.321
 9885SOL    HW130554   0.323   3.444   5.265
 9885SOL    HW230555   0.387   3.371   5.396
 9886SOL     OW30556   0.497   4.664   2.325
 9886SOL    HW130557   0.581   4.641   2.374
 9886SOL    HW230558   0.475   4.761   2.340
 9887SOL     OW30559   3.630   1.254   5.956
 9887SOL    HW130560   3.582   1.327   6.005
 9887SOL    HW230561   3.579   1.168   5.965
 9888SOL     OW30562   0.364   4.633   0.886
 9888SOL    HW130563   0.292   4.569   0.912
 9888SOL    HW230564   0.387   4.622   0.790
 9889SOL     OW30565   6.679   4.965   0.677
 9889SOL    HW130566   6.674   5.058   0.643
 9889SOL    HW230567   6.587   4.929   0.691
 9890SOL     OW30568   1.886   2.247   0.253
 9890SOL    HW130569   1.826   2.194   0.313
 9890SOL    HW230570   1.968   2.193   0.233
 9891SOL     OW30571   5.709   3.082   0.844
 9891SOL    HW130572   5.739   2.987   0.843
 9891SOL    HW230573   5.684   3.109   0.937
 9892SOL     OW30574   6.461   5.887   0.424
 9892SOL    HW130575   6.448   5.986   0.417
 9892SOL    HW230576   6.481   5.850   0.333
 9893SOL     OW30577   1.251   0.518   0.766
 9893SOL    HW130578   1.294   0.565   0.843
 9893SOL    HW230579   1.315   0.450   0.729
 9894SOL     OW30580   1.833   2.234   1.155
 9894SOL    HW130581   1.911   2.248   1.094
 9894SOL    HW230582   1.757   2.197   1.102
 9895SOL     OW30583   5.226   3.232   5.450
 9895SOL    HW130584   5.316   3.256   5.414
 9895SOL    HW230585   5.178   3.174   5.384
 9896SOL     OW30586   6.118   0.147   6.289
 9896SOL    HW130587   6.023   0.175   6.297
 9896SOL    HW230588   6.142   0.088   6.367
 9897SOL     OW30589   5.714   5.616   3.066
 9897SOL    HW130590   5.800   5.565   3.062
 9897SOL    HW230591   5.733   5.713   3.079
 9898SOL     OW30592   2.638   5.803   6.124
 9898SOL    HW130593   2.661   5.715   6.165
 9898SOL    HW230594   2.721   5.850   6.096
 9899SOL     OW30595   0.257   5.634   0.858
 9899SOL    HW130596   0.191   5.708   0.845
 9899SOL    HW230597   0.350   5.669   0.845
 9900SOL     OW30598   1.437   3.949   3.625
 9900SOL    HW130599   1.382   3.866   3.626
 9900SOL    HW230600   1.397   4.016   3.687
 9901SOL     OW30601   2.996   1.733   5.904
 9901SOL    HW130602   2.956   1.643   5.887
 9901SOL    HW230603   2.952   1.800   5.845
 9902SOL     OW30604   3.054   4.927   0.290
 9902SOL    HW130605   3.003   4.934   0.375
 9902SOL    HW230606   3.057   4.832   0.259
 9903SOL     OW30607   5.037   1.011   2.077
 9903SOL    HW130608   4.983   0.937   2.037
 9903SOL    HW230609   5.129   0.979   2.095
 9904SOL     OW30610   1.150   2.994   6.834
 9904SOL    HW130611   1.134   3.091   6.853
 9904SOL    HW230612   1.133   2.975   6.737
 9905SOL     OW30613   3.421   0.490   0.090
 9905SOL    HW130614   3.370   0.521   0.009
 9905SOL    HW230615   3.519   0.490   0.069
 9906SOL     OW30616   3.045   3.111   1.817
 9906SOL    HW130617   3.142   3.096   1.802
 9906SOL    HW230618   3.030   3.139   1.912
 9907SOL     OW30619   6.666   1.065   0.213
 9907SOL    HW130620   6.605   1.021   0.146
 9907SOL    HW230621   6.687   1.158   0.183
 9908SOL     OW30622   5.492   1.535   3.831
 9908SOL    HW130623   5.431   1.565   3.904
 9908SOL    HW230624   5.553   1.464   3.865
 9909SOL     OW30625   3.533   0.046   4.245
 9909SOL    HW130626   3.521   0.011   4.338
 9909SOL    HW230627   3.500   0.141   4.241
 9910SOL     OW30628   0.583   3.707   2.288
 9910SOL    HW130629   0.638   3.786   2.263
 9910SOL    HW230630   0.488   3.721   2.258
 9911SOL     OW30631   3.274   6.536   2.271
 9911SOL    HW130632   3.220   6.599   2.215
 9911SOL    HW230633   3.364   6.575   2.288
 9912SOL     OW30634   3.725   1.578   1.798
 9912SOL    HW130635   3.807   1.570   1.855
 9912SOL    HW230636   3.645   1.546   1.849
 9913SOL     OW30637   6.286   4.237   0.382
 9913SOL    HW130638   6.238   4.320   0.408
 9913SOL    HW230639   6.377   4.236   0.423
 9914SOL     OW30640   5.300   2.582   5.072
 9914SOL    HW130641   5.320   2.665   5.124
 9914SOL    HW230642   5.386   2.540   5.042
 9915SOL     OW30643   5.198   0.785   3.388
 9915SOL    HW130644   5.147   0.820   3.466
 9915SOL    HW230645   5.180   0.841   3.308
 9916SOL     OW30646   2.232   3.060   3.197
 9916SOL    HW130647   2.182   3.143   3.171
 9916SOL    HW230648   2.230   3.050   3.297
 9917SOL     OW30649   5.879   3.913   7.004
 9917SOL    HW130650   5.854   3.997   0.025
 9917SOL    HW230651   5.827   3.837   0.016
 9918SOL     OW30652   3.214   1.615   3.211
 9918SOL    HW130653   3.141   1.626   3.143
 9918SOL    HW230654   3.195   1.674   3.290
 9919SOL     OW30655   5.949   5.271   1.263
 9919SOL    HW130656   5.883   5.292   1.191
 9919SOL    HW230657   6.026   5.335   1.258
 9920SOL     OW30658   4.615   1.871   1.908
 9920SOL    HW130659   4.582   1.806   1.976
 9920SOL    HW230660   4.645   1.955   1.954
 9921SOL     OW30661   4.892   5.928   6.605
 9921SOL    HW130662   4.954   5.938   6.526
 9921SOL    HW230663   4.798   5.917   6.572
 9922SOL     OW30664   1.856   5.047   0.608
 9922SOL    HW130665   1.829   5.141   0.628
 9922SOL    HW230666   1.778   4.998   0.569
 9923SOL     OW30667   5.014   4.812   0.069
 9923SOL    HW130668   5.022   4.717   0.039
 9923SOL    HW230669   5.038   4.874   7.021
 9924SOL     OW30670   6.822   2.456   5.130
 9924SOL    HW130671   6.777   2.498   5.209
 9924SOL    HW230672   6.865   2.370   5.158
 9925SOL     OW30673   6.801   3.637   3.885
 9925SOL    HW130674   6.790   3.617   3.982
 9925SOL    HW230675   6.896   3.658   3.866
 9926SOL     OW30676   3.039   3.120   0.422
 9926SOL    HW130677   3.134   3.145   0.405
 9926SOL    HW230678   2.996   3.190   0.479
 9927SOL     OW30679   0.216   0.239   1.364
 9927SOL    HW130680   0.265   0.268   1.446
 9927SOL    HW230681   0.252   0.287   1.284
 9928SOL     OW30682   5.166   6.193   1.972
 9928SOL    HW130683   5.182   6.109   2.024
 9928SOL    HW230684   5.082   6.183   1.918
 9929SOL     OW30685   2.506   5.147   4.910
 9929SOL    HW130686   2.438   5.168   4.980
 9929SOL    HW230687   2.464   5.090   4.839
 9930SOL     OW30688   6.233   7.010   4.822
 9930SOL    HW130689   6.176   6.972   4.895
 9930SOL    HW230690   6.328   6.980   4.835
 9931SOL     OW30691   1.079   4.702   4.880
 9931SOL    HW130692   1.102   4.726   4.974
 9931SOL    HW230693   1.102   4.779   4.820
 9932SOL     OW30694   2.150   5.107   6.603
 9932SOL    HW130695   2.193   5.079   6.517
 9932SOL    HW230696   2.052   5.091   6.598
 9933SOL     OW30697   1.322   5.295   3.045
 9933SOL    HW130698   1.259   5.273   2.971
 9933SOL    HW230699   1.391   5.360   3.012
 9934SOL     OW30700   6.124   1.322   5.293
 9934SOL    HW130701   6.105   1.244   5.233
 9934SOL    HW230702   6.070   1.313   5.377
 9935SOL     OW30703   3.101   7.012   6.914
 9935SOL    HW130704   3.181   6.954   6.930
 9935SOL    HW230705   3.029   6.990   6.980
 9936SOL     OW30706   6.960   5.192   6.225
 9936SOL    HW130707   0.019   5.164   6.183
 9936SOL    HW230708   6.922   5.116   6.278
 9937SOL     OW30709   6.712   1.545   6.341
 9937SOL    HW130710   6.692   1.633   6.384
 9937SOL    HW230711   6.702   1.553   6.242
 9938SOL     OW30712   6.820   5.095   3.084
 9938SOL    HW130713   6.766   5.137   3.157
 9938SOL    HW230714   6.902   5.052   3.123
 9939SOL     OW30715   3.900   2.067   0.386
 9939SOL    HW130716   3.962   2.084   0.309
 9939SOL    HW230717   3.831   2.139   0.390
 9940SOL     OW30718   1.063   0.837   1.020
 9940SOL    HW130719   1.006   0.898   0.965
 9940SOL    HW230720   1.009   0.803   1.097
 9941SOL     OW30721   3.097   3.614   5.085
 9941SOL    HW130722   3.083   3.641   5.180
 9941SOL    HW230723   3.194   3.625   5.061
 9942SOL     OW30724   2.033   5.148   2.768
 9942SOL    HW130725   2.058   5.203   2.848
 9942SOL    HW230726   2.112   5.096   2.738
 9943SOL     OW30727   6.588   5.923   5.343
 9943SOL    HW130728   6.602   5.929   5.442
 9943SOL    HW230729   6.607   6.012   5.301
 9944SOL     OW30730   2.099   5.232   5.907
 9944SOL    HW130731   2.013   5.221   5.956
 9944SOL    HW230732   2.144   5.143   5.897
 9945SOL     OW30733   6.212   5.400   6.985
 9945SOL    HW130734   6.200   5.301   6.995
 9945SOL    HW230735   6.226   5.441   0.048
 9946SOL     OW30736   4.936   0.931   4.946
 9946SOL    HW130737   4.894   1.016   4.914
 9946SOL    HW230738   4.906   0.913   5.040
 9947SOL     OW30739   1.257   3.729   5.552
 9947SOL    HW130740   1.310   3.768   5.476
 9947SOL    HW230741   1.201   3.801   5.593
 9948SOL     OW30742   5.592   4.568   4.307
 9948SOL    HW130743   5.674   4.546   4.361
 9948SOL    HW230744   5.518   4.596   4.369
 9949SOL     OW30745   5.494   5.320   3.560
 9949SOL    HW130746   5.434   5.357   3.490
 9949SOL    HW230747   5.530   5.394   3.616
 9950SOL     OW30748   5.840   5.533   5.165
 9950SOL    HW130749   5.872   5.493   5.079
 9950SOL    HW230750   5.917   5.571   5.215
 9951SOL     OW30751   5.847   1.621   4.724
 9951SOL    HW130752   5.774   1.617   4.656
 9951SOL    HW230753   5.936   1.614   4.679
 9952SOL     OW30754   0.149   3.523   0.831
 9952SOL    HW130755   0.130   3.575   0.914
 9952SOL    HW230756   0.199   3.439   0.855
 9953SOL     OW30757   6.380   2.635   4.026
 9953SOL    HW130758   6.425   2.724   4.036
 9953SOL    HW230759   6.383   2.586   4.113
 9954SOL     OW30760   5.752   6.335   5.896
 9954SOL    HW130761   5.716   6.338   5.803
 9954SOL    HW230762   5.821   6.407   5.907
 9955SOL     OW30763   6.056   3.242   5.203
 9955SOL    HW130764   6.119   3.216   5.130
 9955SOL    HW230765   5.965   3.257   5.165
 9956SOL     OW30766   2.180   0.333   1.547
 9956SOL    HW130767   2.274   0.362   1.530
 9956SOL    HW230768   2.158   0.256   1.487
 9957SOL     OW30769   5.779   5.240   2.599
 9957SOL    HW130770   5.812   5.147   2.613
 9957SOL    HW230771   5.776   5.261   2.501
 9958SOL     OW30772   3.093   5.475   0.493
 9958SOL    HW130773   3.188   5.473   0.464
 9958SOL    HW230774   3.059   5.381   0.502
 9959SOL     OW30775   4.258   3.665   5.521
 9959SOL    HW130776   4.220   3.749   5.559
 9959SOL    HW230777   4.257   3.669   5.421
 9960SOL     OW30778   6.824   0.327   2.220
 9960SOL    HW130779   6.865   0.240   2.245
 9960SOL    HW230780   6.858   0.399   2.282
 9961SOL     OW30781   2.030   6.166   3.982
 9961SOL    HW130782   2.095   6.242   3.981
 9961SOL    HW230783   2.078   6.081   3.959
 9962SOL     OW30784   6.807   6.932   2.978
 9962SOL    HW130785   6.902   6.913   3.003
 9962SOL    HW230786   6.805   6.981   2.891
 9963SOL     OW30787   3.153   3.043   6.741
 9963SOL    HW130788   3.062   3.021   6.778
 9963SOL    HW230789   3.221   3.036   6.813
 9964SOL     OW30790   4.572   5.303   4.868
 9964SOL    HW130791   4.484   5.330   4.908
 9964SOL    HW230792   4.557   5.240   4.793
 9965SOL     OW30793   3.377   6.912   6.763
 9965SOL    HW130794   3.476   6.925   6.758
 9965SOL    HW230795   3.351   6.881   6.855
 9966SOL     OW30796   1.546   5.132   1.649
 9966SOL    HW130797   1.624   5.094   1.698
 9966SOL    HW230798   1.550   5.104   1.553
 9967SOL     OW30799   0.164   5.737   2.475
 9967SOL    HW130800   0.113   5.726   2.390
 9967SOL    HW230801   0.245   5.678   2.474
 9968SOL     OW30802   3.510   3.876   1.778
 9968SOL    HW130803   3.455   3.920   1.707
 9968SOL    HW230804   3.599   3.850   1.739
 9969SOL     OW30805   1.746   4.038   2.294
 9969SOL    HW130806   1.772   4.065   2.387
 9969SOL    HW230807   1.765   3.941   2.281
 9970SOL     OW30808   5.090   4.395   2.481
 9970SOL    HW130809   5.075   4.386   2.383
 9970SOL    HW230810   5.163   4.460   2.498
 9971SOL     OW30811   1.995   4.813   1.207
 9971SOL    HW130812   2.061   4.831   1.135
 9971SOL    HW230813   2.009   4.877   1.283
 9972SOL     OW30814   5.757   4.790   0.950
 9972SOL    HW130815   5.693   4.716   0.931
 9972SOL    HW230816   5.776   4.794   1.048
 9973SOL     OW30817   5.837   1.647   2.946
 9973SOL    HW130818   5.922   1.595   2.953
 9973SOL    HW230819   5.764   1.587   2.915
 9974SOL     OW30820   0.968   2.397   2.333
 9974SOL    HW130821   0.937   2.311   2.375
 9974SOL    HW230822   0.899   2.468   2.347
 9975SOL     OW30823   6.135   3.133   0.590
 9975SOL    HW130824   6.068   3.103   0.523
 9975SOL    HW230825   6.090   3.188   0.660
 9976SOL     OW30826   1.033   5.869   5.258
 9976SOL    HW130827   0.987   5.781   5.257
 9976SOL    HW230828   1.045   5.901   5.164
 9977SOL     OW30829   6.032   5.667   5.312
 9977SOL    HW130830   6.044   5.612   5.394
 9977SOL    HW230831   6.100   5.641   5.244
 9978SOL     OW30832   0.920   2.754   4.884
 9978SOL    HW130833   0.822   2.767   4.899
 9978SOL    HW230834   0.935   2.712   4.795
 9979SOL     OW30835   6.302   4.194   4.949
 9979SOL    HW130836   6.214   4.223   4.986
 9979SOL    HW230837   6.356   4.275   4.926
 9980SOL     OW30838   2.663   6.582   0.054
 9980SOL    HW130839   2.611   6.610   0.134
 9980SOL    HW230840   2.761   6.581   0.076
 9981SOL     OW30841   2.583   2.054   3.101
 9981SOL    HW130842   2.555   1.963   3.130
 9981SOL    HW230843   2.536   2.123   3.155
 9982SOL     OW30844   6.544   5.525   3.787
 9982SOL    HW130845   6.505   5.442   3.825
 9982SOL    HW230846   6.540   5.521   3.687
 9983SOL     OW30847   0.219   1.763   2.978
 9983SOL    HW130848   0.253   1.671   2.997
 9983SOL    HW230849   0.136   1.780   3.031
 9984SOL     OW30850   2.745   1.854   7.007
 9984SOL    HW130851   2.712   1.900   6.924
 9984SOL    HW230852   2.845   1.858   7.009
 9985SOL     OW30853   2.031   0.788   0.602
 9985SOL    HW130854   2.089   0.746   0.532
 9985SOL    HW230855   1.997   0.717   0.664
 9986SOL     OW30856   6.591   3.826   5.593
 9986SOL    HW130857   6.633   3.819   5.502
 9986SOL    HW230858   6.560   3.735   5.622
 9987SOL     OW30859   5.532   3.314   5.679
 9987SOL    HW130860   5.615   3.302   5.733
 9987SOL    HW230861   5.455   3.274   5.728
 9988SOL     OW30862   0.071   6.004   4.755
 9988SOL    HW130863   0.117   5.928   4.801
 9988SOL    HW230864   0.136   6.050   4.694
 9989SOL     OW30865   6.702   2.918   3.463
 9989SOL    HW130866   6.604   2.902   3.448
 9989SOL    HW230867   6.752   2.897   3.379
 9990SOL     OW30868   1.336   5.714   3.736
 9990SOL    HW130869   1.356   5.692   3.640
 9990SOL    HW230870   1.261   5.781   3.739
 9991SOL     OW30871   2.971   2.227   4.870
 9991SOL    HW130872   3.019   2.188   4.791
 9991SOL    HW230873   3.036   2.238   4.946
 9992SOL     OW30874   5.881   5.022   6.889
 9992SOL    HW130875   5.795   5.001   6.935
 9992SOL    HW230876   5.865   5.030   6.790
 9993SOL     OW30877   2.789   1.273   0.953
 9993SOL    HW130878   2.862   1.321   0.905
 9993SOL    HW230879   2.824   1.187   0.989
 9994SOL     OW30880   5.998   4.446   3.128
 9994SOL    HW130881   6.092   4.464   3.155
 9994SOL    HW230882   5.966   4.362   3.171
 9995SOL     OW30883   4.734   1.339   3.803
 9995SOL    HW130884   4.636   1.336   3.821
 9995SOL    HW230885   4.752   1.306   3.710
 9996SOL     OW30886   2.887   4.038   6.935
 9996SOL    HW130887   2.912   3.961   6.875
 9996SOL    HW230888   2.970   4.080   6.970
 9997SOL     OW30889   2.962   1.437   5.928
 9997SOL    HW130890   2.920   1.366   5.984
 9997SOL    HW230891   2.935   1.425   5.832
 9998SOL     OW30892   5.769   5.016   4.958
 9998SOL    HW130893   5.836   5.080   4.921
 9998SOL    HW230894   5.771   5.018   5.057
 9999SOL     OW30895   6.384   2.750   5.864
 9999SOL    HW130896   6.357   2.748   5.961
 9999SOL    HW230897   6.322   2.693   5.811
10000SOL     OW30898   6.400   3.305   0.046
10000SOL    HW130899   6.390   3.400   0.075
10000SOL    HW230900   6.327   3.281   7.009
10001SOL     OW30901   4.886   0.259   2.158
10001SOL    HW130902   4.944   0.191   2.113
10001SOL    HW230903   4.887   0.344   2.105
10002SOL     OW30904   1.392   6.356   1.953
10002SOL    HW130905   1.388   6.258   1.970
10002SOL    HW230906   1.425   6.403   2.035
10003SOL     OW30907   3.193   2.161   3.881
10003SOL    HW130908   3.196   2.163   3.981
10003SOL    HW230909   3.280   2.127   3.846
10004SOL     OW30910   6.538   2.594   4.461
10004SOL    HW130911   6.619   2.544   4.432
10004SOL    HW230912   6.468   2.587   4.390
10005SOL     OW30913   5.444   0.664   3.527
10005SOL    HW130914   5.428   0.675   3.625
10005SOL    HW230915   5.362   0.691   3.477
10006SOL     OW30916   4.440   6.874   4.108
10006SOL    HW130917   4.508   6.801   4.114
10006SOL    HW230918   4.445   6.917   4.018
10007SOL     OW30919   0.093   3.818   4.901
10007SOL    HW130920   0.040   3.901   4.885
10007SOL    HW230921   0.142   3.825   4.988
10008SOL     OW30922   3.631   0.965   4.574
10008SOL    HW130923   3.573   0.928   4.646
10008SOL    HW230924   3.664   0.890   4.516
10009SOL     OW30925   1.566   4.176   2.543
10009SOL    HW130926   1.566   4.190   2.444
10009SOL    HW230927   1.656   4.199   2.579
10010SOL     OW30928   2.342   0.824   6.788
10010SOL    HW130929   2.288   0.762   6.845
10010SOL    HW230930   2.414   0.865   6.842
10011SOL     OW30931   6.655   0.580   5.329
10011SOL    HW130932   6.589   0.613   5.261
10011SOL    HW230933   6.665   0.481   5.320
10012SOL     OW30934   6.517   0.634   2.987
10012SOL    HW130935   6.528   0.638   3.086
10012SOL    HW230936   6.526   0.539   2.956
10013SOL     OW30937   0.487   1.146   2.871
10013SOL    HW130938   0.479   1.165   2.773
10013SOL    HW230939   0.544   1.216   2.915
10014SOL     OW30940   0.521   4.453   6.400
10014SOL    HW130941   0.469   4.490   6.477
10014SOL    HW230942   0.566   4.368   6.428
10015SOL     OW30943   2.138   5.156   0.795
10015SOL    HW130944   2.148   5.180   0.699
10015SOL    HW230945   2.173   5.064   0.810
10016SOL     OW30946   1.905   1.006   6.255
10016SOL    HW130947   1.941   0.917   6.282
10016SOL    HW230948   1.891   1.063   6.335
10017SOL     OW30949   2.721   2.301   4.715
10017SOL    HW130950   2.686   2.379   4.767
10017SOL    HW230951   2.810   2.274   4.751
10018SOL     OW30952   5.582   0.070   6.658
10018SOL    HW130953   5.530   0.139   6.608
10018SOL    HW230954   5.555   0.071   6.754
10019SOL     OW30955   1.244   1.287   3.286
10019SOL    HW130956   1.299   1.370   3.290
10019SOL    HW230957   1.303   1.208   3.306
10020SOL     OW30958   1.527   2.992   1.649
10020SOL    HW130959   1.583   2.911   1.632
10020SOL    HW230960   1.476   3.015   1.566
10021SOL     OW30961   7.003   3.635   0.629
10021SOL    HW130962   0.044   3.603   0.695
10021SOL    HW230963   6.919   3.661   0.677
10022SOL     OW30964   2.268   1.306   6.252
10022SOL    HW130965   2.296   1.343   6.340
10022SOL    HW230966   2.289   1.372   6.179
10023SOL     OW30967   6.491   4.083   0.727
10023SOL    HW130968   6.398   4.121   0.729
10023SOL    HW230969   6.540   4.118   0.648
10024SOL     OW30970   0.948   5.585   3.743
10024SOL    HW130971   0.984   5.630   3.825
10024SOL    HW230972   1.016   5.522   3.707
10025SOL     OW30973   2.164   0.438   1.230
10025SOL    HW130974   2.082   0.476   1.188
10025SOL    HW230975   2.210   0.508   1.284
10026SOL     OW30976   5.654   0.497   3.472
10026SOL    HW130977   5.705   0.550   3.405
10026SOL    HW230978   5.575   0.550   3.504
10027SOL     OW30979   5.485   3.133   4.213
10027SOL    HW130980   5.559   3.131   4.280
10027SOL    HW230981   5.457   3.227   4.196
10028SOL     OW30982   1.506   1.199   0.499
10028SOL    HW130983   1.461   1.233   0.581
10028SOL    HW230984   1.529   1.276   0.439
10029SOL     OW30985   5.467   1.767   3.489
10029SOL    HW130986   5.525   1.688   3.470
10029SOL    HW230987   5.517   1.851   3.466
10030SOL     OW30988   1.986   0.893   3.886
10030SOL    HW130989   1.963   0.873   3.791
10030SOL    HW230990   2.085   0.906   3.894
10031SOL     OW30991   5.165   4.505   3.308
10031SOL    HW130992   5.099   4.534   3.239
10031SOL    HW230993   5.126   4.433   3.365
10032SOL     OW30994   2.420   2.102   5.444
10032SOL    HW130995   2.480   2.138   5.515
10032SOL    HW230996   2.362   2.176   5.409
10033SOL     OW30997   6.084   2.719   4.223
10033SOL    HW130998   6.002   2.771   4.248
10033SOL    HW230999   6.160   2.783   4.208
10034SOL     OW31000   3.618   0.530   4.924
10034SOL    HW131001   3.668   0.617   4.925
10034SOL    HW231002   3.657   0.469   4.992
10035SOL     OW31003   6.809   4.923   1.684
10035SOL    HW131004   6.872   4.855   1.647
10035SOL    HW231005   6.860   4.992   1.735
10036SOL     OW31006   6.743   1.936   6.892
10036SOL    HW131007   6.736   1.964   6.988
10036SOL    HW231008   6.800   2.001   6.843
10037SOL     OW31009   0.074   0.520   6.072
10037SOL    HW131010   0.158   0.518   6.126
10037SOL    HW231011   0.049   0.428   6.045
10038SOL     OW31012   6.730   6.933   1.364
10038SOL    HW131013   6.774   6.947   1.275
10038SOL    HW231014   6.682   7.016   1.392
10039SOL     OW31015   2.871   0.607   3.625
10039SOL    HW131016   2.882   0.707   3.621
10039SOL    HW231017   2.889   0.568   3.535
10040SOL     OW31018   6.512   3.597   0.788
10040SOL    HW131019   6.557   3.680   0.754
10040SOL    HW231020   6.441   3.568   0.723
10041SOL     OW31021   3.151   6.531   0.305
10041SOL    HW131022   3.228   6.594   0.312
10041SOL    HW231023   3.081   6.555   0.372
10042SOL     OW31024   6.680   2.110   2.776
10042SOL    HW131025   6.604   2.118   2.711
10042SOL    HW231026   6.752   2.175   2.750
10043SOL     OW31027   0.150   1.639   6.020
10043SOL    HW131028   0.098   1.588   6.089
10043SOL    HW231029   0.091   1.709   5.979
10044SOL     OW31030   2.865   2.299   6.056
10044SOL    HW131031   2.791   2.361   6.033
10044SOL    HW231032   2.853   2.212   6.007
10045SOL     OW31033   4.184   0.909   0.610
10045SOL    HW131034   4.246   0.940   0.683
10045SOL    HW231035   4.234   0.849   0.548
10046SOL     OW31036   0.695   4.886   1.349
10046SOL    HW131037   0.701   4.934   1.262
10046SOL    HW231038   0.782   4.895   1.398
10047SOL     OW31039   0.480   3.203   6.680
10047SOL    HW131040   0.511   3.198   6.774
10047SOL    HW231041   0.536   3.143   6.622
10048SOL     OW31042   6.083   6.738   2.480
10048SOL    HW131043   6.060   6.794   2.400
10048SOL    HW231044   6.171   6.693   2.465
10049SOL     OW31045   0.060   1.837   5.531
10049SOL    HW131046   0.090   1.743   5.523
10049SOL    HW231047   0.134   1.899   5.506
10050SOL     OW31048   5.644   3.401   5.198
10050SOL    HW131049   5.609   3.325   5.252
10050SOL    HW231050   5.712   3.452   5.251
10051SOL     OW31051   0.673   3.845   4.175
10051SOL    HW131052   0.574   3.837   4.158
10051SOL    HW231053   0.722   3.840   4.088
10052SOL     OW31054   1.200   0.393   3.257
10052SOL    HW131055   1.231   0.314   3.310
10052SOL    HW231056   1.192   0.368   3.161
10053SOL     OW31057   4.788   5.448   4.591
10053SOL    HW131058   4.770   5.351   4.608
10053SOL    HW231059   4.800   5.496   4.677
10054SOL     OW31060   5.129   3.929   4.515
10054SOL    HW131061   5.155   3.892   4.604
10054SOL    HW231062   5.153   3.864   4.443
10055SOL     OW31063   0.010   1.732   6.962
10055SOL    HW131064   0.066   1.724   0.018
10055SOL    HW231065   0.053   1.795   6.898
10056SOL     OW31066   5.108   2.932   3.120
10056SOL    HW131067   5.018   2.976   3.114
10056SOL    HW231068   5.135   2.925   3.216
10057SOL     OW31069   5.846   4.698   6.407
10057SOL    HW131070   5.895   4.688   6.494
10057SOL    HW231071   5.846   4.795   6.381
10058SOL     OW31072   6.060   3.148   4.768
10058SOL    HW131073   6.022   3.129   4.859
10058SOL    HW231074   6.101   3.240   4.768
10059SOL     OW31075   6.986   0.801   6.570
10059SOL    HW131076   6.996   0.875   6.504
10059SOL    HW231077   0.020   0.725   6.544
10060SOL     OW31078   2.367   2.044   2.726
10060SOL    HW131079   2.441   2.058   2.661
10060SOL    HW231080   2.376   2.110   2.801
10061SOL     OW31081   3.771   0.313   3.124
10061SOL    HW131082   3.855   0.261   3.115
10061SOL    HW231083   3.765   0.380   3.050
10062SOL     OW31084   0.070   0.080   4.267
10062SOL    HW131085   7.003   0.088   4.232
10062SOL    HW231086   0.068   0.062   4.365
10063SOL     OW31087   1.620   3.060   4.877
10063SOL    HW131088   1.532   3.030   4.914
10063SOL    HW231089   1.654   3.138   4.930
10064SOL     OW31090   2.783   6.256   0.512
10064SOL    HW131091   2.824   6.290   0.596
10064SOL    HW231092   2.691   6.293   0.501
10065SOL     OW31093   0.870   1.568   2.279
10065SOL    HW131094   0.940   1.522   2.334
10065SOL    HW231095   0.885   1.547   2.182
10066SOL     OW31096   6.616   3.225   4.568
10066SOL    HW131097   6.565   3.142   4.592
10066SOL    HW231098   6.611   3.290   4.644
10067SOL     OW31099   6.632   2.150   4.882
10067SOL    HW131100   6.647   2.248   4.894
10067SOL    HW231101   6.546   2.135   4.834
10068SOL     OW31102   2.540   2.078   2.507
10068SOL    HW131103   2.631   2.041   2.489
10068SOL    HW231104   2.471   2.018   2.466
10069SOL     OW31105   3.153   5.275   1.439
10069SOL    HW131106   3.123   5.370   1.436
10069SOL    HW231107   3.227   5.261   1.374
10070SOL     OW31108   3.674   5.770   5.431
10070SOL    HW131109   3.671   5.850   5.371
10070SOL    HW231110   3.644   5.689   5.380
10071SOL     OW31111   6.357   0.069   3.392
10071SOL    HW131112   6.356   0.032   3.299
10071SOL    HW231113   6.450   0.064   3.428
10072SOL     OW31114   6.785   2.188   2.224
10072SOL    HW131115   6.861   2.188   2.289
10072SOL    HW231116   6.798   2.261   2.157
10073SOL     OW31117   6.366   3.935   4.700
10073SOL    HW131118   6.276   3.948   4.742
10073SOL    HW231119   6.378   4.002   4.626
10074SOL     OW31120   1.235   4.642   0.411
10074SOL    HW131121   1.310   4.625   0.474
10074SOL    HW231122   1.184   4.723   0.440
10075SOL     OW31123   1.814   3.367   1.716
10075SOL    HW131124   1.894   3.395   1.770
10075SOL    HW231125   1.732   3.411   1.753
10076SOL     OW31126   5.279   5.605   3.692
10076SOL    HW131127   5.337   5.543   3.746
10076SOL    HW231128   5.317   5.697   3.695
10077SOL     OW31129   6.163   2.976   6.204
10077SOL    HW131130   6.098   3.044   6.172
10077SOL    HW231131   6.163   2.973   6.304
10078SOL     OW31132   6.964   6.375   5.441
10078SOL    HW131133   7.024   6.368   5.361
10078SOL    HW231134   6.883   6.429   5.417
10079SOL     OW31135   4.671   2.579   3.025
10079SOL    HW131136   4.750   2.520   3.043
10079SOL    HW231137   4.644   2.570   2.930
10080SOL     OW31138   5.367   0.144   6.305
10080SOL    HW131139   5.336   0.130   6.211
10080SOL    HW231140   5.296   0.191   6.357
10081SOL     OW31141   2.113   2.894   0.689
10081SOL    HW131142   2.147   2.918   0.780
10081SOL    HW231143   2.106   2.977   0.633
10082SOL     OW31144   1.296   4.450   1.396
10082SOL    HW131145   1.302   4.352   1.379
10082SOL    HW231146   1.280   4.498   1.310
10083SOL     OW31147   3.424   5.085   3.618
10083SOL    HW131148   3.483   5.013   3.583
10083SOL    HW231149   3.332   5.075   3.580
10084SOL     OW31150   1.229   0.729   4.790
10084SOL    HW131151   1.289   0.650   4.780
10084SOL    HW231152   1.225   0.756   4.886
10085SOL     OW31153   4.849   6.901   0.446
10085SOL    HW131154   4.811   6.992   0.435
10085SOL    HW231155   4.921   6.886   0.378
10086SOL     OW31156   0.037   6.753   2.497
10086SOL    HW131157   6.999   6.767   2.422
10086SOL    HW231158   0.092   6.835   2.510
10087SOL     OW31159   1.537   6.501   5.146
10087SOL    HW131160   1.546   6.408   5.110
10087SOL    HW231161   1.603   6.561   5.102
10088SOL     OW31162   0.441   2.609   0.232
10088SOL    HW131163   0.425   2.683   0.297
10088SOL    HW231164   0.469   2.647   0.144
10089SOL     OW31165   3.808   1.319   2.399
10089SOL    HW131166   3.800   1.417   2.382
10089SOL    HW231167   3.830   1.304   2.495
10090SOL     OW31168   2.149   6.432   2.072
10090SOL    HW131169   2.219   6.477   2.128
10090SOL    HW231170   2.135   6.339   2.104
10091SOL     OW31171   6.278   4.274   5.423
10091SOL    HW131172   6.192   4.302   5.465
10091SOL    HW231173   6.317   4.351   5.373
10092SOL     OW31174   0.529   1.872   4.475
10092SOL    HW131175   0.461   1.805   4.445
10092SOL    HW231176   0.618   1.827   4.485
10093SOL     OW31177   5.451   4.020   5.575
10093SOL    HW131178   5.403   4.048   5.658
10093SOL    HW231179   5.435   3.922   5.558
10094SOL     OW31180   3.178   0.882   0.671
10094SOL    HW131181   3.257   0.867   0.729
10094SOL    HW231182   3.094   0.860   0.722
10095SOL     OW31183   5.094   2.776   5.211
10095SOL    HW131184   5.080   2.683   5.178
10095SOL    HW231185   5.007   2.827   5.205
10096SOL     OW31186   5.472   1.618   3.077
10096SOL    HW131187   5.399   1.550   3.076
10096SOL    HW231188   5.546   1.588   3.017
10097SOL     OW31189   0.812   1.851   0.414
10097SOL    HW131190   0.846   1.945   0.418
10097SOL    HW231191   0.875   1.791   0.464
10098SOL     OW31192   3.697   6.406   4.156
10098SOL    HW131193   3.712   6.463   4.075
10098SOL    HW231194   3.703   6.309   4.130
10099SOL     OW31195   6.860   4.824   1.131
10099SOL    HW131196   6.831   4.912   1.168
10099SOL    HW231197   6.799   4.798   1.056
10100SOL     OW31198   4.560   4.921   4.279
10100SOL    HW131199   4.606   4.956   4.197
10100SOL    HW231200   4.480   4.977   4.300
10101SOL     OW31201   1.282   2.075   1.540
10101SOL    HW131202   1.336   2.007   1.588
10101SOL    HW231203   1.342   2.136   1.489
10102SOL     OW31204   6.865   6.628   2.181
10102SOL    HW131205   6.918   6.583   2.109
10102SOL    HW231206   6.795   6.686   2.139
10103SOL     OW31207   6.343   6.149   6.356
10103SOL    HW131208   6.271   6.203   6.400
10103SOL    HW231209   6.432   6.188   6.377
10104SOL     OW31210   2.090   0.295   4.964
10104SOL    HW131211   1.998   0.280   5.000
10104SOL    HW231212   2.143   0.211   4.972
10105SOL     OW31213   2.646   0.710   6.188
10105SOL    HW131214   2.646   0.628   6.130
10105SOL    HW231215   2.589   0.693   6.269
10106SOL     OW31216   5.274   6.106   1.576
10106SOL    HW131217   5.282   6.016   1.532
10106SOL    HW231218   5.263   6.176   1.506
10107SOL     OW31219   4.979   4.618   6.722
10107SOL    HW131220   4.900   4.613   6.783
10107SOL    HW231221   4.950   4.651   6.632
10108SOL     OW31222   2.077   2.731   6.860
10108SOL    HW131223   2.093   2.635   6.835
10108SOL    HW231224   1.990   2.761   6.821
10109SOL     OW31225   1.154   2.088   0.992
10109SOL    HW131226   1.067   2.089   1.041
10109SOL    HW231227   1.229   2.082   1.058
10110SOL     OW31228   4.910   6.075   2.406
10110SOL    HW131229   5.010   6.070   2.395
10110SOL    HW231230   4.888   6.108   2.497
10111SOL     OW31231   2.000   1.637   1.670
10111SOL    HW131232   2.032   1.543   1.681
10111SOL    HW231233   2.046   1.678   1.591
10112SOL     OW31234   7.025   2.262   3.435
10112SOL    HW131235   7.020   2.348   3.487
10112SOL    HW231236   0.024   2.187   3.496
10113SOL     OW31237   6.740   0.803   5.940
10113SOL    HW131238   6.725   0.897   5.908
10113SOL    HW231239   6.823   0.766   5.898
10114SOL     OW31240   4.879   1.957   2.367
10114SOL    HW131241   4.906   1.945   2.462
10114SOL    HW231242   4.932   2.031   2.325
10115SOL     OW31243   3.625   2.626   6.020
10115SOL    HW131244   3.536   2.588   5.994
10115SOL    HW231245   3.698   2.567   5.984
10116SOL     OW31246   6.326   0.745   4.726
10116SOL    HW131247   6.302   0.665   4.671
10116SOL    HW231248   6.243   0.785   4.765
10117SOL     OW31249   6.081   4.321   4.059
10117SOL    HW131250   6.092   4.222   4.060
10117SOL    HW231251   6.153   4.363   4.004
10118SOL     OW31252   4.062   5.383   4.455
10118SOL    HW131253   4.144   5.429   4.490
10118SOL    HW231254   4.019   5.440   4.386
10119SOL     OW31255   6.854   5.287   5.433
10119SOL    HW131256   6.762   5.321   5.450
10119SOL    HW231257   6.862   5.256   5.339
10120SOL     OW31258   2.122   3.419   2.503
10120SOL    HW131259   2.178   3.376   2.573
10120SOL    HW231260   2.155   3.392   2.412
10121SOL     OW31261   6.582   3.930   0.936
10121SOL    HW131262   6.522   3.981   0.873
10121SOL    HW231263   6.632   3.995   0.993
10122SOL     OW31264   1.026   0.421   3.833
10122SOL    HW131265   1.007   0.483   3.757
10122SOL    HW231266   0.939   0.387   3.870
10123SOL     OW31267   6.229   5.419   6.715
10123SOL    HW131268   6.257   5.328   6.685
10123SOL    HW231269   6.221   5.421   6.814
10124SOL     OW31270   0.916   5.085   3.120
10124SOL    HW131271   0.918   5.093   3.219
10124SOL    HW231272   0.983   5.017   3.090
10125SOL     OW31273   1.814   1.279   5.873
10125SOL    HW131274   1.799   1.213   5.946
10125SOL    HW231275   1.844   1.232   5.790
10126SOL     OW31276   6.417   0.333   6.890
10126SOL    HW131277   6.480   0.393   6.841
10126SOL    HW231278   6.448   0.238   6.881
10127SOL     OW31279   1.932   5.482   5.824
10127SOL    HW131280   1.851   5.472   5.882
10127SOL    HW231281   1.991   5.402   5.835
10128SOL     OW31282   2.809   1.632   6.690
10128SOL    HW131283   2.903   1.643   6.720
10128SOL    HW231284   2.756   1.713   6.714
10129SOL     OW31285   5.924   1.193   4.438
10129SOL    HW131286   5.880   1.262   4.496
10129SOL    HW231287   5.856   1.126   4.409
10130SOL     OW31288   1.148   2.089   2.514
10130SOL    HW131289   1.077   2.033   2.557
10130SOL    HW231290   1.133   2.091   2.415
10131SOL     OW31291   1.488   6.454   4.592
10131SOL    HW131292   1.478   6.430   4.495
10131SOL    HW231293   1.400   6.442   4.638
10132SOL     OW31294   6.756   1.092   1.509
10132SOL    HW131295   6.781   1.026   1.580
10132SOL    HW231296   6.670   1.063   1.466
10133SOL     OW31297   5.971   6.559   0.479
10133SOL    HW131298   6.037   6.519   0.543
10133SOL    HW231299   6.018   6.624   0.419
10134SOL     OW31300   5.882   6.829   1.907
10134SOL    HW131301   5.981   6.813   1.917
10134SOL    HW231302   5.833   6.757   1.957
10135SOL     OW31303   6.394   0.352   2.640
10135SOL    HW131304   6.427   0.304   2.721
10135SOL    HW231305   6.297   0.330   2.625
10136SOL     OW31306   5.559   1.448   2.595
10136SOL    HW131307   5.490   1.520   2.587
10136SOL    HW231308   5.650   1.488   2.585
10137SOL     OW31309   6.323   5.298   5.413
10137SOL    HW131310   6.301   5.330   5.505
10137SOL    HW231311   6.239   5.283   5.362
10138SOL     OW31312   0.227   1.924   0.425
10138SOL    HW131313   0.191   1.980   0.499
10138SOL    HW231314   0.315   1.962   0.395
10139SOL     OW31315   3.679   3.012   6.315
10139SOL    HW131316   3.708   2.943   6.249
10139SOL    HW231317   3.631   3.086   6.268
10140SOL     OW31318   0.667   6.507   5.485
10140SOL    HW131319   0.598   6.572   5.456
10140SOL    HW231320   0.633   6.413   5.474
10141SOL     OW31321   1.967   2.567   4.651
10141SOL    HW131322   1.922   2.509   4.582
10141SOL    HW231323   1.934   2.543   4.742
10142SOL     OW31324   4.275   6.331   4.459
10142SOL    HW131325   4.251   6.233   4.461
10142SOL    HW231326   4.193   6.385   4.441
10143SOL     OW31327   5.446   3.215   6.590
10143SOL    HW131328   5.429   3.152   6.666
10143SOL    HW231329   5.383   3.292   6.595
10144SOL     OW31330   3.645   0.255   6.320
10144SOL    HW131331   3.689   0.208   6.397
10144SOL    HW231332   3.555   0.289   6.348
10145SOL     OW31333   5.622   5.841   6.653
10145SOL    HW131334   5.715   5.851   6.689
10145SOL    HW231335   5.619   5.764   6.589
10146SOL     OW31336   0.137   2.499   4.259
10146SOL    HW131337   0.121   2.544   4.171
10146SOL    HW231338   0.050   2.491   4.308
10147SOL     OW31339   4.692   5.156   6.101
10147SOL    HW131340   4.731   5.187   6.015
10147SOL    HW231341   4.647   5.233   6.147
10148SOL     OW31342   0.968   4.604   0.848
10148SOL    HW131343   0.924   4.686   0.812
10148SOL    HW231344   0.949   4.527   0.787
10149SOL     OW31345   3.313   4.634   0.284
10149SOL    HW131346   3.333   4.706   0.350
10149SOL    HW231347   3.242   4.574   0.319
10150SOL     OW31348   4.023   4.527   0.661
10150SOL    HW131349   4.096   4.588   0.632
10150SOL    HW231350   3.937   4.556   0.620
10151SOL     OW31351   5.704   6.819   5.783
10151SOL    HW131352   5.793   6.864   5.774
10151SOL    HW231353   5.658   6.851   5.865
10152SOL     OW31354   4.111   6.476   3.084
10152SOL    HW131355   4.183   6.435   3.141
10152SOL    HW231356   4.152   6.536   3.016
10153SOL     OW31357   4.751   4.361   3.073
10153SOL    HW131358   4.673   4.423   3.071
10153SOL    HW231359   4.834   4.410   3.045
10154SOL     OW31360   4.761   5.143   5.485
10154SOL    HW131361   4.685   5.092   5.447
10154SOL    HW231362   4.727   5.224   5.533
10155SOL     OW31363   3.948   1.431   4.752
10155SOL    HW131364   3.881   1.418   4.678
10155SOL    HW231365   4.011   1.353   4.754
10156SOL     OW31366   4.977   1.813   6.877
10156SOL    HW131367   5.007   1.877   6.807
10156SOL    HW231368   4.985   1.856   6.967
10157SOL     OW31369   0.484   3.181   1.302
10157SOL    HW131370   0.447   3.220   1.217
10157SOL    HW231371   0.504   3.084   1.288
10158SOL     OW31372   6.268   4.895   0.492
10158SOL    HW131373   6.170   4.901   0.507
10158SOL    HW231374   6.300   4.976   0.443
10159SOL     OW31375   3.228   3.056   2.502
10159SOL    HW131376   3.309   3.013   2.462
10159SOL    HW231377   3.213   3.019   2.594
10160SOL     OW31378   1.144   4.811   2.591
10160SOL    HW131379   1.079   4.877   2.627
10160SOL    HW231380   1.237   4.846   2.601
10161SOL     OW31381   5.329   2.980   5.537
10161SOL    HW131382   5.290   2.940   5.620
10161SOL    HW231383   5.288   3.070   5.521
10162SOL     OW31384   1.311   3.071   2.603
10162SOL    HW131385   1.343   2.990   2.652
10162SOL    HW231386   1.348   3.071   2.510
10163SOL     OW31387   1.792   6.371   5.271
10163SOL    HW131388   1.822   6.283   5.236
10163SOL    HW231389   1.698   6.390   5.241
10164SOL     OW31390   1.352   2.826   2.766
10164SOL    HW131391   1.383   2.778   2.847
10164SOL    HW231392   1.284   2.770   2.717
10165SOL     OW31393   6.615   3.162   4.297
10165SOL    HW131394   6.569   3.220   4.229
10165SOL    HW231395   6.605   3.202   4.388
10166SOL     OW31396   2.455   0.446   1.795
10166SOL    HW131397   2.445   0.352   1.827
10166SOL    HW231398   2.531   0.490   1.844
10167SOL     OW31399   2.633   0.476   6.566
10167SOL    HW131400   2.633   0.397   6.628
10167SOL    HW231401   2.725   0.492   6.533
10168SOL     OW31402   6.922   1.061   6.665
10168SOL    HW131403   6.834   1.074   6.710
10168SOL    HW231404   6.935   0.963   6.647
10169SOL     OW31405   6.114   2.622   3.275
10169SOL    HW131406   6.169   2.657   3.199
10169SOL    HW231407   6.102   2.523   3.265
10170SOL     OW31408   5.675   5.617   6.478
10170SOL    HW131409   5.660   5.538   6.418
10170SOL    HW231410   5.773   5.636   6.483
10171SOL     OW31411   2.280   3.646   5.857
10171SOL    HW131412   2.354   3.638   5.791
10171SOL    HW231413   2.301   3.720   5.922
10172SOL     OW31414   6.201   0.228   2.895
10172SOL    HW131415   6.300   0.213   2.898
10172SOL    HW231416   6.156   0.149   2.855
10173SOL     OW31417   3.274   3.865   5.060
10173SOL    HW131418   3.254   3.944   5.001
10173SOL    HW231419   3.352   3.815   5.023
10174SOL     OW31420   4.055   5.677   3.357
10174SOL    HW131421   4.101   5.736   3.423
10174SOL    HW231422   3.977   5.632   3.402
10175SOL     OW31423   0.076   1.591   3.383
10175SOL    HW131424   0.059   1.641   3.468
10175SOL    HW231425   0.172   1.565   3.378
10176SOL     OW31426   6.719   1.634   6.061
10176SOL    HW131427   6.721   1.729   6.091
10176SOL    HW231428   6.640   1.620   6.001
10177SOL     OW31429   2.432   0.932   3.634
10177SOL    HW131430   2.490   0.887   3.565
10177SOL    HW231431   2.484   1.003   3.681
10178SOL     OW31432   1.730   2.308   0.684
10178SOL    HW131433   1.812   2.277   0.730
10178SOL    HW231434   1.754   2.349   0.596
10179SOL     OW31435   6.853   4.502   1.235
10179SOL    HW131436   6.934   4.512   1.178
10179SOL    HW231437   6.772   4.531   1.183
10180SOL     OW31438   4.319   0.243   5.803
10180SOL    HW131439   4.291   0.319   5.861
10180SOL    HW231440   4.334   0.277   5.710
10181SOL     OW31441   6.530   3.160   1.998
10181SOL    HW131442   6.525   3.239   2.059
10181SOL    HW231443   6.524   3.076   2.052
10182SOL     OW31444   5.684   1.919   0.335
10182SOL    HW131445   5.638   1.939   0.421
10182SOL    HW231446   5.616   1.896   0.265
10183SOL     OW31447   5.783   1.997   6.600
10183SOL    HW131448   5.698   2.006   6.548
10183SOL    HW231449   5.828   1.911   6.574
10184SOL     OW31450   5.808   2.450   6.037
10184SOL    HW131451   5.760   2.482   6.119
10184SOL    HW231452   5.751   2.384   5.989
10185SOL     OW31453   3.724   5.679   1.667
10185SOL    HW131454   3.688   5.607   1.607
10185SOL    HW231455   3.728   5.765   1.617
10186SOL     OW31456   3.760   3.476   5.865
10186SOL    HW131457   3.685   3.424   5.906
10186SOL    HW231458   3.744   3.484   5.766
10187SOL     OW31459   1.828   4.677   5.858
10187SOL    HW131460   1.818   4.602   5.923
10187SOL    HW231461   1.814   4.764   5.905
10188SOL     OW31462   3.238   0.616   6.430
10188SOL    HW131463   3.290   0.694   6.465
10188SOL    HW231464   3.161   0.599   6.491
10189SOL     OW31465   1.224   2.261   6.336
10189SOL    HW131466   1.186   2.169   6.329
10189SOL    HW231467   1.165   2.326   6.288
10190SOL     OW31468   3.930   5.655   2.050
10190SOL    HW131469   3.904   5.638   1.955
10190SOL    HW231470   3.937   5.568   2.099
10191SOL     OW31471   5.934   6.116   6.810
10191SOL    HW131472   5.848   6.167   6.801
10191SOL    HW231473   5.940   6.077   6.901
10192SOL     OW31474   1.961   1.997   4.396
10192SOL    HW131475   1.863   2.013   4.390
10192SOL    HW231476   1.998   2.043   4.477
10193SOL     OW31477   3.514   3.514   3.390
10193SOL    HW131478   3.523   3.490   3.486
10193SOL    HW231479   3.500   3.612   3.381
10194SOL     OW31480   3.004   0.459   3.146
10194SOL    HW131481   3.047   0.550   3.144
10194SOL    HW231482   2.919   0.461   3.094
10195SOL     OW31483   3.924   6.254   2.160
10195SOL    HW131484   3.847   6.315   2.176
10195SOL    HW231485   3.895   6.179   2.100
10196SOL     OW31486   6.066   1.894   3.667
10196SOL    HW131487   6.013   1.840   3.601
10196SOL    HW231488   6.055   1.992   3.646
10197SOL     OW31489   6.062   0.162   1.676
10197SOL    HW131490   5.996   0.235   1.658
10197SOL    HW231491   6.013   0.079   1.704
10198SOL     OW31492   2.726   0.054   0.781
10198SOL    HW131493   2.691   7.026   0.706
10198SOL    HW231494   2.655   0.068   0.850
10199SOL     OW31495   1.315   1.472   0.460
10199SOL    HW131496   1.367   1.557   0.451
10199SOL    HW231497   1.218   1.491   0.443
10200SOL     OW31498   4.740   4.368   4.263
10200SOL    HW131499   4.836   4.384   4.286
10200SOL    HW231500   4.684   4.377   4.345
10201SOL     OW31501   1.762   4.332   2.772
10201SOL    HW131502   1.815   4.248   2.776
10201SOL    HW231503   1.747   4.358   2.677
10202SOL     OW31504   1.265   3.659   2.631
10202SOL    HW131505   1.194   3.640   2.699
10202SOL    HW231506   1.231   3.635   2.540
10203SOL     OW31507   1.848   3.417   2.326
10203SOL    HW131508   1.944   3.397   2.307
10203SOL    HW231509   1.820   3.498   2.273
10204SOL     OW31510   3.158   4.850   5.349
10204SOL    HW131511   3.206   4.764   5.337
10204SOL    HW231512   3.061   4.832   5.369
10205SOL     OW31513   4.640   1.681   2.988
10205SOL    HW131514   4.574   1.757   2.988
10205SOL    HW231515   4.646   1.643   2.896
10206SOL     OW31516   5.330   6.872   6.647
10206SOL    HW131517   5.254   6.930   6.619
10206SOL    HW231518   5.411   6.928   6.661
10207SOL     OW31519   4.129   0.703   3.095
10207SOL    HW131520   4.146   0.798   3.069
10207SOL    HW231521   4.040   0.674   3.059
10208SOL     OW31522   6.272   4.016   5.366
10208SOL    HW131523   6.283   4.115   5.372
10208SOL    HW231524   6.215   3.984   5.442
10209SOL     OW31525   5.851   0.204   6.348
10209SOL    HW131526   5.871   0.301   6.335
10209SOL    HW231527   5.823   0.188   6.443
10210SOL     OW31528   5.179   5.871   2.410
10210SOL    HW131529   5.085   5.839   2.414
10210SOL    HW231530   5.241   5.800   2.444
10211SOL     OW31531   3.939   5.604   5.532
10211SOL    HW131532   3.889   5.649   5.458
10211SOL    HW231533   4.033   5.638   5.534
10212SOL     OW31534   0.093   0.681   5.400
10212SOL    HW131535   0.136   0.735   5.472
10212SOL    HW231536   0.006   0.723   5.374
10213SOL     OW31537   6.258   1.336   2.928
10213SOL    HW131538   6.284   1.241   2.945
10213SOL    HW231539   6.307   1.371   2.849
10214SOL     OW31540   0.052   1.103   1.845
10214SOL    HW131541   0.082   1.008   1.833
10214SOL    HW231542   0.051   1.149   1.756
10215SOL     OW31543   3.703   3.881   6.722
10215SOL    HW131544   3.783   3.899   6.779
10215SOL    HW231545   3.651   3.966   6.710
10216SOL     OW31546   4.883   0.156   1.367
10216SOL    HW131547   4.803   0.200   1.407
10216SOL    HW231548   4.964   0.179   1.422
10217SOL     OW31549   2.390   2.097   4.724
10217SOL    HW131550   2.463   2.031   4.706
10217SOL    HW231551   2.379   2.108   4.823
10218SOL     OW31552   2.702   1.302   0.683
10218SOL    HW131553   2.674   1.397   0.670
10218SOL    HW231554   2.725   1.287   0.780
10219SOL     OW31555   1.026   3.394   0.568
10219SOL    HW131556   1.044   3.390   0.666
10219SOL    HW231557   1.089   3.459   0.525
10220SOL     OW31558   4.390   2.134   0.741
10220SOL    HW131559   4.437   2.059   0.696
10220SOL    HW231560   4.296   2.107   0.763
10221SOL     OW31561   3.063   0.056   4.975
10221SOL    HW131562   3.028   0.111   4.899
10221SOL    HW231563   3.119   0.114   5.035
10222SOL     OW31564   1.891   5.552   5.531
10222SOL    HW131565   1.874   5.536   5.628
10222SOL    HW231566   1.986   5.530   5.510
10223SOL     OW31567   0.667   4.361   0.370
10223SOL    HW131568   0.684   4.451   0.330
10223SOL    HW231569   0.724   4.293   0.324
10224SOL     OW31570   1.518   0.244   4.120
10224SOL    HW131571   1.438   0.183   4.115
10224SOL    HW231572   1.519   0.290   4.209
10225SOL     OW31573   6.502   5.601   4.398
10225SOL    HW131574   6.597   5.634   4.395
10225SOL    HW231575   6.450   5.643   4.323
10226SOL     OW31576   1.855   1.639   0.150
10226SOL    HW131577   1.811   1.633   0.240
10226SOL    HW231578   1.810   1.577   0.086
10227SOL     OW31579   5.332   4.526   0.012
10227SOL    HW131580   5.398   4.450   0.012
10227SOL    HW231581   5.247   4.496   6.995
10228SOL     OW31582   0.663   5.366   2.886
10228SOL    HW131583   0.566   5.379   2.906
10228SOL    HW231584   0.715   5.445   2.920
10229SOL     OW31585   1.491   0.453   2.710
10229SOL    HW131586   1.573   0.405   2.680
10229SOL    HW231587   1.508   0.551   2.713
10230SOL     OW31588   6.364   0.841   3.673
10230SOL    HW131589   6.421   0.918   3.643
10230SOL    HW231590   6.280   0.839   3.619
10231SOL     OW31591   5.561   6.607   4.864
10231SOL    HW131592   5.641   6.613   4.805
10231SOL    HW231593   5.535   6.511   4.876
10232SOL     OW31594   3.379   2.099   5.126
10232SOL    HW131595   3.448   2.107   5.054
10232SOL    HW231596   3.298   2.151   5.100
10233SOL     OW31597   4.902   1.378   5.750
10233SOL    HW131598   4.867   1.300   5.803
10233SOL    HW231599   4.825   1.429   5.712
10234SOL     OW31600   4.895   6.782   1.819
10234SOL    HW131601   4.851   6.724   1.750
10234SOL    HW231602   4.976   6.735   1.853
10235SOL     OW31603   5.984   1.209   6.943
10235SOL    HW131604   5.918   1.210   7.018
10235SOL    HW231605   6.071   1.247   6.974
10236SOL     OW31606   2.508   5.363   1.869
10236SOL    HW131607   2.436   5.383   1.803
10236SOL    HW231608   2.596   5.392   1.832
10237SOL     OW31609   5.766   3.362   2.376
10237SOL    HW131610   5.782   3.390   2.281
10237SOL    HW231611   5.853   3.363   2.425
10238SOL     OW31612   4.835   4.876   4.686
10238SOL    HW131613   4.774   4.913   4.755
10238SOL    HW231614   4.782   4.840   4.610
10239SOL     OW31615   0.320   3.904   4.419
10239SOL    HW131616   0.249   3.928   4.353
10239SOL    HW231617   0.392   3.974   4.417
10240SOL     OW31618   0.261   4.209   3.963
10240SOL    HW131619   0.203   4.171   4.035
10240SOL    HW231620   0.207   4.268   3.904
10241SOL     OW31621   1.975   0.998   1.900
10241SOL    HW131622   1.959   1.097   1.909
10241SOL    HW231623   2.029   0.981   1.817
10242SOL     OW31624   0.024   0.283   5.984
10242SOL    HW131625   0.002   0.189   6.006
10242SOL    HW231626   7.019   0.304   5.891
10243SOL     OW31627   1.512   5.905   1.268
10243SOL    HW131628   1.598   5.930   1.313
10243SOL    HW231629   1.458   5.988   1.250
10244SOL     OW31630   2.131   5.942   6.887
10244SOL    HW131631   2.117   5.865   6.949
10244SOL    HW231632   2.055   6.005   6.894
10245SOL     OW31633   2.902   2.314   6.602
10245SOL    HW131634   2.981   2.373   6.619
10245SOL    HW231635   2.849   2.351   6.526
10246SOL     OW31636   3.091   4.084   4.431
10246SOL    HW131637   3.012   4.140   4.458
10246SOL    HW231638   3.074   3.989   4.457
10247SOL     OW31639   0.256   4.102   5.686
10247SOL    HW131640   0.283   4.118   5.781
10247SOL    HW231641   0.273   4.006   5.662
10248SOL     OW31642   3.587   0.181   2.028
10248SOL    HW131643   3.555   0.177   2.123
10248SOL    HW231644   3.516   0.144   1.968
10249SOL     OW31645   5.438   1.012   5.841
10249SOL    HW131646   5.468   1.027   5.935
10249SOL    HW231647   5.380   1.088   5.812
10250SOL     OW31648   6.430   1.393   0.229
10250SOL    HW131649   6.458   1.486   0.254
10250SOL    HW231650   6.481   1.364   0.148
10251SOL     OW31651   2.668   3.843   6.589
10251SOL    HW131652   2.696   3.789   6.510
10251SOL    HW231653   2.573   3.823   6.611
10252SOL     OW31654   6.536   5.427   1.698
10252SOL    HW131655   6.456   5.372   1.723
10252SOL    HW231656   6.610   5.366   1.669
10253SOL     OW31657   4.245   5.384   6.708
10253SOL    HW131658   4.165   5.351   6.756
10253SOL    HW231659   4.228   5.383   6.609
10254SOL     OW31660   2.018   2.187   5.355
10254SOL    HW131661   1.986   2.280   5.333
10254SOL    HW231662   2.052   2.185   5.449
10255SOL     OW31663   2.802   6.199   2.808
10255SOL    HW131664   2.888   6.246   2.788
10255SOL    HW231665   2.727   6.246   2.763
10256SOL     OW31666   5.860   0.323   6.859
10256SOL    HW131667   5.944   0.293   6.903
10256SOL    HW231668   5.786   0.328   6.927
10257SOL     OW31669   1.131   5.418   5.864
10257SOL    HW131670   1.052   5.473   5.836
10257SOL    HW231671   1.187   5.398   5.784
10258SOL     OW31672   3.772   0.072   3.364
10258SOL    HW131673   3.780   0.024   3.277
10258SOL    HW231674   3.747   0.007   3.436
10259SOL     OW31675   6.991   3.703   3.569
10259SOL    HW131676   7.021   3.703   3.664
10259SOL    HW231677   6.914   3.639   3.558
10260SOL     OW31678   0.985   6.931   2.087
10260SOL    HW131679   0.955   6.844   2.047
10260SOL    HW231680   1.079   6.923   2.118
10261SOL     OW31681   1.050   5.641   2.031
10261SOL    HW131682   1.008   5.715   2.084
10261SOL    HW231683   1.150   5.648   2.038
10262SOL     OW31684   2.335   4.535   4.733
10262SOL    HW131685   2.394   4.589   4.674
10262SOL    HW231686   2.311   4.449   4.687
10263SOL     OW31687   6.123   1.710   5.715
10263SOL    HW131688   6.113   1.744   5.809
10263SOL    HW231689   6.039   1.727   5.664
10264SOL     OW31690   6.894   0.433   6.263
10264SOL    HW131691   6.846   0.499   6.204
10264SOL    HW231692   6.991   0.457   6.268
10265SOL     OW31693   3.735   1.576   2.438
10265SOL    HW131694   3.664   1.526   2.487
10265SOL    HW231695   3.785   1.634   2.501
10266SOL     OW31696   2.878   3.943   6.189
10266SOL    HW131697   2.820   3.945   6.271
10266SOL    HW231698   2.919   4.033   6.175
10267SOL     OW31699   0.442   1.876   6.737
10267SOL    HW131700   0.446   1.787   6.691
10267SOL    HW231701   0.519   1.885   6.800
10268SOL     OW31702   5.393   6.174   1.822
10268SOL    HW131703   5.320   6.214   1.877
10268SOL    HW231704   5.358   6.148   1.732
10269SOL     OW31705   2.825   2.713   6.453
10269SOL    HW131706   2.827   2.740   6.549
10269SOL    HW231707   2.764   2.773   6.403
10270SOL     OW31708   1.756   5.689   0.700
10270SOL    HW131709   1.844   5.687   0.748
10270SOL    HW231710   1.753   5.768   0.639
10271SOL     OW31711   4.479   4.588   1.466
10271SOL    HW131712   4.495   4.519   1.537
10271SOL    HW231713   4.466   4.677   1.509
10272SOL     OW31714   0.798   1.098   5.750
10272SOL    HW131715   0.783   1.100   5.652
10272SOL    HW231716   0.716   1.128   5.798
10273SOL     OW31717   3.916   5.366   5.038
10273SOL    HW131718   3.997   5.377   4.980
10273SOL    HW231719   3.837   5.407   4.994
10274SOL     OW31720   0.851   4.931   5.578
10274SOL    HW131721   0.787   4.867   5.622
10274SOL    HW231722   0.803   5.016   5.556
10275SOL     OW31723   0.955   6.354   2.845
10275SOL    HW131724   0.908   6.346   2.757
10275SOL    HW231725   0.926   6.279   2.905
10276SOL     OW31726   6.175   5.589   5.907
10276SOL    HW131727   6.158   5.549   5.817
10276SOL    HW231728   6.210   5.518   5.969
10277SOL     OW31729   2.808   6.380   4.425
10277SOL    HW131730   2.777   6.287   4.441
10277SOL    HW231731   2.744   6.445   4.467
10278SOL     OW31732   6.364   0.667   6.075
10278SOL    HW131733   6.411   0.607   6.140
10278SOL    HW231734   6.341   0.754   6.120
10279SOL     OW31735   3.154   6.873   4.213
10279SOL    HW131736   3.222   6.815   4.167
10279SOL    HW231737   3.081   6.895   4.149
10280SOL     OW31738   1.802   4.210   6.981
10280SOL    HW131739   1.806   4.303   7.019
10280SOL    HW231740   1.889   4.189   6.936
10281SOL     OW31741   4.805   0.284   3.604
10281SOL    HW131742   4.785   0.378   3.634
10281SOL    HW231743   4.726   0.247   3.556
10282SOL     OW31744   1.350   2.129   4.165
10282SOL    HW131745   1.318   2.187   4.091
10282SOL    HW231746   1.374   2.185   4.244
10283SOL     OW31747   1.253   3.554   0.482
10283SOL    HW131748   1.268   3.642   0.437
10283SOL    HW231749   1.340   3.505   0.490
10284SOL     OW31750   5.591   3.002   5.600
10284SOL    HW131751   5.492   3.015   5.600
10284SOL    HW231752   5.612   2.907   5.574
10285SOL     OW31753   5.740   0.194   0.843
10285SOL    HW131754   5.779   0.102   0.833
10285SOL    HW231755   5.706   0.225   0.754
10286SOL     OW31756   3.977   0.175   3.617
10286SOL    HW131757   3.898   0.176   3.555
10286SOL    HW231758   3.992   0.081   3.649
10287SOL     OW31759   2.067   6.747   1.872
10287SOL    HW131760   2.018   6.661   1.853
10287SOL    HW231761   2.026   6.821   1.818
10288SOL     OW31762   6.313   6.426   3.455
10288SOL    HW131763   6.310   6.524   3.476
10288SOL    HW231764   6.384   6.382   3.511
10289SOL     OW31765   3.321   1.268   1.607
10289SOL    HW131766   3.392   1.248   1.674
10289SOL    HW231767   3.361   1.268   1.516
10290SOL     OW31768   4.149   3.374   2.852
10290SOL    HW131769   4.145   3.454   2.911
10290SOL    HW231770   4.108   3.295   2.898
10291SOL     OW31771   3.076   0.750   5.096
10291SOL    HW131772   3.001   0.743   5.162
10291SOL    HW231773   3.163   0.754   5.145
10292SOL     OW31774   0.761   1.134   4.331
10292SOL    HW131775   0.757   1.159   4.428
10292SOL    HW231776   0.851   1.159   4.294
10293SOL     OW31777   2.294   6.153   3.306
10293SOL    HW131778   2.313   6.066   3.352
10293SOL    HW231779   2.267   6.221   3.373
10294SOL     OW31780   5.605   1.549   3.320
10294SOL    HW131781   5.627   1.452   3.313
10294SOL    HW231782   5.558   1.579   3.237
10295SOL     OW31783   0.412   5.748   6.182
10295SOL    HW131784   0.381   5.788   6.096
10295SOL    HW231785   0.490   5.799   6.217
10296SOL     OW31786   6.774   3.231   0.287
10296SOL    HW131787   6.763   3.174   0.205
10296SOL    HW231788   6.687   3.233   0.338
10297SOL     OW31789   1.399   4.858   4.610
10297SOL    HW131790   1.325   4.865   4.677
10297SOL    HW231791   1.487   4.863   4.656
10298SOL     OW31792   4.823   3.896   3.789
10298SOL    HW131793   4.753   3.964   3.769
10298SOL    HW231794   4.895   3.899   3.719
10299SOL     OW31795   4.953   4.592   3.084
10299SOL    HW131796   4.943   4.577   2.985
10299SOL    HW231797   5.010   4.673   3.100
10300SOL     OW31798   0.930   3.890   3.007
10300SOL    HW131799   0.842   3.937   3.007
10300SOL    HW231800   0.993   3.937   2.946
10301SOL     OW31801   5.901   1.575   1.656
10301SOL    HW131802   5.925   1.670   1.639
10301SOL    HW231803   5.814   1.572   1.706
10302SOL     OW31804   1.475   5.779   2.872
10302SOL    HW131805   1.523   5.705   2.826
10302SOL    HW231806   1.516   5.867   2.847
10303SOL     OW31807   3.903   3.987   1.565
10303SOL    HW131808   3.940   3.987   1.472
10303SOL    HW231809   3.909   4.079   1.604
10304SOL     OW31810   0.124   7.014   2.535
10304SOL    HW131811   0.026   6.999   2.519
10304SOL    HW231812   0.158   0.056   2.471
10305SOL     OW31813   1.051   5.670   0.522
10305SOL    HW131814   1.143   5.684   0.559
10305SOL    HW231815   1.008   5.591   0.566
10306SOL     OW31816   4.349   6.296   0.831
10306SOL    HW131817   4.346   6.211   0.778
10306SOL    HW231818   4.412   6.285   0.908
10307SOL     OW31819   1.694   1.068   6.084
10307SOL    HW131820   1.627   0.994   6.086
10307SOL    HW231821   1.768   1.047   6.148
10308SOL     OW31822   3.049   6.002   3.268
10308SOL    HW131823   2.987   5.936   3.311
10308SOL    HW231824   3.030   6.008   3.171
10309SOL     OW31825   6.773   6.427   2.750
10309SOL    HW131826   6.710   6.504   2.740
10309SOL    HW231827   6.731   6.344   2.713
10310SOL     OW31828   3.803   4.039   3.229
10310SOL    HW131829   3.726   4.063   3.290
10310SOL    HW231830   3.772   4.040   3.134
10311SOL     OW31831   0.018   5.548   0.492
10311SOL    HW131832   0.053   5.469   0.542
10311SOL    HW231833   6.993   5.517   0.412
10312SOL     OW31834   2.320   4.604   0.774
10312SOL    HW131835   2.271   4.575   0.692
10312SOL    HW231836   2.378   4.529   0.806
10313SOL     OW31837   5.588   0.111   2.848
10313SOL    HW131838   5.622   0.166   2.925
10313SOL    HW231839   5.507   0.059   2.877
10314SOL     OW31840   6.691   6.963   1.074
10314SOL    HW131841   6.665   6.885   1.017
10314SOL    HW231842   6.785   6.991   1.053
10315SOL     OW31843   6.494   5.320   4.420
10315SOL    HW131844   6.523   5.286   4.510
10315SOL    HW231845   6.504   5.419   4.416
10316SOL     OW31846   0.439   3.979   3.885
10316SOL    HW131847   0.411   4.068   3.923
10316SOL    HW231848   0.435   3.983   3.785
10317SOL     OW31849   3.945   5.459   0.070
10317SOL    HW131850   3.882   5.527   0.034
10317SOL    HW231851   3.971   5.395   7.025
10318SOL     OW31852   5.805   5.583   2.008
10318SOL    HW131853   5.888   5.625   1.971
10318SOL    HW231854   5.750   5.546   1.934
10319SOL     OW31855   5.638   6.281   3.221
10319SOL    HW131856   5.556   6.337   3.212
10319SOL    HW231857   5.702   6.325   3.284
10320SOL     OW31858   0.114   7.012   1.459
10320SOL    HW131859   0.102   7.019   1.558
10320SOL    HW231860   0.153   0.070   1.424
10321SOL     OW31861   4.516   5.459   3.999
10321SOL    HW131862   4.480   5.482   3.909
10321SOL    HW231863   4.477   5.520   4.067
10322SOL     OW31864   6.164   3.612   0.795
10322SOL    HW131865   6.184   3.536   0.733
10322SOL    HW231866   6.239   3.622   0.860
10323SOL     OW31867   5.138   2.710   5.766
10323SOL    HW131868   5.053   2.713   5.715
10323SOL    HW231869   5.208   2.664   5.712
10324SOL     OW31870   3.282   3.031   3.553
10324SOL    HW131871   3.281   2.965   3.478
10324SOL    HW231872   3.335   3.112   3.525
10325SOL     OW31873   0.617   3.078   2.747
10325SOL    HW131874   0.541   3.099   2.809
10325SOL    HW231875   0.583   3.075   2.653
10326SOL     OW31876   5.598   1.859   0.860
10326SOL    HW131877   5.655   1.940   0.849
10326SOL    HW231878   5.565   1.854   0.954
10327SOL     OW31879   0.469   0.970   3.144
10327SOL    HW131880   0.512   0.889   3.103
10327SOL    HW231881   0.474   1.046   3.080
10328SOL     OW31882   5.685   2.920   2.027
10328SOL    HW131883   5.743   2.952   2.102
10328SOL    HW231884   5.669   2.996   1.963
10329SOL     OW31885   3.155   6.835   2.732
10329SOL    HW131886   3.186   6.841   2.826
10329SOL    HW231887   3.116   6.744   2.715
10330SOL     OW31888   3.936   5.221   1.864
10330SOL    HW131889   3.851   5.247   1.911
10330SOL    HW231890   3.994   5.170   1.927
10331SOL     OW31891   6.016   0.344   3.329
10331SOL    HW131892   6.105   0.339   3.283
10331SOL    HW231893   5.978   0.436   3.318
10332SOL     OW31894   6.782   2.553   6.061
10332SOL    HW131895   6.866   2.602   6.038
10332SOL    HW231896   6.708   2.619   6.074
10333SOL     OW31897   5.225   5.082   4.480
10333SOL    HW131898   5.179   5.096   4.393
10333SOL    HW231899   5.299   5.016   4.468
10334SOL     OW31900   2.221   4.886   3.951
10334SOL    HW131901   2.131   4.851   3.977
10334SOL    HW231902   2.277   4.897   4.033
10335SOL     OW31903   1.753   5.235   1.365
10335SOL    HW131904   1.661   5.199   1.358
10335SOL    HW231905   1.774   5.256   1.461
10336SOL     OW31906   3.889   6.476   2.667
10336SOL    HW131907   3.869   6.482   2.569
10336SOL    HW231908   3.987   6.488   2.682
10337SOL     OW31909   0.531   4.444   4.825
10337SOL    HW131910   0.576   4.375   4.769
10337SOL    HW231911   0.594   4.477   4.895
10338SOL     OW31912   2.685   6.011   2.989
10338SOL    HW131913   2.644   6.091   3.033
10338SOL    HW231914   2.734   6.040   2.906
10339SOL     OW31915   2.750   6.195   1.346
10339SOL    HW131916   2.692   6.153   1.277
10339SOL    HW231917   2.784   6.283   1.313
10340SOL     OW31918   1.858   6.826   0.708
10340SOL    HW131919   1.860   6.912   0.657
10340SOL    HW231920   1.771   6.818   0.757
10341SOL     OW31921   2.004   1.839   2.558
10341SOL    HW131922   2.102   1.827   2.573
10341SOL    HW231923   1.954   1.761   2.595
10342SOL     OW31924   2.672   6.911   4.788
10342SOL    HW131925   2.709   7.004   4.782
10342SOL    HW231926   2.707   6.856   4.712
10343SOL     OW31927   2.070   3.411   5.273
10343SOL    HW131928   2.012   3.410   5.354
10343SOL    HW231929   2.110   3.320   5.259
10344SOL     OW31930   3.776   4.238   5.090
10344SOL    HW131931   3.681   4.210   5.103
10344SOL    HW231932   3.795   4.249   4.993
10345SOL     OW31933   2.275   1.465   6.491
10345SOL    HW131934   2.280   1.553   6.444
10345SOL    HW231935   2.179   1.443   6.511
10346SOL     OW31936   5.302   5.930   0.088
10346SOL    HW131937   5.359   5.959   0.011
10346SOL    HW231938   5.212   5.973   0.080
10347SOL     OW31939   5.384   1.533   1.904
10347SOL    HW131940   5.361   1.484   1.820
10347SOL    HW231941   5.436   1.473   1.964
10348SOL     OW31942   0.468   6.702   5.341
10348SOL    HW131943   0.381   6.746   5.360
10348SOL    HW231944   0.534   6.770   5.309
10349SOL     OW31945   6.718   1.787   1.194
10349SOL    HW131946   6.725   1.779   1.294
10349SOL    HW231947   6.787   1.729   1.151
10350SOL     OW31948   2.451   4.962   4.324
10350SOL    HW131949   2.435   4.894   4.252
10350SOL    HW231950   2.541   5.004   4.310
10351SOL     OW31951   4.871   4.410   4.957
10351SOL    HW131952   4.870   4.434   5.054
10351SOL    HW231953   4.823   4.323   4.944
10352SOL     OW31954   5.805   2.177   0.337
10352SOL    HW131955   5.764   2.088   0.359
10352SOL    HW231956   5.897   2.162   0.300
10353SOL     OW31957   6.524   2.796   3.637
10353SOL    HW131958   6.540   2.703   3.669
10353SOL    HW231959   6.483   2.794   3.546
10354SOL     OW31960   0.362   3.251   0.637
10354SOL    HW131961   0.302   3.219   0.564
10354SOL    HW231962   0.307   3.299   0.706
10355SOL     OW31963   1.011   0.628   0.795
10355SOL    HW131964   1.033   0.724   0.812
10355SOL    HW231965   1.091   0.581   0.760
10356SOL     OW31966   6.345   3.882   6.631
10356SOL    HW131967   6.394   3.802   6.597
10356SOL    HW231968   6.410   3.954   6.653
10357SOL     OW31969   1.206   2.819   6.128
10357SOL    HW131970   1.293   2.774   6.109
10357SOL    HW231971   1.221   2.897   6.188
10358SOL     OW31972   0.731   2.863   2.097
10358SOL    HW131973   0.822   2.837   2.064
10358SOL    HW231974   0.673   2.781   2.102
10359SOL     OW31975   5.766   2.078   2.637
10359SOL    HW131976   5.681   2.029   2.619
10359SOL    HW231977   5.820   2.028   2.704
10360SOL     OW31978   5.931   4.068   1.891
10360SOL    HW131979   5.890   3.982   1.923
10360SOL    HW231980   5.859   4.128   1.857
10361SOL     OW31981   0.612   1.472   1.602
10361SOL    HW131982   0.521   1.508   1.582
10361SOL    HW231983   0.604   1.396   1.667
10362SOL     OW31984   0.919   5.147   2.320
10362SOL    HW131985   1.013   5.123   2.342
10362SOL    HW231986   0.917   5.206   2.239
10363SOL     OW31987   5.023   4.712   0.386
10363SOL    HW131988   5.021   4.612   0.373
10363SOL    HW231989   4.930   4.748   0.373
10364SOL     OW31990   6.127   4.558   2.448
10364SOL    HW131991   6.125   4.604   2.537
10364SOL    HW231992   6.192   4.604   2.387
10365SOL     OW31993   6.360   6.142   0.431
10365SOL    HW131994   6.284   6.100   0.381
10365SOL    HW231995   6.331   6.232   0.466
10366SOL     OW31996   2.536   6.217   3.117
10366SOL    HW131997   2.486   6.187   3.198
10366SOL    HW231998   2.483   6.286   3.068
10367SOL     OW31999   6.014   1.575   0.967
10367SOL    HW132000   6.036   1.519   0.886
10367SOL    HW232001   5.917   1.564   0.989
10368SOL     OW32002   1.518   5.795   2.146
10368SOL    HW132003   1.548   5.887   2.124
10368SOL    HW232004   1.583   5.752   2.209
10369SOL     OW32005   3.389   0.108   5.909
10369SOL    HW132006   3.393   0.175   5.835
10369SOL    HW232007   3.338   0.146   5.986
10370SOL     OW32008   0.661   1.072   4.947
10370SOL    HW132009   0.582   1.050   5.005
10370SOL    HW232010   0.738   1.013   4.971
10371SOL     OW32011   3.461   5.572   3.678
10371SOL    HW132012   3.426   5.590   3.586
10371SOL    HW232013   3.387   5.581   3.745
10372SOL     OW32014   2.993   6.275   1.735
10372SOL    HW132015   2.943   6.351   1.777
10372SOL    HW232016   2.930   6.221   1.680
10373SOL     OW32017   0.814   1.637   5.382
10373SOL    HW132018   0.823   1.591   5.293
10373SOL    HW232019   0.898   1.687   5.402
10374SOL     OW32020   3.275   6.500   4.768
10374SOL    HW132021   3.224   6.566   4.824
10374SOL    HW232022   3.314   6.430   4.827
10375SOL     OW32023   2.851   3.823   0.377
10375SOL    HW132024   2.852   3.919   0.404
10375SOL    HW232025   2.851   3.817   0.277
10376SOL     OW32026   1.900   4.687   2.857
10376SOL    HW132027   1.860   4.636   2.933
10376SOL    HW232028   1.932   4.776   2.890
10377SOL     OW32029   1.444   0.868   3.121
10377SOL    HW132030   1.418   0.774   3.145
10377SOL    HW232031   1.374   0.908   3.062
10378SOL     OW32032   7.004   4.060   4.957
10378SOL    HW132033   0.042   4.134   4.976
10378SOL    HW232034   6.917   4.078   5.003
10379SOL     OW32035   1.614   6.296   4.816
10379SOL    HW132036   1.552   6.330   4.745
10379SOL    HW232037   1.574   6.314   4.906
10380SOL     OW32038   1.935   2.809   4.469
10380SOL    HW132039   1.948   2.729   4.528
10380SOL    HW232040   1.966   2.891   4.517
10381SOL     OW32041   4.154   4.701   1.892
10381SOL    HW132042   4.227   4.632   1.885
10381SOL    HW232043   4.073   4.669   1.843
10382SOL     OW32044   3.349   5.631   1.533
10382SOL    HW132045   3.374   5.550   1.587
10382SOL    HW232046   3.254   5.623   1.503
10383SOL     OW32047   2.204   4.540   0.544
10383SOL    HW132048   2.234   4.538   0.449
10383SOL    HW232049   2.118   4.590   0.552
10384SOL     OW32050   5.957   6.404   1.818
10384SOL    HW132051   6.004   6.439   1.899
10384SOL    HW232052   5.882   6.343   1.845
10385SOL     OW32053   4.132   4.729   6.935
10385SOL    HW132054   4.193   4.655   6.960
10385SOL    HW232055   4.081   4.705   6.853
10386SOL     OW32056   0.212   0.633   0.159
10386SOL    HW132057   0.137   0.570   0.137
10386SOL    HW232058   0.202   0.665   0.253
10387SOL     OW32059   4.895   3.012   2.259
10387SOL    HW132060   4.825   3.033   2.191
10387SOL    HW232061   4.984   3.007   2.213
10388SOL     OW32062   3.120   0.531   5.975
10388SOL    HW132063   3.045   0.517   5.911
10388SOL    HW232064   3.206   0.535   5.925
10389SOL     OW32065   0.770   3.042   0.753
10389SOL    HW132066   0.851   3.057   0.696
10389SOL    HW232067   0.708   2.979   0.707
10390SOL     OW32068   3.342   2.577   1.201
10390SOL    HW132069   3.346   2.669   1.240
10390SOL    HW232070   3.431   2.551   1.165
10391SOL     OW32071   6.566   6.771   4.093
10391SOL    HW132072   6.557   6.704   4.166
10391SOL    HW232073   6.492   6.838   4.100
10392SOL     OW32074   6.699   5.124   4.255
10392SOL    HW132075   6.641   5.199   4.287
10392SOL    HW232076   6.703   5.053   4.326
10393SOL     OW32077   1.549   3.855   3.966
10393SOL    HW132078   1.640   3.896   3.961
10393SOL    HW232079   1.533   3.818   4.057
10394SOL     OW32080   2.978   5.820   4.402
10394SOL    HW132081   3.068   5.800   4.441
10394SOL    HW232082   2.924   5.735   4.398
10395SOL     OW32083   6.814   0.113   0.725
10395SOL    HW132084   6.862   0.066   0.799
10395SOL    HW232085   6.733   0.158   0.762
10396SOL     OW32086   2.772   1.623   4.297
10396SOL    HW132087   2.743   1.718   4.304
10396SOL    HW232088   2.854   1.609   4.353
10397SOL     OW32089   3.144   2.090   2.623
10397SOL    HW132090   3.118   2.032   2.547
10397SOL    HW232091   3.071   2.156   2.642
10398SOL     OW32092   0.267   3.121   1.677
10398SOL    HW132093   0.191   3.184   1.662
10398SOL    HW232094   0.247   3.064   1.757
10399SOL     OW32095   6.607   2.851   1.893
10399SOL    HW132096   6.669   2.791   1.943
10399SOL    HW232097   6.515   2.845   1.933
10400SOL     OW32098   4.488   6.894   0.347
10400SOL    HW132099   4.531   6.852   0.267
10400SOL    HW232100   4.497   6.834   0.426
10401SOL     OW32101   6.556   0.708   4.224
10401SOL    HW132102   6.582   0.790   4.173
10401SOL    HW232103   6.552   0.730   4.322
10402SOL     OW32104   6.166   2.736   4.568
10402SOL    HW132105   6.251   2.693   4.540
10402SOL    HW232106   6.134   2.798   4.496
10403SOL     OW32107   2.908   0.856   3.390
10403SOL    HW132108   2.990   0.908   3.412
10403SOL    HW232109   2.934   0.771   3.344
10404SOL     OW32110   6.664   0.045   6.105
10404SOL    HW132111   6.572   0.040   6.145
10404SOL    HW232112   6.659   0.090   6.016
10405SOL     OW32113   0.761   1.457   5.600
10405SOL    HW132114   0.785   1.534   5.540
10405SOL    HW232115   0.840   1.431   5.655
10406SOL     OW32116   3.459   4.979   1.958
10406SOL    HW132117   3.527   4.907   1.968
10406SOL    HW232118   3.378   4.943   1.912
10407SOL     OW32119   3.395   6.067   6.509
10407SOL    HW132120   3.490   6.084   6.482
10407SOL    HW232121   3.350   6.013   6.439
10408SOL     OW32122   5.175   1.010   0.459
10408SOL    HW132123   5.136   1.012   0.367
10408SOL    HW232124   5.185   0.916   0.489
10409SOL     OW32125   6.693   4.964   0.056
10409SOL    HW132126   6.710   5.037   0.123
10409SOL    HW232127   6.777   4.944   0.006
10410SOL     OW32128   5.517   1.566   0.105
10410SOL    HW132129   5.511   1.493   0.037
10410SOL    HW232130   5.429   1.612   0.112
10411SOL     OW32131   2.974   5.676   2.992
10411SOL    HW132132   3.070   5.680   3.020
10411SOL    HW232133   2.934   5.590   3.023
10412SOL     OW32134   6.005   1.215   0.523
10412SOL    HW132135   6.093   1.256   0.547
10412SOL    HW232136   5.933   1.255   0.580
10413SOL     OW32137   6.857   2.181   1.394
10413SOL    HW132138   6.851   2.129   1.309
10413SOL    HW232139   6.949   2.219   1.404
10414SOL     OW32140   4.732   3.591   5.691
10414SOL    HW132141   4.718   3.634   5.601
10414SOL    HW232142   4.766   3.660   5.755
10415SOL     OW32143   0.487   5.496   6.135
10415SOL    HW132144   0.460   5.587   6.168
10415SOL    HW232145   0.585   5.494   6.117
10416SOL     OW32146   5.736   1.526   3.563
10416SOL    HW132147   5.760   1.622   3.580
10416SOL    HW232148   5.697   1.518   3.472
10417SOL     OW32149   3.050   4.962   4.291
10417SOL    HW132150   3.100   4.905   4.356
10417SOL    HW232151   3.005   4.904   4.223
10418SOL     OW32152   0.048   4.786   5.714
10418SOL    HW132153   0.046   4.728   5.796
10418SOL    HW232154   0.094   4.872   5.734
10419SOL     OW32155   1.209   0.715   6.997
10419SOL    HW132156   1.217   0.616   6.995
10419SOL    HW232157   1.286   0.754   0.021
10420SOL     OW32158   0.167   3.112   2.271
10420SOL    HW132159   0.151   3.080   2.365
10420SOL    HW232160   0.226   3.193   2.274
10421SOL     OW32161   1.434   1.612   3.508
10421SOL    HW132162   1.369   1.667   3.560
10421SOL    HW232163   1.398   1.595   3.416
10422SOL     OW32164   6.692   2.442   5.403
10422SOL    HW132165   6.634   2.360   5.407
10422SOL    HW232166   6.786   2.417   5.427
10423SOL     OW32167   5.101   4.972   4.697
10423SOL    HW132168   5.013   4.929   4.676
10423SOL    HW232169   5.147   4.998   4.612
10424SOL     OW32170   5.426   2.373   0.061
10424SOL    HW132171   5.360   2.299   0.045
10424SOL    HW232172   5.513   2.350   0.017
10425SOL     OW32173   1.950   6.870   2.294
10425SOL    HW132174   2.045   6.852   2.322
10425SOL    HW232175   1.908   6.786   2.261
10426SOL     OW32176   0.101   3.965   0.773
10426SOL    HW132177   0.038   3.888   0.762
10426SOL    HW232178   0.084   4.032   0.701
10427SOL     OW32179   4.646   1.781   0.297
10427SOL    HW132180   4.582   1.708   0.272
10427SOL    HW232181   4.721   1.742   0.351
10428SOL     OW32182   3.233   1.419   4.589
10428SOL    HW132183   3.155   1.424   4.527
10428SOL    HW232184   3.294   1.496   4.572
10429SOL     OW32185   6.733   5.759   1.474
10429SOL    HW132186   6.645   5.759   1.428
10429SOL    HW232187   6.720   5.751   1.572
10430SOL     OW32188   4.885   0.297   3.866
10430SOL    HW132189   4.801   0.265   3.909
10430SOL    HW232190   4.880   0.282   3.767
10431SOL     OW32191   3.290   0.427   5.521
10431SOL    HW132192   3.300   0.331   5.493
10431SOL    HW232193   3.317   0.436   5.616
10432SOL     OW32194   6.275   1.146   4.138
10432SOL    HW132195   6.275   1.241   4.108
10432SOL    HW232196   6.244   1.087   4.063
10433SOL     OW32197   2.078   6.297   1.640
10433SOL    HW132198   2.059   6.374   1.701
10433SOL    HW232199   2.107   6.218   1.694
10434SOL     OW32200   3.313   0.321   3.059
10434SOL    HW132201   3.394   0.284   3.104
10434SOL    HW232202   3.231   0.273   3.092
10435SOL     OW32203   6.282   7.019   5.284
10435SOL    HW132204   6.319   6.934   5.323
10435SOL    HW232205   6.215   6.996   5.213
10436SOL     OW32206   0.432   4.872   4.856
10436SOL    HW132207   0.528   4.847   4.854
10436SOL    HW232208   0.421   4.967   4.828
10437SOL     OW32209   6.288   5.003   5.514
10437SOL    HW132210   6.236   5.024   5.431
10437SOL    HW232211   6.348   5.080   5.535
10438SOL     OW32212   5.352   6.554   0.229
10438SOL    HW132213   5.384   6.596   0.145
10438SOL    HW232214   5.429   6.538   0.291
10439SOL     OW32215   3.134   1.291   5.740
10439SOL    HW132216   3.131   1.284   5.840
10439SOL    HW232217   3.209   1.353   5.714
10440SOL     OW32218   0.474   6.580   1.050
10440SOL    HW132219   0.528   6.564   0.967
10440SOL    HW232220   0.498   6.670   1.088
10441SOL     OW32221   5.464   1.480   6.794
10441SOL    HW132222   5.366   1.500   6.798
10441SOL    HW232223   5.490   1.422   6.871
10442SOL     OW32224   3.480   5.153   5.559
10442SOL    HW132225   3.441   5.065   5.531
10442SOL    HW232226   3.518   5.199   5.479
10443SOL     OW32227   5.617   3.643   4.460
10443SOL    HW132228   5.630   3.573   4.531
10443SOL    HW232229   5.519   3.659   4.448
10444SOL     OW32230   3.898   5.199   4.589
10444SOL    HW132231   3.967   5.263   4.554
10444SOL    HW232232   3.917   5.107   4.555
10445SOL     OW32233   0.630   4.926   4.334
10445SOL    HW132234   0.665   4.839   4.299
10445SOL    HW232235   0.603   4.984   4.256
10446SOL     OW32236   0.720   4.520   6.815
10446SOL    HW132237   0.628   4.481   6.824
10446SOL    HW232238   0.717   4.618   6.834
10447SOL     OW32239   0.236   1.323   1.905
10447SOL    HW132240   0.159   1.266   1.875
10447SOL    HW232241   0.219   1.417   1.876
10448SOL     OW32242   4.427   3.710   1.131
10448SOL    HW132243   4.525   3.694   1.115
10448SOL    HW232244   4.376   3.688   1.047
10449SOL     OW32245   2.529   5.335   4.248
10449SOL    HW132246   2.481   5.339   4.336
10449SOL    HW232247   2.462   5.337   4.173
10450SOL     OW32248   0.182   2.505   6.900
10450SOL    HW132249   0.163   2.459   6.813
10450SOL    HW232250   0.211   2.437   6.967
10451SOL     OW32251   2.525   4.525   2.520
10451SOL    HW132252   2.519   4.522   2.619
10451SOL    HW232253   2.474   4.449   2.480
10452SOL     OW32254   0.133   3.407   3.354
10452SOL    HW132255   0.138   3.426   3.452
10452SOL    HW232256   0.063   3.338   3.337
10453SOL     OW32257   5.623   6.007   1.535
10453SOL    HW132258   5.591   5.944   1.464
10453SOL    HW232259   5.566   6.089   1.536
10454SOL     OW32260   5.348   3.267   1.690
10454SOL    HW132261   5.328   3.175   1.723
10454SOL    HW232262   5.324   3.274   1.593
10455SOL     OW32263   0.403   5.206   3.634
10455SOL    HW132264   0.403   5.305   3.645
10455SOL    HW232265   0.474   5.166   3.692
10456SOL     OW32266   2.978   6.238   1.115
10456SOL    HW132267   2.909   6.300   1.150
10456SOL    HW232268   3.063   6.249   1.168
10457SOL     OW32269   3.800   3.736   3.817
10457SOL    HW132270   3.863   3.666   3.851
10457SOL    HW232271   3.848   3.824   3.811
10458SOL     OW32272   0.488   6.835   0.074
10458SOL    HW132273   0.442   6.883   0.149
10458SOL    HW232274   0.542   6.901   0.022
10459SOL     OW32275   5.787   5.265   2.316
10459SOL    HW132276   5.864   5.320   2.286
10459SOL    HW232277   5.706   5.289   2.263
10460SOL     OW32278   3.058   5.946   1.857
10460SOL    HW132279   2.979   5.891   1.830
10460SOL    HW232280   3.058   5.958   1.956
10461SOL     OW32281   1.824   6.685   6.447
10461SOL    HW132282   1.898   6.674   6.513
10461SOL    HW232283   1.855   6.743   6.372
10462SOL     OW32284   5.859   0.585   1.432
10462SOL    HW132285   5.911   0.565   1.349
10462SOL    HW232286   5.908   0.655   1.485
10463SOL     OW32287   3.067   4.394   6.347
10463SOL    HW132288   2.972   4.361   6.355
10463SOL    HW232289   3.077   4.480   6.397
10464SOL     OW32290   4.323   0.109   1.066
10464SOL    HW132291   4.327   0.139   1.161
10464SOL    HW232292   4.323   0.189   1.006
10465SOL     OW32293   0.679   6.657   5.947
10465SOL    HW132294   0.769   6.692   5.920
10465SOL    HW232295   0.608   6.720   5.916
10466SOL     OW32296   4.654   5.502   5.134
10466SOL    HW132297   4.711   5.578   5.102
10466SOL    HW232298   4.678   5.419   5.084
10467SOL     OW32299   1.792   1.593   5.397
10467SOL    HW132300   1.715   1.646   5.361
10467SOL    HW232301   1.871   1.653   5.409
10468SOL     OW32302   3.606   6.564   4.370
10468SOL    HW132303   3.632   6.495   4.301
10468SOL    HW232304   3.540   6.628   4.331
10469SOL     OW32305   2.313   3.933   0.977
10469SOL    HW132306   2.223   3.935   0.934
10469SOL    HW232307   2.314   3.864   1.049
10470SOL     OW32308   2.379   1.633   4.405
10470SOL    HW132309   2.453   1.566   4.406
10470SOL    HW232310   2.291   1.585   4.405
10471SOL     OW32311   2.226   4.181   1.762
10471SOL    HW132312   2.227   4.194   1.861
10471SOL    HW232313   2.139   4.214   1.725
10472SOL     OW32314   4.001   6.909   2.453
10472SOL    HW132315   3.913   6.890   2.497
10472SOL    HW232316   4.031   7.001   2.479
10473SOL     OW32317   5.789   6.396   0.137
10473SOL    HW132318   5.764   6.356   0.049
10473SOL    HW232319   5.801   6.495   0.125
10474SOL     OW32320   4.129   0.705   4.431
10474SOL    HW132321   4.036   0.684   4.461
10474SOL    HW232322   4.175   0.620   4.405
10475SOL     OW32323   4.124   6.641   1.316
10475SOL    HW132324   4.026   6.627   1.328
10475SOL    HW232325   4.143   6.739   1.314
10476SOL     OW32326   6.539   5.641   6.711
10476SOL    HW132327   6.611   5.696   6.754
10476SOL    HW232328   6.501   5.577   6.777
10477SOL     OW32329   5.491   3.465   4.937
10477SOL    HW132330   5.492   3.370   4.906
10477SOL    HW232331   5.535   3.471   5.026
10478SOL     OW32332   0.685   6.619   0.033
10478SOL    HW132333   0.769   6.615   0.087
10478SOL    HW232334   0.625   6.691   0.070
10479SOL     OW32335   1.471   3.478   1.989
10479SOL    HW132336   1.429   3.563   2.020
10479SOL    HW232337   1.526   3.495   1.907
10480SOL     OW32338   5.470   6.529   1.923
10480SOL    HW132339   5.385   6.503   1.969
10480SOL    HW232340   5.546   6.518   1.987
10481SOL     OW32341   2.642   1.176   5.178
10481SOL    HW132342   2.612   1.081   5.182
10481SOL    HW232343   2.711   1.192   5.250
10482SOL     OW32344   0.779   6.026   4.898
10482SOL    HW132345   0.686   6.060   4.885
10482SOL    HW232346   0.839   6.101   4.925
10483SOL     OW32347   6.403   6.172   0.114
10483SOL    HW132348   6.374   6.076   0.124
10483SOL    HW232349   6.460   6.197   0.192
10484SOL     OW32350   0.112   1.285   1.634
10484SOL    HW132351   0.106   1.212   1.566
10484SOL    HW232352   0.067   1.367   1.599
10485SOL     OW32353   3.039   3.859   3.121
10485SOL    HW132354   3.059   3.893   3.029
10485SOL    HW232355   2.940   3.857   3.135
10486SOL     OW32356   0.268   6.742   5.634
10486SOL    HW132357   0.257   6.788   5.546
10486SOL    HW232358   0.188   6.686   5.653
10487SOL     OW32359   4.479   1.715   2.097
10487SOL    HW132360   4.385   1.697   2.066
10487SOL    HW232361   4.477   1.755   2.188
10488SOL     OW32362   0.647   2.098   5.713
10488SOL    HW132363   0.597   2.081   5.628
10488SOL    HW232364   0.650   2.196   5.731
10489SOL     OW32365   6.048   4.901   3.640
10489SOL    HW132366   6.034   4.885   3.738
10489SOL    HW232367   5.974   4.957   3.604
10490SOL     OW32368   6.028   0.349   0.822
10490SOL    HW132369   5.957   0.373   0.887
10490SOL    HW232370   6.102   0.301   0.869
10491SOL     OW32371   1.629   3.733   6.500
10491SOL    HW132372   1.581   3.791   6.566
10491SOL    HW232373   1.561   3.686   6.443
10492SOL     OW32374   4.948   0.466   0.906
10492SOL    HW132375   4.882   0.400   0.870
10492SOL    HW232376   5.011   0.420   0.968
10493SOL     OW32377   4.520   5.622   1.541
10493SOL    HW132378   4.546   5.708   1.497
10493SOL    HW232379   4.426   5.598   1.515
10494SOL     OW32380   0.442   4.403   5.965
10494SOL    HW132381   0.466   4.366   5.875
10494SOL    HW232382   0.478   4.496   5.974
10495SOL     OW32383   0.992   6.259   5.803
10495SOL    HW132384   0.926   6.331   5.823
10495SOL    HW232385   0.944   6.172   5.792
10496SOL     OW32386   6.777   3.800   5.353
10496SOL    HW132387   6.791   3.727   5.285
10496SOL    HW232388   6.757   3.886   5.306
10497SOL     OW32389   2.626   0.167   1.632
10497SOL    HW132390   2.601   0.120   1.716
10497SOL    HW232391   2.558   0.237   1.611
10498SOL     OW32392   5.025   5.488   0.837
10498SOL    HW132393   5.063   5.517   0.924
10498SOL    HW232394   4.932   5.453   0.851
10499SOL     OW32395   5.564   5.405   1.956
10499SOL    HW132396   5.563   5.488   1.899
10499SOL    HW232397   5.561   5.325   1.897
10500SOL     OW32398   6.099   3.634   5.385
10500SOL    HW132399   6.142   3.577   5.315
10500SOL    HW232400   6.041   3.702   5.341
10501SOL     OW32401   2.516   5.726   2.514
10501SOL    HW132402   2.585   5.677   2.567
10501SOL    HW232403   2.557   5.808   2.473
10502SOL     OW32404   2.870   3.406   2.657
10502SOL    HW132405   2.943   3.428   2.593
10502SOL    HW232406   2.870   3.308   2.676
10503SOL     OW32407   6.618   3.081   6.178
10503SOL    HW132408   6.613   3.171   6.221
10503SOL    HW232409   6.544   3.072   6.111
10504SOL     OW32410   1.962   2.820   6.222
10504SOL    HW132411   2.024   2.761   6.170
10504SOL    HW232412   1.985   2.814   6.319
10505SOL     OW32413   6.135   6.318   1.618
10505SOL    HW132414   6.224   6.311   1.664
10505SOL    HW232415   6.070   6.364   1.679
10506SOL     OW32416   1.115   2.554   6.934
10506SOL    HW132417   1.032   2.589   6.976
10506SOL    HW232418   1.121   2.455   6.949
10507SOL     OW32419   2.267   5.031   7.016
10507SOL    HW132420   2.336   4.961   0.008
10507SOL    HW232421   2.275   5.105   0.056
10508SOL     OW32422   1.091   4.932   5.121
10508SOL    HW132423   1.127   5.005   5.062
10508SOL    HW232424   0.991   4.941   5.127
10509SOL     OW32425   5.117   3.354   3.486
10509SOL    HW132426   5.153   3.443   3.456
10509SOL    HW232427   5.107   3.354   3.585
10510SOL     OW32428   4.553   5.581   4.649
10510SOL    HW132429   4.638   5.535   4.623
10510SOL    HW232430   4.487   5.573   4.574
10511SOL     OW32431   3.304   1.773   2.028
10511SOL    HW132432   3.395   1.802   1.997
10511SOL    HW232433   3.236   1.839   1.996
10512SOL     OW32434   4.596   0.833   5.200
10512SOL    HW132435   4.499   0.850   5.219
10512SOL    HW232436   4.607   0.806   5.104
10513SOL     OW32437   5.292   3.464   1.858
10513SOL    HW132438   5.200   3.474   1.819
10513SOL    HW232439   5.343   3.397   1.805
10514SOL     OW32440   0.948   3.037   1.750
10514SOL    HW132441   0.939   3.076   1.842
10514SOL    HW232442   1.017   3.088   1.699
10515SOL     OW32443   1.895   3.185   4.617
10515SOL    HW132444   1.818   3.163   4.558
10515SOL    HW232445   1.925   3.279   4.600
10516SOL     OW32446   3.673   2.601   0.580
10516SOL    HW132447   3.590   2.612   0.525
10516SOL    HW232448   3.704   2.690   0.612
10517SOL     OW32449   0.895   3.133   3.191
10517SOL    HW132450   0.855   3.183   3.268
10517SOL    HW232451   0.898   3.193   3.111
10518SOL     OW32452   0.609   5.281   2.149
10518SOL    HW132453   0.668   5.207   2.120
10518SOL    HW232454   0.534   5.292   2.084
10519SOL     OW32455   2.320   6.487   1.233
10519SOL    HW132456   2.262   6.427   1.289
10519SOL    HW232457   2.380   6.540   1.294
10520SOL     OW32458   0.254   1.309   5.806
10520SOL    HW132459   0.350   1.307   5.833
10520SOL    HW232460   0.196   1.305   5.888
10521SOL     OW32461   6.081   3.399   1.132
10521SOL    HW132462   6.001   3.340   1.117
10521SOL    HW232463   6.050   3.488   1.166
10522SOL     OW32464   5.366   2.383   3.274
10522SOL    HW132465   5.382   2.450   3.346
10522SOL    HW232466   5.437   2.391   3.204
10523SOL     OW32467   0.108   4.289   3.764
10523SOL    HW132468   0.018   4.257   3.795
10523SOL    HW232469   0.106   4.388   3.754
10524SOL     OW32470   6.493   6.338   3.634
10524SOL    HW132471   6.532   6.247   3.625
10524SOL    HW232472   6.565   6.406   3.617
10525SOL     OW32473   4.721   1.300   5.112
10525SOL    HW132474   4.640   1.253   5.148
10525SOL    HW232475   4.733   1.387   5.161
10526SOL     OW32476   0.963   5.345   0.317
10526SOL    HW132477   0.876   5.310   0.282
10526SOL    HW232478   1.031   5.272   0.314
10527SOL     OW32479   0.859   0.857   5.086
10527SOL    HW132480   0.838   0.791   5.014
10527SOL    HW232481   0.800   0.840   5.165
10528SOL     OW32482   0.595   4.772   6.662
10528SOL    HW132483   0.566   4.865   6.639
10528SOL    HW232484   0.618   4.767   6.759
10529SOL     OW32485   1.487   6.198   6.376
10529SOL    HW132486   1.546   6.258   6.429
10529SOL    HW232487   1.542   6.146   6.311
10530SOL     OW32488   0.979   6.771   6.945
10530SOL    HW132489   1.040   6.734   6.875
10530SOL    HW232490   0.973   6.707   7.022
10531SOL     OW32491   2.956   2.845   5.409
10531SOL    HW132492   2.875   2.902   5.398
10531SOL    HW232493   2.932   2.749   5.394
10532SOL     OW32494   5.890   5.878   6.691
10532SOL    HW132495   5.938   5.963   6.711
10532SOL    HW232496   5.957   5.804   6.684
10533SOL     OW32497   3.282   5.630   3.455
10533SOL    HW132498   3.234   5.568   3.393
10533SOL    HW232499   3.216   5.681   3.509
10534SOL     OW32500   1.238   5.893   2.521
10534SOL    HW132501   1.155   5.948   2.531
10534SOL    HW232502   1.230   5.812   2.578
10535SOL     OW32503   2.842   1.818   3.243
10535SOL    HW132504   2.833   1.826   3.144
10535SOL    HW232505   2.862   1.722   3.266
10536SOL     OW32506   5.225   1.199   4.289
10536SOL    HW132507   5.262   1.109   4.311
10536SOL    HW232508   5.235   1.216   4.191
10537SOL     OW32509   4.862   6.854   2.794
10537SOL    HW132510   4.899   6.924   2.733
10537SOL    HW232511   4.786   6.891   2.846
10538SOL     OW32512   6.166   3.185   2.337
10538SOL    HW132513   6.138   3.197   2.241
10538SOL    HW232514   6.253   3.136   2.341
10539SOL     OW32515   6.315   6.821   2.763
10539SOL    HW132516   6.345   6.738   2.810
10539SOL    HW232517   6.327   6.810   2.665
10540SOL     OW32518   2.591   3.538   5.868
10540SOL    HW132519   2.660   3.544   5.796
10540SOL    HW232520   2.597   3.619   5.927
10541SOL     OW32521   2.978   3.163   5.058
10541SOL    HW132522   3.057   3.155   5.118
10541SOL    HW232523   2.931   3.075   5.053
10542SOL     OW32524   5.858   6.941   4.553
10542SOL    HW132525   5.943   6.941   4.499
10542SOL    HW232526   5.783   6.907   4.496
10543SOL     OW32527   0.101   3.117   5.587
10543SOL    HW132528   0.194   3.082   5.595
10543SOL    HW232529   0.055   3.111   5.676
10544SOL     OW32530   1.400   1.413   3.740
10544SOL    HW132531   1.416   1.456   3.650
10544SOL    HW232532   1.384   1.315   3.727
10545SOL     OW32533   2.581   2.495   2.529
10545SOL    HW132534   2.641   2.557   2.479
10545SOL    HW232535   2.549   2.423   2.467
10546SOL     OW32536   3.208   0.203   1.029
10546SOL    HW132537   3.161   0.227   1.114
10546SOL    HW232538   3.158   0.240   0.951
10547SOL     OW32539   4.342   6.660   5.072
10547SOL    HW132540   4.292   6.746   5.069
10547SOL    HW232541   4.378   6.638   4.981
10548SOL     OW32542   1.466   4.648   4.300
10548SOL    HW132543   1.449   4.593   4.382
10548SOL    HW232544   1.426   4.739   4.312
10549SOL     OW32545   0.137   1.245   0.870
10549SOL    HW132546   0.122   1.151   0.841
10549SOL    HW232547   0.082   1.306   0.813
10550SOL     OW32548   3.415   6.066   3.193
10550SOL    HW132549   3.361   6.012   3.258
10550SOL    HW232550   3.509   6.033   3.192
10551SOL     OW32551   3.434   1.977   6.037
10551SOL    HW132552   3.405   1.882   6.032
10551SOL    HW232553   3.395   2.020   6.119
10552SOL     OW32554   3.389   0.596   4.525
10552SOL    HW132555   3.482   0.622   4.498
10552SOL    HW232556   3.393   0.513   4.582
10553SOL     OW32557   0.187   4.902   0.336
10553SOL    HW132558   0.091   4.889   0.309
10553SOL    HW232559   0.191   4.917   0.435
10554SOL     OW32560   6.248   5.166   2.800
10554SOL    HW132561   6.205   5.077   2.781
10554SOL    HW232562   6.190   5.239   2.766
10555SOL     OW32563   3.479   2.360   0.455
10555SOL    HW132564   3.450   2.327   0.545
10555SOL    HW232565   3.403   2.352   0.390
10556SOL     OW32566   1.955   2.172   3.088
10556SOL    HW132567   2.055   2.170   3.080
10556SOL    HW232568   1.915   2.194   3.000
10557SOL     OW32569   1.714   3.874   3.629
10557SOL    HW132570   1.616   3.880   3.645
10557SOL    HW232571   1.750   3.964   3.606
10558SOL     OW32572   2.841   5.444   5.624
10558SOL    HW132573   2.913   5.479   5.564
10558SOL    HW232574   2.793   5.520   5.667
10559SOL     OW32575   3.954   0.072   6.325
10559SOL    HW132576   4.030   0.137   6.329
10559SOL    HW232577   3.985   7.010   6.359
10560SOL     OW32578   5.125   6.636   1.875
10560SOL    HW132579   5.176   6.569   1.930
10560SOL    HW232580   5.160   6.635   1.781
10561SOL     OW32581   6.290   3.778   0.430
10561SOL    HW132582   6.300   3.823   0.341
10561SOL    HW232583   6.228   3.701   0.421
10562SOL     OW32584   3.191   6.350   1.261
10562SOL    HW132585   3.289   6.343   1.239
10562SOL    HW232586   3.167   6.446   1.276
10563SOL     OW32587   0.474   0.377   0.529
10563SOL    HW132588   0.476   0.454   0.594
10563SOL    HW232589   0.530   0.399   0.449
10564SOL     OW32590   5.890   5.851   3.855
10564SOL    HW132591   5.882   5.942   3.897
10564SOL    HW232592   5.970   5.849   3.796
10565SOL     OW32593   6.823   7.016   5.173
10565SOL    HW132594   6.904   0.005   5.230
10565SOL    HW232595   6.743   7.002   5.232
10566SOL     OW32596   2.706   2.943   0.023
10566SOL    HW132597   2.722   2.846   0.040
10566SOL    HW232598   2.627   2.974   0.076
10567SOL     OW32599   1.138   1.991   6.251
10567SOL    HW132600   1.188   1.906   6.267
10567SOL    HW232601   1.157   2.024   6.158
10568SOL     OW32602   5.327   2.479   5.994
10568SOL    HW132603   5.311   2.438   6.083
10568SOL    HW232604   5.286   2.422   5.923
10569SOL     OW32605   5.394   7.018   1.706
10569SOL    HW132606   5.487   7.004   1.740
10569SOL    HW232607   5.360   0.079   1.739
10570SOL     OW32608   0.880   4.921   4.510
10570SOL    HW132609   0.956   4.943   4.449
10570SOL    HW232610   0.796   4.911   4.457
10571SOL     OW32611   0.082   4.297   5.591
10571SOL    HW132612   0.096   4.331   5.498
10571SOL    HW232613   0.161   4.241   5.618
10572SOL     OW32614   5.842   4.622   1.438
10572SOL    HW132615   5.812   4.533   1.473
10572SOL    HW232616   5.896   4.669   1.507
10573SOL     OW32617   5.855   0.900   3.553
10573SOL    HW132618   5.756   0.909   3.540
10573SOL    HW232619   5.883   0.953   3.632
10574SOL     OW32620   0.241   1.882   3.783
10574SOL    HW132621   0.237   1.832   3.696
10574SOL    HW232622   0.331   1.868   3.825
10575SOL     OW32623   6.147   1.189   1.750
10575SOL    HW132624   6.150   1.220   1.845
10575SOL    HW232625   6.232   1.214   1.703
10576SOL     OW32626   1.949   5.001   3.390
10576SOL    HW132627   1.901   5.088   3.400
10576SOL    HW232628   2.039   5.008   3.434
10577SOL     OW32629   3.828   6.457   0.797
10577SOL    HW132630   3.928   6.459   0.800
10577SOL    HW232631   3.797   6.362   0.796
10578SOL     OW32632   6.533   2.534   3.797
10578SOL    HW132633   6.564   2.442   3.822
10578SOL    HW232634   6.519   2.587   3.881
10579SOL     OW32635   2.112   3.397   1.095
10579SOL    HW132636   2.101   3.322   1.030
10579SOL    HW232637   2.036   3.461   1.085
10580SOL     OW32638   6.407   6.796   6.603
10580SOL    HW132639   6.449   6.717   6.649
10580SOL    HW232640   6.410   6.782   6.504
10581SOL     OW32641   5.363   0.039   2.965
10581SOL    HW132642   5.312   0.055   2.881
10581SOL    HW232643   5.313   7.001   3.023
10582SOL     OW32644   5.811   4.429   6.522
10582SOL    HW132645   5.869   4.359   6.481
10582SOL    HW232646   5.814   4.512   6.466
10583SOL     OW32647   2.524   0.493   4.235
10583SOL    HW132648   2.589   0.422   4.262
10583SOL    HW232649   2.453   0.501   4.305
10584SOL     OW32650   7.021   0.058   5.353
10584SOL    HW132651   6.975   0.147   5.355
10584SOL    HW232652   0.082   0.067   5.306
10585SOL     OW32653   0.857   0.979   6.111
10585SOL    HW132654   0.916   0.950   6.036
10585SOL    HW232655   0.912   0.995   6.193
10586SOL     OW32656   4.638   4.637   5.739
10586SOL    HW132657   4.570   4.571   5.710
10586SOL    HW232658   4.650   4.706   5.667
10587SOL     OW32659   1.001   5.601   5.274
10587SOL    HW132660   1.070   5.628   5.341
10587SOL    HW232661   0.993   5.501   5.273
10588SOL     OW32662   1.276   4.052   4.261
10588SOL    HW132663   1.187   4.061   4.217
10588SOL    HW232664   1.344   4.106   4.209
10589SOL     OW32665   5.427   6.411   3.933
10589SOL    HW132666   5.438   6.348   3.856
10589SOL    HW232667   5.510   6.466   3.942
10590SOL     OW32668   0.341   5.544   2.255
10590SOL    HW132669   0.333   5.602   2.174
10590SOL    HW232670   0.391   5.593   2.327
10591SOL     OW32671   1.307   2.064   1.216
10591SOL    HW132672   1.376   2.109   1.272
10591SOL    HW232673   1.257   1.997   1.271
10592SOL     OW32674   5.909   2.132   5.322
10592SOL    HW132675   5.870   2.119   5.413
10592SOL    HW232676   5.847   2.094   5.253
10593SOL     OW32677   3.268   6.221   1.865
10593SOL    HW132678   3.311   6.141   1.823
10593SOL    HW232679   3.170   6.221   1.845
10594SOL     OW32680   3.254   0.345   3.665
10594SOL    HW132681   3.348   0.353   3.698
10594SOL    HW232682   3.239   0.409   3.590
10595SOL     OW32683   5.848   0.372   1.072
10595SOL    HW132684   5.833   0.347   1.168
10595SOL    HW232685   5.804   0.304   1.012
10596SOL     OW32686   4.699   1.424   6.707
10596SOL    HW132687   4.621   1.368   6.678
10596SOL    HW232688   4.750   1.454   6.626
10597SOL     OW32689   2.281   0.386   5.978
10597SOL    HW132690   2.238   0.404   5.889
10597SOL    HW232691   2.248   0.452   6.045
10598SOL     OW32692   2.524   1.490   6.131
10598SOL    HW132693   2.612   1.530   6.156
10598SOL    HW232694   2.534   1.390   6.126
10599SOL     OW32695   0.067   3.639   6.184
10599SOL    HW132696   0.090   3.546   6.213
10599SOL    HW232697   0.044   3.638   6.086
10600SOL     OW32698   2.729   2.018   1.650
10600SOL    HW132699   2.733   1.927   1.609
10600SOL    HW232700   2.638   2.034   1.687
10601SOL     OW32701   0.465   6.829   5.823
10601SOL    HW132702   0.412   6.807   5.742
10601SOL    HW232703   0.403   6.848   5.900
10602SOL     OW32704   0.397   7.001   0.296
10602SOL    HW132705   0.317   7.001   0.355
10602SOL    HW232706   0.470   0.028   0.338
10603SOL     OW32707   4.494   6.729   1.791
10603SOL    HW132708   4.407   6.683   1.772
10603SOL    HW232709   4.545   6.676   1.859
10604SOL     OW32710   0.108   6.891   4.829
10604SOL    HW132711   0.012   6.866   4.844
10604SOL    HW232712   0.117   6.991   4.829
10605SOL     OW32713   2.527   1.383   1.025
10605SOL    HW132714   2.462   1.311   1.048
10605SOL    HW232715   2.620   1.345   1.022
10606SOL     OW32716   6.365   0.774   1.380
10606SOL    HW132717   6.319   0.762   1.292
10606SOL    HW232718   6.406   0.687   1.407
10607SOL     OW32719   3.808   4.653   6.096
10607SOL    HW132720   3.774   4.728   6.152
10607SOL    HW232721   3.871   4.689   6.028
10608SOL     OW32722   5.983   3.144   2.989
10608SOL    HW132723   5.895   3.102   3.009
10608SOL    HW232724   5.980   3.241   3.014
10609SOL     OW32725   4.403   0.879   6.975
10609SOL    HW132726   4.462   0.849   6.900
10609SOL    HW232727   4.374   0.800   0.002
10610SOL     OW32728   0.602   1.256   4.561
10610SOL    HW132729   0.521   1.305   4.592
10610SOL    HW232730   0.594   1.160   4.585
10611SOL     OW32731   2.614   5.586   5.378
10611SOL    HW132732   2.674   5.646   5.430
10611SOL    HW232733   2.629   5.491   5.406
10612SOL     OW32734   5.112   1.542   3.988
10612SOL    HW132735   5.066   1.454   3.998
10612SOL    HW232736   5.119   1.565   3.891
10613SOL     OW32737   6.061   6.651   4.170
10613SOL    HW132738   6.044   6.672   4.074
10613SOL    HW232739   5.980   6.675   4.224
10614SOL     OW32740   5.340   0.265   6.672
10614SOL    HW132741   5.334   0.353   6.718
10614SOL    HW232742   5.334   0.279   6.573
10615SOL     OW32743   2.540   2.423   6.699
10615SOL    HW132744   2.587   2.447   6.614
10615SOL    HW232745   2.536   2.503   6.759
10616SOL     OW32746   2.302   6.090   6.382
10616SOL    HW132747   2.354   6.170   6.412
10616SOL    HW232748   2.308   6.082   6.283
10617SOL     OW32749   2.274   3.320   1.323
10617SOL    HW132750   2.320   3.405   1.352
10617SOL    HW232751   2.181   3.341   1.295
10618SOL     OW32752   0.743   5.264   5.033
10618SOL    HW132753   0.702   5.354   5.017
10618SOL    HW232754   0.831   5.259   4.986
10619SOL     OW32755   1.164   2.084   3.098
10619SOL    HW132756   1.215   2.018   3.154
10619SOL    HW232757   1.068   2.082   3.124
10620SOL     OW32758   2.835   0.235   6.429
10620SOL    HW132759   2.840   0.249   6.528
10620SOL    HW232760   2.910   0.174   6.401
10621SOL     OW32761   1.100   3.468   3.238
10621SOL    HW132762   1.167   3.434   3.173
10621SOL    HW232763   1.146   3.496   3.322
10622SOL     OW32764   4.115   3.563   0.693
10622SOL    HW132765   4.196   3.608   0.656
10622SOL    HW232766   4.126   3.464   0.689
10623SOL     OW32767   5.527   5.872   6.914
10623SOL    HW132768   5.590   5.935   6.960
10623SOL    HW232769   5.546   5.872   6.816
10624SOL     OW32770   0.153   2.586   5.159
10624SOL    HW132771   0.216   2.613   5.232
10624SOL    HW232772   0.187   2.502   5.116
10625SOL     OW32773   6.806   4.342   6.470
10625SOL    HW132774   6.732   4.293   6.425
10625SOL    HW232775   6.872   4.276   6.507
10626SOL     OW32776   4.616   3.505   1.172
10626SOL    HW132777   4.707   3.465   1.182
10626SOL    HW232778   4.547   3.433   1.168
10627SOL     OW32779   5.715   6.295   5.645
10627SOL    HW132780   5.780   6.357   5.601
10627SOL    HW232781   5.667   6.242   5.575
10628SOL     OW32782   4.644   0.459   0.545
10628SOL    HW132783   4.653   0.380   0.607
10628SOL    HW232784   4.734   0.479   0.505
10629SOL     OW32785   3.694   5.386   4.662
10629SOL    HW132786   3.598   5.374   4.637
10629SOL    HW232787   3.746   5.306   4.635
10630SOL     OW32788   4.414   0.211   3.692
10630SOL    HW132789   4.322   0.226   3.655
10630SOL    HW232790   4.482   0.247   3.628
10631SOL     OW32791   4.452   6.039   0.145
10631SOL    HW132792   4.446   5.939   0.144
10631SOL    HW232793   4.480   6.069   0.237
10632SOL     OW32794   4.604   5.544   3.325
10632SOL    HW132795   4.687   5.599   3.329
10632SOL    HW232796   4.604   5.490   3.240
10633SOL     OW32797   1.998   3.154   2.000
10633SOL    HW132798   2.085   3.106   1.992
10633SOL    HW232799   1.923   3.091   1.980
10634SOL     OW32800   0.571   4.640   0.129
10634SOL    HW132801   0.508   4.564   0.147
10634SOL    HW232802   0.522   4.727   0.139
10635SOL     OW32803   2.542   3.879   0.352
10635SOL    HW132804   2.561   3.870   0.450
10635SOL    HW232805   2.510   3.791   0.316
10636SOL     OW32806   6.482   2.074   6.095
10636SOL    HW132807   6.407   2.076   6.161
10636SOL    HW232808   6.490   2.163   6.051
10637SOL     OW32809   3.065   6.662   6.937
10637SOL    HW132810   3.003   6.615   6.874
10637SOL    HW232811   3.013   6.699   7.013
10638SOL     OW32812   0.023   5.454   1.675
10638SOL    HW132813   0.112   5.420   1.646
10638SOL    HW232814   7.012   5.514   1.605
10639SOL     OW32815   1.858   3.670   1.671
10639SOL    HW132816   1.949   3.696   1.704
10639SOL    HW232817   1.798   3.650   1.749
10640SOL     OW32818   4.352   0.061   3.937
10640SOL    HW132819   4.381   0.111   3.855
10640SOL    HW232820   4.308   0.125   4.001
10641SOL     OW32821   0.753   0.128   3.193
10641SOL    HW132822   0.851   0.114   3.179
10641SOL    HW232823   0.708   0.150   3.106
10642SOL     OW32824   5.717   2.239   0.071
10642SOL    HW132825   5.761   2.231   0.161
10642SOL    HW232826   5.770   2.189   0.003
10643SOL     OW32827   1.866   4.689   5.082
10643SOL    HW132828   1.939   4.621   5.083
10643SOL    HW232829   1.825   4.693   4.991
10644SOL     OW32830   6.994   2.723   2.764
10644SOL    HW132831   0.045   2.708   2.702
10644SOL    HW232832   7.007   2.669   2.847
10645SOL     OW32833   2.199   2.994   2.938
10645SOL    HW132834   2.101   2.975   2.940
10645SOL    HW232835   2.227   3.038   3.023
10646SOL     OW32836   5.305   1.066   4.823
10646SOL    HW132837   5.261   0.992   4.772
10646SOL    HW232838   5.339   1.031   4.910
10647SOL     OW32839   3.790   5.044   5.034
10647SOL    HW132840   3.770   5.029   4.937
10647SOL    HW232841   3.790   5.142   5.053
10648SOL     OW32842   5.436   4.692   5.265
10648SOL    HW132843   5.431   4.741   5.178
10648SOL    HW232844   5.513   4.628   5.264
10649SOL     OW32845   0.100   3.132   3.029
10649SOL    HW132846   0.028   3.063   3.040
10649SOL    HW232847   0.073   3.196   2.958
10650SOL     OW32848   6.814   0.200   4.228
10650SOL    HW132849   6.764   0.202   4.142
10650SOL    HW232850   6.814   0.107   4.265
10651SOL     OW32851   5.024   5.990   5.514
10651SOL    HW132852   5.076   6.073   5.532
10651SOL    HW232853   5.075   5.932   5.450
10652SOL     OW32854   1.515   6.634   6.155
10652SOL    HW132855   1.467   6.636   6.243
10652SOL    HW232856   1.607   6.597   6.167
10653SOL     OW32857   3.685   6.195   4.381
10653SOL    HW132858   3.608   6.224   4.324
10653SOL    HW232859   3.653   6.176   4.473
10654SOL     OW32860   5.192   1.311   4.783
10654SOL    HW132861   5.093   1.302   4.780
10654SOL    HW232862   5.233   1.221   4.797
10655SOL     OW32863   1.216   4.452   1.662
10655SOL    HW132864   1.116   4.457   1.660
10655SOL    HW232865   1.252   4.457   1.569
10656SOL     OW32866   6.959   1.513   1.938
10656SOL    HW132867   6.952   1.593   1.878
10656SOL    HW232868   0.029   1.495   1.959
10657SOL     OW32869   6.201   0.956   3.956
10657SOL    HW132870   6.124   0.893   3.965
10657SOL    HW232871   6.287   0.904   3.956
10658SOL     OW32872   5.923   3.486   4.520
10658SOL    HW132873   5.834   3.466   4.561
10658SOL    HW232874   5.923   3.455   4.425
10659SOL     OW32875   0.695   4.631   1.234
10659SOL    HW132876   0.706   4.712   1.292
10659SOL    HW232877   0.737   4.648   1.145
10660SOL     OW32878   6.268   3.214   5.487
10660SOL    HW132879   6.271   3.131   5.543
10660SOL    HW232880   6.173   3.243   5.476
10661SOL     OW32881   1.401   4.135   0.009
10661SOL    HW132882   1.466   4.144   0.084
10661SOL    HW232883   1.450   4.120   6.950
10662SOL     OW32884   2.865   1.566   3.462
10662SOL    HW132885   2.961   1.577   3.488
10662SOL    HW232886   2.806   1.605   3.532
10663SOL     OW32887   1.455   0.961   3.647
10663SOL    HW132888   1.457   0.959   3.747
10663SOL    HW232889   1.461   0.868   3.612
10664SOL     OW32890   1.218   5.199   4.363
10664SOL    HW132891   1.128   5.235   4.337
10664SOL    HW232892   1.270   5.175   4.280
10665SOL     OW32893   2.247   3.638   6.492
10665SOL    HW132894   2.221   3.734   6.487
10665SOL    HW232895   2.265   3.603   6.400
10666SOL     OW32896   3.870   3.310   2.185
10666SOL    HW132897   3.868   3.248   2.107
10666SOL    HW232898   3.777   3.333   2.212
10667SOL     OW32899   5.562   2.261   2.763
10667SOL    HW132900   5.639   2.220   2.714
10667SOL    HW232901   5.521   2.334   2.708
10668SOL     OW32902   3.218   2.292   5.434
10668SOL    HW132903   3.226   2.352   5.354
10668SOL    HW232904   3.291   2.224   5.432
10669SOL     OW32905   5.795   1.261   0.993
10669SOL    HW132906   5.742   1.214   1.063
10669SOL    HW232907   5.847   1.193   0.940
10670SOL     OW32908   4.778   4.019   4.255
10670SOL    HW132909   4.797   3.950   4.185
10670SOL    HW232910   4.710   4.083   4.221
10671SOL     OW32911   1.397   1.768   4.068
10671SOL    HW132912   1.377   1.826   3.988
10671SOL    HW232913   1.405   1.826   4.149
10672SOL     OW32914   6.230   4.024   1.448
10672SOL    HW132915   6.142   4.062   1.417
10672SOL    HW232916   6.260   4.073   1.529
10673SOL     OW32917   1.979   0.610   0.849
10673SOL    HW132918   1.915   0.591   0.923
10673SOL    HW232919   2.021   0.524   0.819
10674SOL     OW32920   3.904   3.098   4.638
10674SOL    HW132921   3.922   3.000   4.647
10674SOL    HW232922   3.917   3.143   4.726
10675SOL     OW32923   3.563   1.400   6.320
10675SOL    HW132924   3.471   1.421   6.355
10675SOL    HW232925   3.584   1.304   6.336
10676SOL     OW32926   0.722   5.727   5.252
10676SOL    HW132927   0.676   5.783   5.321
10676SOL    HW232928   0.789   5.668   5.296
10677SOL     OW32929   1.009   1.700   0.568
10677SOL    HW132930   1.094   1.733   0.608
10677SOL    HW232931   0.985   1.612   0.610
10678SOL     OW32932   4.122   5.065   3.896
10678SOL    HW132933   4.215   5.101   3.906
10678SOL    HW232934   4.126   4.969   3.869
10679SOL     OW32935   3.788   4.985   0.384
10679SOL    HW132936   3.841   4.947   0.307
10679SOL    HW232937   3.833   5.068   0.417
10680SOL     OW32938   3.340   1.649   4.326
10680SOL    HW132939   3.392   1.568   4.353
10680SOL    HW232940   3.328   1.709   4.405
10681SOL     OW32941   6.636   3.436   6.842
10681SOL    HW132942   6.576   3.360   6.815
10681SOL    HW232943   6.724   3.400   6.872
10682SOL     OW32944   6.218   3.061   4.563
10682SOL    HW132945   6.308   3.037   4.600
10682SOL    HW232946   6.157   3.088   4.638
10683SOL     OW32947   4.514   6.849   3.445
10683SOL    HW132948   4.421   6.886   3.451
10683SOL    HW232949   4.563   6.868   3.530
10684SOL     OW32950   5.258   4.875   1.149
10684SOL    HW132951   5.175   4.821   1.160
10684SOL    HW232952   5.300   4.892   1.238
10685SOL     OW32953   6.789   5.335   1.644
10685SOL    HW132954   6.757   5.319   1.551
10685SOL    HW232955   6.868   5.397   1.642
10686SOL     OW32956   2.291   3.970   6.402
10686SOL    HW132957   2.347   4.035   6.350
10686SOL    HW232958   2.302   3.988   6.500
10687SOL     OW32959   6.421   4.624   2.866
10687SOL    HW132960   6.508   4.655   2.827
10687SOL    HW232961   6.435   4.597   2.961
10688SOL     OW32962   5.550   1.411   2.099
10688SOL    HW132963   5.533   1.393   2.195
10688SOL    HW232964   5.647   1.394   2.078
10689SOL     OW32965   0.511   0.461   2.027
10689SOL    HW132966   0.569   0.445   1.948
10689SOL    HW232967   0.455   0.543   2.012
10690SOL     OW32968   6.935   5.246   3.491
10690SOL    HW132969   6.861   5.293   3.541
10690SOL    HW232970   6.930   5.271   3.394
10691SOL     OW32971   2.852   1.849   2.123
10691SOL    HW132972   2.827   1.756   2.149
10691SOL    HW232973   2.840   1.860   2.024
10692SOL     OW32974   3.079   0.693   4.547
10692SOL    HW132975   3.164   0.717   4.594
10692SOL    HW232976   3.059   0.597   4.562
10693SOL     OW32977   0.709   6.174   1.337
10693SOL    HW132978   0.643   6.215   1.274
10693SOL    HW232979   0.801   6.205   1.315
10694SOL     OW32980   5.156   6.457   5.943
10694SOL    HW132981   5.200   6.390   5.884
10694SOL    HW232982   5.075   6.494   5.898
10695SOL     OW32983   1.386   3.125   1.243
10695SOL    HW132984   1.474   3.144   1.200
10695SOL    HW232985   1.315   3.180   1.199
10696SOL     OW32986   6.126   3.407   4.804
10696SOL    HW132987   6.090   3.483   4.751
10696SOL    HW232988   6.160   3.441   4.892
10697SOL     OW32989   0.629   6.239   5.425
10697SOL    HW132990   0.627   6.214   5.328
10697SOL    HW232991   0.687   6.174   5.475
10698SOL     OW32992   4.871   4.421   0.046
10698SOL    HW132993   4.956   4.435   7.022
10698SOL    HW232994   4.793   4.447   7.016
10699SOL     OW32995   3.997   4.846   0.798
10699SOL    HW132996   4.078   4.790   0.780
10699SOL    HW232997   4.006   4.933   0.751
10700SOL     OW32998   6.044   6.641   0.953
10700SOL    HW132999   6.009   6.729   0.985
10700SOL    HW233000   6.122   6.614   1.010
10701SOL     OW33001   3.164   0.283   6.474
10701SOL    HW133002   3.090   0.303   6.538
10701SOL    HW233003   3.137   0.310   6.382
10702SOL     OW33004   4.991   3.273   2.519
10702SOL    HW133005   4.943   3.186   2.528
10702SOL    HW233006   4.924   3.346   2.503
10703SOL     OW33007   2.257   2.987   5.547
10703SOL    HW133008   2.337   3.027   5.504
10703SOL    HW233009   2.248   3.021   5.641
10704SOL     OW33010   6.954   5.229   2.619
10704SOL    HW133011   7.000   5.220   2.530
10704SOL    HW233012   6.950   5.326   2.645
10705SOL     OW33013   5.878   5.083   0.934
10705SOL    HW133014   5.840   5.060   1.023
10705SOL    HW233015   5.935   5.008   0.902
10706SOL     OW33016   4.819   7.002   1.634
10706SOL    HW133017   4.871   6.925   1.670
10706SOL    HW233018   4.735   6.969   1.591
10707SOL     OW33019   6.940   6.656   4.283
10707SOL    HW133020   6.939   6.682   4.186
10707SOL    HW233021   6.963   6.737   4.338
10708SOL     OW33022   4.872   1.239   1.978
10708SOL    HW133023   4.923   1.154   1.983
10708SOL    HW233024   4.789   1.225   1.924
10709SOL     OW33025   5.767   5.532   4.104
10709SOL    HW133026   5.706   5.608   4.126
10709SOL    HW233027   5.737   5.450   4.153
10710SOL     OW33028   5.454   0.728   3.826
10710SOL    HW133029   5.419   0.635   3.843
10710SOL    HW233030   5.376   0.790   3.814
10711SOL     OW33031   2.409   0.045   3.551
10711SOL    HW133032   2.317   0.012   3.572
10711SOL    HW233033   2.458   7.001   3.498
10712SOL     OW33034   4.108   0.258   3.034
10712SOL    HW133035   4.072   0.253   2.940
10712SOL    HW233036   4.156   0.344   3.047
10713SOL     OW33037   1.443   2.505   0.191
10713SOL    HW133038   1.474   2.454   0.271
10713SOL    HW233039   1.479   2.463   0.108
10714SOL     OW33040   4.641   3.311   5.402
10714SOL    HW133041   4.639   3.301   5.502
10714SOL    HW233042   4.563   3.366   5.373
10715SOL     OW33043   4.194   0.078   2.522
10715SOL    HW133044   4.192   0.093   2.621
10715SOL    HW233045   4.289   0.077   2.490
10716SOL     OW33046   6.044   2.927   2.614
10716SOL    HW133047   5.961   2.917   2.670
10716SOL    HW233048   6.111   2.981   2.664
10717SOL     OW33049   1.827   2.920   0.897
10717SOL    HW133050   1.855   2.909   0.993
10717SOL    HW233051   1.817   2.830   0.855
10718SOL     OW33052   0.935   4.398   6.670
10718SOL    HW133053   0.907   4.337   6.596
10718SOL    HW233054   0.854   4.438   6.713
10719SOL     OW33055   6.374   5.756   3.078
10719SOL    HW133056   6.279   5.731   3.064
10719SOL    HW233057   6.381   5.818   3.157
10720SOL     OW33058   5.977   5.237   4.398
10720SOL    HW133059   5.945   5.147   4.429
10720SOL    HW233060   6.055   5.226   4.338
10721SOL     OW33061   5.187   4.020   5.195
10721SOL    HW133062   5.269   4.067   5.229
10721SOL    HW233063   5.198   4.001   5.097
10722SOL     OW33064   6.436   4.297   0.132
10722SOL    HW133065   6.528   4.258   0.138
10722SOL    HW233066   6.385   4.275   0.216
10723SOL     OW33067   0.153   1.722   6.537
10723SOL    HW133068   0.169   1.768   6.450
10723SOL    HW233069   0.089   1.645   6.523
10724SOL     OW33070   6.408   6.440   6.232
10724SOL    HW133071   6.397   6.354   6.183
10724SOL    HW233072   6.486   6.434   6.295
10725SOL     OW33073   2.260   6.024   5.223
10725SOL    HW133074   2.271   6.100   5.286
10725SOL    HW233075   2.258   5.938   5.274
10726SOL     OW33076   4.921   0.506   4.336
10726SOL    HW133077   4.939   0.427   4.278
10726SOL    HW233078   4.861   0.570   4.287
10727SOL     OW33079   0.337   5.319   5.988
10727SOL    HW133080   0.329   5.342   5.891
10727SOL    HW233081   0.390   5.390   6.034
10728SOL     OW33082   0.911   5.200   6.720
10728SOL    HW133083   0.867   5.274   6.771
10728SOL    HW233084   0.926   5.231   6.626
10729SOL     OW33085   6.315   1.277   2.447
10729SOL    HW133086   6.400   1.230   2.420
10729SOL    HW233087   6.316   1.294   2.545
10730SOL     OW33088   3.010   0.163   0.591
10730SOL    HW133089   3.099   0.183   0.550
10730SOL    HW233090   2.943   0.230   0.559
10731SOL     OW33091   3.492   0.729   0.649
10731SOL    HW133092   3.526   0.823   0.651
10731SOL    HW233093   3.472   0.703   0.554
10732SOL     OW33094   0.602   4.889   5.298
10732SOL    HW133095   0.639   4.809   5.346
10732SOL    HW233096   0.505   4.875   5.281
10733SOL     OW33097   6.004   1.769   6.569
10733SOL    HW133098   6.099   1.799   6.557
10733SOL    HW233099   5.977   1.781   6.665
10734SOL     OW33100   1.612   1.355   0.291
10734SOL    HW133101   1.523   1.355   0.246
10734SOL    HW233102   1.683   1.376   0.224
10735SOL     OW33103   0.916   3.066   2.336
10735SOL    HW133104   0.820   3.083   2.317
10735SOL    HW233105   0.934   2.967   2.332
10736SOL     OW33106   1.483   0.464   3.131
10736SOL    HW133107   1.583   0.470   3.136
10736SOL    HW233108   1.455   0.368   3.129
10737SOL     OW33109   1.290   2.188   0.764
10737SOL    HW133110   1.246   2.277   0.748
10737SOL    HW233111   1.238   2.137   0.833
10738SOL     OW33112   2.732   6.674   2.522
10738SOL    HW133113   2.754   6.578   2.535
10738SOL    HW233114   2.792   6.714   2.453
10739SOL     OW33115   2.172   1.460   1.044
10739SOL    HW133116   2.182   1.473   1.143
10739SOL    HW233117   2.080   1.487   1.016
10740SOL     OW33118   7.024   5.093   5.502
10740SOL    HW133119   6.950   5.161   5.497
10740SOL    HW233120   0.044   5.102   5.590
10741SOL     OW33121   4.520   1.210   1.434
10741SOL    HW133122   4.457   1.231   1.509
10741SOL    HW233123   4.606   1.260   1.447
10742SOL     OW33124   6.308   6.978   1.261
10742SOL    HW133125   6.244   0.015   1.303
10742SOL    HW233126   6.273   6.949   1.172
10743SOL     OW33127   1.284   2.700   5.818
10743SOL    HW133128   1.380   2.679   5.837
10743SOL    HW233129   1.273   2.799   5.808
10744SOL     OW33130   3.514   0.999   0.666
10744SOL    HW133131   3.487   1.075   0.607
10744SOL    HW233132   3.608   1.013   0.697
10745SOL     OW33133   6.580   5.964   5.602
10745SOL    HW133134   6.493   5.915   5.607
10745SOL    HW233135   6.651   5.912   5.650
10746SOL     OW33136   1.717   4.568   0.744
10746SOL    HW133137   1.756   4.660   0.745
10746SOL    HW233138   1.731   4.525   0.833
10747SOL     OW33139   3.578   1.373   4.881
10747SOL    HW133140   3.480   1.365   4.865
10747SOL    HW233141   3.599   1.462   4.922
10748SOL     OW33142   5.284   1.111   1.305
10748SOL    HW133143   5.226   1.190   1.329
10748SOL    HW233144   5.231   1.046   1.252
10749SOL     OW33145   0.033   5.899   4.148
10749SOL    HW133146   6.979   5.863   4.101
10749SOL    HW233147   0.066   5.981   4.102
10750SOL     OW33148   3.994   6.321   4.900
10750SOL    HW133149   4.018   6.388   4.830
10750SOL    HW233150   3.993   6.230   4.859
10751SOL     OW33151   1.495   4.872   3.781
10751SOL    HW133152   1.442   4.789   3.799
10751SOL    HW233153   1.433   4.946   3.756
10752SOL     OW33154   5.918   4.693   4.823
10752SOL    HW133155   5.832   4.745   4.816
10752SOL    HW233156   5.898   4.595   4.812
10753SOL     OW33157   6.359   5.024   4.405
10753SOL    HW133158   6.457   5.024   4.388
10753SOL    HW233159   6.340   5.068   4.493
10754SOL     OW33160   0.836   6.898   3.273
10754SOL    HW133161   0.804   6.993   3.281
10754SOL    HW233162   0.785   6.841   3.337
10755SOL     OW33163   6.551   0.146   0.788
10755SOL    HW133164   6.515   0.227   0.834
10755SOL    HW233165   6.504   0.065   0.822
10756SOL     OW33166   6.831   5.460   6.005
10756SOL    HW133167   6.912   5.501   6.046
10756SOL    HW233168   6.849   5.439   5.909
10757SOL     OW33169   1.712   2.578   0.044
10757SOL    HW133170   1.806   2.545   0.034
10757SOL    HW233171   1.649   2.503   0.029
10758SOL     OW33172   0.763   6.117   4.401
10758SOL    HW133173   0.841   6.179   4.390
10758SOL    HW233174   0.685   6.167   4.437
10759SOL     OW33175   2.087   4.038   0.813
10759SOL    HW133176   2.044   3.968   0.756
10759SOL    HW233177   2.060   4.129   0.782
10760SOL     OW33178   5.843   0.585   3.216
10760SOL    HW133179   5.897   0.669   3.208
10760SOL    HW233180   5.798   0.566   3.129
10761SOL     OW33181   0.148   5.605   5.885
10761SOL    HW133182   0.100   5.583   5.970
10761SOL    HW233183   0.149   5.524   5.825
10762SOL     OW33184   2.894   1.209   4.631
10762SOL    HW133185   2.969   1.146   4.651
10762SOL    HW233186   2.850   1.182   4.545
10763SOL     OW33187   3.738   6.813   2.509
10763SOL    HW133188   3.737   6.727   2.558
10763SOL    HW233189   3.708   6.887   2.569
10764SOL     OW33190   5.116   1.919   5.513
10764SOL    HW133191   5.088   1.825   5.492
10764SOL    HW233192   5.046   1.963   5.568
10765SOL     OW33193   4.741   2.927   0.566
10765SOL    HW133194   4.677   2.879   0.506
10765SOL    HW233195   4.832   2.886   0.558
10766SOL     OW33196   4.398   4.869   0.536
10766SOL    HW133197   4.353   4.957   0.521
10766SOL    HW233198   4.487   4.884   0.578
10767SOL     OW33199   2.518   0.504   1.255
10767SOL    HW133200   2.608   0.547   1.261
10767SOL    HW233201   2.447   0.574   1.250
10768SOL     OW33202   5.038   5.294   1.161
10768SOL    HW133203   5.095   5.248   1.093
10768SOL    HW233204   5.058   5.392   1.161
10769SOL     OW33205   2.059   4.351   5.678
10769SOL    HW133206   2.083   4.300   5.596
10769SOL    HW233207   2.141   4.370   5.731
10770SOL     OW33208   4.948   6.338   3.877
10770SOL    HW133209   4.926   6.292   3.791
10770SOL    HW233210   5.041   6.314   3.905
10771SOL     OW33211   3.977   0.117   4.126
10771SOL    HW133212   4.021   0.204   4.147
10771SOL    HW233213   4.045   0.044   4.123
10772SOL     OW33214   5.946   6.517   4.866
10772SOL    HW133215   5.906   6.475   4.948
10772SOL    HW233216   5.995   6.448   4.813
10773SOL     OW33217   5.677   4.783   6.782
10773SOL    HW133218   5.696   4.801   6.879
10773SOL    HW233219   5.605   4.714   6.775
10774SOL     OW33220   1.863   1.000   5.721
10774SOL    HW133221   1.804   0.920   5.714
10774SOL    HW233222   1.934   0.983   5.789
10775SOL     OW33223   0.584   4.768   2.657
10775SOL    HW133224   0.648   4.713   2.710
10775SOL    HW233225   0.629   4.851   2.626
10776SOL     OW33226   0.538   1.286   6.860
10776SOL    HW133227   0.582   1.363   6.907
10776SOL    HW233228   0.544   1.300   6.761
10777SOL     OW33229   4.012   5.608   1.340
10777SOL    HW133230   3.915   5.604   1.360
10777SOL    HW233231   4.026   5.615   1.241
10778SOL     OW33232   5.168   6.916   3.689
10778SOL    HW133233   5.099   6.966   3.637
10778SOL    HW233234   5.124   6.840   3.738
10779SOL     OW33235   5.395   2.675   3.053
10779SOL    HW133236   5.368   2.762   3.011
10779SOL    HW233237   5.382   2.601   2.988
10780SOL     OW33238   1.425   0.580   3.890
10780SOL    HW133239   1.477   0.526   3.956
10780SOL    HW233240   1.488   0.632   3.833
10781SOL     OW33241   4.167   0.534   3.828
10781SOL    HW133242   4.120   0.464   3.882
10781SOL    HW233243   4.126   0.623   3.845
10782SOL     OW33244   0.105   0.962   2.868
10782SOL    HW133245   0.084   1.032   2.800
10782SOL    HW233246   0.065   0.988   2.956
10783SOL     OW33247   0.513   2.601   2.757
10783SOL    HW133248   0.513   2.662   2.835
10783SOL    HW233249   0.607   2.579   2.731
10784SOL     OW33250   3.818   0.965   4.044
10784SOL    HW133251   3.756   1.039   4.068
10784SOL    HW233252   3.895   0.963   4.108
10785SOL     OW33253   1.034   4.077   0.843
10785SOL    HW133254   0.988   4.166   0.835
10785SOL    HW233255   0.969   4.010   0.878
10786SOL     OW33256   6.187   5.167   3.155
10786SOL    HW133257   6.220   5.108   3.229
10786SOL    HW233258   6.233   5.144   3.070
10787SOL     OW33259   1.336   1.096   5.948
10787SOL    HW133260   1.339   1.087   6.048
10787SOL    HW233261   1.427   1.116   5.914
10788SOL     OW33262   0.815   4.162   0.232
10788SOL    HW133263   0.838   4.073   0.191
10788SOL    HW233264   0.854   4.166   0.324
10789SOL     OW33265   6.453   3.636   6.561
10789SOL    HW133266   6.392   3.560   6.581
10789SOL    HW233267   6.545   3.600   6.544
10790SOL     OW33268   0.818   6.770   1.910
10790SOL    HW133269   0.824   6.863   1.874
10790SOL    HW233270   0.740   6.765   1.973
10791SOL     OW33271   0.309   5.579   1.946
10791SOL    HW133272   0.345   5.652   1.888
10791SOL    HW233273   0.209   5.577   1.940
10792SOL     OW33274   3.326   2.894   4.636
10792SOL    HW133275   3.234   2.860   4.616
10792SOL    HW233276   3.354   2.863   4.727
10793SOL     OW33277   6.312   4.216   5.901
10793SOL    HW133278   6.310   4.174   5.991
10793SOL    HW233279   6.402   4.199   5.859
10794SOL     OW33280   4.122   3.614   4.044
10794SOL    HW133281   4.203   3.621   3.987
10794SOL    HW233282   4.081   3.705   4.055
10795SOL     OW33283   0.147   5.149   2.891
10795SOL    HW133284   0.171   5.102   2.806
10795SOL    HW233285   0.139   5.248   2.873
10796SOL     OW33286   6.503   0.102   5.122
10796SOL    HW133287   6.424   0.059   5.167
10796SOL    HW233288   6.472   0.173   5.060
10797SOL     OW33289   3.368   2.795   1.360
10797SOL    HW133290   3.390   2.862   1.289
10797SOL    HW233291   3.292   2.830   1.415
10798SOL     OW33292   2.591   1.409   0.161
10798SOL    HW133293   2.626   1.456   0.242
10798SOL    HW233294   2.668   1.387   0.100
10799SOL     OW33295   4.224   0.695   2.459
10799SOL    HW133296   4.238   0.772   2.397
10799SOL    HW233297   4.307   0.639   2.463
10800SOL     OW33298   0.976   5.863   5.845
10800SOL    HW133299   0.963   5.895   5.750
10800SOL    HW233300   1.071   5.874   5.871
10801SOL     OW33301   1.205   6.977   6.839
10801SOL    HW133302   1.175   0.039   6.804
10801SOL    HW233303   1.185   6.970   6.936
10802SOL     OW33304   0.327   0.234   3.170
10802SOL    HW133305   0.261   0.237   3.244
10802SOL    HW233306   0.283   0.261   3.084
10803SOL     OW33307   1.518   5.464   5.608
10803SOL    HW133308   1.541   5.395   5.540
10803SOL    HW233309   1.572   5.547   5.592
10804SOL     OW33310   6.425   2.955   3.105
10804SOL    HW133311   6.458   2.943   3.012
10804SOL    HW233312   6.440   2.871   3.158
10805SOL     OW33313   5.392   0.640   4.979
10805SOL    HW133314   5.304   0.685   4.965
10805SOL    HW233315   5.382   0.541   4.964
10806SOL     OW33316   3.819   4.758   6.672
10806SOL    HW133317   3.912   4.731   6.651
10806SOL    HW233318   3.789   4.827   6.606
10807SOL     OW33319   1.167   5.943   3.726
10807SOL    HW133320   1.125   6.002   3.795
10807SOL    HW233321   1.099   5.916   3.659
10808SOL     OW33322   0.012   2.191   5.829
10808SOL    HW133323   0.079   2.119   5.843
10808SOL    HW233324   0.025   2.263   5.896
10809SOL     OW33325   2.411   4.408   3.827
10809SOL    HW133326   2.477   4.358   3.884
10809SOL    HW233327   2.422   4.379   3.731
10810SOL     OW33328   6.915   6.994   3.595
10810SOL    HW133329   6.873   6.949   3.516
10810SOL    HW233330   6.972   0.043   3.563
10811SOL     OW33331   4.202   5.085   5.325
10811SOL    HW133332   4.175   5.129   5.411
10811SOL    HW233333   4.143   5.117   5.251
10812SOL     OW33334   6.714   4.106   6.242
10812SOL    HW133335   6.779   4.030   6.246
10812SOL    HW233336   6.737   4.166   6.165
10813SOL     OW33337   0.942   3.983   6.127
10813SOL    HW133338   0.953   4.078   6.156
10813SOL    HW233339   0.933   3.925   6.208
10814SOL     OW33340   2.127   6.860   6.897
10814SOL    HW133341   2.210   6.915   6.888
10814SOL    HW233342   2.051   6.919   6.925
10815SOL     OW33343   5.139   2.383   2.902
10815SOL    HW133344   5.070   2.452   2.924
10815SOL    HW233345   5.104   2.322   2.830
10816SOL     OW33346   3.643   3.665   2.550
10816SOL    HW133347   3.681   3.635   2.638
10816SOL    HW233348   3.552   3.704   2.565
10817SOL     OW33349   3.143   0.967   3.460
10817SOL    HW133350   3.215   0.987   3.393
10817SOL    HW233351   3.152   0.872   3.490
10818SOL     OW33352   4.578   4.954   5.804
10818SOL    HW133353   4.577   4.855   5.792
10818SOL    HW233354   4.673   4.985   5.814
10819SOL     OW33355   5.950   5.286   6.396
10819SOL    HW133356   6.010   5.366   6.397
10819SOL    HW233357   5.933   5.258   6.301
10820SOL     OW33358   0.129   5.482   4.748
10820SOL    HW133359   0.128   5.566   4.693
10820SOL    HW233360   0.176   5.409   4.697
10821SOL     OW33361   4.232   6.617   2.867
10821SOL    HW133362   4.200   6.554   2.797
10821SOL    HW233363   4.283   6.691   2.824
10822SOL     OW33364   6.418   2.187   1.211
10822SOL    HW133365   6.320   2.184   1.234
10822SOL    HW233366   6.432   2.143   1.122
10823SOL     OW33367   0.327   0.513   3.563
10823SOL    HW133368   0.267   0.590   3.586
10823SOL    HW233369   0.274   0.439   3.523
10824SOL     OW33370   1.139   1.488   2.366
10824SOL    HW133371   1.137   1.558   2.438
10824SOL    HW233372   1.177   1.528   2.283
10825SOL     OW33373   1.548   2.316   0.379
10825SOL    HW133374   1.510   2.281   0.465
10825SOL    HW233375   1.643   2.343   0.394
10826SOL     OW33376   0.642   2.048   2.262
10826SOL    HW133377   0.584   2.096   2.196
10826SOL    HW233378   0.597   2.047   2.351
10827SOL     OW33379   6.389   2.818   5.092
10827SOL    HW133380   6.293   2.845   5.080
10827SOL    HW233381   6.435   2.821   5.003
10828SOL     OW33382   0.384   4.090   0.507
10828SOL    HW133383   0.301   4.098   0.452
10828SOL    HW233384   0.413   4.180   0.537
10829SOL     OW33385   4.573   3.864   0.091
10829SOL    HW133386   4.570   3.854   7.019
10829SOL    HW233387   4.535   3.953   0.117
10830SOL     OW33388   4.599   1.757   3.766
10830SOL    HW133389   4.684   1.752   3.817
10830SOL    HW233390   4.616   1.798   3.676
10831SOL     OW33391   3.106   6.716   2.109
10831SOL    HW133392   3.016   6.678   2.089
10831SOL    HW233393   3.097   6.805   2.152
10832SOL     OW33394   6.142   3.660   6.637
10832SOL    HW133395   6.147   3.611   6.550
10832SOL    HW233396   6.196   3.743   6.632
10833SOL     OW33397   0.374   2.427   0.542
10833SOL    HW133398   0.457   2.472   0.508
10833SOL    HW233399   0.298   2.492   0.537
10834SOL     OW33400   0.209   1.276   6.871
10834SOL    HW133401   0.236   1.182   6.853
10834SOL    HW233402   0.289   1.329   6.900
10835SOL     OW33403   5.315   3.135   0.040
10835SOL    HW133404   5.259   3.187   7.002
10835SOL    HW233405   5.269   3.049   0.063
10836SOL     OW33406   0.977   1.516   2.949
10836SOL    HW133407   0.990   1.480   2.856
10836SOL    HW233408   0.885   1.552   2.958
10837SOL     OW33409   6.448   4.695   2.092
10837SOL    HW133410   6.485   4.604   2.111
10837SOL    HW233411   6.518   4.750   2.047
10838SOL     OW33412   5.687   6.350   4.134
10838SOL    HW133413   5.783   6.364   4.159
10838SOL    HW233414   5.655   6.263   4.171
10839SOL     OW33415   4.853   3.292   0.887
10839SOL    HW133416   4.788   3.216   0.890
10839SOL    HW233417   4.808   3.373   0.851
10840SOL     OW33418   3.726   0.501   2.912
10840SOL    HW133419   3.661   0.508   2.836
10840SOL    HW233420   3.792   0.576   2.905
10841SOL     OW33421   6.216   4.631   4.875
10841SOL    HW133422   6.260   4.706   4.924
10841SOL    HW233423   6.117   4.645   4.875
10842SOL     OW33424   4.592   2.311   1.405
10842SOL    HW133425   4.659   2.384   1.393
10842SOL    HW233426   4.500   2.349   1.402
10843SOL     OW33427   1.913   1.472   0.977
10843SOL    HW133428   1.851   1.395   0.965
10843SOL    HW233429   1.865   1.558   0.958
10844SOL     OW33430   0.068   4.819   3.919
10844SOL    HW133431   7.003   4.851   3.944
10844SOL    HW233432   0.080   4.725   3.951
10845SOL     OW33433   4.243   5.954   4.964
10845SOL    HW133434   4.322   5.900   4.936
10845SOL    HW233435   4.162   5.895   4.967
10846SOL     OW33436   5.646   6.852   6.971
10846SOL    HW133437   5.660   6.931   0.005
10846SOL    HW233438   5.693   6.868   6.884
10847SOL     OW33439   3.353   2.079   0.268
10847SOL    HW133440   3.291   2.157   0.262
10847SOL    HW233441   3.357   2.047   0.362
10848SOL     OW33442   0.685   3.883   0.798
10848SOL    HW133443   0.723   3.898   0.890
10848SOL    HW233444   0.612   3.815   0.803
10849SOL     OW33445   2.527   4.654   3.987
10849SOL    HW133446   2.473   4.590   3.932
10849SOL    HW233447   2.505   4.641   4.083
10850SOL     OW33448   4.196   6.372   0.068
10850SOL    HW133449   4.247   6.445   0.115
10850SOL    HW233450   4.104   6.405   0.046
10851SOL     OW33451   2.818   4.023   1.309
10851SOL    HW133452   2.876   4.093   1.352
10851SOL    HW233453   2.761   4.067   1.239
10852SOL     OW33454   2.058   1.464   0.004
10852SOL    HW133455   2.115   1.383   7.015
10852SOL    HW233456   2.116   1.546   0.007
10853SOL     OW33457   2.641   3.376   6.078
10853SOL    HW133458   2.619   3.424   5.992
10853SOL    HW233459   2.715   3.311   6.062
10854SOL     OW33460   4.464   5.232   5.408
10854SOL    HW133461   4.512   5.290   5.474
10854SOL    HW233462   4.375   5.272   5.387
10855SOL     OW33463   3.771   0.519   0.653
10855SOL    HW133464   3.739   0.604   0.695
10855SOL    HW233465   3.869   0.524   0.637
10856SOL     OW33466   0.040   1.296   6.635
10856SOL    HW133467   7.016   1.210   6.632
10856SOL    HW233468   0.087   1.304   6.723
10857SOL     OW33469   0.334   1.947   2.814
10857SOL    HW133470   0.395   1.913   2.742
10857SOL    HW233471   0.299   1.869   2.867
10858SOL     OW33472   1.616   0.187   0.906
10858SOL    HW133473   1.703   0.142   0.886
10858SOL    HW233474   1.541   0.133   0.869
10859SOL     OW33475   6.802   4.314   4.707
10859SOL    HW133476   6.747   4.291   4.787
10859SOL    HW233477   6.888   4.263   4.711
10860SOL     OW33478   0.019   3.470   4.155
10860SOL    HW133479   0.065   3.425   4.232
10860SOL    HW233480   0.084   3.530   4.108
10861SOL     OW33481   3.041   3.150   2.974
10861SOL    HW133482   3.055   3.153   2.875
10861SOL    HW233483   3.085   3.229   3.017
10862SOL     OW33484   2.246   1.034   5.515
10862SOL    HW133485   2.243   1.090   5.432
10862SOL    HW233486   2.221   1.090   5.594
10863SOL     OW33487   2.265   0.486   4.833
10863SOL    HW133488   2.235   0.580   4.814
10863SOL    HW233489   2.196   0.440   4.888
10864SOL     OW33490   2.788   6.661   1.065
10864SOL    HW133491   2.743   6.750   1.073
10864SOL    HW233492   2.870   6.671   1.009
10865SOL     OW33493   6.779   1.570   0.307
10865SOL    HW133494   6.836   1.650   0.289
10865SOL    HW233495   6.777   1.552   0.406
10866SOL     OW33496   5.633   4.966   7.007
10866SOL    HW133497   5.627   5.047   0.039
10866SOL    HW233498   5.541   4.933   6.986
10867SOL     OW33499   3.167   4.257   0.327
10867SOL    HW133500   3.093   4.258   0.395
10867SOL    HW233501   3.134   4.297   0.242
10868SOL     OW33502   5.182   1.603   3.741
10868SOL    HW133503   5.231   1.550   3.671
10868SOL    HW233504   5.215   1.697   3.741
10869NA      NA33505   6.566   2.636   5.451
10870NA      NA33506   4.424   4.624   5.183
10871NA      NA33507   1.848   3.127   1.617
10872NA      NA33508   5.001   3.875   5.252
10873NA      NA33509   4.019   2.219   5.022
10874NA      NA33510   3.734   4.818   1.763
10875NA      NA33511   6.757   5.309   6.176
10876NA      NA33512   3.347   3.359   4.658
10877NA      NA33513   4.637   6.141   0.009
10878NA      NA33514   3.926   6.448   5.342
10879NA      NA33515   6.474   5.237   2.819
10880NA      NA33516   2.487   0.486   3.598
10881NA      NA33517   4.099   5.385   1.785
10882NA      NA33518   3.967   3.520   2.234
   7.02655   7.02655   7.02655
