Generated by trjconv : CNT in water t= 584.00000
33518
    1C        C    1   2.839   2.764   4.744
    1C        C    2   2.895   2.716   4.865
    1C        C    3   2.843   2.774   4.981
    1C        C    4   2.849   2.765   4.257
    1C        C    5   2.899   2.720   4.381
    1C        C    6   2.848   2.772   4.502
    1C        C    7   3.009   2.633   4.623
    1C        C    8   2.895   2.717   4.624
    1C        C    9   3.075   2.602   4.744
    1C        C   10   3.007   2.631   4.865
    1C        C   11   3.177   2.493   4.975
    1C        C   12   3.052   2.557   4.975
    1C        C   13   2.849   2.764   3.772
    1C        C   14   2.897   2.714   3.895
    1C        C   15   2.842   2.761   4.016
    1C        C   16   3.014   2.630   4.137
    1C        C   17   2.898   2.712   4.135
    1C        C   18   3.079   2.611   4.261
    1C        C   19   3.018   2.644   4.383
    1C        C   20   3.206   2.546   4.505
    1C        C   21   3.074   2.596   4.504
    1C        C   22   3.277   2.530   4.626
    1C        C   23   3.205   2.545   4.746
    1C        C   24   3.410   2.482   4.865
    1C        C   25   3.268   2.499   4.865
    1C        C   26   3.487   2.476   4.982
    1C        C   27   2.848   2.761   3.278
    1C        C   28   2.903   2.723   3.402
    1C        C   29   2.854   2.771   3.526
    1C        C   30   3.016   2.635   3.648
    1C        C   31   2.905   2.722   3.649
    1C        C   32   3.075   2.597   3.770
    1C        C   33   3.011   2.630   3.892
    1C        C   34   3.204   2.543   4.013
    1C        C   35   3.071   2.591   4.014
    1C        C   36   3.271   2.527   4.137
    1C        C   37   3.206   2.549   4.260
    1C        C   38   3.412   2.500   4.378
    1C        C   39   3.274   2.526   4.382
    1C        C   40   3.481   2.493   4.501
    1C        C   41   3.415   2.497   4.625
    1C        C   42   3.629   2.482   4.744
    1C        C   43   3.487   2.478   4.745
    1C        C   44   3.702   2.486   4.865
    1C        C   45   3.626   2.476   4.982
    1C        C   46   2.838   2.747   2.790
    1C        C   47   2.892   2.707   2.914
    1C        C   48   2.844   2.759   3.037
    1C        C   49   3.014   2.627   3.159
    1C        C   50   2.899   2.710   3.157
    1C        C   51   3.075   2.595   3.283
    1C        C   52   3.016   2.638   3.403
    1C        C   53   3.204   2.539   3.524
    1C        C   54   3.077   2.601   3.525
    1C        C   55   3.274   2.517   3.645
    1C        C   56   3.205   2.543   3.766
    1C        C   57   3.410   2.504   3.891
    1C        C   58   3.270   2.525   3.890
    1C        C   59   3.481   2.500   4.014
    1C        C   60   3.410   2.502   4.136
    1C        C   61   3.625   2.503   4.256
    1C        C   62   3.484   2.498   4.256
    1C        C   63   3.696   2.510   4.378
    1C        C   64   3.623   2.500   4.498
    1C        C   65   3.828   2.544   4.620
    1C        C   66   3.694   2.500   4.620
    1C        C   67   3.900   2.561   4.740
    1C        C   68   3.838   2.524   4.861
    1C        C   69   4.048   2.585   4.973
    1C        C   70   3.920   2.528   4.974
    1C        C   71   2.825   2.730   2.304
    1C        C   72   2.882   2.691   2.427
    1C        C   73   2.832   2.742   2.549
    1C        C   74   3.008   2.620   2.670
    1C        C   75   2.888   2.694   2.669
    1C        C   76   3.069   2.588   2.793
    1C        C   77   3.006   2.623   2.914
    1C        C   78   3.199   2.530   3.034
    1C        C   79   3.071   2.590   3.035
    1C        C   80   3.268   2.514   3.157
    1C        C   81   3.205   2.540   3.280
    1C        C   82   3.412   2.494   3.399
    1C        C   83   3.273   2.518   3.402
    1C        C   84   3.480   2.488   3.522
    1C        C   85   3.414   2.499   3.647
    1C        C   86   3.624   2.500   3.767
    1C        C   87   3.482   2.498   3.770
    1C        C   88   3.694   2.511   3.889
    1C        C   89   3.622   2.507   4.011
    1C        C   90   3.831   2.546   4.132
    1C        C   91   3.693   2.513   4.132
    1C        C   92   3.898   2.571   4.254
    1C        C   93   3.833   2.544   4.376
    1C        C   94   4.023   2.635   4.496
    1C        C   95   3.897   2.571   4.499
    1C        C   96   4.087   2.670   4.617
    1C        C   97   4.028   2.623   4.737
    1C        C   98   4.185   2.766   4.856
    1C        C   99   4.099   2.651   4.857
    1C        C  100   4.212   2.840   4.972
    1C        C  101   2.823   2.730   2.067
    1C        C  102   2.991   2.588   2.186
    1C        C  103   2.879   2.677   2.184
    1C        C  104   3.058   2.564   2.308
    1C        C  105   3.000   2.613   2.427
    1C        C  106   3.196   2.524   2.547
    1C        C  107   3.066   2.580   2.547
    1C        C  108   3.263   2.508   2.670
    1C        C  109   3.199   2.532   2.794
    1C        C  110   3.409   2.490   2.911
    1C        C  111   3.269   2.508   2.914
    1C        C  112   3.480   2.490   3.033
    1C        C  113   3.408   2.496   3.154
    1C        C  114   3.622   2.501   3.277
    1C        C  115   3.481   2.493   3.275
    1C        C  116   3.692   2.507   3.400
    1C        C  117   3.621   2.495   3.522
    1C        C  118   3.829   2.545   3.642
    1C        C  119   3.692   2.509   3.644
    1C        C  120   3.892   2.576   3.765
    1C        C  121   3.827   2.557   3.889
    1C        C  122   4.020   2.642   4.010
    1C        C  123   3.897   2.573   4.011
    1C        C  124   4.081   2.678   4.133
    1C        C  125   4.026   2.632   4.254
    1C        C  126   4.194   2.764   4.372
    1C        C  127   4.086   2.673   4.376
    1C        C  128   4.243   2.816   4.494
    1C        C  129   4.192   2.764   4.615
    1C        C  130   4.321   2.936   4.736
    1C        C  131   4.238   2.821   4.736
    1C        C  132   4.352   3.002   4.857
    1C        C  133   4.286   2.958   4.973
    1C        C  134   3.169   2.457   2.082
    1C        C  135   3.037   2.504   2.079
    1C        C  136   3.258   2.480   2.188
    1C        C  137   3.193   2.517   2.307
    1C        C  138   3.404   2.476   2.425
    1C        C  139   3.264   2.495   2.427
    1C        C  140   3.476   2.475   2.547
    1C        C  141   3.403   2.485   2.668
    1C        C  142   3.618   2.490   2.785
    1C        C  143   3.477   2.481   2.787
    1C        C  144   3.688   2.506   2.907
    1C        C  145   3.621   2.501   3.031
    1C        C  146   3.827   2.545   3.149
    1C        C  147   3.691   2.508   3.154
    1C        C  148   3.893   2.565   3.272
    1C        C  149   3.829   2.542   3.396
    1C        C  150   4.018   2.635   3.518
    1C        C  151   3.893   2.569   3.519
    1C        C  152   4.077   2.673   3.640
    1C        C  153   4.020   2.636   3.764
    1C        C  154   4.192   2.760   3.885
    1C        C  155   4.081   2.673   3.886
    1C        C  156   4.244   2.811   4.006
    1C        C  157   4.194   2.762   4.129
    1C        C  158   4.339   2.919   4.252
    1C        C  159   4.249   2.810   4.250
    1C        C  160   4.375   2.983   4.372
    1C        C  161   4.329   2.928   4.494
    1C        C  162   4.435   3.115   4.613
    1C        C  163   4.366   2.992   4.615
    1C        C  164   4.470   3.180   4.734
    1C        C  165   4.434   3.117   4.855
    1C        C  166   4.515   3.317   4.970
    1C        C  167   4.477   3.183   4.971
    1C        C  168   3.471   2.431   2.068
    1C        C  169   3.397   2.459   2.184
    1C        C  170   3.615   2.467   2.302
    1C        C  171   3.473   2.466   2.302
    1C        C  172   3.690   2.484   2.421
    1C        C  173   3.617   2.481   2.542
    1C        C  174   3.825   2.534   2.662
    1C        C  175   3.688   2.499   2.663
    1C        C  176   3.893   2.564   2.782
    1C        C  177   3.824   2.544   2.903
    1C        C  178   4.020   2.624   3.028
    1C        C  179   3.893   2.563   3.025
    1C        C  180   4.080   2.663   3.150
    1C        C  181   4.019   2.630   3.273
    1C        C  182   4.193   2.751   3.393
    1C        C  183   4.079   2.667   3.395
    1C        C  184   4.242   2.801   3.515
    1C        C  185   4.192   2.756   3.639
    1C        C  186   4.335   2.913   3.762
    1C        C  187   4.243   2.806   3.761
    1C        C  188   4.375   2.974   3.883
    1C        C  189   4.332   2.922   4.007
    1C        C  190   4.446   3.101   4.126
    1C        C  191   4.379   2.976   4.129
    1C        C  192   4.473   3.169   4.247
    1C        C  193   4.441   3.108   4.370
    1C        C  194   4.509   3.311   4.491
    1C        C  195   4.467   3.177   4.490
    1C        C  196   4.524   3.384   4.611
    1C        C  197   4.511   3.316   4.734
    1C        C  198   4.552   3.533   4.848
    1C        C  199   4.530   3.392   4.853
    1C        C  200   4.579   3.616   4.962
    1C        C  201   3.610   2.416   2.068
    1C        C  202   3.821   2.512   2.176
    1C        C  203   3.687   2.462   2.180
    1C        C  204   3.893   2.539   2.296
    1C        C  205   3.827   2.518   2.419
    1C        C  206   4.019   2.614   2.538
    1C        C  207   3.893   2.550   2.539
    1C        C  208   4.079   2.655   2.659
    1C        C  209   4.020   2.626   2.784
    1C        C  210   4.195   2.747   2.902
    1C        C  211   4.081   2.663   2.906
    1C        C  212   4.249   2.793   3.024
    1C        C  213   4.196   2.744   3.146
    1C        C  214   4.331   2.906   3.268
    1C        C  215   4.245   2.794   3.269
    1C        C  216   4.371   2.963   3.391
    1C        C  217   4.332   2.910   3.516
    1C        C  218   4.428   3.100   3.635
    1C        C  219   4.369   2.971   3.638
    1C        C  220   4.458   3.164   3.757
    1C        C  221   4.438   3.101   3.881
    1C        C  222   4.506   3.303   4.000
    1C        C  223   4.467   3.167   4.002
    1C        C  224   4.516   3.374   4.122
    1C        C  225   4.505   3.306   4.246
    1C        C  226   4.521   3.520   4.365
    1C        C  227   4.518   3.378   4.367
    1C        C  228   4.513   3.595   4.484
    1C        C  229   4.527   3.525   4.606
    1C        C  230   4.502   3.741   4.726
    1C        C  231   4.532   3.602   4.725
    1C        C  232   4.493   3.817   4.845
    1C        C  233   4.541   3.750   4.959
    1C        C  234   4.014   2.608   2.060
    1C        C  235   3.892   2.541   2.059
    1C        C  236   4.084   2.645   2.175
    1C        C  237   4.019   2.605   2.294
    1C        C  238   4.195   2.730   2.417
    1C        C  239   4.079   2.648   2.415
    1C        C  240   4.250   2.780   2.537
    1C        C  241   4.193   2.738   2.659
    1C        C  242   4.335   2.902   2.779
    1C        C  243   4.245   2.792   2.779
    1C        C  244   4.379   2.959   2.901
    1C        C  245   4.337   2.904   3.024
    1C        C  246   4.442   3.088   3.148
    1C        C  247   4.375   2.963   3.146
    1C        C  248   4.461   3.156   3.270
    1C        C  249   4.428   3.092   3.392
    1C        C  250   4.493   3.299   3.511
    1C        C  251   4.454   3.163   3.511
    1C        C  252   4.510   3.367   3.634
    1C        C  253   4.496   3.300   3.757
    1C        C  254   4.519   3.514   3.876
    1C        C  255   4.512   3.373   3.878
    1C        C  256   4.517   3.585   3.998
    1C        C  257   4.517   3.515   4.122
    1C        C  258   4.489   3.728   4.238
    1C        C  259   4.515   3.589   4.242
    1C        C  260   4.463   3.798   4.358
    1C        C  261   4.482   3.733   4.482
    1C        C  262   4.416   3.934   4.602
    1C        C  263   4.472   3.804   4.604
    1C        C  264   4.397   4.008   4.721
    1C        C  265   4.436   3.946   4.841
    1C        C  266   4.315   4.126   4.957
    1C        C  267   4.393   4.011   4.958
    1C        C  268   4.259   2.774   2.058
    1C        C  269   4.201   2.725   2.176
    1C        C  270   4.341   2.887   2.293
    1C        C  271   4.254   2.775   2.296
    1C        C  272   4.381   2.949   2.414
    1C        C  273   4.337   2.892   2.535
    1C        C  274   4.443   3.080   2.658
    1C        C  275   4.372   2.958   2.655
    1C        C  276   4.472   3.148   2.778
    1C        C  277   4.447   3.083   2.901
    1C        C  278   4.500   3.287   3.020
    1C        C  279   4.468   3.150   3.024
    1C        C  280   4.507   3.359   3.142
    1C        C  281   4.494   3.293   3.266
    1C        C  282   4.517   3.505   3.385
    1C        C  283   4.508   3.364   3.387
    1C        C  284   4.511   3.576   3.507
    1C        C  285   4.519   3.508   3.631
    1C        C  286   4.486   3.720   3.750
    1C        C  287   4.514   3.581   3.752
    1C        C  288   4.464   3.787   3.873
    1C        C  289   4.490   3.723   3.996
    1C        C  290   4.419   3.927   4.113
    1C        C  291   4.473   3.796   4.116
    1C        C  292   4.384   3.988   4.236
    1C        C  293   4.416   3.931   4.361
    1C        C  294   4.316   4.121   4.475
    1C        C  295   4.391   4.001   4.481
    1C        C  296   4.273   4.180   4.596
    1C        C  297   4.318   4.126   4.719
    1C        C  298   4.197   4.310   4.837
    1C        C  299   4.277   4.191   4.839
    1C        C  300   4.171   4.404   4.941
    1C        C  301   4.352   2.878   2.056
    1C        C  302   4.467   3.065   2.172
    1C        C  303   4.397   2.940   2.173
    1C        C  304   4.480   3.138   2.293
    1C        C  305   4.442   3.076   2.414
    1C        C  306   4.503   3.281   2.532
    1C        C  307   4.471   3.143   2.535
    1C        C  308   4.516   3.352   2.653
    1C        C  309   4.506   3.285   2.777
    1C        C  310   4.520   3.498   2.897
    1C        C  311   4.512   3.357   2.898
    1C        C  312   4.521   3.570   3.018
    1C        C  313   4.518   3.500   3.141
    1C        C  314   4.482   3.712   3.261
    1C        C  315   4.510   3.573   3.262
    1C        C  316   4.466   3.782   3.383
    1C        C  317   4.484   3.715   3.506
    1C        C  318   4.419   3.919   3.626
    1C        C  319   4.470   3.787   3.627
    1C        C  320   4.386   3.982   3.748
    1C        C  321   4.415   3.919   3.871
    1C        C  322   4.308   4.106   3.989
    1C        C  323   4.386   3.989   3.991
    1C        C  324   4.269   4.164   4.112
    1C        C  325   4.314   4.111   4.235
    1C        C  326   4.181   4.284   4.351
    1C        C  327   4.274   4.178   4.353
    1C        C  328   4.129   4.335   4.472
    1C        C  329   4.184   4.290   4.594
    1C        C  330   4.027   4.437   4.710
    1C        C  331   4.138   4.349   4.714
    1C        C  332   3.969   4.493   4.826
    1C        C  333   4.054   4.480   4.937
    1C        C  334   4.553   3.266   2.058
    1C        C  335   4.532   3.128   2.062
    1C        C  336   4.541   3.347   2.172
    1C        C  337   4.513   3.277   2.291
    1C        C  338   4.523   3.493   2.409
    1C        C  339   4.521   3.351   2.411
    1C        C  340   4.520   3.566   2.530
    1C        C  341   4.521   3.493   2.651
    1C        C  342   4.486   3.704   2.772
    1C        C  343   4.512   3.565   2.773
    1C        C  344   4.466   3.775   2.893
    1C        C  345   4.485   3.707   3.015
    1C        C  346   4.420   3.910   3.135
    1C        C  347   4.467   3.777   3.137
    1C        C  348   4.384   3.973   3.256
    1C        C  349   4.414   3.913   3.380
    1C        C  350   4.313   4.100   3.500
    1C        C  351   4.383   3.977   3.502
    1C        C  352   4.273   4.161   3.621
    1C        C  353   4.313   4.103   3.743
    1C        C  354   4.172   4.263   3.863
    1C        C  355   4.271   4.163   3.864
    1C        C  356   4.118   4.311   3.985
    1C        C  357   4.169   4.263   4.108
    1C        C  358   4.006   4.403   4.228
    1C        C  359   4.122   4.322   4.228
    1C        C  360   3.948   4.446   4.349
    1C        C  361   4.016   4.420   4.470
    1C        C  362   3.824   4.514   4.590
    1C        C  363   3.957   4.465   4.590
    1C        C  364   3.759   4.549   4.711
    1C        C  365   3.837   4.544   4.828
    1C        C  366   3.626   4.596   4.945
    1C        C  367   3.762   4.567   4.944
    1C        C  368   4.507   3.564   2.052
    1C        C  369   4.520   3.486   2.168
    1C        C  370   4.500   3.703   2.286
    1C        C  371   4.513   3.562   2.286
    1C        C  372   4.479   3.776   2.405
    1C        C  373   4.494   3.704   2.526
    1C        C  374   4.416   3.901   2.646
    1C        C  375   4.470   3.770   2.649
    1C        C  376   4.382   3.966   2.766
    1C        C  377   4.420   3.908   2.890
    1C        C  378   4.309   4.088   3.010
    1C        C  379   4.393   3.974   3.012
    1C        C  380   4.266   4.147   3.130
    1C        C  381   4.308   4.092   3.254
    1C        C  382   4.171   4.253   3.374
    1C        C  383   4.265   4.148   3.377
    1C        C  384   4.118   4.304   3.495
    1C        C  385   4.171   4.259   3.618
    1C        C  386   4.003   4.388   3.740
    1C        C  387   4.118   4.307   3.740
    1C        C  388   3.942   4.429   3.861
    1C        C  389   4.004   4.394   3.983
    1C        C  390   3.817   4.495   4.104
    1C        C  391   3.946   4.437   4.105
    1C        C  392   3.749   4.517   4.226
    1C        C  393   3.817   4.499   4.348
    1C        C  394   3.615   4.560   4.469
    1C        C  395   3.753   4.530   4.470
    1C        C  396   3.544   4.563   4.591
    1C        C  397   3.619   4.562   4.711
    1C        C  398   3.408   4.549   4.837
    1C        C  399   3.546   4.575   4.831
    1C        C  400   3.337   4.519   4.954
    1C        C  401   4.502   3.703   2.048
    1C        C  402   4.446   3.912   2.162
    1C        C  403   4.486   3.776   2.166
    1C        C  404   4.404   3.973   2.282
    1C        C  405   4.430   3.908   2.404
    1C        C  406   4.320   4.091   2.524
    1C        C  407   4.396   3.972   2.526
    1C        C  408   4.267   4.144   2.644
    1C        C  409   4.303   4.083   2.766
    1C        C  410   4.164   4.243   2.885
    1C        C  411   4.265   4.144   2.888
    1C        C  412   4.115   4.294   3.007
    1C        C  413   4.166   4.247   3.130
    1C        C  414   3.999   4.376   3.251
    1C        C  415   4.117   4.299   3.252
    1C        C  416   3.939   4.413   3.374
    1C        C  417   4.000   4.382   3.497
    1C        C  418   3.814   4.486   3.615
    1C        C  419   3.940   4.422   3.618
    1C        C  420   3.749   4.511   3.738
    1C        C  421   3.815   4.491   3.861
    1C        C  422   3.609   4.542   3.984
    1C        C  423   3.748   4.516   3.983
    1C        C  424   3.538   4.549   4.106
    1C        C  425   3.610   4.545   4.227
    1C        C  426   3.400   4.550   4.353
    1C        C  427   3.540   4.561   4.349
    1C        C  428   3.330   4.543   4.476
    1C        C  429   3.403   4.549   4.596
    1C        C  430   3.192   4.512   4.721
    1C        C  431   3.332   4.536   4.718
    1C        C  432   3.121   4.491   4.843
    1C        C  433   3.200   4.497   4.958
    1C        C  434   4.379   4.120   2.052
    1C        C  435   4.442   3.995   2.050
    1C        C  436   4.297   4.161   2.162
    1C        C  437   4.320   4.088   2.282
    1C        C  438   4.172   4.245   2.399
    1C        C  439   4.271   4.144   2.402
    1C        C  440   4.114   4.290   2.519
    1C        C  441   4.167   4.243   2.642
    1C        C  442   4.000   4.378   2.761
    1C        C  443   4.112   4.291   2.762
    1C        C  444   3.941   4.414   2.884
    1C        C  445   4.003   4.380   3.006
    1C        C  446   3.809   4.468   3.126
    1C        C  447   3.937   4.409   3.128
    1C        C  448   3.744   4.493   3.249
    1C        C  449   3.812   4.474   3.372
    1C        C  450   3.605   4.525   3.493
    1C        C  451   3.745   4.502   3.493
    1C        C  452   3.539   4.538   3.617
    1C        C  453   3.609   4.533   3.739
    1C        C  454   3.398   4.542   3.861
    1C        C  455   3.539   4.545   3.861
    1C        C  456   3.328   4.535   3.984
    1C        C  457   3.397   4.541   4.107
    1C        C  458   3.194   4.493   4.235
    1C        C  459   3.330   4.531   4.231
    1C        C  460   3.127   4.477   4.358
    1C        C  461   3.194   4.506   4.479
    1C        C  462   2.998   4.422   4.600
    1C        C  463   3.124   4.486   4.600
    1C        C  464   2.932   4.392   4.721
    1C        C  465   2.986   4.442   4.843
    1C        C  466   2.795   4.336   4.955
    1C        C  467   2.900   4.429   4.956
    1C        C  468   4.121   4.289   2.037
    1C        C  469   4.182   4.245   2.155
    1C        C  470   4.004   4.371   2.276
    1C        C  471   4.123   4.293   2.276
    1C        C  472   3.937   4.404   2.396
    1C        C  473   4.002   4.376   2.518
    1C        C  474   3.811   4.472   2.641
    1C        C  475   3.941   4.416   2.639
    1C        C  476   3.741   4.494   2.762
    1C        C  477   3.811   4.469   2.882
    1C        C  478   3.604   4.521   3.004
    1C        C  479   3.742   4.491   3.003
    1C        C  480   3.536   4.531   3.128
    1C        C  481   3.606   4.518   3.250
    1C        C  482   3.392   4.533   3.373
    1C        C  483   3.533   4.531   3.371
    1C        C  484   3.325   4.526   3.497
    1C        C  485   3.398   4.535   3.618
    1C        C  486   3.189   4.496   3.744
    1C        C  487   3.326   4.527   3.740
    1C        C  488   3.127   4.468   3.867
    1C        C  489   3.193   4.496   3.989
    1C        C  490   3.000   4.411   4.112
    1C        C  491   3.127   4.472   4.112
    1C        C  492   2.938   4.379   4.235
    1C        C  493   2.999   4.417   4.357
    1C        C  494   2.824   4.298   4.480
    1C        C  495   2.936   4.383   4.479
    1C        C  496   2.763   4.257   4.601
    1C        C  497   2.818   4.308   4.721
    1C        C  498   2.664   4.158   4.841
    1C        C  499   2.753   4.267   4.840
    1C        C  500   2.593   4.116   4.954
    1C        C  501   4.003   4.363   2.038
    1C        C  502   3.812   4.463   2.156
    1C        C  503   3.942   4.409   2.155
    1C        C  504   3.741   4.488   2.276
    1C        C  505   3.808   4.460   2.397
    1C        C  506   3.602   4.511   2.518
    1C        C  507   3.741   4.488   2.519
    1C        C  508   3.529   4.511   2.639
    1C        C  509   3.601   4.514   2.760
    1C        C  510   3.391   4.532   2.884
    1C        C  511   3.532   4.524   2.883
    1C        C  512   3.320   4.525   3.006
    1C        C  513   3.395   4.534   3.125
    1C        C  514   3.190   4.487   3.254
    1C        C  515   3.325   4.525   3.248
    1C        C  516   3.123   4.463   3.376
    1C        C  517   3.188   4.493   3.498
    1C        C  518   2.997   4.407   3.622
    1C        C  519   3.122   4.473   3.621
    1C        C  520   2.937   4.373   3.746
    1C        C  521   3.000   4.405   3.868
    1C        C  522   2.827   4.286   3.994
    1C        C  523   2.939   4.372   3.991
    1C        C  524   2.781   4.234   4.117
    1C        C  525   2.830   4.288   4.238
    1C        C  526   2.689   4.130   4.360
    1C        C  527   2.775   4.242   4.360
    1C        C  528   2.644   4.076   4.483
    1C        C  529   2.678   4.144   4.602
    1C        C  530   2.581   3.955   4.731
    1C        C  531   2.637   4.085   4.723
    1C        C  532   2.537   3.899   4.854
    1C        C  533   2.521   3.996   4.958
    1C        C  534   3.613   4.555   2.034
    1C        C  535   3.746   4.509   2.042
    1C        C  536   3.533   4.527   2.149
    1C        C  537   3.602   4.515   2.273
    1C        C  538   3.390   4.510   2.396
    1C        C  539   3.531   4.517   2.395
    1C        C  540   3.317   4.504   2.517
    1C        C  541   3.388   4.512   2.639
    1C        C  542   3.184   4.480   2.763
    1C        C  543   3.320   4.516   2.763
    1C        C  544   3.119   4.457   2.886
    1C        C  545   3.184   4.485   3.008
    1C        C  546   2.997   4.395   3.131
    1C        C  547   3.121   4.463   3.132
    1C        C  548   2.941   4.358   3.256
    1C        C  549   2.997   4.398   3.379
    1C        C  550   2.827   4.276   3.503
    1C        C  551   2.936   4.366   3.502
    1C        C  552   2.780   4.227   3.627
    1C        C  553   2.831   4.280   3.748
    1C        C  554   2.695   4.121   3.873
    1C        C  555   2.780   4.234   3.872
    1C        C  556   2.655   4.064   3.996
    1C        C  557   2.688   4.128   4.117
    1C        C  558   2.594   3.937   4.242
    1C        C  559   2.652   4.067   4.239
    1C        C  560   2.563   3.879   4.367
    1C        C  561   2.587   3.947   4.488
    1C        C  562   2.533   3.745   4.612
    1C        C  563   2.561   3.883   4.611
    1C        C  564   2.522   3.676   4.735
    1C        C  565   2.521   3.756   4.853
    1C        C  566   2.527   3.544   4.974
    1C        C  567   2.522   3.683   4.972
    1C        C  568   3.321   4.477   2.034
    1C        C  569   3.392   4.504   2.151
    1C        C  570   3.181   4.470   2.277
    1C        C  571   3.320   4.501   2.274
    1C        C  572   3.111   4.453   2.399
    1C        C  573   3.178   4.479   2.520
    1C        C  574   2.985   4.398   2.647
    1C        C  575   3.112   4.460   2.643
    1C        C  576   2.927   4.358   2.769
    1C        C  577   2.995   4.390   2.889
    1C        C  578   2.823   4.268   3.015
    1C        C  579   2.933   4.356   3.012
    1C        C  580   2.774   4.221   3.138
    1C        C  581   2.831   4.270   3.258
    1C        C  582   2.696   4.109   3.382
    1C        C  583   2.780   4.223   3.381
    1C        C  584   2.655   4.055   3.506
    1C        C  585   2.692   4.117   3.628
    1C        C  586   2.589   3.935   3.752
    1C        C  587   2.655   4.060   3.752
    1C        C  588   2.564   3.873   3.877
    1C        C  589   2.594   3.937   4.000
    1C        C  590   2.530   3.733   4.124
    1C        C  591   2.567   3.869   4.121
    1C        C  592   2.517   3.666   4.248
    1C        C  593   2.529   3.741   4.367
    1C        C  594   2.510   3.533   4.494
    1C        C  595   2.522   3.674   4.491
    1C        C  596   2.518   3.461   4.615
    1C        C  597   2.523   3.534   4.736
    1C        C  598   2.533   3.324   4.859
    1C        C  599   2.530   3.465   4.859
    1C        C  600   2.530   3.247   4.976
    1C        C  601   3.188   4.440   2.038
    1C        C  602   2.978   4.393   2.157
    1C        C  603   3.113   4.438   2.157
    1C        C  604   2.919   4.360   2.282
    1C        C  605   2.983   4.393   2.404
    1C        C  606   2.813   4.269   2.526
    1C        C  607   2.925   4.356   2.526
    1C        C  608   2.762   4.221   2.649
    1C        C  609   2.817   4.269   2.770
    1C        C  610   2.678   4.112   2.893
    1C        C  611   2.770   4.219   2.893
    1C        C  612   2.643   4.053   3.017
    1C        C  613   2.684   4.111   3.139
    1C        C  614   2.585   3.925   3.260
    1C        C  615   2.649   4.051   3.262
    1C        C  616   2.565   3.862   3.386
    1C        C  617   2.594   3.928   3.507
    1C        C  618   2.525   3.731   3.635
    1C        C  619   2.562   3.867   3.631
    1C        C  620   2.519   3.664   3.759
    1C        C  621   2.534   3.735   3.880
    1C        C  622   2.507   3.524   4.005
    1C        C  623   2.514   3.665   4.001
    1C        C  624   2.510   3.453   4.127
    1C        C  625   2.508   3.525   4.249
    1C        C  626   2.542   3.321   4.373
    1C        C  627   2.512   3.459   4.373
    1C        C  628   2.560   3.251   4.495
    1C        C  629   2.544   3.322   4.616
    1C        C  630   2.597   3.118   4.739
    1C        C  631   2.552   3.253   4.739
    1C        C  632   2.619   3.052   4.862
    1C        C  633   2.563   3.111   4.980
    1C        C  634   2.782   4.295   2.051
    1C        C  635   2.891   4.383   2.044
    1C        C  636   2.744   4.226   2.167
    1C        C  637   2.807   4.272   2.285
    1C        C  638   2.669   4.109   2.406
    1C        C  639   2.757   4.220   2.406
    1C        C  640   2.633   4.050   2.529
    1C        C  641   2.677   4.108   2.651
    1C        C  642   2.577   3.922   2.773
    1C        C  643   2.638   4.049   2.773
    1C        C  644   2.552   3.858   2.897
    1C        C  645   2.584   3.925   3.016
    1C        C  646   2.524   3.722   3.145
    1C        C  647   2.562   3.857   3.139
    1C        C  648   2.509   3.654   3.268
    1C        C  649   2.527   3.727   3.388
    1C        C  650   2.510   3.520   3.516
    1C        C  651   2.516   3.661   3.513
    1C        C  652   2.516   3.451   3.639
    1C        C  653   2.513   3.523   3.760
    1C        C  654   2.540   3.315   3.884
    1C        C  655   2.514   3.454   3.883
    1C        C  656   2.559   3.246   4.006
    1C        C  657   2.537   3.314   4.128
    1C        C  658   2.607   3.118   4.253
    1C        C  659   2.557   3.250   4.252
    1C        C  660   2.637   3.052   4.375
    1C        C  661   2.607   3.118   4.497
    1C        C  662   2.708   2.933   4.621
    1C        C  663   2.632   3.052   4.619
    1C        C  664   2.746   2.872   4.743
    1C        C  665   2.697   2.931   4.863
    1C        C  666   2.739   2.867   4.980
    1C        C  667   2.676   4.020   2.052
    1C        C  668   2.676   4.103   2.165
    1C        C  669   2.585   3.910   2.290
    1C        C  670   2.637   4.043   2.286
    1C        C  671   2.556   3.848   2.413
    1C        C  672   2.577   3.920   2.533
    1C        C  673   2.510   3.717   2.658
    1C        C  674   2.551   3.852   2.653
    1C        C  675   2.500   3.648   2.781
    1C        C  676   2.516   3.721   2.901
    1C        C  677   2.508   3.510   3.027
    1C        C  678   2.508   3.651   3.024
    1C        C  679   2.509   3.441   3.150
    1C        C  680   2.501   3.513   3.272
    1C        C  681   2.535   3.307   3.396
    1C        C  682   2.507   3.445   3.395
    1C        C  683   2.557   3.242   3.519
    1C        C  684   2.536   3.311   3.641
    1C        C  685   2.606   3.112   3.767
    1C        C  686   2.554   3.243   3.763
    1C        C  687   2.641   3.049   3.889
    1C        C  688   2.613   3.116   4.010
    1C        C  689   2.710   2.929   4.136
    1C        C  690   2.640   3.052   4.133
    1C        C  691   2.759   2.874   4.257
    1C        C  692   2.713   2.933   4.377
    1C        C  693   2.755   2.878   4.500
    1C        C  694   2.625   3.889   2.052
    1C        C  695   2.525   3.703   2.173
    1C        C  696   2.573   3.836   2.171
    1C        C  697   2.505   3.636   2.296
    1C        C  698   2.516   3.712   2.414
    1C        C  699   2.489   3.504   2.539
    1C        C  700   2.498   3.645   2.537
    1C        C  701   2.499   3.434   2.661
    1C        C  702   2.500   3.507   2.782
    1C        C  703   2.535   3.300   2.906
    1C        C  704   2.510   3.439   2.905
    1C        C  705   2.551   3.233   3.029
    1C        C  706   2.532   3.302   3.151
    1C        C  707   2.604   3.105   3.276
    1C        C  708   2.549   3.236   3.275
    1C        C  709   2.637   3.045   3.400
    1C        C  710   2.606   3.109   3.522
    1C        C  711   2.714   2.929   3.648
    1C        C  712   2.638   3.048   3.645
    1C        C  713   2.757   2.871   3.769
    1C        C  714   2.712   2.927   3.891
    1C        C  715   2.755   2.873   4.015
    1C        C  716   2.442   3.499   2.060
    1C        C  717   2.484   3.632   2.059
    1C        C  718   2.458   3.420   2.178
    1C        C  719   2.481   3.496   2.296
    1C        C  720   2.516   3.290   2.421
    1C        C  721   2.488   3.428   2.419
    1C        C  722   2.544   3.224   2.543
    1C        C  723   2.529   3.296   2.663
    1C        C  724   2.598   3.095   2.788
    1C        C  725   2.551   3.228   2.785
    1C        C  726   2.630   3.033   2.911
    1C        C  727   2.603   3.101   3.032
    1C        C  728   2.710   2.921   3.157
    1C        C  729   2.632   3.039   3.155
    1C        C  730   2.754   2.867   3.280
    1C        C  731   2.710   2.924   3.402
    1C        C  732   2.756   2.873   3.525
    1C        C  733   2.491   3.198   2.069
    1C        C  734   2.487   3.280   2.183
    1C        C  735   2.578   3.082   2.304
    1C        C  736   2.520   3.212   2.303
    1C        C  737   2.615   3.018   2.425
    1C        C  738   2.594   3.091   2.544
    1C        C  739   2.698   2.908   2.668
    1C        C  740   2.622   3.027   2.666
    1C        C  741   2.746   2.855   2.789
    1C        C  742   2.704   2.913   2.911
    1C        C  743   2.746   2.861   3.035
    1C        C  744   2.551   3.072   2.071
    1C        C  745   2.682   2.893   2.184
    1C        C  746   2.604   3.011   2.185
    1C        C  747   2.731   2.837   2.304
    1C        C  748   2.690   2.899   2.424
    1C        C  749   2.736   2.846   2.547
    1C        C  750   2.733   2.836   2.067
    1C        C  751   3.652   2.315   1.968
    1C        O  752   3.658   2.192   1.994
    1C        O  753   3.717   2.344   1.848
    1C        C  754   4.596   3.047   1.955
    1C        O  755   4.546   3.049   1.840
    1C        O  756   4.736   3.048   1.953
    1C        C  757   4.431   4.220   1.956
    1C        O  758   4.516   4.304   1.996
    1C        O  759   4.435   4.195   1.818
    1C        C  760   3.615   4.693   1.981
    1C        O  761   3.588   4.792   2.054
    1C        O  762   3.597   4.706   1.843
    1C        C  763   2.853   4.504   1.967
    1C        O  764   2.877   4.504   1.843
    1C        O  765   2.782   4.613   2.019
    1C        C  766   2.339   3.487   1.954
    1C        O  767   2.377   3.455   1.839
    1C        O  768   2.203   3.460   1.973
    1C        C  769   4.701   3.585   5.040
    1C        O  770   4.711   3.566   5.165
    1C        O  771   4.821   3.640   4.994
    1C        C  772   4.263   4.434   5.054
    1C        O  773   4.235   4.396   5.170
    1C        O  774   4.364   4.531   5.054
    1C        C  775   4.141   2.532   5.076
    1C        O  776   4.159   2.407   5.079
    1C        O  777   4.116   2.571   5.208
    1C        C  778   2.902   4.521   5.072
    1C        O  779   2.842   4.631   5.061
    1C        O  780   2.914   4.485   5.207
    1C        C  781   2.499   3.053   5.100
    1C        O  782   2.376   3.033   5.114
    1C        O  783   2.571   3.045   5.219
    1C        C  784   2.401   4.004   5.045
    1C        O  785   2.287   4.048   5.015
    1C        O  786   2.386   3.915   5.152
    1C        C  787   2.938   2.429   1.999
    1C        O  788   2.901   2.466   1.884
    1C        O  789   2.913   2.297   2.036
    1C        C  790   3.184   2.384   5.075
    1C        O  791   3.158   2.266   5.041
    1C        O  792   3.202   2.422   5.209
    1C        H  793   4.252   3.028   5.046
    1C        H  794   4.170   2.808   5.065
    1C        H  795   4.507   3.115   5.047
    1C        H  796   4.558   3.353   5.061
    1C        H  797   4.541   3.800   5.054
    1C        H  798   4.438   3.980   5.050
    1C        H  799   4.240   4.129   5.034
    1C        H  800   4.025   4.530   5.027
    1C        H  801   3.811   4.582   5.038
    1C        H  802   3.604   4.680   5.007
    1C        H  803   3.391   4.471   5.033
    1C        H  804   3.152   4.551   5.038
    1C        H  805   3.892   2.466   5.056
    1C        H  806   3.677   2.437   5.067
    1C        H  807   2.990   2.539   5.060
    1C        H  808   3.431   2.468   5.073
    1C        H  809   2.851   2.721   5.074
    1C        H  810   2.693   2.889   5.074
    1C        H  811   2.489   3.294   5.063
    1C        H  812   2.499   3.500   5.068
    1C        H  813   2.539   3.731   5.066
    1C        H  814   2.566   4.189   5.027
    1C        H  815   2.725   4.348   5.035
    1C        H  816   2.745   2.903   1.985
    1C        H  817   2.858   2.698   1.971
    1C        H  818   3.192   2.379   2.012
    1C        H  819   3.432   2.460   1.972
    1C        H  820   3.839   2.545   1.966
    1C        H  821   4.061   2.620   1.965
    1C        H  822   4.289   2.699   1.988
    1C        H  823   4.411   2.885   1.967
    1C        H  824   4.554   3.309   1.960
    1C        H  825   4.469   3.521   1.961
    1C        H  826   4.525   3.754   1.957
    1C        H  827   3.775   4.464   1.950
    1C        H  828   3.961   4.385   1.942
    1C        H  829   4.161   4.260   1.942
    1C        H  830   4.510   3.981   1.968
    1C        H  831   2.664   3.829   1.973
    1C        H  832   2.758   4.031   1.984
    1C        H  833   2.726   4.277   1.962
    1C        H  834   3.351   4.531   1.947
    1C        H  835   3.135   4.440   1.945
    1C        H  836   2.571   3.030   1.974
    1C        H  837   2.460   3.241   1.976
    1C        H  838   2.530   3.663   1.967
    2V3OU   H29  839   2.807   3.539   6.343
    2V3OU   C27  840   2.778   3.497   6.443
    2V3OU   H27  841   2.718   3.567   6.506
    2V3OU   H28  842   2.724   3.400   6.425
    2V3OU   O11  843   2.905   3.472   6.502
    2V3OU   C15  844   2.917   3.394   6.615
    2V3OU   C13  845   3.047   3.371   6.664
    2V3OU   C14  846   3.075   3.266   6.753
    2V3OU   C16  847   2.970   3.185   6.795
    2V3OU    H6  848   2.986   3.101   6.865
    2V3OU   C12  849   3.212   3.224   6.788
    2V3OU    O2  850   3.234   3.128   6.864
    2V3OU   C10  851   3.323   3.307   6.738
    2V3OU    C8  852   3.454   3.266   6.755
    2V3OU   O10  853   3.488   3.152   6.823
    2V3OU   H26  854   3.403   3.105   6.832
    2V3OU    C6  855   3.564   3.344   6.708
    2V3OU    C5  856   3.533   3.460   6.638
    2V3OU    C4  857   3.700   3.284   6.702
    2V3OU    H4  858   3.721   3.222   6.794
    2V3OU    H5  859   3.710   3.220   6.609
    2V3OU    C2  860   3.811   3.390   6.699
    2V3OU    O6  861   3.795   3.462   6.822
    2V3OU   H21  862   3.770   3.552   6.798
    2V3OU    C3  863   3.778   3.492   6.590
    2V3OU    H2  864   3.860   3.568   6.586
    2V3OU    H3  865   3.776   3.435   6.494
    2V3OU   C25  866   3.949   3.328   6.685
    2V3OU    O7  867   3.998   3.286   6.580
    2V3OU   C26  868   4.023   3.290   6.812
    2V3OU   H22  869   4.056   3.379   6.871
    2V3OU   H23  870   4.114   3.231   6.786
    2V3OU    O8  871   3.953   3.205   6.901
    2V3OU   H24  872   3.921   3.261   6.973
    2V3OU    C1  873   3.643   3.558   6.612
    2V3OU    H1  874   3.619   3.614   6.517
    2V3OU    O3  875   3.659   3.656   6.715
    2V3OU   C19  876   3.615   3.791   6.694
    2V3OU    H9  877   3.511   3.789   6.650
    2V3OU    O4  878   3.709   3.847   6.604
    2V3OU   C20  879   3.842   3.868   6.651
    2V3OU   H10  880   3.892   3.768   6.666
    2V3OU   C24  881   3.613   3.855   6.833
    2V3OU   H16  882   3.549   3.790   6.897
    2V3OU   H17  883   3.561   3.952   6.812
    2V3OU   C23  884   3.756   3.872   6.886
    2V3OU   H15  885   3.794   3.766   6.905
    2V3OU    N1  886   3.737   3.953   7.005
    2V3OU   H19  887   3.807   3.926   0.053
    2V3OU   H20  888   3.646   3.933   0.024
    2V3OU   C21  889   3.847   3.945   6.783
    2V3OU   H11  890   3.954   3.923   6.812
    2V3OU    O5  891   3.828   4.086   6.786
    2V3OU   H18  892   3.778   4.100   6.868
    2V3OU   C22  893   3.911   3.947   6.542
    2V3OU   H12  894   3.855   4.043   6.526
    2V3OU   H13  895   3.909   3.892   6.444
    2V3OU   H14  896   4.020   3.959   6.568
    2V3OU   C11  897   3.154   3.471   6.648
    2V3OU    O1  898   3.130   3.583   6.598
    2V3OU    C9  899   3.294   3.429   6.671
    2V3OU    C7  900   3.399   3.506   6.621
    2V3OU    O9  901   3.386   3.618   6.542
    2V3OU   H25  902   3.289   3.623   6.546
    2V3OU   C17  903   2.814   3.314   6.667
    2V3OU    H7  904   2.709   3.343   6.654
    2V3OU   C18  905   2.840   3.209   6.754
    2V3OU    H8  906   2.758   3.146   6.793
    3SOL     OW  907   3.088   3.621   5.032
    3SOL    HW1  908   3.132   3.620   5.122
    3SOL    HW2  909   3.154   3.651   4.964
    4SOL     OW  910   1.187   0.383   0.322
    4SOL    HW1  911   1.091   0.359   0.333
    4SOL    HW2  912   1.204   0.473   0.362
    5SOL     OW  913   3.890   1.883   0.526
    5SOL    HW1  914   3.875   1.802   0.469
    5SOL    HW2  915   3.883   1.857   0.623
    6SOL     OW  916   3.075   2.093   2.017
    6SOL    HW1  917   3.017   2.168   2.048
    6SOL    HW2  918   3.082   2.095   1.917
    7SOL     OW  919   1.548   3.066   4.549
    7SOL    HW1  920   1.642   3.101   4.550
    7SOL    HW2  921   1.518   3.050   4.643
    8SOL     OW  922   1.217   2.004   6.219
    8SOL    HW1  923   1.210   2.098   6.251
    8SOL    HW2  924   1.169   1.943   6.283
    9SOL     OW  925   2.000   2.215   5.403
    9SOL    HW1  926   1.942   2.173   5.472
    9SOL    HW2  927   1.946   2.282   5.351
   10SOL     OW  928   5.615   4.810   0.887
   10SOL    HW1  929   5.691   4.866   0.921
   10SOL    HW2  930   5.616   4.721   0.934
   11SOL     OW  931   2.946   1.341   1.054
   11SOL    HW1  932   3.020   1.406   1.031
   11SOL    HW2  933   2.867   1.392   1.087
   12SOL     OW  934   5.655   4.982   1.234
   12SOL    HW1  935   5.731   4.917   1.226
   12SOL    HW2  936   5.581   4.940   1.287
   13SOL     OW  937   4.476   5.660   1.605
   13SOL    HW1  938   4.490   5.562   1.590
   13SOL    HW2  939   4.445   5.676   1.698
   14SOL     OW  940   4.625   5.929   0.687
   14SOL    HW1  941   4.680   5.959   0.609
   14SOL    HW2  942   4.611   5.830   0.681
   15SOL     OW  943   0.510   0.393   6.673
   15SOL    HW1  944   0.472   0.442   6.594
   15SOL    HW2  945   0.541   0.303   6.644
   16SOL     OW  946   1.741   4.931   5.464
   16SOL    HW1  947   1.668   4.865   5.446
   16SOL    HW2  948   1.724   5.014   5.411
   17SOL     OW  949   0.140   2.464   4.111
   17SOL    HW1  950   0.046   2.486   4.088
   17SOL    HW2  951   0.189   2.437   4.028
   18SOL     OW  952   2.344   0.216   5.424
   18SOL    HW1  953   2.442   0.214   5.441
   18SOL    HW2  954   2.319   0.143   5.361
   19SOL     OW  955   4.567   6.127   2.968
   19SOL    HW1  956   4.637   6.171   3.025
   19SOL    HW2  957   4.555   6.033   2.997
   20SOL     OW  958   0.237   1.806   4.473
   20SOL    HW1  959   0.211   1.901   4.457
   20SOL    HW2  960   0.158   1.747   4.456
   21SOL     OW  961   2.052   3.205   1.750
   21SOL    HW1  962   2.045   3.106   1.749
   21SOL    HW2  963   1.969   3.244   1.790
   22SOL     OW  964   0.296   0.551   0.192
   22SOL    HW1  965   0.283   0.559   0.291
   22SOL    HW2  966   0.220   0.596   0.145
   23SOL     OW  967   0.429   5.670   0.385
   23SOL    HW1  968   0.476   5.650   0.471
   23SOL    HW2  969   0.334   5.640   0.391
   24SOL     OW  970   4.497   0.699   6.791
   24SOL    HW1  971   4.495   0.714   6.890
   24SOL    HW2  972   4.557   0.766   6.749
   25SOL     OW  973   1.857   0.653   5.588
   25SOL    HW1  974   1.878   0.558   5.566
   25SOL    HW2  975   1.868   0.667   5.687
   26SOL     OW  976   2.096   6.600   5.480
   26SOL    HW1  977   2.096   6.620   5.578
   26SOL    HW2  978   2.029   6.529   5.460
   27SOL     OW  979   0.082   0.345   2.607
   27SOL    HW1  980   0.099   0.405   2.528
   27SOL    HW2  981   0.116   0.388   2.690
   28SOL     OW  982   1.839   0.762   5.114
   28SOL    HW1  983   1.838   0.749   5.213
   28SOL    HW2  984   1.914   0.824   5.089
   29SOL     OW  985   5.460   0.429   1.758
   29SOL    HW1  986   5.385   0.426   1.692
   29SOL    HW2  987   5.424   0.447   1.849
   30SOL     OW  988   5.107   0.122   4.513
   30SOL    HW1  989   5.082   0.193   4.579
   30SOL    HW2  990   5.206   0.124   4.497
   31SOL     OW  991   6.014   3.933   4.385
   31SOL    HW1  992   6.041   3.906   4.478
   31SOL    HW2  993   5.979   3.853   4.336
   32SOL     OW  994   3.498   1.448   1.804
   32SOL    HW1  995   3.403   1.426   1.779
   32SOL    HW2  996   3.559   1.377   1.768
   33SOL     OW  997   1.875   4.631   5.015
   33SOL    HW1  998   1.926   4.686   4.949
   33SOL    HW2  999   1.804   4.686   5.058
   34SOL     OW 1000   2.548   7.014   5.495
   34SOL    HW1 1001   2.579   0.087   5.465
   34SOL    HW2 1002   2.535   7.014   5.594
   35SOL     OW 1003   1.241   3.730   4.463
   35SOL    HW1 1004   1.215   3.644   4.505
   35SOL    HW2 1005   1.340   3.744   4.473
   36SOL     OW 1006   5.373   1.115   4.448
   36SOL    HW1 1007   5.290   1.171   4.445
   36SOL    HW2 1008   5.449   1.168   4.411
   37SOL     OW 1009   1.239   5.785   4.001
   37SOL    HW1 1010   1.217   5.688   3.987
   37SOL    HW2 1011   1.262   5.801   4.097
   38SOL     OW 1012   0.780   3.245   1.471
   38SOL    HW1 1013   0.721   3.238   1.551
   38SOL    HW2 1014   0.782   3.157   1.424
   39SOL     OW 1015   6.292   5.530   1.297
   39SOL    HW1 1016   6.212   5.566   1.248
   39SOL    HW2 1017   6.356   5.605   1.316
   40SOL     OW 1018   4.096   0.632   5.850
   40SOL    HW1 1019   4.181   0.582   5.836
   40SOL    HW2 1020   4.102   0.722   5.805
   41SOL     OW 1021   0.176   3.960   1.050
   41SOL    HW1 1022   0.232   3.881   1.023
   41SOL    HW2 1023   0.234   4.027   1.098
   42SOL     OW 1024   2.630   3.490   0.831
   42SOL    HW1 1025   2.537   3.478   0.863
   42SOL    HW2 1026   2.652   3.420   0.764
   43SOL     OW 1027   4.957   0.624   3.535
   43SOL    HW1 1028   4.977   0.532   3.501
   43SOL    HW2 1029   4.879   0.661   3.484
   44SOL     OW 1030   6.928   1.073   6.733
   44SOL    HW1 1031   6.897   1.166   6.714
   44SOL    HW2 1032   6.892   1.043   6.821
   45SOL     OW 1033   2.005   3.852   5.463
   45SOL    HW1 1034   1.965   3.801   5.387
   45SOL    HW2 1035   2.097   3.882   5.438
   46SOL     OW 1036   0.661   5.176   4.253
   46SOL    HW1 1037   0.723   5.254   4.255
   46SOL    HW2 1038   0.695   5.108   4.187
   47SOL     OW 1039   0.071   3.937   5.856
   47SOL    HW1 1040   0.106   3.867   5.794
   47SOL    HW2 1041   0.059   3.897   5.947
   48SOL     OW 1042   0.646   4.460   0.263
   48SOL    HW1 1043   0.667   4.474   0.360
   48SOL    HW2 1044   0.548   4.472   0.248
   49SOL     OW 1045   3.600   0.299   0.113
   49SOL    HW1 1046   3.504   0.290   0.085
   49SOL    HW2 1047   3.656   0.236   0.058
   50SOL     OW 1048   4.719   1.932   5.832
   50SOL    HW1 1049   4.668   2.018   5.827
   50SOL    HW2 1050   4.688   1.880   5.911
   51SOL     OW 1051   1.102   6.285   2.008
   51SOL    HW1 1052   1.040   6.214   2.043
   51SOL    HW2 1053   1.085   6.297   1.910
   52SOL     OW 1054   5.191   2.964   2.970
   52SOL    HW1 1055   5.224   3.005   2.884
   52SOL    HW2 1056   5.247   2.997   3.046
   53SOL     OW 1057   4.102   6.679   1.514
   53SOL    HW1 1058   4.101   6.759   1.454
   53SOL    HW2 1059   4.012   6.668   1.557
   54SOL     OW 1060   1.024   1.696   5.936
   54SOL    HW1 1061   1.028   1.790   5.970
   54SOL    HW2 1062   1.113   1.653   5.946
   55SOL     OW 1063   2.311   3.700   6.416
   55SOL    HW1 1064   2.389   3.656   6.460
   55SOL    HW2 1065   2.335   3.795   6.394
   56SOL     OW 1066   1.859   2.119   0.063
   56SOL    HW1 1067   1.899   2.086   6.995
   56SOL    HW2 1068   1.771   2.162   0.045
   57SOL     OW 1069   4.189   5.722   1.446
   57SOL    HW1 1070   4.147   5.664   1.516
   57SOL    HW2 1071   4.281   5.688   1.426
   58SOL     OW 1072   0.502   0.404   0.079
   58SOL    HW1 1073   0.418   0.416   0.132
   58SOL    HW2 1074   0.563   0.481   0.097
   59SOL     OW 1075   4.230   3.497   0.052
   59SOL    HW1 1076   4.326   3.521   0.066
   59SOL    HW2 1077   4.171   3.564   0.098
   60SOL     OW 1078   6.502   2.577   2.066
   60SOL    HW1 1079   6.499   2.675   2.084
   60SOL    HW2 1080   6.491   2.528   2.153
   61SOL     OW 1081   1.470   4.977   2.670
   61SOL    HW1 1082   1.515   4.973   2.581
   61SOL    HW2 1083   1.411   5.058   2.674
   62SOL     OW 1084   4.938   3.389   3.055
   62SOL    HW1 1085   4.884   3.327   2.999
   62SOL    HW2 1086   4.966   3.343   3.139
   63SOL     OW 1087   4.264   6.898   6.228
   63SOL    HW1 1088   4.262   6.989   6.186
   63SOL    HW2 1089   4.171   6.861   6.231
   64SOL     OW 1090   2.490   1.965   6.643
   64SOL    HW1 1091   2.468   1.889   6.704
   64SOL    HW2 1092   2.405   2.003   6.606
   65SOL     OW 1093   0.682   5.250   5.128
   65SOL    HW1 1094   0.768   5.211   5.161
   65SOL    HW2 1095   0.647   5.316   5.195
   66SOL     OW 1096   4.283   1.433   1.271
   66SOL    HW1 1097   4.226   1.511   1.245
   66SOL    HW2 1098   4.316   1.387   1.188
   67SOL     OW 1099   0.254   2.894   2.624
   67SOL    HW1 1100   0.241   2.887   2.723
   67SOL    HW2 1101   0.254   2.990   2.597
   68SOL     OW 1102   0.368   1.214   6.198
   68SOL    HW1 1103   0.387   1.304   6.235
   68SOL    HW2 1104   0.390   1.144   6.266
   69SOL     OW 1105   1.780   1.087   5.979
   69SOL    HW1 1106   1.783   1.040   5.891
   69SOL    HW2 1107   1.786   1.185   5.966
   70SOL     OW 1108   5.114   5.148   2.925
   70SOL    HW1 1109   5.138   5.051   2.929
   70SOL    HW2 1110   5.156   5.197   3.001
   71SOL     OW 1111   5.456   1.439   5.535
   71SOL    HW1 1112   5.387   1.367   5.542
   71SOL    HW2 1113   5.487   1.448   5.441
   72SOL     OW 1114   6.905   1.986   3.123
   72SOL    HW1 1115   6.836   1.914   3.116
   72SOL    HW2 1116   6.963   1.984   3.042
   73SOL     OW 1117   2.656   1.043   0.778
   73SOL    HW1 1118   2.720   1.119   0.778
   73SOL    HW2 1119   2.599   1.047   0.696
   74SOL     OW 1120   2.519   0.791   0.655
   74SOL    HW1 1121   2.424   0.815   0.631
   74SOL    HW2 1122   2.528   0.788   0.755
   75SOL     OW 1123   2.826   2.969   1.036
   75SOL    HW1 1124   2.769   2.897   0.997
   75SOL    HW2 1125   2.769   3.031   1.090
   76SOL     OW 1126   2.717   5.169   6.383
   76SOL    HW1 1127   2.672   5.083   6.360
   76SOL    HW2 1128   2.649   5.234   6.418
   77SOL     OW 1129   0.576   4.897   5.156
   77SOL    HW1 1130   0.517   4.818   5.141
   77SOL    HW2 1131   0.564   4.963   5.081
   78SOL     OW 1132   4.916   1.663   0.844
   78SOL    HW1 1133   4.970   1.664   0.760
   78SOL    HW2 1134   4.946   1.586   0.900
   79SOL     OW 1135   2.164   4.391   3.924
   79SOL    HW1 1136   2.066   4.380   3.941
   79SOL    HW2 1137   2.216   4.346   3.997
   80SOL     OW 1138   4.087   2.154   5.363
   80SOL    HW1 1139   3.999   2.110   5.381
   80SOL    HW2 1140   4.144   2.092   5.308
   81SOL     OW 1141   2.473   4.443   2.744
   81SOL    HW1 1142   2.419   4.362   2.766
   81SOL    HW2 1143   2.455   4.515   2.811
   82SOL     OW 1144   2.693   0.541   1.470
   82SOL    HW1 1145   2.735   0.578   1.387
   82SOL    HW2 1146   2.597   0.519   1.452
   83SOL     OW 1147   6.298   2.216   3.721
   83SOL    HW1 1148   6.323   2.274   3.643
   83SOL    HW2 1149   6.216   2.253   3.764
   84SOL     OW 1150   5.132   2.233   2.473
   84SOL    HW1 1151   5.032   2.238   2.468
   84SOL    HW2 1152   5.159   2.160   2.537
   85SOL     OW 1153   2.037   5.251   2.983
   85SOL    HW1 1154   1.942   5.234   2.958
   85SOL    HW2 1155   2.064   5.342   2.950
   86SOL     OW 1156   4.275   1.189   6.100
   86SOL    HW1 1157   4.328   1.188   6.185
   86SOL    HW2 1158   4.332   1.224   6.026
   87SOL     OW 1159   3.241   2.281   6.677
   87SOL    HW1 1160   3.141   2.276   6.687
   87SOL    HW2 1161   3.284   2.218   6.740
   88SOL     OW 1162   1.244   2.237   0.410
   88SOL    HW1 1163   1.243   2.323   0.462
   88SOL    HW2 1164   1.193   2.168   0.461
   89SOL     OW 1165   3.990   3.657   5.946
   89SOL    HW1 1166   3.998   3.738   5.888
   89SOL    HW2 1167   4.015   3.576   5.893
   90SOL     OW 1168   6.973   4.060   1.699
   90SOL    HW1 1169   0.032   3.995   1.703
   90SOL    HW2 1170   6.957   4.097   1.791
   91SOL     OW 1171   5.280   5.169   0.571
   91SOL    HW1 1172   5.227   5.096   0.616
   91SOL    HW2 1173   5.367   5.132   0.538
   92SOL     OW 1174   6.396   6.355   6.978
   92SOL    HW1 1175   6.392   6.414   0.042
   92SOL    HW2 1176   6.349   6.400   6.903
   93SOL     OW 1177   3.096   3.294   2.692
   93SOL    HW1 1178   3.092   3.198   2.668
   93SOL    HW2 1179   3.180   3.335   2.653
   94SOL     OW 1180   3.432   1.287   4.065
   94SOL    HW1 1181   3.363   1.327   4.005
   94SOL    HW2 1182   3.478   1.359   4.116
   95SOL     OW 1183   1.185   6.584   4.419
   95SOL    HW1 1184   1.217   6.516   4.486
   95SOL    HW2 1185   1.263   6.622   4.371
   96SOL     OW 1186   0.438   6.429   0.347
   96SOL    HW1 1187   0.448   6.330   0.354
   96SOL    HW2 1188   0.388   6.463   0.427
   97SOL     OW 1189   3.486   4.955   4.311
   97SOL    HW1 1190   3.388   4.936   4.320
   97SOL    HW2 1191   3.523   4.981   4.401
   98SOL     OW 1192   6.532   2.043   4.917
   98SOL    HW1 1193   6.505   2.054   4.822
   98SOL    HW2 1194   6.603   1.973   4.923
   99SOL     OW 1195   4.817   4.497   5.034
   99SOL    HW1 1196   4.841   4.459   4.944
   99SOL    HW2 1197   4.824   4.426   5.103
  100SOL     OW 1198   2.258   2.304   5.508
  100SOL    HW1 1199   2.174   2.294   5.454
  100SOL    HW2 1200   2.327   2.240   5.473
  101SOL     OW 1201   5.207   2.912   2.431
  101SOL    HW1 1202   5.249   2.921   2.521
  101SOL    HW2 1203   5.245   2.981   2.369
  102SOL     OW 1204   4.660   6.421   1.294
  102SOL    HW1 1205   4.694   6.484   1.224
  102SOL    HW2 1206   4.659   6.328   1.257
  103SOL     OW 1207   2.456   2.139   0.915
  103SOL    HW1 1208   2.497   2.082   0.844
  103SOL    HW2 1209   2.356   2.138   0.906
  104SOL     OW 1210   0.994   3.442   1.637
  104SOL    HW1 1211   0.963   3.358   1.593
  104SOL    HW2 1212   1.025   3.506   1.567
  105SOL     OW 1213   0.371   1.837   4.695
  105SOL    HW1 1214   0.323   1.807   4.613
  105SOL    HW2 1215   0.329   1.921   4.730
  106SOL     OW 1216   5.469   3.689   1.618
  106SOL    HW1 1217   5.464   3.789   1.620
  106SOL    HW2 1218   5.400   3.651   1.681
  107SOL     OW 1219   4.653   0.340   2.670
  107SOL    HW1 1220   4.680   0.369   2.762
  107SOL    HW2 1221   4.718   0.273   2.635
  108SOL     OW 1222   3.875   1.024   5.108
  108SOL    HW1 1223   3.823   1.039   5.192
  108SOL    HW2 1224   3.949   1.091   5.102
  109SOL     OW 1225   2.163   1.717   4.456
  109SOL    HW1 1226   2.165   1.748   4.361
  109SOL    HW2 1227   2.142   1.619   4.459
  110SOL     OW 1228   4.054   5.094   5.448
  110SOL    HW1 1229   4.063   5.065   5.543
  110SOL    HW2 1230   4.095   5.184   5.435
  111SOL     OW 1231   0.074   3.373   0.578
  111SOL    HW1 1232   0.123   3.352   0.494
  111SOL    HW2 1233   7.001   3.409   0.556
  112SOL     OW 1234   3.489   6.375   4.653
  112SOL    HW1 1235   3.559   6.447   4.653
  112SOL    HW2 1236   3.491   6.328   4.565
  113SOL     OW 1237   1.529   4.939   2.404
  113SOL    HW1 1238   1.629   4.931   2.413
  113SOL    HW2 1239   1.491   4.849   2.384
  114SOL     OW 1240   6.776   2.614   1.984
  114SOL    HW1 1241   6.682   2.582   1.996
  114SOL    HW2 1242   6.815   2.573   1.901
  115SOL     OW 1243   4.357   0.868   3.296
  115SOL    HW1 1244   4.347   0.797   3.226
  115SOL    HW2 1245   4.272   0.876   3.348
  116SOL     OW 1246   5.910   5.748   6.697
  116SOL    HW1 1247   5.854   5.768   6.777
  116SOL    HW2 1248   5.861   5.684   6.638
  117SOL     OW 1249   2.092   1.677   0.411
  117SOL    HW1 1250   2.184   1.712   0.429
  117SOL    HW2 1251   2.084   1.584   0.447
  118SOL     OW 1252   1.355   2.624   1.257
  118SOL    HW1 1253   1.419   2.657   1.326
  118SOL    HW2 1254   1.307   2.543   1.292
  119SOL     OW 1255   5.171   5.209   4.375
  119SOL    HW1 1256   5.206   5.118   4.400
  119SOL    HW2 1257   5.235   5.279   4.407
  120SOL     OW 1258   4.465   1.535   3.696
  120SOL    HW1 1259   4.503   1.481   3.771
  120SOL    HW2 1260   4.429   1.473   3.626
  121SOL     OW 1261   6.664   4.895   5.529
  121SOL    HW1 1262   6.608   4.880   5.611
  121SOL    HW2 1263   6.747   4.945   5.555
  122SOL     OW 1264   0.204   5.012   5.474
  122SOL    HW1 1265   0.303   5.006   5.484
  122SOL    HW2 1266   0.173   5.103   5.503
  123SOL     OW 1267   1.072   2.095   0.808
  123SOL    HW1 1268   1.080   2.182   0.857
  123SOL    HW2 1269   1.085   2.019   0.873
  124SOL     OW 1270   2.122   3.394   6.534
  124SOL    HW1 1271   2.079   3.482   6.552
  124SOL    HW2 1272   2.192   3.404   6.464
  125SOL     OW 1273   3.956   3.146   1.414
  125SOL    HW1 1274   3.905   3.153   1.500
  125SOL    HW2 1275   3.914   3.207   1.346
  126SOL     OW 1276   3.807   3.355   5.279
  126SOL    HW1 1277   3.791   3.403   5.366
  126SOL    HW2 1278   3.793   3.257   5.292
  127SOL     OW 1279   0.162   4.187   5.921
  127SOL    HW1 1280   0.131   4.106   5.871
  127SOL    HW2 1281   0.085   4.250   5.933
  128SOL     OW 1282   4.694   4.203   6.127
  128SOL    HW1 1283   4.702   4.233   6.032
  128SOL    HW2 1284   4.766   4.136   6.147
  129SOL     OW 1285   0.781   5.272   2.370
  129SOL    HW1 1286   0.801   5.218   2.452
  129SOL    HW2 1287   0.780   5.369   2.393
  130SOL     OW 1288   6.473   4.220   4.686
  130SOL    HW1 1289   6.532   4.184   4.615
  130SOL    HW2 1290   6.447   4.146   4.749
  131SOL     OW 1291   0.531   2.976   1.773
  131SOL    HW1 1292   0.609   2.936   1.822
  131SOL    HW2 1293   0.495   2.910   1.708
  132SOL     OW 1294   3.757   4.080   2.096
  132SOL    HW1 1295   3.739   4.133   2.012
  132SOL    HW2 1296   3.773   3.984   2.072
  133SOL     OW 1297   4.236   4.098   5.601
  133SOL    HW1 1298   4.257   4.035   5.676
  133SOL    HW2 1299   4.146   4.139   5.616
  134SOL     OW 1300   0.071   2.104   0.134
  134SOL    HW1 1301   0.152   2.055   0.100
  134SOL    HW2 1302   7.011   2.086   0.073
  135SOL     OW 1303   4.574   5.102   3.764
  135SOL    HW1 1304   4.487   5.104   3.715
  135SOL    HW2 1305   4.557   5.079   3.860
  136SOL     OW 1306   3.811   5.873   6.229
  136SOL    HW1 1307   3.840   5.780   6.250
  136SOL    HW2 1308   3.891   5.926   6.199
  137SOL     OW 1309   1.961   4.419   6.997
  137SOL    HW1 1310   1.991   4.503   6.953
  137SOL    HW2 1311   2.027   4.393   0.050
  138SOL     OW 1312   0.458   6.331   1.628
  138SOL    HW1 1313   0.423   6.278   1.550
  138SOL    HW2 1314   0.537   6.284   1.666
  139SOL     OW 1315   1.261   0.176   1.107
  139SOL    HW1 1316   1.174   0.191   1.061
  139SOL    HW2 1317   1.267   0.081   1.138
  140SOL     OW 1318   2.916   6.997   3.031
  140SOL    HW1 1319   3.014   6.995   3.055
  140SOL    HW2 1320   2.903   0.035   2.949
  141SOL     OW 1321   2.362   2.009   0.210
  141SOL    HW1 1322   2.382   1.917   0.174
  141SOL    HW2 1323   2.269   2.035   0.183
  142SOL     OW 1324   1.671   4.513   6.246
  142SOL    HW1 1325   1.585   4.483   6.287
  142SOL    HW2 1326   1.718   4.434   6.206
  143SOL     OW 1327   5.011   6.479   2.255
  143SOL    HW1 1328   5.100   6.438   2.272
  143SOL    HW2 1329   4.956   6.416   2.199
  144SOL     OW 1330   2.494   4.960   3.095
  144SOL    HW1 1331   2.562   4.888   3.094
  144SOL    HW2 1332   2.415   4.934   3.039
  145SOL     OW 1333   6.173   6.407   2.684
  145SOL    HW1 1334   6.258   6.457   2.701
  145SOL    HW2 1335   6.128   6.388   2.771
  146SOL     OW 1336   6.550   1.482   4.312
  146SOL    HW1 1337   6.598   1.443   4.391
  146SOL    HW2 1338   6.472   1.425   4.289
  147SOL     OW 1339   6.243   0.014   5.574
  147SOL    HW1 1340   6.200   0.058   5.652
  147SOL    HW2 1341   6.174   7.009   5.505
  148SOL     OW 1342   1.825   6.801   3.571
  148SOL    HW1 1343   1.781   6.764   3.653
  148SOL    HW2 1344   1.760   6.800   3.495
  149SOL     OW 1345   1.572   2.216   4.781
  149SOL    HW1 1346   1.597   2.282   4.853
  149SOL    HW2 1347   1.651   2.200   4.722
  150SOL     OW 1348   5.060   2.848   4.681
  150SOL    HW1 1349   4.971   2.893   4.678
  150SOL    HW2 1350   5.064   2.786   4.760
  151SOL     OW 1351   6.039   2.764   1.555
  151SOL    HW1 1352   6.070   2.688   1.612
  151SOL    HW2 1353   5.972   2.732   1.489
  152SOL     OW 1354   6.284   1.776   0.073
  152SOL    HW1 1355   6.340   1.797   0.153
  152SOL    HW2 1356   6.333   1.801   7.008
  153SOL     OW 1357   2.163   2.084   3.969
  153SOL    HW1 1358   2.191   2.109   3.876
  153SOL    HW2 1359   2.068   2.054   3.968
  154SOL     OW 1360   0.218   2.109   3.637
  154SOL    HW1 1361   0.271   2.041   3.688
  154SOL    HW2 1362   0.246   2.201   3.664
  155SOL     OW 1363   5.907   5.159   3.556
  155SOL    HW1 1364   5.850   5.161   3.474
  155SOL    HW2 1365   5.849   5.157   3.637
  156SOL     OW 1366   4.657   6.854   1.086
  156SOL    HW1 1367   4.611   6.886   1.003
  156SOL    HW2 1368   4.588   6.838   1.157
  157SOL     OW 1369   5.068   0.946   0.658
  157SOL    HW1 1370   5.021   1.004   0.591
  157SOL    HW2 1371   5.085   0.997   0.742
  158SOL     OW 1372   1.167   2.740   5.426
  158SOL    HW1 1373   1.262   2.747   5.453
  158SOL    HW2 1374   1.157   2.770   5.331
  159SOL     OW 1375   0.240   4.910   6.525
  159SOL    HW1 1376   0.156   4.864   6.498
  159SOL    HW2 1377   0.250   4.994   6.471
  160SOL     OW 1378   3.839   6.837   1.899
  160SOL    HW1 1379   3.852   6.908   1.830
  160SOL    HW2 1380   3.811   6.879   1.985
  161SOL     OW 1381   5.758   6.311   1.235
  161SOL    HW1 1382   5.782   6.318   1.331
  161SOL    HW2 1383   5.676   6.255   1.225
  162SOL     OW 1384   3.908   0.129   5.215
  162SOL    HW1 1385   3.939   0.105   5.123
  162SOL    HW2 1386   3.967   0.200   5.253
  163SOL     OW 1387   1.266   3.360   2.790
  163SOL    HW1 1388   1.224   3.294   2.852
  163SOL    HW2 1389   1.195   3.422   2.755
  164SOL     OW 1390   1.834   2.681   2.029
  164SOL    HW1 1391   1.788   2.646   2.111
  164SOL    HW2 1392   1.902   2.615   1.998
  165SOL     OW 1393   0.373   5.737   5.181
  165SOL    HW1 1394   0.304   5.771   5.117
  165SOL    HW2 1395   0.463   5.772   5.154
  166SOL     OW 1396   0.767   5.302   3.760
  166SOL    HW1 1397   0.866   5.313   3.748
  166SOL    HW2 1398   0.724   5.293   3.670
  167SOL     OW 1399   0.552   1.588   3.413
  167SOL    HW1 1400   0.514   1.569   3.504
  167SOL    HW2 1401   0.518   1.521   3.348
  168SOL     OW 1402   3.239   4.110   4.815
  168SOL    HW1 1403   3.207   4.204   4.825
  168SOL    HW2 1404   3.264   4.094   4.719
  169SOL     OW 1405   4.791   3.035   5.803
  169SOL    HW1 1406   4.834   2.981   5.876
  169SOL    HW2 1407   4.692   3.027   5.810
  170SOL     OW 1408   6.149   5.095   2.731
  170SOL    HW1 1409   6.178   5.000   2.746
  170SOL    HW2 1410   6.096   5.100   2.646
  171SOL     OW 1411   3.605   3.167   0.770
  171SOL    HW1 1412   3.670   3.181   0.845
  171SOL    HW2 1413   3.624   3.079   0.726
  172SOL     OW 1414   1.900   1.122   0.298
  172SOL    HW1 1415   1.804   1.143   0.312
  172SOL    HW2 1416   1.916   1.025   0.316
  173SOL     OW 1417   5.365   0.877   4.942
  173SOL    HW1 1418   5.305   0.903   5.017
  173SOL    HW2 1419   5.430   0.950   4.924
  174SOL     OW 1420   6.304   4.901   4.077
  174SOL    HW1 1421   6.304   4.986   4.024
  174SOL    HW2 1422   6.314   4.922   4.174
  175SOL     OW 1423   0.638   5.037   2.315
  175SOL    HW1 1424   0.671   5.125   2.281
  175SOL    HW2 1425   0.584   5.050   2.398
  176SOL     OW 1426   5.806   3.833   0.548
  176SOL    HW1 1427   5.723   3.784   0.522
  176SOL    HW2 1428   5.859   3.855   0.465
  177SOL     OW 1429   5.182   2.492   3.526
  177SOL    HW1 1430   5.204   2.396   3.511
  177SOL    HW2 1431   5.084   2.507   3.511
  178SOL     OW 1432   1.647   5.144   4.400
  178SOL    HW1 1433   1.740   5.175   4.380
  178SOL    HW2 1434   1.581   5.208   4.361
  179SOL     OW 1435   3.084   3.812   2.135
  179SOL    HW1 1436   3.004   3.755   2.156
  179SOL    HW2 1437   3.127   3.841   2.220
  180SOL     OW 1438   4.762   0.555   5.685
  180SOL    HW1 1439   4.722   0.589   5.600
  180SOL    HW2 1440   4.742   0.458   5.695
  181SOL     OW 1441   3.370   6.361   5.423
  181SOL    HW1 1442   3.332   6.323   5.339
  181SOL    HW2 1443   3.316   6.441   5.451
  182SOL     OW 1444   3.141   2.671   5.279
  182SOL    HW1 1445   3.215   2.726   5.318
  182SOL    HW2 1446   3.176   2.582   5.253
  183SOL     OW 1447   1.742   0.872   2.801
  183SOL    HW1 1448   1.792   0.958   2.802
  183SOL    HW2 1449   1.772   0.817   2.723
  184SOL     OW 1450   5.993   6.828   3.978
  184SOL    HW1 1451   5.913   6.777   3.947
  184SOL    HW2 1452   6.042   6.865   3.899
  185SOL     OW 1453   0.467   5.957   5.554
  185SOL    HW1 1454   0.463   5.975   5.652
  185SOL    HW2 1455   0.510   6.034   5.507
  186SOL     OW 1456   3.213   5.493   0.799
  186SOL    HW1 1457   3.140   5.457   0.857
  186SOL    HW2 1458   3.296   5.439   0.812
  187SOL     OW 1459   3.744   5.521   0.122
  187SOL    HW1 1460   3.758   5.534   0.024
  187SOL    HW2 1461   3.767   5.606   0.170
  188SOL     OW 1462   1.248   4.262   3.706
  188SOL    HW1 1463   1.345   4.236   3.709
  188SOL    HW2 1464   1.242   4.362   3.701
  189SOL     OW 1465   6.214   3.788   5.756
  189SOL    HW1 1466   6.285   3.808   5.823
  189SOL    HW2 1467   6.146   3.862   5.756
  190SOL     OW 1468   6.122   6.452   6.891
  190SOL    HW1 1469   6.078   6.542   6.896
  190SOL    HW2 1470   6.075   6.388   6.951
  191SOL     OW 1471   2.126   3.747   6.225
  191SOL    HW1 1472   2.185   3.718   6.300
  191SOL    HW2 1473   2.078   3.831   6.251
  192SOL     OW 1474   0.937   6.651   0.632
  192SOL    HW1 1475   1.034   6.675   0.640
  192SOL    HW2 1476   0.921   6.610   0.542
  193SOL     OW 1477   2.689   6.694   1.914
  193SOL    HW1 1478   2.779   6.735   1.897
  193SOL    HW2 1479   2.626   6.763   1.949
  194SOL     OW 1480   4.160   6.352   3.575
  194SOL    HW1 1481   4.242   6.346   3.518
  194SOL    HW2 1482   4.086   6.396   3.524
  195SOL     OW 1483   3.206   1.422   1.410
  195SOL    HW1 1484   3.111   1.452   1.396
  195SOL    HW2 1485   3.209   1.322   1.413
  196SOL     OW 1486   3.592   3.230   1.623
  196SOL    HW1 1487   3.587   3.290   1.544
  196SOL    HW2 1488   3.686   3.199   1.635
  197SOL     OW 1489   0.741   6.952   1.373
  197SOL    HW1 1490   0.760   6.854   1.381
  197SOL    HW2 1491   0.785   6.988   1.292
  198SOL     OW 1492   6.025   0.524   5.311
  198SOL    HW1 1493   6.061   0.496   5.400
  198SOL    HW2 1494   5.948   0.586   5.324
  199SOL     OW 1495   1.674   0.764   3.058
  199SOL    HW1 1496   1.643   0.670   3.047
  199SOL    HW2 1497   1.668   0.812   2.970
  200SOL     OW 1498   1.744   3.272   3.675
  200SOL    HW1 1499   1.724   3.315   3.588
  200SOL    HW2 1500   1.699   3.182   3.679
  201SOL     OW 1501   5.238   1.176   6.889
  201SOL    HW1 1502   5.273   1.268   6.908
  201SOL    HW2 1503   5.314   1.117   6.860
  202SOL     OW 1504   4.060   0.712   2.712
  202SOL    HW1 1505   3.995   0.737   2.640
  202SOL    HW2 1506   4.110   0.794   2.742
  203SOL     OW 1507   5.501   2.700   0.790
  203SOL    HW1 1508   5.504   2.729   0.695
  203SOL    HW2 1509   5.587   2.654   0.813
  204SOL     OW 1510   2.400   5.863   0.511
  204SOL    HW1 1511   2.380   5.830   0.603
  204SOL    HW2 1512   2.412   5.962   0.512
  205SOL     OW 1513   5.400   0.628   1.292
  205SOL    HW1 1514   5.409   0.529   1.292
  205SOL    HW2 1515   5.367   0.659   1.381
  206SOL     OW 1516   0.112   5.915   1.482
  206SOL    HW1 1517   0.128   5.879   1.390
  206SOL    HW2 1518   0.192   5.897   1.539
  207SOL     OW 1519   6.361   2.772   5.679
  207SOL    HW1 1520   6.399   2.827   5.753
  207SOL    HW2 1521   6.281   2.722   5.713
  208SOL     OW 1522   5.102   3.355   1.342
  208SOL    HW1 1523   5.159   3.413   1.284
  208SOL    HW2 1524   5.006   3.381   1.331
  209SOL     OW 1525   6.293   0.821   4.108
  209SOL    HW1 1526   6.357   0.813   4.032
  209SOL    HW2 1527   6.340   0.799   4.193
  210SOL     OW 1528   5.142   2.422   6.958
  210SOL    HW1 1529   5.115   2.325   6.954
  210SOL    HW2 1530   5.092   2.473   6.888
  211SOL     OW 1531   0.297   4.421   2.189
  211SOL    HW1 1532   0.329   4.514   2.169
  211SOL    HW2 1533   0.326   4.359   2.116
  212SOL     OW 1534   1.096   5.384   5.093
  212SOL    HW1 1535   1.180   5.355   5.139
  212SOL    HW2 1536   1.025   5.400   5.162
  213SOL     OW 1537   4.197   2.318   1.312
  213SOL    HW1 1538   4.289   2.289   1.337
  213SOL    HW2 1539   4.165   2.387   1.377
  214SOL     OW 1540   0.214   5.404   3.725
  214SOL    HW1 1541   0.266   5.405   3.811
  214SOL    HW2 1542   0.243   5.325   3.670
  215SOL     OW 1543   3.964   3.534   3.658
  215SOL    HW1 1544   3.915   3.448   3.642
  215SOL    HW2 1545   3.937   3.571   3.747
  216SOL     OW 1546   3.990   6.675   4.500
  216SOL    HW1 1547   3.946   6.765   4.500
  216SOL    HW2 1548   4.046   6.665   4.582
  217SOL     OW 1549   6.140   2.171   4.832
  217SOL    HW1 1550   6.104   2.080   4.814
  217SOL    HW2 1551   6.070   2.239   4.813
  218SOL     OW 1552   2.444   4.443   5.765
  218SOL    HW1 1553   2.479   4.471   5.854
  218SOL    HW2 1554   2.517   4.450   5.697
  219SOL     OW 1555   3.778   6.458   6.485
  219SOL    HW1 1556   3.822   6.380   6.441
  219SOL    HW2 1557   3.846   6.528   6.506
  220SOL     OW 1558   1.000   5.295   0.062
  220SOL    HW1 1559   0.991   5.212   0.008
  220SOL    HW2 1560   0.965   5.373   0.011
  221SOL     OW 1561   6.198   4.268   4.576
  221SOL    HW1 1562   6.287   4.277   4.620
  221SOL    HW2 1563   6.129   4.247   4.646
  222SOL     OW 1564   1.411   0.250   4.706
  222SOL    HW1 1565   1.333   0.196   4.673
  222SOL    HW2 1566   1.404   0.261   4.806
  223SOL     OW 1567   5.587   5.489   1.609
  223SOL    HW1 1568   5.498   5.447   1.593
  223SOL    HW2 1569   5.654   5.448   1.547
  224SOL     OW 1570   5.314   4.258   2.549
  224SOL    HW1 1571   5.264   4.187   2.599
  224SOL    HW2 1572   5.265   4.279   2.464
  225SOL     OW 1573   4.215   6.134   1.576
  225SOL    HW1 1574   4.260   6.082   1.649
  225SOL    HW2 1575   4.167   6.071   1.515
  226SOL     OW 1576   1.787   5.238   2.605
  226SOL    HW1 1577   1.778   5.143   2.578
  226SOL    HW2 1578   1.704   5.288   2.583
  227SOL     OW 1579   0.732   3.827   2.904
  227SOL    HW1 1580   0.672   3.767   2.851
  227SOL    HW2 1581   0.743   3.914   2.856
  228SOL     OW 1582   3.870   5.606   3.499
  228SOL    HW1 1583   3.842   5.553   3.419
  228SOL    HW2 1584   3.912   5.692   3.469
  229SOL     OW 1585   5.642   6.197   2.303
  229SOL    HW1 1586   5.675   6.276   2.355
  229SOL    HW2 1587   5.719   6.138   2.279
  230SOL     OW 1588   1.374   4.709   4.895
  230SOL    HW1 1589   1.411   4.646   4.826
  230SOL    HW2 1590   1.332   4.656   4.968
  231SOL     OW 1591   0.109   1.828   6.858
  231SOL    HW1 1592   0.170   1.860   6.786
  231SOL    HW2 1593   0.158   1.763   6.916
  232SOL     OW 1594   1.787   3.225   0.338
  232SOL    HW1 1595   1.767   3.262   0.429
  232SOL    HW2 1596   1.872   3.263   0.304
  233SOL     OW 1597   3.552   0.233   0.745
  233SOL    HW1 1598   3.519   0.159   0.685
  233SOL    HW2 1599   3.541   0.320   0.698
  234SOL     OW 1600   1.183   5.101   0.465
  234SOL    HW1 1601   1.178   5.188   0.514
  234SOL    HW2 1602   1.278   5.084   0.436
  235SOL     OW 1603   4.296   3.165   5.697
  235SOL    HW1 1604   4.305   3.169   5.598
  235SOL    HW2 1605   4.199   3.172   5.723
  236SOL     OW 1606   6.991   0.392   6.534
  236SOL    HW1 1607   6.943   0.468   6.491
  236SOL    HW2 1608   6.943   0.365   6.617
  237SOL     OW 1609   5.964   0.426   2.293
  237SOL    HW1 1610   5.998   0.421   2.387
  237SOL    HW2 1611   5.878   0.478   2.291
  238SOL     OW 1612   0.563   2.242   3.273
  238SOL    HW1 1613   0.505   2.321   3.258
  238SOL    HW2 1614   0.506   2.162   3.295
  239SOL     OW 1615   6.497   4.888   6.401
  239SOL    HW1 1616   6.406   4.847   6.408
  239SOL    HW2 1617   6.500   4.951   6.323
  240SOL     OW 1618   0.287   2.797   4.345
  240SOL    HW1 1619   0.342   2.714   4.352
  240SOL    HW2 1620   0.193   2.778   4.374
  241SOL     OW 1621   6.196   2.736   4.118
  241SOL    HW1 1622   6.245   2.818   4.149
  241SOL    HW2 1623   6.180   2.675   4.196
  242SOL     OW 1624   2.492   2.425   3.388
  242SOL    HW1 1625   2.533   2.339   3.356
  242SOL    HW2 1626   2.545   2.461   3.465
  243SOL     OW 1627   4.892   1.109   6.532
  243SOL    HW1 1628   4.889   1.041   6.460
  243SOL    HW2 1629   4.978   1.102   6.583
  244SOL     OW 1630   1.444   0.409   5.770
  244SOL    HW1 1631   1.459   0.397   5.672
  244SOL    HW2 1632   1.518   0.465   5.809
  245SOL     OW 1633   5.132   1.832   4.483
  245SOL    HW1 1634   5.101   1.882   4.564
  245SOL    HW2 1635   5.229   1.851   4.467
  246SOL     OW 1636   5.720   3.888   4.427
  246SOL    HW1 1637   5.800   3.946   4.414
  246SOL    HW2 1638   5.708   3.829   4.348
  247SOL     OW 1639   2.076   0.099   2.732
  247SOL    HW1 1640   2.130   0.050   2.800
  247SOL    HW2 1641   2.126   0.182   2.705
  248SOL     OW 1642   6.672   2.508   3.299
  248SOL    HW1 1643   6.661   2.409   3.290
  248SOL    HW2 1644   6.632   2.552   3.218
  249SOL     OW 1645   1.848   6.325   4.566
  249SOL    HW1 1646   1.804   6.235   4.565
  249SOL    HW2 1647   1.947   6.314   4.561
  250SOL     OW 1648   5.885   3.022   0.006
  250SOL    HW1 1649   5.981   3.015   0.034
  250SOL    HW2 1650   5.876   2.989   6.930
  251SOL     OW 1651   2.437   0.272   2.556
  251SOL    HW1 1652   2.459   0.182   2.518
  251SOL    HW2 1653   2.481   0.343   2.501
  252SOL     OW 1654   6.736   3.215   6.587
  252SOL    HW1 1655   6.809   3.230   6.653
  252SOL    HW2 1656   6.657   3.271   6.611
  253SOL     OW 1657   1.741   4.524   5.488
  253SOL    HW1 1658   1.695   4.602   5.445
  253SOL    HW2 1659   1.806   4.557   5.556
  254SOL     OW 1660   5.013   3.361   6.986
  254SOL    HW1 1661   4.956   3.300   0.023
  254SOL    HW2 1662   5.068   3.307   6.922
  255SOL     OW 1663   4.134   2.110   1.992
  255SOL    HW1 1664   4.127   2.025   2.045
  255SOL    HW2 1665   4.043   2.138   1.961
  256SOL     OW 1666   0.396   6.208   1.366
  256SOL    HW1 1667   0.454   6.266   1.310
  256SOL    HW2 1668   0.309   6.193   1.319
  257SOL     OW 1669   3.220   5.965   6.295
  257SOL    HW1 1670   3.307   5.976   6.343
  257SOL    HW2 1671   3.235   5.978   6.197
  258SOL     OW 1672   4.871   5.522   4.375
  258SOL    HW1 1673   4.968   5.537   4.399
  258SOL    HW2 1674   4.814   5.586   4.427
  259SOL     OW 1675   6.975   1.092   1.767
  259SOL    HW1 1676   0.012   1.124   1.844
  259SOL    HW2 1677   6.897   1.040   1.801
  260SOL     OW 1678   5.933   6.817   5.893
  260SOL    HW1 1679   5.925   6.718   5.898
  260SOL    HW2 1680   6.026   6.841   5.864
  261SOL     OW 1681   6.992   1.341   3.146
  261SOL    HW1 1682   7.006   1.256   3.197
  261SOL    HW2 1683   0.013   1.332   3.054
  262SOL     OW 1684   1.844   5.578   0.907
  262SOL    HW1 1685   1.884   5.492   0.938
  262SOL    HW2 1686   1.836   5.641   0.985
  263SOL     OW 1687   1.199   5.007   4.874
  263SOL    HW1 1688   1.110   5.010   4.828
  263SOL    HW2 1689   1.237   5.099   4.878
  264SOL     OW 1690   3.880   4.042   0.874
  264SOL    HW1 1691   3.909   3.979   0.946
  264SOL    HW2 1692   3.884   3.995   0.786
  265SOL     OW 1693   4.340   5.820   3.978
  265SOL    HW1 1694   4.251   5.785   3.947
  265SOL    HW2 1695   4.326   5.886   4.051
  266SOL     OW 1696   4.380   3.853   0.034
  266SOL    HW1 1697   4.475   3.872   0.056
  266SOL    HW2 1698   4.344   3.783   0.095
  267SOL     OW 1699   2.565   2.254   6.183
  267SOL    HW1 1700   2.635   2.218   6.245
  267SOL    HW2 1701   2.592   2.345   6.152
  268SOL     OW 1702   1.511   3.868   2.391
  268SOL    HW1 1703   1.527   3.792   2.327
  268SOL    HW2 1704   1.529   3.836   2.484
  269SOL     OW 1705   2.857   1.304   5.806
  269SOL    HW1 1706   2.793   1.311   5.883
  269SOL    HW2 1707   2.843   1.380   5.743
  270SOL     OW 1708   5.452   5.455   4.490
  270SOL    HW1 1709   5.480   5.535   4.542
  270SOL    HW2 1710   5.450   5.375   4.550
  271SOL     OW 1711   2.776   0.706   0.295
  271SOL    HW1 1712   2.725   0.790   0.278
  271SOL    HW2 1713   2.780   0.687   0.393
  272SOL     OW 1714   5.619   4.389   0.156
  272SOL    HW1 1715   5.714   4.417   0.171
  272SOL    HW2 1716   5.569   4.465   0.115
  273SOL     OW 1717   0.381   5.720   3.954
  273SOL    HW1 1718   0.298   5.702   3.902
  273SOL    HW2 1719   0.459   5.678   3.908
  274SOL     OW 1720   5.020   3.235   2.248
  274SOL    HW1 1721   5.043   3.323   2.290
  274SOL    HW2 1722   5.104   3.182   2.234
  275SOL     OW 1723   5.728   4.913   5.579
  275SOL    HW1 1724   5.736   5.008   5.549
  275SOL    HW2 1725   5.642   4.875   5.546
  276SOL     OW 1726   0.799   0.595   4.600
  276SOL    HW1 1727   0.763   0.630   4.514
  276SOL    HW2 1728   0.893   0.563   4.587
  277SOL     OW 1729   4.026   3.361   5.913
  277SOL    HW1 1730   4.021   3.380   5.814
  277SOL    HW2 1731   3.990   3.270   5.931
  278SOL     OW 1732   6.193   5.052   1.769
  278SOL    HW1 1733   6.178   5.145   1.735
  278SOL    HW2 1734   6.228   5.056   1.862
  279SOL     OW 1735   6.391   3.297   4.136
  279SOL    HW1 1736   6.471   3.306   4.196
  279SOL    HW2 1737   6.334   3.221   4.168
  280SOL     OW 1738   4.347   1.003   2.464
  280SOL    HW1 1739   4.305   1.088   2.434
  280SOL    HW2 1740   4.313   0.927   2.409
  281SOL     OW 1741   4.895   5.765   5.704
  281SOL    HW1 1742   4.877   5.704   5.782
  281SOL    HW2 1743   4.862   5.857   5.726
  282SOL     OW 1744   0.650   1.691   0.039
  282SOL    HW1 1745   0.707   1.746   6.995
  282SOL    HW2 1746   0.709   1.628   0.090
  283SOL     OW 1747   6.153   3.966   2.128
  283SOL    HW1 1748   6.127   4.061   2.112
  283SOL    HW2 1749   6.077   3.906   2.101
  284SOL     OW 1750   5.750   6.935   2.538
  284SOL    HW1 1751   5.812   7.013   2.531
  284SOL    HW2 1752   5.658   6.967   2.562
  285SOL     OW 1753   4.929   5.929   6.080
  285SOL    HW1 1754   4.945   5.893   6.172
  285SOL    HW2 1755   4.888   5.858   6.023
  286SOL     OW 1756   3.603   5.700   5.383
  286SOL    HW1 1757   3.518   5.656   5.354
  286SOL    HW2 1758   3.682   5.648   5.350
  287SOL     OW 1759   4.115   6.457   0.918
  287SOL    HW1 1760   4.085   6.362   0.912
  287SOL    HW2 1761   4.074   6.509   0.844
  288SOL     OW 1762   3.261   0.655   0.593
  288SOL    HW1 1763   3.245   0.667   0.691
  288SOL    HW2 1764   3.245   0.741   0.545
  289SOL     OW 1765   5.258   5.261   4.833
  289SOL    HW1 1766   5.193   5.311   4.776
  289SOL    HW2 1767   5.251   5.295   4.927
  290SOL     OW 1768   2.737   1.155   4.717
  290SOL    HW1 1769   2.666   1.181   4.782
  290SOL    HW2 1770   2.811   1.108   4.765
  291SOL     OW 1771   5.886   1.340   4.956
  291SOL    HW1 1772   5.965   1.376   5.007
  291SOL    HW2 1773   5.846   1.263   5.006
  292SOL     OW 1774   2.069   0.608   3.772
  292SOL    HW1 1775   2.037   0.697   3.738
  292SOL    HW2 1776   2.168   0.611   3.782
  293SOL     OW 1777   5.637   0.787   3.213
  293SOL    HW1 1778   5.570   0.771   3.141
  293SOL    HW2 1779   5.630   0.715   3.283
  294SOL     OW 1780   6.676   0.752   6.550
  294SOL    HW1 1781   6.610   0.677   6.537
  294SOL    HW2 1782   6.627   0.837   6.566
  295SOL     OW 1783   0.744   0.974   5.181
  295SOL    HW1 1784   0.750   1.031   5.263
  295SOL    HW2 1785   0.652   0.982   5.142
  296SOL     OW 1786   6.726   1.272   6.840
  296SOL    HW1 1787   6.737   1.270   6.939
  296SOL    HW2 1788   6.777   1.349   6.802
  297SOL     OW 1789   5.246   4.547   2.936
  297SOL    HW1 1790   5.289   4.603   2.865
  297SOL    HW2 1791   5.173   4.492   2.897
  298SOL     OW 1792   3.879   6.725   5.319
  298SOL    HW1 1793   3.847   6.706   5.226
  298SOL    HW2 1794   3.879   6.641   5.372
  299SOL     OW 1795   0.076   1.279   6.126
  299SOL    HW1 1796   0.164   1.245   6.091
  299SOL    HW2 1797   0.064   1.250   6.220
  300SOL     OW 1798   3.974   6.385   4.447
  300SOL    HW1 1799   4.020   6.473   4.438
  300SOL    HW2 1800   3.882   6.391   4.406
  301SOL     OW 1801   6.493   6.952   5.173
  301SOL    HW1 1802   6.434   6.979   5.097
  301SOL    HW2 1803   6.444   6.887   5.231
  302SOL     OW 1804   0.790   6.615   2.096
  302SOL    HW1 1805   0.881   6.604   2.056
  302SOL    HW2 1806   0.736   6.678   2.040
  303SOL     OW 1807   4.944   5.435   2.586
  303SOL    HW1 1808   4.849   5.463   2.603
  303SOL    HW2 1809   5.006   5.500   2.630
  304SOL     OW 1810   1.540   1.495   5.050
  304SOL    HW1 1811   1.499   1.412   5.011
  304SOL    HW2 1812   1.606   1.469   5.121
  305SOL     OW 1813   2.858   1.771   1.065
  305SOL    HW1 1814   2.790   1.845   1.062
  305SOL    HW2 1815   2.817   1.690   1.106
  306SOL     OW 1816   0.740   6.595   2.867
  306SOL    HW1 1817   0.771   6.602   2.962
  306SOL    HW2 1818   0.814   6.557   2.810
  307SOL     OW 1819   4.102   3.654   4.774
  307SOL    HW1 1820   4.169   3.581   4.760
  307SOL    HW2 1821   4.010   3.616   4.775
  308SOL     OW 1822   6.099   2.952   0.799
  308SOL    HW1 1823   6.065   3.013   0.728
  308SOL    HW2 1824   6.183   2.907   0.767
  309SOL     OW 1825   1.889   5.180   0.356
  309SOL    HW1 1826   1.945   5.189   0.274
  309SOL    HW2 1827   1.792   5.183   0.332
  310SOL     OW 1828   4.862   6.262   5.562
  310SOL    HW1 1829   4.863   6.359   5.589
  310SOL    HW2 1830   4.955   6.232   5.540
  311SOL     OW 1831   1.671   6.291   2.165
  311SOL    HW1 1832   1.678   6.332   2.256
  311SOL    HW2 1833   1.737   6.334   2.104
  312SOL     OW 1834   3.171   0.563   4.523
  312SOL    HW1 1835   3.198   0.603   4.610
  312SOL    HW2 1836   3.251   0.521   4.479
  313SOL     OW 1837   3.686   2.887   3.104
  313SOL    HW1 1838   3.665   2.892   3.201
  313SOL    HW2 1839   3.734   2.801   3.084
  314SOL     OW 1840   2.200   4.430   6.360
  314SOL    HW1 1841   2.199   4.370   6.440
  314SOL    HW2 1842   2.106   4.458   6.338
  315SOL     OW 1843   5.939   6.971   4.610
  315SOL    HW1 1844   5.904   6.984   4.517
  315SOL    HW2 1845   5.962   0.043   4.649
  316SOL     OW 1846   4.200   1.041   4.879
  316SOL    HW1 1847   4.125   1.039   4.812
  316SOL    HW2 1848   4.237   1.134   4.885
  317SOL     OW 1849   0.541   1.202   2.074
  317SOL    HW1 1850   0.538   1.130   2.004
  317SOL    HW2 1851   0.470   1.185   2.142
  318SOL     OW 1852   0.964   1.744   3.966
  318SOL    HW1 1853   0.998   1.770   3.875
  318SOL    HW2 1854   0.966   1.823   4.026
  319SOL     OW 1855   0.362   2.109   2.014
  319SOL    HW1 1856   0.296   2.130   2.087
  319SOL    HW2 1857   0.313   2.081   1.932
  320SOL     OW 1858   5.168   1.056   6.642
  320SOL    HW1 1859   5.138   0.967   6.678
  320SOL    HW2 1860   5.247   1.088   6.695
  321SOL     OW 1861   4.154   3.513   1.154
  321SOL    HW1 1862   4.243   3.478   1.183
  321SOL    HW2 1863   4.096   3.437   1.126
  322SOL     OW 1864   3.153   2.025   0.446
  322SOL    HW1 1865   3.069   1.972   0.431
  322SOL    HW2 1866   3.217   1.971   0.501
  323SOL     OW 1867   0.391   4.527   1.929
  323SOL    HW1 1868   0.409   4.431   1.910
  323SOL    HW2 1869   0.296   4.548   1.908
  324SOL     OW 1870   6.559   0.549   3.725
  324SOL    HW1 1871   6.586   0.517   3.634
  324SOL    HW2 1872   6.568   0.474   3.790
  325SOL     OW 1873   6.583   2.674   0.621
  325SOL    HW1 1874   6.532   2.612   0.681
  325SOL    HW2 1875   6.623   2.621   0.546
  326SOL     OW 1876   5.949   5.893   6.213
  326SOL    HW1 1877   5.857   5.926   6.233
  326SOL    HW2 1878   5.943   5.808   6.161
  327SOL     OW 1879   4.167   5.835   6.326
  327SOL    HW1 1880   4.220   5.813   6.408
  327SOL    HW2 1881   4.106   5.912   6.346
  328SOL     OW 1882   2.295   4.140   3.395
  328SOL    HW1 1883   2.335   4.193   3.469
  328SOL    HW2 1884   2.367   4.107   3.334
  329SOL     OW 1885   3.201   2.954   2.969
  329SOL    HW1 1886   3.299   2.971   2.958
  329SOL    HW2 1887   3.157   2.954   2.880
  330SOL     OW 1888   1.955   3.892   6.547
  330SOL    HW1 1889   1.935   3.945   6.629
  330SOL    HW2 1890   1.930   3.944   6.466
  331SOL     OW 1891   4.925   5.751   4.070
  331SOL    HW1 1892   5.002   5.708   4.115
  331SOL    HW2 1893   4.885   5.688   4.004
  332SOL     OW 1894   6.343   2.213   2.905
  332SOL    HW1 1895   6.332   2.197   3.003
  332SOL    HW2 1896   6.254   2.204   2.860
  333SOL     OW 1897   3.187   6.130   3.769
  333SOL    HW1 1898   3.135   6.061   3.718
  333SOL    HW2 1899   3.134   6.215   3.774
  334SOL     OW 1900   3.676   3.298   4.515
  334SOL    HW1 1901   3.628   3.352   4.585
  334SOL    HW2 1902   3.715   3.216   4.557
  335SOL     OW 1903   4.155   1.358   0.155
  335SOL    HW1 1904   4.189   1.426   0.221
  335SOL    HW2 1905   4.156   1.398   0.064
  336SOL     OW 1906   3.753   1.938   4.885
  336SOL    HW1 1907   3.783   1.926   4.980
  336SOL    HW2 1908   3.667   1.990   4.885
  337SOL     OW 1909   1.294   1.630   5.156
  337SOL    HW1 1910   1.382   1.601   5.118
  337SOL    HW2 1911   1.287   1.729   5.152
  338SOL     OW 1912   4.970   1.397   1.755
  338SOL    HW1 1913   5.051   1.455   1.751
  338SOL    HW2 1914   4.889   1.453   1.768
  339SOL     OW 1915   3.321   4.919   5.638
  339SOL    HW1 1916   3.294   4.954   5.727
  339SOL    HW2 1917   3.418   4.897   5.638
  340SOL     OW 1918   5.349   4.204   4.801
  340SOL    HW1 1919   5.441   4.172   4.775
  340SOL    HW2 1920   5.354   4.247   4.891
  341SOL     OW 1921   6.114   0.286   1.867
  341SOL    HW1 1922   6.089   0.382   1.850
  341SOL    HW2 1923   6.165   0.280   1.953
  342SOL     OW 1924   4.750   0.841   1.346
  342SOL    HW1 1925   4.657   0.803   1.348
  342SOL    HW2 1926   4.766   0.886   1.259
  343SOL     OW 1927   5.529   0.458   2.117
  343SOL    HW1 1928   5.584   0.447   2.034
  343SOL    HW2 1929   5.494   0.369   2.146
  344SOL     OW 1930   6.484   3.010   1.494
  344SOL    HW1 1931   6.449   2.985   1.584
  344SOL    HW2 1932   6.407   3.033   1.434
  345SOL     OW 1933   0.228   3.457   3.738
  345SOL    HW1 1934   0.268   3.381   3.686
  345SOL    HW2 1935   0.232   3.541   3.683
  346SOL     OW 1936   0.575   0.438   3.611
  346SOL    HW1 1937   0.479   0.465   3.617
  346SOL    HW2 1938   0.594   0.369   3.681
  347SOL     OW 1939   1.927   4.059   1.551
  347SOL    HW1 1940   1.902   4.092   1.642
  347SOL    HW2 1941   1.897   4.125   1.482
  348SOL     OW 1942   5.828   4.963   0.964
  348SOL    HW1 1943   5.886   4.949   0.884
  348SOL    HW2 1944   5.873   4.924   1.045
  349SOL     OW 1945   6.004   5.453   6.870
  349SOL    HW1 1946   6.065   5.414   6.801
  349SOL    HW2 1947   6.032   5.422   6.960
  350SOL     OW 1948   2.570   0.282   0.901
  350SOL    HW1 1949   2.587   0.353   0.970
  350SOL    HW2 1950   2.472   0.273   0.886
  351SOL     OW 1951   3.424   4.234   1.075
  351SOL    HW1 1952   3.506   4.277   1.113
  351SOL    HW2 1953   3.411   4.144   1.117
  352SOL     OW 1954   3.795   0.548   2.352
  352SOL    HW1 1955   3.853   0.481   2.396
  352SOL    HW2 1956   3.733   0.588   2.420
  353SOL     OW 1957   2.600   6.142   0.385
  353SOL    HW1 1958   2.602   6.221   0.324
  353SOL    HW2 1959   2.573   6.171   0.476
  354SOL     OW 1960   2.318   2.200   0.641
  354SOL    HW1 1961   2.296   2.275   0.704
  354SOL    HW2 1962   2.283   2.222   0.550
  355SOL     OW 1963   0.367   2.752   2.303
  355SOL    HW1 1964   0.296   2.779   2.238
  355SOL    HW2 1965   0.325   2.736   2.393
  356SOL     OW 1966   2.889   0.074   6.059
  356SOL    HW1 1967   2.908   0.026   5.973
  356SOL    HW2 1968   2.889   0.009   6.134
  357SOL     OW 1969   6.509   5.939   4.570
  357SOL    HW1 1970   6.518   5.990   4.655
  357SOL    HW2 1971   6.415   5.909   4.558
  358SOL     OW 1972   3.425   6.159   0.110
  358SOL    HW1 1973   3.444   6.098   0.188
  358SOL    HW2 1974   3.427   6.254   0.141
  359SOL     OW 1975   1.832   2.328   0.770
  359SOL    HW1 1976   1.798   2.324   0.676
  359SOL    HW2 1977   1.899   2.402   0.778
  360SOL     OW 1978   1.713   4.054   2.671
  360SOL    HW1 1979   1.802   4.053   2.624
  360SOL    HW2 1980   1.647   4.104   2.615
  361SOL     OW 1981   6.333   3.058   2.205
  361SOL    HW1 1982   6.235   3.050   2.227
  361SOL    HW2 1983   6.343   3.109   2.119
  362SOL     OW 1984   3.915   3.861   2.883
  362SOL    HW1 1985   3.897   3.831   2.789
  362SOL    HW2 1986   4.011   3.844   2.905
  363SOL     OW 1987   4.602   5.431   1.163
  363SOL    HW1 1988   4.650   5.381   1.234
  363SOL    HW2 1989   4.657   5.511   1.136
  364SOL     OW 1990   1.080   0.749   0.214
  364SOL    HW1 1991   1.129   0.811   0.153
  364SOL    HW2 1992   1.141   0.720   0.288
  365SOL     OW 1993   4.865   0.534   3.872
  365SOL    HW1 1994   4.832   0.544   3.779
  365SOL    HW2 1995   4.899   0.622   3.906
  366SOL     OW 1996   5.540   1.343   0.168
  366SOL    HW1 1997   5.595   1.426   0.169
  366SOL    HW2 1998   5.601   1.263   0.170
  367SOL     OW 1999   6.029   0.097   7.008
  367SOL    HW1 2000   6.024   0.023   6.942
  367SOL    HW2 2001   5.950   0.092   0.052
  368SOL     OW 2002   2.793   1.149   5.440
  368SOL    HW1 2003   2.831   1.088   5.371
  368SOL    HW2 2004   2.861   1.218   5.465
  369SOL     OW 2005   4.930   3.790   0.030
  369SOL    HW1 2006   5.001   3.725   0.003
  369SOL    HW2 2007   4.972   3.879   0.049
  370SOL     OW 2008   1.772   2.055   3.759
  370SOL    HW1 2009   1.723   2.000   3.692
  370SOL    HW2 2010   1.854   2.094   3.717
  371SOL     OW 2011   2.713   4.672   0.784
  371SOL    HW1 2012   2.667   4.583   0.783
  371SOL    HW2 2013   2.646   4.744   0.768
  372SOL     OW 2014   2.980   6.035   5.911
  372SOL    HW1 2015   3.029   6.122   5.906
  372SOL    HW2 2016   2.882   6.052   5.910
  373SOL     OW 2017   5.404   4.286   2.912
  373SOL    HW1 2018   5.349   4.362   2.947
  373SOL    HW2 2019   5.347   4.205   2.902
  374SOL     OW 2020   2.529   2.518   2.312
  374SOL    HW1 2021   2.565   2.602   2.353
  374SOL    HW2 2022   2.484   2.539   2.225
  375SOL     OW 2023   0.164   5.166   3.998
  375SOL    HW1 2024   0.114   5.098   3.945
  375SOL    HW2 2025   0.255   5.179   3.959
  376SOL     OW 2026   4.573   0.370   3.425
  376SOL    HW1 2027   4.555   0.303   3.497
  376SOL    HW2 2028   4.670   0.370   3.403
  377SOL     OW 2029   2.512   3.481   6.165
  377SOL    HW1 2030   2.424   3.493   6.118
  377SOL    HW2 2031   2.572   3.558   6.144
  378SOL     OW 2032   4.164   0.773   1.447
  378SOL    HW1 2033   4.082   0.735   1.405
  378SOL    HW2 2034   4.217   0.700   1.491
  379SOL     OW 2035   3.331   3.676   0.423
  379SOL    HW1 2036   3.300   3.639   0.510
  379SOL    HW2 2037   3.406   3.621   0.388
  380SOL     OW 2038   5.019   1.369   0.104
  380SOL    HW1 2039   4.933   1.418   0.116
  380SOL    HW2 2040   5.096   1.432   0.117
  381SOL     OW 2041   0.411   3.191   1.881
  381SOL    HW1 2042   0.367   3.148   1.960
  381SOL    HW2 2043   0.449   3.121   1.821
  382SOL     OW 2044   6.430   0.172   0.794
  382SOL    HW1 2045   6.463   0.194   0.886
  382SOL    HW2 2046   6.332   0.193   0.789
  383SOL     OW 2047   5.352   3.014   1.055
  383SOL    HW1 2048   5.338   3.005   0.956
  383SOL    HW2 2049   5.445   3.047   1.072
  384SOL     OW 2050   0.977   3.064   4.606
  384SOL    HW1 2051   0.899   3.015   4.567
  384SOL    HW2 2052   1.062   3.017   4.579
  385SOL     OW 2053   5.051   3.069   0.081
  385SOL    HW1 2054   4.962   3.049   0.040
  385SOL    HW2 2055   5.117   3.090   0.009
  386SOL     OW 2056   3.184   5.894   5.132
  386SOL    HW1 2057   3.227   5.947   5.059
  386SOL    HW2 2058   3.156   5.805   5.096
  387SOL     OW 2059   1.986   6.479   3.731
  387SOL    HW1 2060   2.048   6.494   3.654
  387SOL    HW2 2061   2.002   6.388   3.769
  388SOL     OW 2062   1.132   5.363   5.688
  388SOL    HW1 2063   1.175   5.317   5.766
  388SOL    HW2 2064   1.088   5.447   5.719
  389SOL     OW 2065   3.883   2.186   6.939
  389SOL    HW1 2066   3.909   2.195   0.017
  389SOL    HW2 2067   3.791   2.148   6.932
  390SOL     OW 2068   3.259   1.612   4.054
  390SOL    HW1 2069   3.232   1.523   4.016
  390SOL    HW2 2070   3.205   1.631   4.136
  391SOL     OW 2071   0.677   1.487   0.451
  391SOL    HW1 2072   0.607   1.469   0.382
  391SOL    HW2 2073   0.697   1.585   0.454
  392SOL     OW 2074   4.327   5.624   4.241
  392SOL    HW1 2075   4.403   5.596   4.181
  392SOL    HW2 2076   4.240   5.608   4.195
  393SOL     OW 2077   6.210   2.895   5.962
  393SOL    HW1 2078   6.205   2.924   5.866
  393SOL    HW2 2079   6.118   2.885   5.998
  394SOL     OW 2080   1.872   1.233   6.539
  394SOL    HW1 2081   1.848   1.211   6.444
  394SOL    HW2 2082   1.907   1.327   6.544
  395SOL     OW 2083   7.010   3.234   1.158
  395SOL    HW1 2084   0.014   3.142   1.124
  395SOL    HW2 2085   6.949   3.279   1.093
  396SOL     OW 2086   4.109   2.796   5.651
  396SOL    HW1 2087   4.131   2.729   5.579
  396SOL    HW2 2088   4.010   2.795   5.667
  397SOL     OW 2089   4.581   0.074   6.338
  397SOL    HW1 2090   4.563   0.051   6.242
  397SOL    HW2 2091   4.502   0.047   6.394
  398SOL     OW 2092   6.178   4.226   2.350
  398SOL    HW1 2093   6.168   4.145   2.408
  398SOL    HW2 2094   6.193   4.198   2.256
  399SOL     OW 2095   2.773   5.985   1.273
  399SOL    HW1 2096   2.829   6.062   1.242
  399SOL    HW2 2097   2.769   5.915   1.202
  400SOL     OW 2098   2.192   4.551   5.693
  400SOL    HW1 2099   2.276   4.532   5.744
  400SOL    HW2 2100   2.148   4.465   5.668
  401SOL     OW 2101   6.186   1.254   1.428
  401SOL    HW1 2102   6.118   1.198   1.476
  401SOL    HW2 2103   6.174   1.350   1.454
  402SOL     OW 2104   0.204   5.468   0.683
  402SOL    HW1 2105   0.237   5.376   0.702
  402SOL    HW2 2106   0.198   5.520   0.768
  403SOL     OW 2107   4.991   4.829   0.317
  403SOL    HW1 2108   4.910   4.880   0.346
  403SOL    HW2 2109   5.073   4.877   0.347
  404SOL     OW 2110   0.081   5.849   4.732
  404SOL    HW1 2111   0.103   5.901   4.650
  404SOL    HW2 2112   0.072   5.752   4.709
  405SOL     OW 2113   1.362   1.327   1.620
  405SOL    HW1 2114   1.315   1.403   1.575
  405SOL    HW2 2115   1.396   1.356   1.709
  406SOL     OW 2116   1.138   3.195   3.728
  406SOL    HW1 2117   1.042   3.174   3.712
  406SOL    HW2 2118   1.195   3.138   3.667
  407SOL     OW 2119   3.302   2.156   3.983
  407SOL    HW1 2120   3.279   2.158   4.081
  407SOL    HW2 2121   3.239   2.213   3.932
  408SOL     OW 2122   2.168   0.189   3.681
  408SOL    HW1 2123   2.142   0.094   3.667
  408SOL    HW2 2124   2.206   0.226   3.596
  409SOL     OW 2125   0.127   4.604   4.329
  409SOL    HW1 2126   0.199   4.560   4.275
  409SOL    HW2 2127   0.166   4.678   4.384
  410SOL     OW 2128   2.634   6.534   6.087
  410SOL    HW1 2129   2.558   6.571   6.140
  410SOL    HW2 2130   2.624   6.435   6.079
  411SOL     OW 2131   0.340   4.267   5.574
  411SOL    HW1 2132   0.365   4.274   5.671
  411SOL    HW2 2133   0.422   4.246   5.520
  412SOL     OW 2134   3.508   6.355   2.855
  412SOL    HW1 2135   3.541   6.297   2.781
  412SOL    HW2 2136   3.525   6.310   2.943
  413SOL     OW 2137   2.172   0.452   1.853
  413SOL    HW1 2138   2.171   0.535   1.910
  413SOL    HW2 2139   2.126   0.378   1.900
  414SOL     OW 2140   4.896   4.965   0.777
  414SOL    HW1 2141   4.898   4.946   0.875
  414SOL    HW2 2142   4.866   4.883   0.728
  415SOL     OW 2143   3.837   6.976   3.148
  415SOL    HW1 2144   3.860   0.054   3.127
  415SOL    HW2 2145   3.876   6.916   3.078
  416SOL     OW 2146   3.481   5.798   0.123
  416SOL    HW1 2147   3.497   5.883   0.174
  416SOL    HW2 2148   3.419   5.740   0.176
  417SOL     OW 2149   5.265   5.586   0.834
  417SOL    HW1 2150   5.239   5.653   0.764
  417SOL    HW2 2151   5.238   5.620   0.924
  418SOL     OW 2152   0.182   5.140   6.358
  418SOL    HW1 2153   0.193   5.239   6.367
  418SOL    HW2 2154   0.091   5.121   6.321
  419SOL     OW 2155   5.002   5.428   6.488
  419SOL    HW1 2156   5.081   5.481   6.518
  419SOL    HW2 2157   5.021   5.388   6.398
  420SOL     OW 2158   5.619   3.934   6.582
  420SOL    HW1 2159   5.573   3.868   6.641
  420SOL    HW2 2160   5.592   4.027   6.609
  421SOL     OW 2161   1.584   5.961   6.091
  421SOL    HW1 2162   1.641   5.993   6.167
  421SOL    HW2 2163   1.602   5.865   6.073
  422SOL     OW 2164   6.234   3.767   6.361
  422SOL    HW1 2165   6.220   3.854   6.407
  422SOL    HW2 2166   6.321   3.769   6.311
  423SOL     OW 2167   1.092   3.360   6.300
  423SOL    HW1 2168   1.050   3.447   6.274
  423SOL    HW2 2169   1.034   3.315   6.369
  424SOL     OW 2170   2.273   4.382   6.092
  424SOL    HW1 2171   2.259   4.415   6.185
  424SOL    HW2 2172   2.364   4.408   6.060
  425SOL     OW 2173   2.757   0.675   0.567
  425SOL    HW1 2174   2.811   0.755   0.593
  425SOL    HW2 2175   2.660   0.697   0.574
  426SOL     OW 2176   0.439   3.661   0.121
  426SOL    HW1 2177   0.477   3.626   0.035
  426SOL    HW2 2178   0.455   3.595   0.194
  427SOL     OW 2179   4.187   2.969   0.124
  427SOL    HW1 2180   4.275   2.964   0.171
  427SOL    HW2 2181   4.162   3.065   0.110
  428SOL     OW 2182   3.638   1.127   4.698
  428SOL    HW1 2183   3.569   1.181   4.650
  428SOL    HW2 2184   3.606   1.106   4.790
  429SOL     OW 2185   3.754   6.321   0.294
  429SOL    HW1 2186   3.735   6.375   0.375
  429SOL    HW2 2187   3.699   6.355   0.217
  430SOL     OW 2188   2.759   0.931   4.514
  430SOL    HW1 2189   2.767   1.010   4.575
  430SOL    HW2 2190   2.836   0.869   4.528
  431SOL     OW 2191   3.673   1.073   6.626
  431SOL    HW1 2192   3.676   1.004   6.698
  431SOL    HW2 2193   3.644   1.161   6.664
  432SOL     OW 2194   6.471   1.474   1.165
  432SOL    HW1 2195   6.431   1.552   1.214
  432SOL    HW2 2196   6.403   1.401   1.156
  433SOL     OW 2197   3.654   6.122   4.966
  433SOL    HW1 2198   3.678   6.055   5.037
  433SOL    HW2 2199   3.660   6.078   4.876
  434SOL     OW 2200   6.850   3.522   0.584
  434SOL    HW1 2201   6.787   3.549   0.657
  434SOL    HW2 2202   6.799   3.477   0.511
  435SOL     OW 2203   3.444   3.397   0.827
  435SOL    HW1 2204   3.500   3.330   0.777
  435SOL    HW2 2205   3.498   3.437   0.901
  436SOL     OW 2206   2.447   1.440   1.446
  436SOL    HW1 2207   2.364   1.392   1.418
  436SOL    HW2 2208   2.527   1.388   1.415
  437SOL     OW 2209   6.047   6.613   6.064
  437SOL    HW1 2210   6.076   6.577   5.976
  437SOL    HW2 2211   6.124   6.612   6.128
  438SOL     OW 2212   1.486   3.473   0.709
  438SOL    HW1 2213   1.472   3.430   0.798
  438SOL    HW2 2214   1.406   3.530   0.686
  439SOL     OW 2215   6.596   4.988   1.829
  439SOL    HW1 2216   6.540   4.998   1.747
  439SOL    HW2 2217   6.539   5.002   1.910
  440SOL     OW 2218   1.752   3.001   2.292
  440SOL    HW1 2219   1.751   3.075   2.359
  440SOL    HW2 2220   1.842   2.994   2.249
  441SOL     OW 2221   0.250   1.316   3.489
  441SOL    HW1 2222   0.327   1.254   3.473
  441SOL    HW2 2223   0.256   1.354   3.581
  442SOL     OW 2224   1.265   5.148   6.301
  442SOL    HW1 2225   1.348   5.112   6.344
  442SOL    HW2 2226   1.187   5.093   6.329
  443SOL     OW 2227   0.248   4.782   5.795
  443SOL    HW1 2228   0.241   4.685   5.773
  443SOL    HW2 2229   0.162   4.828   5.773
  444SOL     OW 2230   5.494   3.085   6.934
  444SOL    HW1 2231   5.458   3.169   6.975
  444SOL    HW2 2232   5.590   3.098   6.908
  445SOL     OW 2233   1.626   3.315   3.008
  445SOL    HW1 2234   1.605   3.233   2.955
  445SOL    HW2 2235   1.560   3.386   2.987
  446SOL     OW 2236   2.075   4.821   4.259
  446SOL    HW1 2237   2.009   4.779   4.321
  446SOL    HW2 2238   2.124   4.894   4.306
  447SOL     OW 2239   0.720   6.126   1.056
  447SOL    HW1 2240   0.802   6.131   0.998
  447SOL    HW2 2241   0.695   6.030   1.069
  448SOL     OW 2242   4.427   0.854   5.753
  448SOL    HW1 2243   4.329   0.850   5.730
  448SOL    HW2 2244   4.446   0.788   5.826
  449SOL     OW 2245   5.609   0.718   4.730
  449SOL    HW1 2246   5.541   0.781   4.694
  449SOL    HW2 2247   5.563   0.642   4.776
  450SOL     OW 2248   6.662   5.931   2.751
  450SOL    HW1 2249   6.681   6.028   2.739
  450SOL    HW2 2250   6.736   5.889   2.804
  451SOL     OW 2251   5.921   3.970   3.755
  451SOL    HW1 2252   5.966   4.058   3.771
  451SOL    HW2 2253   5.959   3.902   3.819
  452SOL     OW 2254   6.540   4.781   5.768
  452SOL    HW1 2255   6.487   4.701   5.741
  452SOL    HW2 2256   6.572   4.769   5.863
  453SOL     OW 2257   3.510   1.466   6.208
  453SOL    HW1 2258   3.486   1.562   6.221
  453SOL    HW2 2259   3.441   1.421   6.151
  454SOL     OW 2260   0.705   6.245   0.730
  454SOL    HW1 2261   0.761   6.165   0.751
  454SOL    HW2 2262   0.657   6.275   0.813
  455SOL     OW 2263   5.305   1.472   4.743
  455SOL    HW1 2264   5.401   1.460   4.718
  455SOL    HW2 2265   5.253   1.503   4.664
  456SOL     OW 2266   3.864   5.519   0.549
  456SOL    HW1 2267   3.895   5.596   0.605
  456SOL    HW2 2268   3.784   5.547   0.495
  457SOL     OW 2269   0.767   4.555   1.438
  457SOL    HW1 2270   0.770   4.623   1.365
  457SOL    HW2 2271   0.710   4.478   1.411
  458SOL     OW 2272   0.863   0.085   5.792
  458SOL    HW1 2273   0.867   0.046   5.884
  458SOL    HW2 2274   0.793   0.037   5.738
  459SOL     OW 2275   1.033   0.742   3.213
  459SOL    HW1 2276   1.021   0.820   3.275
  459SOL    HW2 2277   1.059   0.661   3.266
  460SOL     OW 2278   6.575   2.253   3.253
  460SOL    HW1 2279   6.479   2.239   3.227
  460SOL    HW2 2280   6.599   2.188   3.326
  461SOL     OW 2281   5.260   4.688   5.978
  461SOL    HW1 2282   5.258   4.740   6.063
  461SOL    HW2 2283   5.169   4.652   5.958
  462SOL     OW 2284   3.215   2.647   0.090
  462SOL    HW1 2285   3.164   2.727   0.060
  462SOL    HW2 2286   3.179   2.616   0.178
  463SOL     OW 2287   5.874   6.100   2.206
  463SOL    HW1 2288   5.948   6.147   2.255
  463SOL    HW2 2289   5.902   6.080   2.113
  464SOL     OW 2290   1.771   2.046   5.876
  464SOL    HW1 2291   1.773   2.012   5.782
  464SOL    HW2 2292   1.865   2.052   5.911
  465SOL     OW 2293   0.402   3.585   6.411
  465SOL    HW1 2294   0.349   3.662   6.376
  465SOL    HW2 2295   0.499   3.606   6.404
  466SOL     OW 2296   1.406   0.507   3.311
  466SOL    HW1 2297   1.493   0.532   3.353
  466SOL    HW2 2298   1.332   0.555   3.358
  467SOL     OW 2299   1.978   1.517   5.336
  467SOL    HW1 2300   2.066   1.484   5.303
  467SOL    HW2 2301   1.979   1.617   5.342
  468SOL     OW 2302   2.874   3.725   3.363
  468SOL    HW1 2303   2.789   3.672   3.368
  468SOL    HW2 2304   2.938   3.693   3.433
  469SOL     OW 2305   3.788   6.780   6.229
  469SOL    HW1 2306   3.792   6.789   6.328
  469SOL    HW2 2307   3.695   6.754   6.201
  470SOL     OW 2308   4.612   6.983   3.480
  470SOL    HW1 2309   4.629   0.040   3.416
  470SOL    HW2 2310   4.687   6.917   3.475
  471SOL     OW 2311   2.557   2.606   4.164
  471SOL    HW1 2312   2.521   2.555   4.086
  471SOL    HW2 2313   2.624   2.673   4.132
  472SOL     OW 2314   4.081   4.379   5.390
  472SOL    HW1 2315   4.115   4.358   5.299
  472SOL    HW2 2316   4.083   4.296   5.446
  473SOL     OW 2317   0.125   4.445   4.037
  473SOL    HW1 2318   0.102   4.355   4.001
  473SOL    HW2 2319   0.054   4.476   4.099
  474SOL     OW 2320   4.837   4.733   5.406
  474SOL    HW1 2321   4.865   4.814   5.354
  474SOL    HW2 2322   4.906   4.661   5.395
  475SOL     OW 2323   2.427   6.556   0.264
  475SOL    HW1 2324   2.463   6.595   0.348
  475SOL    HW2 2325   2.327   6.554   0.268
  476SOL     OW 2326   6.537   5.838   3.080
  476SOL    HW1 2327   6.469   5.911   3.085
  476SOL    HW2 2328   6.503   5.765   3.021
  477SOL     OW 2329   1.728   4.452   4.230
  477SOL    HW1 2330   1.700   4.491   4.142
  477SOL    HW2 2331   1.651   4.403   4.270
  478SOL     OW 2332   1.230   5.091   3.595
  478SOL    HW1 2333   1.321   5.051   3.598
  478SOL    HW2 2334   1.163   5.019   3.574
  479SOL     OW 2335   4.407   1.995   2.012
  479SOL    HW1 2336   4.415   2.094   2.003
  479SOL    HW2 2337   4.336   1.962   1.950
  480SOL     OW 2338   1.625   6.231   3.995
  480SOL    HW1 2339   1.672   6.318   3.981
  480SOL    HW2 2340   1.608   6.218   4.093
  481SOL     OW 2341   2.111   0.438   1.250
  481SOL    HW1 2342   2.113   0.410   1.347
  481SOL    HW2 2343   2.029   0.491   1.232
  482SOL     OW 2344   5.545   5.690   0.461
  482SOL    HW1 2345   5.532   5.750   0.540
  482SOL    HW2 2346   5.550   5.595   0.491
  483SOL     OW 2347   5.507   1.953   2.855
  483SOL    HW1 2348   5.498   1.942   2.756
  483SOL    HW2 2349   5.420   1.982   2.894
  484SOL     OW 2350   6.498   1.485   3.862
  484SOL    HW1 2351   6.546   1.537   3.933
  484SOL    HW2 2352   6.456   1.548   3.797
  485SOL     OW 2353   2.873   6.123   0.476
  485SOL    HW1 2354   2.783   6.153   0.445
  485SOL    HW2 2355   2.884   6.026   0.456
  486SOL     OW 2356   6.951   0.740   5.876
  486SOL    HW1 2357   6.906   0.711   5.792
  486SOL    HW2 2358   0.032   0.723   5.869
  487SOL     OW 2359   6.845   2.625   6.535
  487SOL    HW1 2360   6.755   2.581   6.538
  487SOL    HW2 2361   6.916   2.557   6.556
  488SOL     OW 2362   1.065   4.773   2.838
  488SOL    HW1 2363   1.133   4.830   2.884
  488SOL    HW2 2364   1.079   4.677   2.865
  489SOL     OW 2365   3.326   5.549   5.874
  489SOL    HW1 2366   3.370   5.619   5.930
  489SOL    HW2 2367   3.391   5.517   5.804
  490SOL     OW 2368   5.207   0.403   4.189
  490SOL    HW1 2369   5.255   0.389   4.103
  490SOL    HW2 2370   5.125   0.458   4.173
  491SOL     OW 2371   0.797   2.913   3.329
  491SOL    HW1 2372   0.788   2.979   3.255
  491SOL    HW2 2373   0.866   2.845   3.306
  492SOL     OW 2374   1.839   1.285   4.764
  492SOL    HW1 2375   1.894   1.364   4.794
  492SOL    HW2 2376   1.757   1.318   4.717
  493SOL     OW 2377   6.121   4.177   4.334
  493SOL    HW1 2378   6.076   4.088   4.340
  493SOL    HW2 2379   6.143   4.210   4.426
  494SOL     OW 2380   5.866   0.920   6.685
  494SOL    HW1 2381   5.781   0.870   6.666
  494SOL    HW2 2382   5.940   0.883   6.629
  495SOL     OW 2383   5.056   4.368   0.101
  495SOL    HW1 2384   5.027   4.461   0.124
  495SOL    HW2 2385   5.136   4.344   0.157
  496SOL     OW 2386   6.019   3.746   2.419
  496SOL    HW1 2387   5.927   3.767   2.451
  496SOL    HW2 2388   6.018   3.662   2.365
  497SOL     OW 2389   4.453   6.979   4.331
  497SOL    HW1 2390   4.552   6.966   4.340
  497SOL    HW2 2391   4.428   0.051   4.369
  498SOL     OW 2392   1.475   3.379   0.957
  498SOL    HW1 2393   1.394   3.400   1.013
  498SOL    HW2 2394   1.466   3.287   0.919
  499SOL     OW 2395   3.683   1.386   5.016
  499SOL    HW1 2396   3.610   1.444   4.980
  499SOL    HW2 2397   3.701   1.311   4.952
  500SOL     OW 2398   1.121   4.521   2.630
  500SOL    HW1 2399   1.125   4.536   2.728
  500SOL    HW2 2400   1.165   4.598   2.583
  501SOL     OW 2401   0.598   4.896   6.338
  501SOL    HW1 2402   0.655   4.907   6.420
  501SOL    HW2 2403   0.567   4.986   6.307
  502SOL     OW 2404   2.323   4.728   6.163
  502SOL    HW1 2405   2.263   4.760   6.090
  502SOL    HW2 2406   2.395   4.671   6.125
  503SOL     OW 2407   6.706   5.237   4.628
  503SOL    HW1 2408   6.679   5.175   4.555
  503SOL    HW2 2409   6.624   5.269   4.676
  504SOL     OW 2410   1.513   4.942   4.957
  504SOL    HW1 2411   1.445   5.016   4.956
  504SOL    HW2 2412   1.469   4.856   4.933
  505SOL     OW 2413   3.606   6.803   4.620
  505SOL    HW1 2414   3.568   6.804   4.712
  505SOL    HW2 2415   3.533   6.788   4.554
  506SOL     OW 2416   1.925   3.354   0.649
  506SOL    HW1 2417   1.874   3.303   0.718
  506SOL    HW2 2418   1.882   3.444   0.636
  507SOL     OW 2419   3.883   1.950   4.586
  507SOL    HW1 2420   3.873   1.882   4.514
  507SOL    HW2 2421   3.834   1.920   4.668
  508SOL     OW 2422   6.191   5.149   4.461
  508SOL    HW1 2423   6.214   5.245   4.449
  508SOL    HW2 2424   6.092   5.137   4.456
  509SOL     OW 2425   4.758   3.273   1.731
  509SOL    HW1 2426   4.692   3.215   1.780
  509SOL    HW2 2427   4.709   3.340   1.676
  510SOL     OW 2428   0.693   4.402   4.300
  510SOL    HW1 2429   0.599   4.424   4.276
  510SOL    HW2 2430   0.713   4.307   4.276
  511SOL     OW 2431   0.444   5.923   1.442
  511SOL    HW1 2432   0.425   6.021   1.434
  511SOL    HW2 2433   0.535   5.903   1.405
  512SOL     OW 2434   1.862   3.973   5.856
  512SOL    HW1 2435   1.926   3.954   5.931
  512SOL    HW2 2436   1.891   4.056   5.808
  513SOL     OW 2437   0.395   5.217   4.345
  513SOL    HW1 2438   0.403   5.226   4.444
  513SOL    HW2 2439   0.482   5.185   4.307
  514SOL     OW 2440   5.289   1.645   3.375
  514SOL    HW1 2441   5.354   1.720   3.390
  514SOL    HW2 2442   5.296   1.580   3.451
  515SOL     OW 2443   2.891   5.493   0.172
  515SOL    HW1 2444   2.983   5.528   0.153
  515SOL    HW2 2445   2.844   5.474   0.086
  516SOL     OW 2446   1.376   4.197   3.387
  516SOL    HW1 2447   1.449   4.131   3.404
  516SOL    HW2 2448   1.416   4.285   3.360
  517SOL     OW 2449   4.487   0.357   5.952
  517SOL    HW1 2450   4.457   0.273   5.907
  517SOL    HW2 2451   4.557   0.335   6.019
  518SOL     OW 2452   1.746   1.271   6.887
  518SOL    HW1 2453   1.758   1.199   6.818
  518SOL    HW2 2454   1.818   1.264   6.956
  519SOL     OW 2455   0.968   6.413   0.081
  519SOL    HW1 2456   0.928   6.501   0.055
  519SOL    HW2 2457   0.995   6.363   7.016
  520SOL     OW 2458   5.962   4.583   4.257
  520SOL    HW1 2459   5.959   4.674   4.298
  520SOL    HW2 2460   5.914   4.518   4.317
  521SOL     OW 2461   6.589   0.840   6.973
  521SOL    HW1 2462   6.529   0.802   6.903
  521SOL    HW2 2463   6.598   0.775   0.031
  522SOL     OW 2464   3.171   4.043   5.710
  522SOL    HW1 2465   3.224   4.063   5.628
  522SOL    HW2 2466   3.127   4.127   5.744
  523SOL     OW 2467   6.608   6.962   3.656
  523SOL    HW1 2468   6.679   6.913   3.605
  523SOL    HW2 2469   6.518   6.942   3.616
  524SOL     OW 2470   3.909   0.816   4.596
  524SOL    HW1 2471   3.814   0.807   4.626
  524SOL    HW2 2472   3.970   0.782   4.667
  525SOL     OW 2473   3.691   2.883   6.631
  525SOL    HW1 2474   3.734   2.796   6.611
  525SOL    HW2 2475   3.592   2.871   6.639
  526SOL     OW 2476   4.472   6.414   4.594
  526SOL    HW1 2477   4.532   6.479   4.548
  526SOL    HW2 2478   4.388   6.402   4.541
  527SOL     OW 2479   0.807   1.533   0.182
  527SOL    HW1 2480   0.798   1.457   0.246
  527SOL    HW2 2481   0.864   1.604   0.221
  528SOL     OW 2482   1.490   1.926   6.247
  528SOL    HW1 2483   1.395   1.943   6.220
  528SOL    HW2 2484   1.523   2.001   6.305
  529SOL     OW 2485   6.953   5.210   4.710
  529SOL    HW1 2486   6.863   5.203   4.668
  529SOL    HW2 2487   6.963   5.139   4.779
  530SOL     OW 2488   0.193   2.768   5.309
  530SOL    HW1 2489   0.179   2.686   5.253
  530SOL    HW2 2490   0.108   2.793   5.354
  531SOL     OW 2491   6.906   0.333   6.766
  531SOL    HW1 2492   6.895   0.261   6.834
  531SOL    HW2 2493   6.910   0.422   6.813
  532SOL     OW 2494   2.007   0.999   5.719
  532SOL    HW1 2495   2.063   1.039   5.792
  532SOL    HW2 2496   2.065   0.975   5.642
  533SOL     OW 2497   4.687   0.854   5.605
  533SOL    HW1 2498   4.619   0.871   5.676
  533SOL    HW2 2499   4.658   0.777   5.548
  534SOL     OW 2500   2.918   5.473   3.012
  534SOL    HW1 2501   2.974   5.496   2.932
  534SOL    HW2 2502   2.961   5.398   3.062
  535SOL     OW 2503   6.528   3.836   1.665
  535SOL    HW1 2504   6.567   3.845   1.757
  535SOL    HW2 2505   6.581   3.891   1.601
  536SOL     OW 2506   1.938   5.868   1.346
  536SOL    HW1 2507   1.969   5.881   1.440
  536SOL    HW2 2508   1.915   5.957   1.306
  537SOL     OW 2509   2.507   6.815   3.269
  537SOL    HW1 2510   2.507   6.716   3.255
  537SOL    HW2 2511   2.423   6.853   3.230
  538SOL     OW 2512   1.498   5.309   4.225
  538SOL    HW1 2513   1.578   5.309   4.164
  538SOL    HW2 2514   1.486   5.401   4.262
  539SOL     OW 2515   1.636   5.269   1.414
  539SOL    HW1 2516   1.596   5.359   1.398
  539SOL    HW2 2517   1.588   5.224   1.490
  540SOL     OW 2518   2.746   2.614   1.149
  540SOL    HW1 2519   2.822   2.589   1.208
  540SOL    HW2 2520   2.690   2.533   1.129
  541SOL     OW 2521   4.653   5.646   4.995
  541SOL    HW1 2522   4.636   5.744   4.979
  541SOL    HW2 2523   4.567   5.601   5.021
  542SOL     OW 2524   5.571   0.273   6.645
  542SOL    HW1 2525   5.533   0.337   6.578
  542SOL    HW2 2526   5.554   0.307   6.737
  543SOL     OW 2527   6.523   0.021   2.245
  543SOL    HW1 2528   6.586   0.043   2.319
  543SOL    HW2 2529   6.499   6.941   2.249
  544SOL     OW 2530   0.560   5.615   0.614
  544SOL    HW1 2531   0.604   5.535   0.654
  544SOL    HW2 2532   0.542   5.683   0.686
  545SOL     OW 2533   2.863   1.736   3.549
  545SOL    HW1 2534   2.922   1.682   3.489
  545SOL    HW2 2535   2.888   1.721   3.644
  546SOL     OW 2536   1.570   2.077   6.452
  546SOL    HW1 2537   1.514   2.139   6.507
  546SOL    HW2 2538   1.628   2.022   6.512
  547SOL     OW 2539   3.006   2.191   0.651
  547SOL    HW1 2540   3.060   2.139   0.585
  547SOL    HW2 2541   3.061   2.268   0.685
  548SOL     OW 2542   3.193   3.405   5.429
  548SOL    HW1 2543   3.187   3.492   5.380
  548SOL    HW2 2544   3.135   3.337   5.386
  549SOL     OW 2545   0.735   4.377   0.846
  549SOL    HW1 2546   0.821   4.427   0.847
  549SOL    HW2 2547   0.750   4.284   0.878
  550SOL     OW 2548   6.845   4.796   0.650
  550SOL    HW1 2549   6.860   4.699   0.669
  550SOL    HW2 2550   6.926   4.848   0.676
  551SOL     OW 2551   7.011   0.324   0.206
  551SOL    HW1 2552   6.935   0.389   0.202
  551SOL    HW2 2553   0.037   0.317   0.117
  552SOL     OW 2554   4.761   5.440   0.095
  552SOL    HW1 2555   4.672   5.476   0.067
  552SOL    HW2 2556   4.825   5.516   0.109
  553SOL     OW 2557   1.214   2.086   1.332
  553SOL    HW1 2558   1.284   2.038   1.278
  553SOL    HW2 2559   1.141   2.116   1.271
  554SOL     OW 2560   4.248   5.226   4.391
  554SOL    HW1 2561   4.319   5.268   4.448
  554SOL    HW2 2562   4.158   5.261   4.419
  555SOL     OW 2563   1.204   4.447   5.835
  555SOL    HW1 2564   1.177   4.391   5.757
  555SOL    HW2 2565   1.165   4.539   5.825
  556SOL     OW 2566   6.598   4.328   2.615
  556SOL    HW1 2567   6.525   4.263   2.638
  556SOL    HW2 2568   6.687   4.287   2.637
  557SOL     OW 2569   6.345   5.847   5.709
  557SOL    HW1 2570   6.361   5.907   5.631
  557SOL    HW2 2571   6.422   5.783   5.718
  558SOL     OW 2572   3.961   3.868   5.781
  558SOL    HW1 2573   4.035   3.855   5.714
  558SOL    HW2 2574   3.875   3.884   5.732
  559SOL     OW 2575   5.331   4.893   6.434
  559SOL    HW1 2576   5.388   4.811   6.429
  559SOL    HW2 2577   5.285   4.896   6.522
  560SOL     OW 2578   4.399   6.738   0.555
  560SOL    HW1 2579   4.361   6.687   0.478
  560SOL    HW2 2580   4.462   6.679   0.606
  561SOL     OW 2581   4.801   0.050   2.280
  561SOL    HW1 2582   4.736   0.064   2.206
  561SOL    HW2 2583   4.892   0.077   2.250
  562SOL     OW 2584   6.134   0.071   1.192
  562SOL    HW1 2585   6.070   0.025   1.253
  562SOL    HW2 2586   6.215   0.098   1.244
  563SOL     OW 2587   2.718   0.238   5.164
  563SOL    HW1 2588   2.718   0.333   5.132
  563SOL    HW2 2589   2.652   0.185   5.112
  564SOL     OW 2590   1.061   1.229   5.476
  564SOL    HW1 2591   1.053   1.259   5.571
  564SOL    HW2 2592   1.036   1.305   5.415
  565SOL     OW 2593   4.472   3.615   5.913
  565SOL    HW1 2594   4.542   3.686   5.922
  565SOL    HW2 2595   4.512   3.533   5.874
  566SOL     OW 2596   6.863   4.383   1.892
  566SOL    HW1 2597   6.884   4.286   1.906
  566SOL    HW2 2598   6.792   4.411   1.956
  567SOL     OW 2599   3.966   3.747   6.197
  567SOL    HW1 2600   4.044   3.788   6.243
  567SOL    HW2 2601   3.995   3.709   6.109
  568SOL     OW 2602   2.604   0.926   6.456
  568SOL    HW1 2603   2.699   0.901   6.476
  568SOL    HW2 2604   2.602   1.014   6.409
  569SOL     OW 2605   1.943   4.275   6.714
  569SOL    HW1 2606   1.852   4.234   6.717
  569SOL    HW2 2607   1.936   4.374   6.727
  570SOL     OW 2608   0.108   5.701   6.644
  570SOL    HW1 2609   0.128   5.799   6.643
  570SOL    HW2 2610   0.123   5.665   6.736
  571SOL     OW 2611   4.690   5.997   2.515
  571SOL    HW1 2612   4.727   5.935   2.584
  571SOL    HW2 2613   4.735   6.087   2.523
  572SOL     OW 2614   1.660   3.839   3.785
  572SOL    HW1 2615   1.697   3.788   3.707
  572SOL    HW2 2616   1.619   3.925   3.753
  573SOL     OW 2617   4.238   2.590   0.013
  573SOL    HW1 2618   4.174   2.667   0.011
  573SOL    HW2 2619   4.187   2.504   0.015
  574SOL     OW 2620   2.730   2.048   3.637
  574SOL    HW1 2621   2.691   2.013   3.722
  574SOL    HW2 2622   2.793   1.980   3.599
  575SOL     OW 2623   4.410   2.772   6.178
  575SOL    HW1 2624   4.317   2.758   6.211
  575SOL    HW2 2625   4.418   2.739   6.084
  576SOL     OW 2626   0.863   3.390   3.286
  576SOL    HW1 2627   0.838   3.317   3.351
  576SOL    HW2 2628   0.910   3.349   3.207
  577SOL     OW 2629   4.319   1.967   3.378
  577SOL    HW1 2630   4.349   1.955   3.472
  577SOL    HW2 2631   4.230   2.013   3.377
  578SOL     OW 2632   6.861   3.743   4.705
  578SOL    HW1 2633   6.791   3.758   4.635
  578SOL    HW2 2634   6.903   3.831   4.728
  579SOL     OW 2635   4.282   3.409   0.735
  579SOL    HW1 2636   4.224   3.445   0.662
  579SOL    HW2 2637   4.290   3.477   0.808
  580SOL     OW 2638   0.106   0.013   0.172
  580SOL    HW1 2639   0.125   0.110   0.157
  580SOL    HW2 2640   0.146   7.002   0.259
  581SOL     OW 2641   3.828   3.298   3.667
  581SOL    HW1 2642   3.742   3.261   3.633
  581SOL    HW2 2643   3.876   3.229   3.721
  582SOL     OW 2644   0.244   4.161   0.325
  582SOL    HW1 2645   0.324   4.180   0.382
  582SOL    HW2 2646   0.161   4.186   0.375
  583SOL     OW 2647   2.810   6.897   6.684
  583SOL    HW1 2648   2.856   6.968   6.630
  583SOL    HW2 2649   2.782   6.822   6.624
  584SOL     OW 2650   1.554   5.152   4.662
  584SOL    HW1 2651   1.456   5.139   4.651
  584SOL    HW2 2652   1.601   5.117   4.580
  585SOL     OW 2653   5.274   1.823   5.307
  585SOL    HW1 2654   5.300   1.898   5.368
  585SOL    HW2 2655   5.353   1.797   5.251
  586SOL     OW 2656   3.138   5.512   1.240
  586SOL    HW1 2657   3.089   5.495   1.325
  586SOL    HW2 2658   3.121   5.437   1.176
  587SOL     OW 2659   2.466   3.017   6.278
  587SOL    HW1 2660   2.451   3.006   6.180
  587SOL    HW2 2661   2.377   3.018   6.325
  588SOL     OW 2662   1.836   0.249   2.012
  588SOL    HW1 2663   1.796   0.168   1.970
  588SOL    HW2 2664   1.935   0.239   2.019
  589SOL     OW 2665   4.913   5.308   1.710
  589SOL    HW1 2666   4.916   5.210   1.729
  589SOL    HW2 2667   5.006   5.344   1.709
  590SOL     OW 2668   0.204   4.048   1.927
  590SOL    HW1 2669   0.242   4.087   1.842
  590SOL    HW2 2670   0.260   3.971   1.956
  591SOL     OW 2671   2.550   0.143   2.840
  591SOL    HW1 2672   2.649   0.152   2.850
  591SOL    HW2 2673   2.521   0.185   2.754
  592SOL     OW 2674   5.093   0.436   6.443
  592SOL    HW1 2675   5.073   0.425   6.346
  592SOL    HW2 2676   5.161   0.368   6.471
  593SOL     OW 2677   0.253   0.758   4.691
  593SOL    HW1 2678   0.332   0.701   4.711
  593SOL    HW2 2679   0.172   0.700   4.681
  594SOL     OW 2680   5.313   2.655   1.483
  594SOL    HW1 2681   5.227   2.625   1.525
  594SOL    HW2 2682   5.374   2.577   1.472
  595SOL     OW 2683   2.905   6.908   4.015
  595SOL    HW1 2684   2.866   6.999   4.008
  595SOL    HW2 2685   2.991   6.912   4.067
  596SOL     OW 2686   0.690   4.420   2.347
  596SOL    HW1 2687   0.720   4.424   2.252
  596SOL    HW2 2688   0.767   4.389   2.404
  597SOL     OW 2689   4.670   2.034   5.408
  597SOL    HW1 2690   4.688   1.937   5.422
  597SOL    HW2 2691   4.755   2.086   5.419
  598SOL     OW 2692   3.588   3.608   1.655
  598SOL    HW1 2693   3.610   3.695   1.698
  598SOL    HW2 2694   3.660   3.541   1.674
  599SOL     OW 2695   5.807   5.893   3.570
  599SOL    HW1 2696   5.878   5.956   3.539
  599SOL    HW2 2697   5.734   5.888   3.501
  600SOL     OW 2698   2.755   2.217   0.186
  600SOL    HW1 2699   2.842   2.173   0.208
  600SOL    HW2 2700   2.715   2.255   0.270
  601SOL     OW 2701   1.947   4.875   2.040
  601SOL    HW1 2702   1.938   4.777   2.026
  601SOL    HW2 2703   1.990   4.893   2.128
  602SOL     OW 2704   0.241   0.975   2.718
  602SOL    HW1 2705   0.149   0.978   2.678
  602SOL    HW2 2706   0.307   1.010   2.653
  603SOL     OW 2707   4.442   1.518   3.007
  603SOL    HW1 2708   4.447   1.446   2.938
  603SOL    HW2 2709   4.468   1.482   3.096
  604SOL     OW 2710   1.161   3.187   5.655
  604SOL    HW1 2711   1.259   3.190   5.639
  604SOL    HW2 2712   1.135   3.260   5.718
  605SOL     OW 2713   5.352   0.650   4.582
  605SOL    HW1 2714   5.407   0.671   4.502
  605SOL    HW2 2715   5.272   0.709   4.585
  606SOL     OW 2716   2.034   6.943   2.293
  606SOL    HW1 2717   2.043   6.844   2.280
  606SOL    HW2 2718   2.106   6.989   2.241
  607SOL     OW 2719   3.457   0.461   4.500
  607SOL    HW1 2720   3.532   0.525   4.519
  607SOL    HW2 2721   3.460   0.386   4.567
  608SOL     OW 2722   5.981   2.571   0.977
  608SOL    HW1 2723   6.020   2.599   0.889
  608SOL    HW2 2724   6.049   2.518   1.027
  609SOL     OW 2725   3.539   4.247   5.112
  609SOL    HW1 2726   3.494   4.226   5.198
  609SOL    HW2 2727   3.591   4.332   5.121
  610SOL     OW 2728   6.375   2.100   4.704
  610SOL    HW1 2729   6.283   2.105   4.743
  610SOL    HW2 2730   6.391   2.180   4.646
  611SOL     OW 2731   6.515   6.722   0.364
  611SOL    HW1 2732   6.487   6.711   0.269
  611SOL    HW2 2733   6.612   6.699   0.373
  612SOL     OW 2734   1.677   4.547   6.688
  612SOL    HW1 2735   1.652   4.470   6.629
  612SOL    HW2 2736   1.609   4.619   6.680
  613SOL     OW 2737   3.601   1.225   6.905
  613SOL    HW1 2738   3.634   1.290   6.836
  613SOL    HW2 2739   3.668   1.152   6.917
  614SOL     OW 2740   5.070   2.356   0.626
  614SOL    HW1 2741   5.089   2.263   0.595
  614SOL    HW2 2742   5.151   2.394   0.670
  615SOL     OW 2743   5.910   6.020   0.753
  615SOL    HW1 2744   5.844   6.092   0.730
  615SOL    HW2 2745   5.923   5.959   0.674
  616SOL     OW 2746   4.873   1.481   4.911
  616SOL    HW1 2747   4.932   1.477   4.991
  616SOL    HW2 2748   4.781   1.448   4.935
  617SOL     OW 2749   6.218   0.053   5.027
  617SOL    HW1 2750   6.164   0.101   5.096
  617SOL    HW2 2751   6.156   0.009   4.962
  618SOL     OW 2752   5.162   4.960   0.707
  618SOL    HW1 2753   5.063   4.972   0.697
  618SOL    HW2 2754   5.181   4.868   0.742
  619SOL     OW 2755   1.737   0.032   6.811
  619SOL    HW1 2756   1.818   0.089   6.830
  619SOL    HW2 2757   1.750   6.959   6.851
  620SOL     OW 2758   4.575   1.824   1.749
  620SOL    HW1 2759   4.526   1.904   1.782
  620SOL    HW2 2760   4.661   1.852   1.706
  621SOL     OW 2761   2.066   6.531   6.673
  621SOL    HW1 2762   2.124   6.588   6.731
  621SOL    HW2 2763   2.085   6.549   6.577
  622SOL     OW 2764   0.493   3.424   5.957
  622SOL    HW1 2765   0.540   3.340   5.984
  622SOL    HW2 2766   0.462   3.416   5.862
  623SOL     OW 2767   6.446   1.778   2.934
  623SOL    HW1 2768   6.478   1.704   2.874
  623SOL    HW2 2769   6.436   1.862   2.880
  624SOL     OW 2770   5.981   0.974   6.140
  624SOL    HW1 2771   6.046   1.040   6.179
  624SOL    HW2 2772   5.928   0.932   6.214
  625SOL     OW 2773   2.943   1.143   1.420
  625SOL    HW1 2774   2.893   1.224   1.449
  625SOL    HW2 2775   2.903   1.062   1.464
  626SOL     OW 2776   0.094   6.449   3.843
  626SOL    HW1 2777   0.000   6.452   3.878
  626SOL    HW2 2778   0.093   6.432   3.745
  627SOL     OW 2779   6.689   4.481   6.174
  627SOL    HW1 2780   6.625   4.417   6.132
  627SOL    HW2 2781   6.768   4.431   6.209
  628SOL     OW 2782   3.944   4.278   6.669
  628SOL    HW1 2783   4.007   4.253   6.595
  628SOL    HW2 2784   3.912   4.196   6.716
  629SOL     OW 2785   2.305   6.861   6.626
  629SOL    HW1 2786   2.230   6.918   6.595
  629SOL    HW2 2787   2.277   6.811   6.708
  630SOL     OW 2788   6.186   2.173   0.665
  630SOL    HW1 2789   6.192   2.096   0.729
  630SOL    HW2 2790   6.275   2.218   0.657
  631SOL     OW 2791   1.802   3.437   2.261
  631SOL    HW1 2792   1.894   3.473   2.247
  631SOL    HW2 2793   1.735   3.505   2.233
  632SOL     OW 2794   3.625   4.689   1.381
  632SOL    HW1 2795   3.673   4.745   1.449
  632SOL    HW2 2796   3.574   4.749   1.319
  633SOL     OW 2797   1.284   6.085   6.727
  633SOL    HW1 2798   1.332   6.007   6.766
  633SOL    HW2 2799   1.302   6.091   6.629
  634SOL     OW 2800   2.172   3.479   5.435
  634SOL    HW1 2801   2.188   3.471   5.337
  634SOL    HW2 2802   2.248   3.439   5.485
  635SOL     OW 2803   6.605   6.480   6.529
  635SOL    HW1 2804   6.544   6.491   6.607
  635SOL    HW2 2805   6.700   6.482   6.559
  636SOL     OW 2806   1.812   1.760   4.705
  636SOL    HW1 2807   1.785   1.752   4.801
  636SOL    HW2 2808   1.894   1.816   4.697
  637SOL     OW 2809   6.619   1.710   1.997
  637SOL    HW1 2810   6.635   1.808   2.003
  637SOL    HW2 2811   6.522   1.691   2.008
  638SOL     OW 2812   0.090   3.634   5.491
  638SOL    HW1 2813   0.078   3.537   5.470
  638SOL    HW2 2814   0.136   3.680   5.415
  639SOL     OW 2815   5.574   3.340   0.992
  639SOL    HW1 2816   5.674   3.340   0.984
  639SOL    HW2 2817   5.545   3.415   1.052
  640SOL     OW 2818   6.529   3.570   2.612
  640SOL    HW1 2819   6.502   3.640   2.678
  640SOL    HW2 2820   6.453   3.551   2.551
  641SOL     OW 2821   2.411   5.899   4.489
  641SOL    HW1 2822   2.374   5.844   4.564
  641SOL    HW2 2823   2.439   5.840   4.414
  642SOL     OW 2824   0.999   5.164   4.409
  642SOL    HW1 2825   0.923   5.215   4.449
  642SOL    HW2 2826   0.967   5.073   4.382
  643SOL     OW 2827   4.400   4.649   0.514
  643SOL    HW1 2828   4.369   4.554   0.513
  643SOL    HW2 2829   4.497   4.652   0.492
  644SOL     OW 2830   5.806   0.993   4.515
  644SOL    HW1 2831   5.755   0.995   4.602
  644SOL    HW2 2832   5.775   0.915   4.461
  645SOL     OW 2833   3.926   6.117   2.253
  645SOL    HW1 2834   3.925   6.071   2.164
  645SOL    HW2 2835   4.008   6.089   2.303
  646SOL     OW 2836   3.533   1.673   5.383
  646SOL    HW1 2837   3.456   1.628   5.337
  646SOL    HW2 2838   3.584   1.728   5.316
  647SOL     OW 2839   2.278   2.371   6.546
  647SOL    HW1 2840   2.229   2.458   6.541
  647SOL    HW2 2841   2.277   2.326   6.457
  648SOL     OW 2842   5.221   2.108   3.866
  648SOL    HW1 2843   5.210   2.193   3.815
  648SOL    HW2 2844   5.199   2.030   3.808
  649SOL     OW 2845   4.079   5.743   0.838
  649SOL    HW1 2846   4.090   5.756   0.937
  649SOL    HW2 2847   3.984   5.718   0.818
  650SOL     OW 2848   2.659   3.821   1.205
  650SOL    HW1 2849   2.746   3.811   1.156
  650SOL    HW2 2850   2.597   3.748   1.178
  651SOL     OW 2851   0.201   1.782   3.190
  651SOL    HW1 2852   0.175   1.686   3.178
  651SOL    HW2 2853   0.200   1.805   3.287
  652SOL     OW 2854   3.812   6.039   0.777
  652SOL    HW1 2855   3.806   5.972   0.703
  652SOL    HW2 2856   3.817   5.992   0.865
  653SOL     OW 2857   1.542   0.167   3.038
  653SOL    HW1 2858   1.637   0.194   3.051
  653SOL    HW2 2859   1.505   0.209   2.955
  654SOL     OW 2860   1.395   0.009   6.204
  654SOL    HW1 2861   1.430   0.095   6.242
  654SOL    HW2 2862   1.314   6.998   6.255
  655SOL     OW 2863   1.090   3.846   1.918
  655SOL    HW1 2864   1.011   3.790   1.945
  655SOL    HW2 2865   1.171   3.813   1.966
  656SOL     OW 2866   2.255   0.605   0.095
  656SOL    HW1 2867   2.294   0.512   0.093
  656SOL    HW2 2868   2.237   0.632   0.189
  657SOL     OW 2869   3.624   3.510   4.339
  657SOL    HW1 2870   3.638   3.419   4.378
  657SOL    HW2 2871   3.608   3.502   4.241
  658SOL     OW 2872   2.384   0.598   5.219
  658SOL    HW1 2873   2.431   0.635   5.299
  658SOL    HW2 2874   2.364   0.672   5.155
  659SOL     OW 2875   1.499   4.919   6.912
  659SOL    HW1 2876   1.401   4.929   6.932
  659SOL    HW2 2877   1.550   4.992   6.957
  660SOL     OW 2878   5.733   3.687   2.257
  660SOL    HW1 2879   5.742   3.755   2.329
  660SOL    HW2 2880   5.646   3.699   2.209
  661SOL     OW 2881   4.231   5.839   4.398
  661SOL    HW1 2882   4.228   5.923   4.344
  661SOL    HW2 2883   4.274   5.766   4.344
  662SOL     OW 2884   6.858   3.294   6.802
  662SOL    HW1 2885   6.818   3.382   6.826
  662SOL    HW2 2886   6.941   3.278   6.856
  663SOL     OW 2887   1.385   4.142   6.083
  663SOL    HW1 2888   1.336   4.226   6.064
  663SOL    HW2 2889   1.363   4.073   6.014
  664SOL     OW 2890   2.115   6.956   5.799
  664SOL    HW1 2891   2.093   6.950   5.896
  664SOL    HW2 2892   2.051   6.900   5.747
  665SOL     OW 2893   2.056   4.383   2.824
  665SOL    HW1 2894   2.012   4.430   2.901
  665SOL    HW2 2895   2.111   4.307   2.858
  666SOL     OW 2896   2.999   0.544   0.198
  666SOL    HW1 2897   3.036   0.493   0.276
  666SOL    HW2 2898   2.930   0.609   0.231
  667SOL     OW 2899   1.600   3.179   2.058
  667SOL    HW1 2900   1.540   3.099   2.065
  667SOL    HW2 2901   1.644   3.195   2.147
  668SOL     OW 2902   5.124   0.220   0.792
  668SOL    HW1 2903   5.060   0.296   0.806
  668SOL    HW2 2904   5.095   0.142   0.848
  669SOL     OW 2905   6.494   5.765   2.620
  669SOL    HW1 2906   6.552   5.828   2.671
  669SOL    HW2 2907   6.399   5.773   2.651
  670SOL     OW 2908   3.230   4.116   3.128
  670SOL    HW1 2909   3.248   4.028   3.084
  670SOL    HW2 2910   3.316   4.168   3.135
  671SOL     OW 2911   1.506   0.194   6.861
  671SOL    HW1 2912   1.599   0.168   6.834
  671SOL    HW2 2913   1.470   0.128   6.926
  672SOL     OW 2914   0.727   2.129   3.104
  672SOL    HW1 2915   0.751   2.188   3.027
  672SOL    HW2 2916   0.664   2.178   3.164
  673SOL     OW 2917   5.103   0.791   6.757
  673SOL    HW1 2918   5.039   0.747   6.694
  673SOL    HW2 2919   5.147   0.721   6.813
  674SOL     OW 2920   6.803   2.435   4.539
  674SOL    HW1 2921   6.857   2.351   4.534
  674SOL    HW2 2922   6.821   2.482   4.625
  675SOL     OW 2923   5.874   0.051   3.736
  675SOL    HW1 2924   5.868   0.107   3.652
  675SOL    HW2 2925   5.790   7.016   3.747
  676SOL     OW 2926   3.329   4.943   5.238
  676SOL    HW1 2927   3.362   5.031   5.271
  676SOL    HW2 2928   3.303   4.951   5.141
  677SOL     OW 2929   4.919   6.615   0.518
  677SOL    HW1 2930   4.954   6.589   0.427
  677SOL    HW2 2931   4.992   6.658   0.570
  678SOL     OW 2932   2.357   0.706   6.415
  678SOL    HW1 2933   2.328   0.714   6.510
  678SOL    HW2 2934   2.439   0.761   6.401
  679SOL     OW 2935   6.841   0.298   2.629
  679SOL    HW1 2936   6.938   0.303   2.608
  679SOL    HW2 2937   6.800   0.219   2.583
  680SOL     OW 2938   5.985   3.286   4.293
  680SOL    HW1 2939   6.059   3.351   4.281
  680SOL    HW2 2940   5.973   3.233   4.210
  681SOL     OW 2941   1.180   5.332   3.235
  681SOL    HW1 2942   1.172   5.400   3.163
  681SOL    HW2 2943   1.275   5.300   3.240
  682SOL     OW 2944   0.415   0.104   5.978
  682SOL    HW1 2945   0.428   0.008   5.954
  682SOL    HW2 2946   0.471   0.127   6.057
  683SOL     OW 2947   4.995   1.242   1.501
  683SOL    HW1 2948   4.991   1.297   1.585
  683SOL    HW2 2949   5.028   1.150   1.522
  684SOL     OW 2950   6.500   5.925   6.106
  684SOL    HW1 2951   6.549   6.012   6.100
  684SOL    HW2 2952   6.431   5.921   6.034
  685SOL     OW 2953   5.882   0.547   4.771
  685SOL    HW1 2954   5.916   0.631   4.729
  685SOL    HW2 2955   5.802   0.514   4.720
  686SOL     OW 2956   5.719   4.457   1.190
  686SOL    HW1 2957   5.700   4.367   1.229
  686SOL    HW2 2958   5.816   4.479   1.201
  687SOL     OW 2959   5.360   2.579   6.894
  687SOL    HW1 2960   5.299   2.507   6.926
  687SOL    HW2 2961   5.347   2.661   6.949
  688SOL     OW 2962   6.221   2.697   5.179
  688SOL    HW1 2963   6.260   2.605   5.172
  688SOL    HW2 2964   6.282   2.762   5.135
  689SOL     OW 2965   5.233   4.961   4.437
  689SOL    HW1 2966   5.305   4.956   4.505
  689SOL    HW2 2967   5.267   4.928   4.349
  690SOL     OW 2968   6.943   2.203   4.533
  690SOL    HW1 2969   6.873   2.133   4.533
  690SOL    HW2 2970   0.013   2.163   4.559
  691SOL     OW 2971   0.796   2.929   6.688
  691SOL    HW1 2972   0.827   3.021   6.713
  691SOL    HW2 2973   0.696   2.930   6.679
  692SOL     OW 2974   2.294   0.195   3.953
  692SOL    HW1 2975   2.243   0.132   4.012
  692SOL    HW2 2976   2.275   0.173   3.857
  693SOL     OW 2977   5.902   1.158   3.382
  693SOL    HW1 2978   5.961   1.122   3.454
  693SOL    HW2 2979   5.915   1.257   3.374
  694SOL     OW 2980   1.438   0.655   2.757
  694SOL    HW1 2981   1.397   0.647   2.667
  694SOL    HW2 2982   1.368   0.643   2.828
  695SOL     OW 2983   4.732   5.550   6.443
  695SOL    HW1 2984   4.822   5.515   6.421
  695SOL    HW2 2985   4.663   5.480   6.425
  696SOL     OW 2986   5.401   5.768   2.382
  696SOL    HW1 2987   5.354   5.818   2.455
  696SOL    HW2 2988   5.441   5.833   2.318
  697SOL     OW 2989   1.131   3.892   2.942
  697SOL    HW1 2990   1.202   3.821   2.935
  697SOL    HW2 2991   1.155   3.969   2.883
  698SOL     OW 2992   4.920   6.435   4.602
  698SOL    HW1 2993   4.874   6.349   4.621
  698SOL    HW2 2994   4.919   6.493   4.684
  699SOL     OW 2995   2.140   5.378   6.136
  699SOL    HW1 2996   2.118   5.372   6.039
  699SOL    HW2 2997   2.227   5.427   6.148
  700SOL     OW 2998   2.045   2.121   4.758
  700SOL    HW1 2999   2.046   2.024   4.732
  700SOL    HW2 3000   1.976   2.169   4.703
  701SOL     OW 3001   0.507   4.720   6.159
  701SOL    HW1 3002   0.417   4.736   6.120
  701SOL    HW2 3003   0.532   4.796   6.218
  702SOL     OW 3004   5.886   6.326   5.253
  702SOL    HW1 3005   5.927   6.257   5.312
  702SOL    HW2 3006   5.894   6.297   5.157
  703SOL     OW 3007   5.882   3.585   6.073
  703SOL    HW1 3008   5.931   3.504   6.103
  703SOL    HW2 3009   5.847   3.571   5.980
  704SOL     OW 3010   2.225   0.057   2.158
  704SOL    HW1 3011   2.287   0.135   2.145
  704SOL    HW2 3012   2.259   6.997   2.105
  705SOL     OW 3013   1.261   1.725   4.317
  705SOL    HW1 3014   1.199   1.772   4.380
  705SOL    HW2 3015   1.230   1.739   4.223
  706SOL     OW 3016   5.795   3.562   3.581
  706SOL    HW1 3017   5.760   3.497   3.513
  706SOL    HW2 3018   5.847   3.634   3.535
  707SOL     OW 3019   4.943   2.872   3.038
  707SOL    HW1 3020   5.028   2.923   3.020
  707SOL    HW2 3021   4.884   2.878   2.957
  708SOL     OW 3022   4.799   1.200   1.913
  708SOL    HW1 3023   4.862   1.138   1.960
  708SOL    HW2 3024   4.851   1.270   1.863
  709SOL     OW 3025   1.649   4.172   6.712
  709SOL    HW1 3026   1.675   4.191   6.617
  709SOL    HW2 3027   1.572   4.229   6.737
  710SOL     OW 3028   3.608   3.463   3.403
  710SOL    HW1 3029   3.566   3.463   3.494
  710SOL    HW2 3030   3.559   3.527   3.344
  711SOL     OW 3031   1.418   0.864   3.859
  711SOL    HW1 3032   1.325   0.899   3.870
  711SOL    HW2 3033   1.414   0.768   3.830
  712SOL     OW 3034   6.863   4.779   3.539
  712SOL    HW1 3035   6.779   4.806   3.585
  712SOL    HW2 3036   6.919   4.723   3.601
  713SOL     OW 3037   2.414   3.650   5.464
  713SOL    HW1 3038   2.325   3.616   5.435
  713SOL    HW2 3039   2.422   3.747   5.443
  714SOL     OW 3040   4.585   4.973   4.443
  714SOL    HW1 3041   4.563   4.916   4.364
  714SOL    HW2 3042   4.515   4.962   4.513
  715SOL     OW 3043   6.787   0.233   6.132
  715SOL    HW1 3044   6.750   0.259   6.221
  715SOL    HW2 3045   6.869   0.177   6.145
  716SOL     OW 3046   6.613   5.814   6.573
  716SOL    HW1 3047   6.616   5.717   6.550
  716SOL    HW2 3048   6.548   5.860   6.512
  717SOL     OW 3049   6.080   2.503   6.059
  717SOL    HW1 3050   6.048   2.445   6.134
  717SOL    HW2 3051   6.050   2.597   6.076
  718SOL     OW 3052   3.332   3.021   0.715
  718SOL    HW1 3053   3.411   3.058   0.667
  718SOL    HW2 3054   3.285   3.095   0.764
  719SOL     OW 3055   6.179   4.064   6.375
  719SOL    HW1 3056   6.172   4.135   6.305
  719SOL    HW2 3057   6.120   4.087   6.452
  720SOL     OW 3058   3.864   0.855   5.785
  720SOL    HW1 3059   3.839   0.777   5.729
  720SOL    HW2 3060   3.867   0.827   5.881
  721SOL     OW 3061   1.392   6.800   5.488
  721SOL    HW1 3062   1.449   6.876   5.456
  721SOL    HW2 3063   1.361   6.818   5.581
  722SOL     OW 3064   4.584   1.146   5.470
  722SOL    HW1 3065   4.683   1.138   5.455
  722SOL    HW2 3066   4.557   1.242   5.457
  723SOL     OW 3067   0.241   3.633   1.743
  723SOL    HW1 3068   0.169   3.697   1.717
  723SOL    HW2 3069   0.317   3.683   1.783
  724SOL     OW 3070   0.441   2.555   4.375
  724SOL    HW1 3071   0.425   2.530   4.471
  724SOL    HW2 3072   0.534   2.529   4.349
  725SOL     OW 3073   2.376   5.103   2.331
  725SOL    HW1 3074   2.361   5.058   2.419
  725SOL    HW2 3075   2.318   5.060   2.262
  726SOL     OW 3076   5.689   6.612   6.242
  726SOL    HW1 3077   5.759   6.669   6.284
  726SOL    HW2 3078   5.719   6.516   6.242
  727SOL     OW 3079   1.940   4.972   4.575
  727SOL    HW1 3080   1.847   4.987   4.609
  727SOL    HW2 3081   1.958   4.874   4.568
  728SOL     OW 3082   6.363   2.094   6.151
  728SOL    HW1 3083   6.358   1.995   6.158
  728SOL    HW2 3084   6.453   2.121   6.117
  729SOL     OW 3085   4.013   1.568   0.674
  729SOL    HW1 3086   4.076   1.546   0.749
  729SOL    HW2 3087   3.959   1.648   0.698
  730SOL     OW 3088   6.171   1.142   3.833
  730SOL    HW1 3089   6.205   1.224   3.880
  730SOL    HW2 3090   6.126   1.082   3.900
  731SOL     OW 3091   0.594   2.163   3.882
  731SOL    HW1 3092   0.551   2.214   3.807
  731SOL    HW2 3093   0.526   2.142   3.952
  732SOL     OW 3094   0.295   3.691   3.602
  732SOL    HW1 3095   0.340   3.636   3.532
  732SOL    HW2 3096   0.364   3.739   3.656
  733SOL     OW 3097   4.861   4.476   4.753
  733SOL    HW1 3098   4.903   4.502   4.666
  733SOL    HW2 3099   4.779   4.421   4.736
  734SOL     OW 3100   1.043   6.166   6.911
  734SOL    HW1 3101   1.125   6.169   6.855
  734SOL    HW2 3102   1.037   6.077   6.957
  735SOL     OW 3103   3.641   4.264   0.004
  735SOL    HW1 3104   3.610   4.248   6.928
  735SOL    HW2 3105   3.562   4.276   0.064
  736SOL     OW 3106   6.067   1.041   2.437
  736SOL    HW1 3107   6.116   1.123   2.466
  736SOL    HW2 3108   6.101   1.012   2.348
  737SOL     OW 3109   5.197   3.715   0.095
  737SOL    HW1 3110   5.191   3.802   0.145
  737SOL    HW2 3111   5.144   3.646   0.142
  738SOL     OW 3112   6.504   3.647   4.235
  738SOL    HW1 3113   6.599   3.637   4.263
  738SOL    HW2 3114   6.457   3.559   4.246
  739SOL     OW 3115   4.813   6.227   6.158
  739SOL    HW1 3116   4.881   6.300   6.160
  739SOL    HW2 3117   4.793   6.197   6.251
  740SOL     OW 3118   5.938   6.772   0.597
  740SOL    HW1 3119   5.914   6.724   0.681
  740SOL    HW2 3120   5.978   6.861   0.620
  741SOL     OW 3121   1.774   0.159   3.741
  741SOL    HW1 3122   1.770   0.135   3.644
  741SOL    HW2 3123   1.849   0.222   3.757
  742SOL     OW 3124   1.304   6.219   2.613
  742SOL    HW1 3125   1.322   6.234   2.516
  742SOL    HW2 3126   1.205   6.211   2.628
  743SOL     OW 3127   1.731   3.243   2.445
  743SOL    HW1 3128   1.791   3.244   2.525
  743SOL    HW2 3129   1.749   3.323   2.389
  744SOL     OW 3130   6.923   5.282   0.546
  744SOL    HW1 3131   6.835   5.325   0.527
  744SOL    HW2 3132   6.922   5.188   0.514
  745SOL     OW 3133   1.297   6.611   1.629
  745SOL    HW1 3134   1.241   6.538   1.591
  745SOL    HW2 3135   1.299   6.688   1.566
  746SOL     OW 3136   2.973   6.743   3.249
  746SOL    HW1 3137   3.044   6.774   3.312
  746SOL    HW2 3138   2.899   6.811   3.246
  747SOL     OW 3139   6.875   4.226   0.601
  747SOL    HW1 3140   6.921   4.219   0.690
  747SOL    HW2 3141   6.811   4.150   0.590
  748SOL     OW 3142   3.334   2.983   3.482
  748SOL    HW1 3143   3.429   2.971   3.454
  748SOL    HW2 3144   3.274   2.974   3.402
  749SOL     OW 3145   5.304   3.032   5.713
  749SOL    HW1 3146   5.378   2.989   5.764
  749SOL    HW2 3147   5.257   2.963   5.657
  750SOL     OW 3148   2.888   3.250   2.088
  750SOL    HW1 3149   2.886   3.255   1.988
  750SOL    HW2 3150   2.930   3.164   2.116
  751SOL     OW 3151   5.749   1.273   0.465
  751SOL    HW1 3152   5.704   1.185   0.478
  751SOL    HW2 3153   5.756   1.321   0.552
  752SOL     OW 3154   4.469   0.595   2.193
  752SOL    HW1 3155   4.482   0.657   2.271
  752SOL    HW2 3156   4.379   0.610   2.152
  753SOL     OW 3157   3.686   1.648   1.730
  753SOL    HW1 3158   3.626   1.719   1.694
  753SOL    HW2 3159   3.634   1.590   1.793
  754SOL     OW 3160   5.133   5.137   6.544
  754SOL    HW1 3161   5.142   5.043   6.576
  754SOL    HW2 3162   5.063   5.184   6.597
  755SOL     OW 3163   5.895   4.936   2.319
  755SOL    HW1 3164   5.994   4.948   2.309
  755SOL    HW2 3165   5.847   4.999   2.259
  756SOL     OW 3166   1.884   6.824   3.969
  756SOL    HW1 3167   1.923   6.733   3.958
  756SOL    HW2 3168   1.958   6.892   3.968
  757SOL     OW 3169   0.247   0.837   4.258
  757SOL    HW1 3170   0.247   0.913   4.193
  757SOL    HW2 3171   0.153   0.808   4.274
  758SOL     OW 3172   4.228   1.690   0.506
  758SOL    HW1 3173   4.232   1.714   0.603
  758SOL    HW2 3174   4.183   1.763   0.455
  759SOL     OW 3175   2.184   0.431   1.579
  759SOL    HW1 3176   2.162   0.334   1.583
  759SOL    HW2 3177   2.155   0.476   1.664
  760SOL     OW 3178   4.651   1.675   6.486
  760SOL    HW1 3179   4.554   1.651   6.478
  760SOL    HW2 3180   4.688   1.635   6.570
  761SOL     OW 3181   5.343   0.714   6.943
  761SOL    HW1 3182   5.391   0.637   6.903
  761SOL    HW2 3183   5.405   0.767   7.000
  762SOL     OW 3184   2.545   4.595   4.610
  762SOL    HW1 3185   2.503   4.505   4.602
  762SOL    HW2 3186   2.572   4.611   4.705
  763SOL     OW 3187   0.412   4.795   0.845
  763SOL    HW1 3188   0.324   4.838   0.829
  763SOL    HW2 3189   0.413   4.753   0.936
  764SOL     OW 3190   6.169   1.269   2.546
  764SOL    HW1 3191   6.269   1.272   2.544
  764SOL    HW2 3192   6.132   1.328   2.475
  765SOL     OW 3193   1.145   6.540   2.945
  765SOL    HW1 3194   1.207   6.613   2.914
  765SOL    HW2 3195   1.073   6.527   2.877
  766SOL     OW 3196   0.331   5.934   0.162
  766SOL    HW1 3197   0.382   5.856   0.128
  766SOL    HW2 3198   0.248   5.947   0.107
  767SOL     OW 3199   5.808   6.300   1.499
  767SOL    HW1 3200   5.749   6.221   1.518
  767SOL    HW2 3201   5.813   6.358   1.580
  768SOL     OW 3202   2.539   6.445   4.121
  768SOL    HW1 3203   2.558   6.535   4.080
  768SOL    HW2 3204   2.585   6.439   4.210
  769SOL     OW 3205   3.093   0.459   0.468
  769SOL    HW1 3206   3.159   0.521   0.510
  769SOL    HW2 3207   3.140   0.396   0.406
  770SOL     OW 3208   3.464   5.471   5.057
  770SOL    HW1 3209   3.464   5.571   5.048
  770SOL    HW2 3210   3.549   5.442   5.101
  771SOL     OW 3211   0.358   6.716   4.780
  771SOL    HW1 3212   0.458   6.715   4.783
  771SOL    HW2 3213   0.322   6.709   4.872
  772SOL     OW 3214   0.534   3.016   6.620
  772SOL    HW1 3215   0.529   3.082   6.546
  772SOL    HW2 3216   0.485   3.052   6.700
  773SOL     OW 3217   6.585   3.467   2.014
  773SOL    HW1 3218   6.550   3.518   1.935
  773SOL    HW2 3219   6.680   3.442   1.997
  774SOL     OW 3220   1.226   1.178   1.978
  774SOL    HW1 3221   1.145   1.194   2.035
  774SOL    HW2 3222   1.197   1.139   1.890
  775SOL     OW 3223   1.892   2.693   4.330
  775SOL    HW1 3224   1.852   2.733   4.247
  775SOL    HW2 3225   1.819   2.673   4.395
  776SOL     OW 3226   2.578   1.011   5.556
  776SOL    HW1 3227   2.660   1.060   5.525
  776SOL    HW2 3228   2.510   1.078   5.586
  777SOL     OW 3229   3.899   0.334   6.556
  777SOL    HW1 3230   3.991   0.335   6.516
  777SOL    HW2 3231   3.906   0.340   6.655
  778SOL     OW 3232   4.660   6.085   5.109
  778SOL    HW1 3233   4.594   6.014   5.083
  778SOL    HW2 3234   4.740   6.080   5.048
  779SOL     OW 3235   0.419   0.383   2.535
  779SOL    HW1 3236   0.341   0.436   2.567
  779SOL    HW2 3237   0.416   0.291   2.575
  780SOL     OW 3238   5.671   2.313   5.079
  780SOL    HW1 3239   5.588   2.273   5.118
  780SOL    HW2 3240   5.708   2.380   5.143
  781SOL     OW 3241   1.651   4.159   0.163
  781SOL    HW1 3242   1.677   4.255   0.150
  781SOL    HW2 3243   1.574   4.137   0.103
  782SOL     OW 3244   0.154   5.614   0.456
  782SOL    HW1 3245   0.189   5.579   0.543
  782SOL    HW2 3246   0.121   5.537   0.400
  783SOL     OW 3247   1.820   5.435   0.673
  783SOL    HW1 3248   1.849   5.501   0.742
  783SOL    HW2 3249   1.884   5.437   0.596
  784SOL     OW 3250   5.711   5.525   3.175
  784SOL    HW1 3251   5.655   5.528   3.258
  784SOL    HW2 3252   5.749   5.433   3.165
  785SOL     OW 3253   6.125   2.692   3.311
  785SOL    HW1 3254   6.207   2.743   3.337
  785SOL    HW2 3255   6.045   2.730   3.358
  786SOL     OW 3256   6.049   6.522   1.628
  786SOL    HW1 3257   6.070   6.512   1.531
  786SOL    HW2 3258   6.035   6.432   1.669
  787SOL     OW 3259   4.109   1.308   6.740
  787SOL    HW1 3260   4.080   1.375   6.672
  787SOL    HW2 3261   4.156   1.232   6.695
  788SOL     OW 3262   0.124   4.351   3.260
  788SOL    HW1 3263   0.036   4.366   3.216
  788SOL    HW2 3264   0.176   4.436   3.260
  789SOL     OW 3265   6.088   3.129   0.519
  789SOL    HW1 3266   6.144   3.049   0.496
  789SOL    HW2 3267   6.013   3.137   0.454
  790SOL     OW 3268   2.751   0.468   4.144
  790SOL    HW1 3269   2.790   0.546   4.194
  790SOL    HW2 3270   2.743   0.390   4.205
  791SOL     OW 3271   3.489   0.985   4.246
  791SOL    HW1 3272   3.536   0.921   4.185
  791SOL    HW2 3273   3.395   0.998   4.216
  792SOL     OW 3274   5.578   0.902   3.797
  792SOL    HW1 3275   5.493   0.932   3.841
  792SOL    HW2 3276   5.569   0.910   3.698
  793SOL     OW 3277   0.204   6.803   6.812
  793SOL    HW1 3278   0.235   6.803   6.717
  793SOL    HW2 3279   0.175   6.711   6.838
  794SOL     OW 3280   3.776   5.162   4.935
  794SOL    HW1 3281   3.813   5.093   4.874
  794SOL    HW2 3282   3.761   5.123   5.025
  795SOL     OW 3283   5.009   5.251   6.774
  795SOL    HW1 3284   5.075   5.324   6.791
  795SOL    HW2 3285   4.916   5.286   6.790
  796SOL     OW 3286   0.921   1.789   5.676
  796SOL    HW1 3287   0.977   1.752   5.750
  796SOL    HW2 3288   0.831   1.814   5.712
  797SOL     OW 3289   5.885   3.000   5.569
  797SOL    HW1 3290   5.875   3.098   5.555
  797SOL    HW2 3291   5.865   2.951   5.485
  798SOL     OW 3292   6.114   0.877   4.450
  798SOL    HW1 3293   6.202   0.874   4.403
  798SOL    HW2 3294   6.055   0.945   4.407
  799SOL     OW 3295   6.747   3.825   3.823
  799SOL    HW1 3296   6.727   3.915   3.783
  799SOL    HW2 3297   6.706   3.819   3.914
  800SOL     OW 3298   0.481   2.493   2.695
  800SOL    HW1 3299   0.399   2.464   2.645
  800SOL    HW2 3300   0.555   2.512   2.630
  801SOL     OW 3301   0.455   3.523   3.454
  801SOL    HW1 3302   0.479   3.449   3.517
  801SOL    HW2 3303   0.538   3.569   3.422
  802SOL     OW 3304   6.641   1.288   0.740
  802SOL    HW1 3305   6.618   1.378   0.779
  802SOL    HW2 3306   6.663   1.225   0.814
  803SOL     OW 3307   2.267   6.872   4.239
  803SOL    HW1 3308   2.299   6.778   4.248
  803SOL    HW2 3309   2.329   6.933   4.287
  804SOL     OW 3310   5.890   5.884   0.510
  804SOL    HW1 3311   5.937   5.806   0.551
  804SOL    HW2 3312   5.877   5.867   0.412
  805SOL     OW 3313   2.294   2.713   6.361
  805SOL    HW1 3314   2.289   2.812   6.366
  805SOL    HW2 3315   2.210   2.677   6.319
  806SOL     OW 3316   4.248   6.325   0.284
  806SOL    HW1 3317   4.289   6.235   0.271
  806SOL    HW2 3318   4.192   6.324   0.367
  807SOL     OW 3319   0.592   0.900   3.450
  807SOL    HW1 3320   0.652   0.876   3.374
  807SOL    HW2 3321   0.498   0.871   3.429
  808SOL     OW 3322   5.526   3.749   4.846
  808SOL    HW1 3323   5.466   3.753   4.766
  808SOL    HW2 3324   5.622   3.748   4.815
  809SOL     OW 3325   6.795   5.382   5.941
  809SOL    HW1 3326   6.800   5.372   5.842
  809SOL    HW2 3327   6.887   5.374   5.980
  810SOL     OW 3328   5.899   4.969   5.960
  810SOL    HW1 3329   5.915   4.917   5.876
  810SOL    HW2 3330   5.840   5.047   5.940
  811SOL     OW 3331   3.044   4.879   2.820
  811SOL    HW1 3332   2.957   4.851   2.780
  811SOL    HW2 3333   3.029   4.954   2.884
  812SOL     OW 3334   0.133   0.477   2.840
  812SOL    HW1 3335   0.231   0.471   2.858
  812SOL    HW2 3336   0.083   0.450   2.922
  813SOL     OW 3337   4.985   5.016   1.699
  813SOL    HW1 3338   4.992   4.937   1.761
  813SOL    HW2 3339   5.048   5.004   1.623
  814SOL     OW 3340   5.337   5.441   1.531
  814SOL    HW1 3341   5.271   5.407   1.598
  814SOL    HW2 3342   5.339   5.380   1.452
  815SOL     OW 3343   1.160   1.300   1.338
  815SOL    HW1 3344   1.087   1.313   1.405
  815SOL    HW2 3345   1.173   1.384   1.285
  816SOL     OW 3346   5.823   0.426   1.524
  816SOL    HW1 3347   5.868   0.512   1.547
  816SOL    HW2 3348   5.850   0.356   1.590
  817SOL     OW 3349   0.675   2.478   1.811
  817SOL    HW1 3350   0.618   2.396   1.813
  817SOL    HW2 3351   0.664   2.528   1.897
  818SOL     OW 3352   5.804   1.177   2.831
  818SOL    HW1 3353   5.706   1.155   2.836
  818SOL    HW2 3354   5.840   1.190   2.923
  819SOL     OW 3355   0.433   5.096   2.834
  819SOL    HW1 3356   0.372   5.130   2.906
  819SOL    HW2 3357   0.380   5.078   2.751
  820SOL     OW 3358   2.516   3.302   5.877
  820SOL    HW1 3359   2.457   3.373   5.838
  820SOL    HW2 3360   2.612   3.323   5.856
  821SOL     OW 3361   1.333   4.171   0.606
  821SOL    HW1 3362   1.361   4.251   0.555
  821SOL    HW2 3363   1.393   4.158   0.685
  822SOL     OW 3364   0.432   3.042   4.957
  822SOL    HW1 3365   0.429   3.142   4.945
  822SOL    HW2 3366   0.393   3.019   5.046
  823SOL     OW 3367   4.118   4.348   1.471
  823SOL    HW1 3368   4.166   4.353   1.559
  823SOL    HW2 3369   4.176   4.387   1.400
  824SOL     OW 3370   6.298   2.854   6.458
  824SOL    HW1 3371   6.261   2.848   6.550
  824SOL    HW2 3372   6.396   2.833   6.459
  825SOL     OW 3373   1.965   3.227   1.414
  825SOL    HW1 3374   2.016   3.142   1.394
  825SOL    HW2 3375   1.886   3.233   1.353
  826SOL     OW 3376   1.105   1.841   6.712
  826SOL    HW1 3377   1.033   1.828   6.780
  826SOL    HW2 3378   1.186   1.880   6.757
  827SOL     OW 3379   3.504   4.505   1.099
  827SOL    HW1 3380   3.450   4.588   1.113
  827SOL    HW2 3381   3.494   4.474   1.004
  828SOL     OW 3382   5.802   1.266   5.334
  828SOL    HW1 3383   5.827   1.228   5.245
  828SOL    HW2 3384   5.798   1.193   5.402
  829SOL     OW 3385   3.764   4.405   5.652
  829SOL    HW1 3386   3.728   4.462   5.579
  829SOL    HW2 3387   3.728   4.436   5.740
  830SOL     OW 3388   4.404   3.468   6.411
  830SOL    HW1 3389   4.427   3.542   6.474
  830SOL    HW2 3390   4.307   3.472   6.389
  831SOL     OW 3391   5.460   1.738   5.136
  831SOL    HW1 3392   5.543   1.763   5.085
  831SOL    HW2 3393   5.380   1.775   5.088
  832SOL     OW 3394   2.467   1.328   6.014
  832SOL    HW1 3395   2.521   1.244   6.011
  832SOL    HW2 3396   2.433   1.343   6.107
  833SOL     OW 3397   1.263   0.273   5.270
  833SOL    HW1 3398   1.318   0.353   5.292
  833SOL    HW2 3399   1.200   0.254   5.346
  834SOL     OW 3400   2.842   4.619   5.670
  834SOL    HW1 3401   2.815   4.533   5.713
  834SOL    HW2 3402   2.838   4.609   5.571
  835SOL     OW 3403   3.788   1.865   2.885
  835SOL    HW1 3404   3.717   1.826   2.944
  835SOL    HW2 3405   3.839   1.935   2.935
  836SOL     OW 3406   2.182   0.890   5.515
  836SOL    HW1 3407   2.248   0.897   5.440
  836SOL    HW2 3408   2.090   0.910   5.481
  837SOL     OW 3409   4.180   1.693   4.413
  837SOL    HW1 3410   4.082   1.677   4.422
  837SOL    HW2 3411   4.202   1.786   4.444
  838SOL     OW 3412   0.483   6.538   2.317
  838SOL    HW1 3413   0.397   6.517   2.363
  838SOL    HW2 3414   0.524   6.619   2.358
  839SOL     OW 3415   2.177   1.812   2.037
  839SOL    HW1 3416   2.157   1.909   2.023
  839SOL    HW2 3417   2.169   1.764   1.949
  840SOL     OW 3418   1.739   0.984   5.735
  840SOL    HW1 3419   1.838   0.979   5.725
  840SOL    HW2 3420   1.705   1.067   5.691
  841SOL     OW 3421   0.320   3.768   0.920
  841SOL    HW1 3422   0.413   3.732   0.930
  841SOL    HW2 3423   0.256   3.692   0.907
  842SOL     OW 3424   3.938   4.955   3.954
  842SOL    HW1 3425   3.997   4.874   3.954
  842SOL    HW2 3426   3.868   4.945   4.024
  843SOL     OW 3427   6.875   3.181   1.432
  843SOL    HW1 3428   6.927   3.255   1.475
  843SOL    HW2 3429   6.826   3.216   1.353
  844SOL     OW 3430   5.586   4.698   6.414
  844SOL    HW1 3431   5.528   4.667   6.489
  844SOL    HW2 3432   5.682   4.680   6.435
  845SOL     OW 3433   1.995   4.911   5.493
  845SOL    HW1 3434   2.001   4.811   5.484
  845SOL    HW2 3435   1.899   4.939   5.491
  846SOL     OW 3436   4.986   1.711   0.325
  846SOL    HW1 3437   5.078   1.687   0.356
  846SOL    HW2 3438   4.918   1.667   0.383
  847SOL     OW 3439   5.010   4.503   1.832
  847SOL    HW1 3440   5.098   4.461   1.808
  847SOL    HW2 3441   4.951   4.435   1.874
  848SOL     OW 3442   5.351   0.378   5.931
  848SOL    HW1 3443   5.326   0.291   5.887
  848SOL    HW2 3444   5.288   0.450   5.901
  849SOL     OW 3445   0.913   6.691   3.855
  849SOL    HW1 3446   1.001   6.651   3.832
  849SOL    HW2 3447   0.924   6.756   3.930
  850SOL     OW 3448   3.063   0.905   3.339
  850SOL    HW1 3449   2.970   0.923   3.368
  850SOL    HW2 3450   3.063   0.865   3.247
  851SOL     OW 3451   6.852   1.179   6.031
  851SOL    HW1 3452   6.940   1.217   6.058
  851SOL    HW2 3453   6.865   1.113   5.958
  852SOL     OW 3454   3.288   5.256   4.915
  852SOL    HW1 3455   3.230   5.199   4.973
  852SOL    HW2 3456   3.350   5.310   4.972
  853SOL     OW 3457   0.863   4.284   0.540
  853SOL    HW1 3458   0.777   4.334   0.551
  853SOL    HW2 3459   0.904   4.308   0.452
  854SOL     OW 3460   6.301   5.191   0.823
  854SOL    HW1 3461   6.332   5.285   0.835
  854SOL    HW2 3462   6.208   5.190   0.785
  855SOL     OW 3463   4.569   0.568   0.327
  855SOL    HW1 3464   4.660   0.533   0.307
  855SOL    HW2 3465   4.562   0.663   0.296
  856SOL     OW 3466   1.376   0.537   5.186
  856SOL    HW1 3467   1.470   0.522   5.155
  856SOL    HW2 3468   1.375   0.607   5.257
  857SOL     OW 3469   6.088   4.263   2.075
  857SOL    HW1 3470   6.098   4.360   2.052
  857SOL    HW2 3471   6.026   4.220   2.009
  858SOL     OW 3472   3.421   3.812   2.028
  858SOL    HW1 3473   3.339   3.790   1.975
  858SOL    HW2 3474   3.399   3.880   2.097
  859SOL     OW 3475   6.819   4.352   0.847
  859SOL    HW1 3476   6.760   4.409   0.904
  859SOL    HW2 3477   6.847   4.403   0.766
  860SOL     OW 3478   1.710   4.311   5.655
  860SOL    HW1 3479   1.664   4.314   5.744
  860SOL    HW2 3480   1.712   4.403   5.616
  861SOL     OW 3481   4.187   4.453   6.130
  861SOL    HW1 3482   4.259   4.385   6.109
  861SOL    HW2 3483   4.170   4.454   6.228
  862SOL     OW 3484   4.432   4.547   3.740
  862SOL    HW1 3485   4.363   4.618   3.755
  862SOL    HW2 3486   4.482   4.566   3.656
  863SOL     OW 3487   6.243   3.033   1.361
  863SOL    HW1 3488   6.258   3.104   1.292
  863SOL    HW2 3489   6.201   2.953   1.318
  864SOL     OW 3490   0.768   6.109   2.077
  864SOL    HW1 3491   0.705   6.128   2.002
  864SOL    HW2 3492   0.850   6.063   2.042
  865SOL     OW 3493   1.556   1.414   3.981
  865SOL    HW1 3494   1.620   1.437   4.055
  865SOL    HW2 3495   1.505   1.495   3.955
  866SOL     OW 3496   4.104   1.032   1.807
  866SOL    HW1 3497   4.146   1.107   1.857
  866SOL    HW2 3498   4.172   0.961   1.788
  867SOL     OW 3499   2.835   1.673   5.917
  867SOL    HW1 3500   2.747   1.628   5.930
  867SOL    HW2 3501   2.852   1.737   5.992
  868SOL     OW 3502   5.017   2.038   3.488
  868SOL    HW1 3503   4.943   1.981   3.453
  868SOL    HW2 3504   4.979   2.108   3.549
  869SOL     OW 3505   6.904   3.908   0.459
  869SOL    HW1 3506   6.950   3.881   0.544
  869SOL    HW2 3507   6.962   3.887   0.381
  870SOL     OW 3508   6.129   1.154   0.442
  870SOL    HW1 3509   6.227   1.165   0.458
  870SOL    HW2 3510   6.082   1.139   0.529
  871SOL     OW 3511   7.012   4.570   0.331
  871SOL    HW1 3512   7.013   4.560   0.232
  871SOL    HW2 3513   6.997   4.481   0.374
  872SOL     OW 3514   0.025   1.545   1.861
  872SOL    HW1 3515   6.949   1.520   1.885
  872SOL    HW2 3516   0.023   1.626   1.802
  873SOL     OW 3517   3.866   0.150   4.316
  873SOL    HW1 3518   3.886   0.246   4.296
  873SOL    HW2 3519   3.947   0.094   4.297
  874SOL     OW 3520   1.114   3.692   6.533
  874SOL    HW1 3521   1.046   3.709   6.462
  874SOL    HW2 3522   1.068   3.674   6.620
  875SOL     OW 3523   5.886   6.399   6.223
  875SOL    HW1 3524   5.916   6.439   6.137
  875SOL    HW2 3525   5.911   6.302   6.225
  876SOL     OW 3526   2.912   2.267   1.709
  876SOL    HW1 3527   2.817   2.250   1.685
  876SOL    HW2 3528   2.916   2.312   1.798
  877SOL     OW 3529   6.015   6.157   6.221
  877SOL    HW1 3530   6.067   6.146   6.306
  877SOL    HW2 3531   5.990   6.067   6.186
  878SOL     OW 3532   4.306   3.613   0.941
  878SOL    HW1 3533   4.395   3.570   0.926
  878SOL    HW2 3534   4.274   3.593   1.034
  879SOL     OW 3535   5.299   3.166   3.468
  879SOL    HW1 3536   5.355   3.249   3.474
  879SOL    HW2 3537   5.206   3.190   3.439
  880SOL     OW 3538   4.436   6.849   1.303
  880SOL    HW1 3539   4.444   6.770   1.365
  880SOL    HW2 3540   4.497   6.922   1.334
  881SOL     OW 3541   5.137   5.593   3.093
  881SOL    HW1 3542   5.060   5.540   3.128
  881SOL    HW2 3543   5.156   5.566   2.998
  882SOL     OW 3544   0.852   2.256   4.895
  882SOL    HW1 3545   0.866   2.281   4.991
  882SOL    HW2 3546   0.827   2.160   4.888
  883SOL     OW 3547   3.218   4.943   0.226
  883SOL    HW1 3548   3.153   4.867   0.227
  883SOL    HW2 3549   3.289   4.923   0.158
  884SOL     OW 3550   3.756   4.828   1.087
  884SOL    HW1 3551   3.659   4.849   1.096
  884SOL    HW2 3552   3.775   4.802   0.993
  885SOL     OW 3553   3.589   5.719   6.464
  885SOL    HW1 3554   3.532   5.800   6.476
  885SOL    HW2 3555   3.655   5.736   6.390
  886SOL     OW 3556   4.204   2.368   6.190
  886SOL    HW1 3557   4.123   2.325   6.231
  886SOL    HW2 3558   4.255   2.299   6.139
  887SOL     OW 3559   6.346   6.721   4.925
  887SOL    HW1 3560   6.340   6.657   5.002
  887SOL    HW2 3561   6.267   6.782   4.926
  888SOL     OW 3562   6.602   1.158   3.325
  888SOL    HW1 3563   6.621   1.154   3.227
  888SOL    HW2 3564   6.616   1.251   3.358
  889SOL     OW 3565   0.850   0.785   4.793
  889SOL    HW1 3566   0.836   0.701   4.741
  889SOL    HW2 3567   0.932   0.832   4.759
  890SOL     OW 3568   2.418   3.086   0.469
  890SOL    HW1 3569   2.449   3.093   0.564
  890SOL    HW2 3570   2.402   3.178   0.432
  891SOL     OW 3571   6.102   2.898   5.692
  891SOL    HW1 3572   6.030   2.951   5.648
  891SOL    HW2 3573   6.161   2.858   5.622
  892SOL     OW 3574   1.826   4.567   1.891
  892SOL    HW1 3575   1.813   4.553   1.793
  892SOL    HW2 3576   1.736   4.578   1.935
  893SOL     OW 3577   1.499   0.068   1.933
  893SOL    HW1 3578   1.475   6.993   1.904
  893SOL    HW2 3579   1.531   0.065   2.028
  894SOL     OW 3580   1.355   4.799   4.255
  894SOL    HW1 3581   1.435   4.818   4.312
  894SOL    HW2 3582   1.326   4.883   4.210
  895SOL     OW 3583   2.496   1.395   4.432
  895SOL    HW1 3584   2.580   1.387   4.485
  895SOL    HW2 3585   2.473   1.306   4.392
  896SOL     OW 3586   4.575   0.206   3.635
  896SOL    HW1 3587   4.670   0.238   3.641
  896SOL    HW2 3588   4.574   0.108   3.614
  897SOL     OW 3589   6.041   1.188   6.578
  897SOL    HW1 3590   5.999   1.238   6.655
  897SOL    HW2 3591   6.111   1.126   6.613
  898SOL     OW 3592   4.878   5.926   3.579
  898SOL    HW1 3593   4.884   6.003   3.515
  898SOL    HW2 3594   4.961   5.923   3.634
  899SOL     OW 3595   1.408   5.040   0.337
  899SOL    HW1 3596   1.437   5.084   0.253
  899SOL    HW2 3597   1.489   5.011   0.389
  900SOL     OW 3598   0.110   5.878   3.658
  900SOL    HW1 3599   0.126   5.798   3.716
  900SOL    HW2 3600   0.060   5.850   3.576
  901SOL     OW 3601   6.563   2.138   3.513
  901SOL    HW1 3602   6.566   2.040   3.498
  901SOL    HW2 3603   6.470   2.171   3.503
  902SOL     OW 3604   1.532   5.997   0.085
  902SOL    HW1 3605   1.463   5.987   0.157
  902SOL    HW2 3606   1.568   5.907   0.060
  903SOL     OW 3607   1.025   4.839   6.717
  903SOL    HW1 3608   1.067   4.804   6.633
  903SOL    HW2 3609   0.992   4.762   6.772
  904SOL     OW 3610   1.432   2.298   4.380
  904SOL    HW1 3611   1.358   2.243   4.341
  904SOL    HW2 3612   1.471   2.357   4.309
  905SOL     OW 3613   6.190   3.338   3.589
  905SOL    HW1 3614   6.167   3.266   3.655
  905SOL    HW2 3615   6.261   3.304   3.527
  906SOL     OW 3616   0.047   2.919   5.504
  906SOL    HW1 3617   7.007   2.861   5.561
  906SOL    HW2 3618   7.008   2.971   5.440
  907SOL     OW 3619   6.837   4.184   2.685
  907SOL    HW1 3620   6.921   4.238   2.674
  907SOL    HW2 3621   6.859   4.087   2.675
  908SOL     OW 3622   2.572   1.173   3.538
  908SOL    HW1 3623   2.659   1.222   3.545
  908SOL    HW2 3624   2.505   1.229   3.489
  909SOL     OW 3625   3.228   6.738   2.645
  909SOL    HW1 3626   3.188   6.782   2.564
  909SOL    HW2 3627   3.276   6.807   2.699
  910SOL     OW 3628   1.093   0.888   2.158
  910SOL    HW1 3629   1.016   0.915   2.215
  910SOL    HW2 3630   1.080   0.924   2.065
  911SOL     OW 3631   1.155   2.776   0.880
  911SOL    HW1 3632   1.096   2.751   0.802
  911SOL    HW2 3633   1.098   2.802   0.958
  912SOL     OW 3634   2.218   1.155   0.905
  912SOL    HW1 3635   2.200   1.057   0.915
  912SOL    HW2 3636   2.292   1.168   0.838
  913SOL     OW 3637   2.141   0.789   1.796
  913SOL    HW1 3638   2.202   0.745   1.731
  913SOL    HW2 3639   2.112   0.878   1.760
  914SOL     OW 3640   2.947   4.915   2.360
  914SOL    HW1 3641   3.017   4.916   2.289
  914SOL    HW2 3642   2.877   4.848   2.337
  915SOL     OW 3643   3.294   2.435   1.367
  915SOL    HW1 3644   3.265   2.394   1.280
  915SOL    HW2 3645   3.227   2.504   1.395
  916SOL     OW 3646   0.464   3.602   2.566
  916SOL    HW1 3647   0.417   3.642   2.487
  916SOL    HW2 3648   0.558   3.581   2.541
  917SOL     OW 3649   3.778   0.662   5.581
  917SOL    HW1 3650   3.837   0.582   5.592
  917SOL    HW2 3651   3.713   0.666   5.656
  918SOL     OW 3652   6.838   2.374   4.885
  918SOL    HW1 3653   6.937   2.370   4.868
  918SOL    HW2 3654   6.790   2.322   4.814
  919SOL     OW 3655   0.342   0.303   0.885
  919SOL    HW1 3656   0.243   0.300   0.871
  919SOL    HW2 3657   0.369   0.231   0.949
  920SOL     OW 3658   1.105   2.081   2.437
  920SOL    HW1 3659   1.015   2.091   2.479
  920SOL    HW2 3660   1.104   2.122   2.346
  921SOL     OW 3661   4.371   4.188   0.137
  921SOL    HW1 3662   4.336   4.128   0.064
  921SOL    HW2 3663   4.454   4.234   0.107
  922SOL     OW 3664   2.248   5.771   6.349
  922SOL    HW1 3665   2.210   5.679   6.357
  922SOL    HW2 3666   2.347   5.767   6.356
  923SOL     OW 3667   3.379   1.097   7.005
  923SOL    HW1 3668   3.438   1.163   6.957
  923SOL    HW2 3669   3.434   1.045   0.053
  924SOL     OW 3670   5.703   5.119   2.050
  924SOL    HW1 3671   5.800   5.145   2.050
  924SOL    HW2 3672   5.695   5.022   2.028
  925SOL     OW 3673   5.612   2.431   1.662
  925SOL    HW1 3674   5.575   2.348   1.704
  925SOL    HW2 3675   5.582   2.435   1.566
  926SOL     OW 3676   3.528   5.828   1.600
  926SOL    HW1 3677   3.458   5.886   1.641
  926SOL    HW2 3678   3.536   5.848   1.502
  927SOL     OW 3679   5.418   5.291   5.216
  927SOL    HW1 3680   5.370   5.322   5.134
  927SOL    HW2 3681   5.392   5.197   5.237
  928SOL     OW 3682   6.850   1.425   1.390
  928SOL    HW1 3683   6.836   1.520   1.418
  928SOL    HW2 3684   6.860   1.367   1.471
  929SOL     OW 3685   6.754   2.147   2.324
  929SOL    HW1 3686   6.751   2.185   2.232
  929SOL    HW2 3687   6.698   2.204   2.385
  930SOL     OW 3688   6.144   4.420   2.728
  930SOL    HW1 3689   6.058   4.381   2.696
  930SOL    HW2 3690   6.128   4.510   2.769
  931SOL     OW 3691   6.788   3.613   1.344
  931SOL    HW1 3692   6.855   3.556   1.296
  931SOL    HW2 3693   6.748   3.679   1.280
  932SOL     OW 3694   4.611   6.443   0.659
  932SOL    HW1 3695   4.644   6.513   0.595
  932SOL    HW2 3696   4.619   6.478   0.752
  933SOL     OW 3697   0.610   6.288   3.184
  933SOL    HW1 3698   0.646   6.210   3.236
  933SOL    HW2 3699   0.675   6.311   3.111
  934SOL     OW 3700   4.202   1.774   5.072
  934SOL    HW1 3701   4.140   1.758   5.148
  934SOL    HW2 3702   4.150   1.799   4.991
  935SOL     OW 3703   0.952   3.909   4.126
  935SOL    HW1 3704   1.045   3.876   4.143
  935SOL    HW2 3705   0.929   3.897   4.029
  936SOL     OW 3706   0.655   1.000   1.839
  936SOL    HW1 3707   0.600   1.049   1.771
  936SOL    HW2 3708   0.729   1.059   1.871
  937SOL     OW 3709   4.984   2.302   2.768
  937SOL    HW1 3710   5.020   2.256   2.687
  937SOL    HW2 3711   4.916   2.370   2.740
  938SOL     OW 3712   1.042   0.752   6.315
  938SOL    HW1 3713   1.097   0.822   6.361
  938SOL    HW2 3714   0.983   0.707   6.383
  939SOL     OW 3715   0.062   0.888   4.857
  939SOL    HW1 3716   0.161   0.881   4.853
  939SOL    HW2 3717   0.023   0.799   4.885
  940SOL     OW 3718   6.189   0.188   3.650
  940SOL    HW1 3719   6.259   0.178   3.578
  940SOL    HW2 3720   6.169   0.098   3.689
  941SOL     OW 3721   5.541   3.152   4.599
  941SOL    HW1 3722   5.557   3.090   4.676
  941SOL    HW2 3723   5.571   3.244   4.625
  942SOL     OW 3724   4.241   6.120   6.026
  942SOL    HW1 3725   4.279   6.073   5.946
  942SOL    HW2 3726   4.309   6.185   6.061
  943SOL     OW 3727   5.233   1.616   0.396
  943SOL    HW1 3728   5.283   1.671   0.463
  943SOL    HW2 3729   5.273   1.525   0.391
  944SOL     OW 3730   4.881   4.741   4.275
  944SOL    HW1 3731   4.974   4.716   4.247
  944SOL    HW2 3732   4.841   4.666   4.327
  945SOL     OW 3733   6.192   3.137   6.474
  945SOL    HW1 3734   6.113   3.130   6.534
  945SOL    HW2 3735   6.250   3.056   6.484
  946SOL     OW 3736   6.489   2.969   5.821
  946SOL    HW1 3737   6.586   2.950   5.804
  946SOL    HW2 3738   6.463   3.053   5.774
  947SOL     OW 3739   1.226   2.341   6.019
  947SOL    HW1 3740   1.129   2.363   6.016
  947SOL    HW2 3741   1.241   2.247   5.988
  948SOL     OW 3742   3.527   2.053   0.994
  948SOL    HW1 3743   3.523   2.097   0.904
  948SOL    HW2 3744   3.566   2.116   1.060
  949SOL     OW 3745   5.465   5.254   5.982
  949SOL    HW1 3746   5.422   5.344   5.990
  949SOL    HW2 3747   5.449   5.201   6.066
  950SOL     OW 3748   3.846   5.155   0.815
  950SOL    HW1 3749   3.824   5.165   0.913
  950SOL    HW2 3750   3.894   5.236   0.783
  951SOL     OW 3751   0.554   3.137   3.247
  951SOL    HW1 3752   0.495   3.214   3.271
  951SOL    HW2 3753   0.588   3.093   3.330
  952SOL     OW 3754   4.528   1.688   1.050
  952SOL    HW1 3755   4.591   1.707   1.125
  952SOL    HW2 3756   4.446   1.746   1.061
  953SOL     OW 3757   3.898   6.455   5.578
  953SOL    HW1 3758   3.972   6.520   5.591
  953SOL    HW2 3759   3.823   6.477   5.641
  954SOL     OW 3760   6.534   6.542   1.535
  954SOL    HW1 3761   6.457   6.563   1.474
  954SOL    HW2 3762   6.594   6.621   1.541
  955SOL     OW 3763   1.462   6.233   3.422
  955SOL    HW1 3764   1.474   6.184   3.508
  955SOL    HW2 3765   1.367   6.225   3.393
  956SOL     OW 3766   1.580   2.866   0.484
  956SOL    HW1 3767   1.668   2.910   0.470
  956SOL    HW2 3768   1.593   2.783   0.539
  957SOL     OW 3769   2.588   5.680   4.423
  957SOL    HW1 3770   2.634   5.724   4.346
  957SOL    HW2 3771   2.602   5.734   4.506
  958SOL     OW 3772   4.217   2.438   6.503
  958SOL    HW1 3773   4.220   2.399   6.411
  958SOL    HW2 3774   4.175   2.528   6.500
  959SOL     OW 3775   1.904   4.482   0.404
  959SOL    HW1 3776   1.921   4.455   0.498
  959SOL    HW2 3777   1.812   4.454   0.376
  960SOL     OW 3778   1.617   4.035   5.709
  960SOL    HW1 3779   1.659   4.105   5.651
  960SOL    HW2 3780   1.687   3.990   5.764
  961SOL     OW 3781   3.712   6.282   6.926
  961SOL    HW1 3782   3.635   6.311   6.982
  961SOL    HW2 3783   3.702   6.185   6.904
  962SOL     OW 3784   0.741   0.011   3.835
  962SOL    HW1 3785   0.841   0.004   3.841
  962SOL    HW2 3786   0.707   6.962   3.768
  963SOL     OW 3787   5.674   6.902   3.029
  963SOL    HW1 3788   5.608   6.928   2.959
  963SOL    HW2 3789   5.729   6.982   3.055
  964SOL     OW 3790   6.455   4.707   1.621
  964SOL    HW1 3791   6.459   4.647   1.541
  964SOL    HW2 3792   6.548   4.724   1.654
  965SOL     OW 3793   1.838   2.152   0.336
  965SOL    HW1 3794   1.822   2.061   0.375
  965SOL    HW2 3795   1.835   2.146   0.236
  966SOL     OW 3796   5.408   2.257   1.814
  966SOL    HW1 3797   5.394   2.265   1.912
  966SOL    HW2 3798   5.322   2.227   1.771
  967SOL     OW 3799   1.050   5.300   2.842
  967SOL    HW1 3800   1.015   5.210   2.868
  967SOL    HW2 3801   1.113   5.333   2.912
  968SOL     OW 3802   0.386   4.510   0.276
  968SOL    HW1 3803   0.327   4.430   0.271
  968SOL    HW2 3804   0.334   4.587   0.315
  969SOL     OW 3805   3.672   0.172   6.489
  969SOL    HW1 3806   3.648   0.151   6.394
  969SOL    HW2 3807   3.748   0.237   6.491
  970SOL     OW 3808   5.546   4.178   6.716
  970SOL    HW1 3809   5.487   4.252   6.747
  970SOL    HW2 3810   5.609   4.152   6.790
  971SOL     OW 3811   0.445   2.056   0.293
  971SOL    HW1 3812   0.467   1.959   0.299
  971SOL    HW2 3813   0.385   2.072   0.214
  972SOL     OW 3814   4.223   6.675   6.434
  972SOL    HW1 3815   4.308   6.646   6.389
  972SOL    HW2 3816   4.153   6.693   6.365
  973SOL     OW 3817   6.512   2.959   6.089
  973SOL    HW1 3818   6.438   3.019   6.118
  973SOL    HW2 3819   6.511   2.951   5.989
  974SOL     OW 3820   2.333   0.461   4.069
  974SOL    HW1 3821   2.314   0.374   4.022
  974SOL    HW2 3822   2.407   0.509   4.020
  975SOL     OW 3823   2.768   6.737   4.291
  975SOL    HW1 3824   2.771   6.836   4.305
  975SOL    HW2 3825   2.751   6.717   4.194
  976SOL     OW 3826   0.283   4.882   4.143
  976SOL    HW1 3827   0.310   4.920   4.054
  976SOL    HW2 3828   0.346   4.809   4.169
  977SOL     OW 3829   0.869   2.081   1.959
  977SOL    HW1 3830   0.875   2.011   1.887
  977SOL    HW2 3831   0.776   2.083   1.995
  978SOL     OW 3832   5.932   2.865   3.428
  978SOL    HW1 3833   5.967   2.946   3.476
  978SOL    HW2 3834   5.888   2.804   3.494
  979SOL     OW 3835   5.897   1.310   2.602
  979SOL    HW1 3836   5.992   1.281   2.607
  979SOL    HW2 3837   5.852   1.292   2.690
  980SOL     OW 3838   6.228   6.142   5.295
  980SOL    HW1 3839   6.137   6.101   5.300
  980SOL    HW2 3840   6.223   6.239   5.317
  981SOL     OW 3841   6.054   3.332   0.171
  981SOL    HW1 3842   5.994   3.290   0.239
  981SOL    HW2 3843   6.028   3.427   0.158
  982SOL     OW 3844   1.789   4.810   6.940
  982SOL    HW1 3845   1.800   4.757   0.006
  982SOL    HW2 3846   1.692   4.828   6.923
  983SOL     OW 3847   5.796   1.670   2.905
  983SOL    HW1 3848   5.710   1.697   2.861
  983SOL    HW2 3849   5.822   1.739   2.972
  984SOL     OW 3850   4.817   3.319   5.334
  984SOL    HW1 3851   4.825   3.251   5.406
  984SOL    HW2 3852   4.758   3.284   5.261
  985SOL     OW 3853   2.397   4.425   0.030
  985SOL    HW1 3854   2.370   4.332   0.004
  985SOL    HW2 3855   2.419   4.427   0.127
  986SOL     OW 3856   5.026   4.065   5.150
  986SOL    HW1 3857   5.085   4.002   5.099
  986SOL    HW2 3858   5.050   4.059   5.248
  987SOL     OW 3859   2.739   1.430   2.994
  987SOL    HW1 3860   2.771   1.523   2.977
  987SOL    HW2 3861   2.788   1.392   3.073
  988SOL     OW 3862   3.668   3.578   1.247
  988SOL    HW1 3863   3.618   3.648   1.298
  988SOL    HW2 3864   3.637   3.487   1.275
  989SOL     OW 3865   1.239   1.229   4.753
  989SOL    HW1 3866   1.181   1.182   4.820
  989SOL    HW2 3867   1.329   1.186   4.751
  990SOL     OW 3868   4.529   5.774   2.079
  990SOL    HW1 3869   4.526   5.710   2.155
  990SOL    HW2 3870   4.610   5.832   2.086
  991SOL     OW 3871   5.745   1.672   6.008
  991SOL    HW1 3872   5.756   1.591   6.066
  991SOL    HW2 3873   5.825   1.681   5.948
  992SOL     OW 3874   0.069   2.685   0.789
  992SOL    HW1 3875   0.036   2.648   0.702
  992SOL    HW2 3876   0.065   2.785   0.787
  993SOL     OW 3877   4.167   6.655   3.878
  993SOL    HW1 3878   4.107   6.576   3.893
  993SOL    HW2 3879   4.230   6.636   3.803
  994SOL     OW 3880   2.892   3.574   3.606
  994SOL    HW1 3881   2.910   3.487   3.560
  994SOL    HW2 3882   2.876   3.557   3.704
  995SOL     OW 3883   1.441   1.604   4.804
  995SOL    HW1 3884   1.426   1.698   4.835
  995SOL    HW2 3885   1.497   1.556   4.872
  996SOL     OW 3886   1.951   3.429   0.059
  996SOL    HW1 3887   1.881   3.495   0.032
  996SOL    HW2 3888   2.015   3.415   7.000
  997SOL     OW 3889   6.897   1.041   0.600
  997SOL    HW1 3890   6.931   1.123   0.646
  997SOL    HW2 3891   6.797   1.045   0.595
  998SOL     OW 3892   4.830   6.807   3.448
  998SOL    HW1 3893   4.796   6.712   3.450
  998SOL    HW2 3894   4.898   6.818   3.520
  999SOL     OW 3895   6.500   4.966   6.902
  999SOL    HW1 3896   6.484   4.883   6.956
  999SOL    HW2 3897   6.412   5.002   6.870
 1000SOL     OW 3898   3.558   1.715   5.095
 1000SOL    HW1 3899   3.544   1.643   5.028
 1000SOL    HW2 3900   3.472   1.763   5.112
 1001SOL     OW 3901   4.951   0.945   4.778
 1001SOL    HW1 3902   4.911   1.030   4.744
 1001SOL    HW2 3903   4.995   0.961   4.866
 1002SOL     OW 3904   0.034   1.075   0.334
 1002SOL    HW1 3905   0.004   1.086   0.429
 1002SOL    HW2 3906   0.007   0.984   0.302
 1003SOL     OW 3907   4.495   4.930   2.584
 1003SOL    HW1 3908   4.513   4.881   2.499
 1003SOL    HW2 3909   4.402   4.967   2.582
 1004SOL     OW 3910   5.863   6.178   6.799
 1004SOL    HW1 3911   5.955   6.166   6.837
 1004SOL    HW2 3912   5.858   6.266   6.753
 1005SOL     OW 3913   5.291   6.335   3.104
 1005SOL    HW1 3914   5.351   6.405   3.067
 1005SOL    HW2 3915   5.332   6.245   3.089
 1006SOL     OW 3916   1.702   5.792   0.069
 1006SOL    HW1 3917   1.751   5.706   0.053
 1006SOL    HW2 3918   1.769   5.867   0.075
 1007SOL     OW 3919   6.221   1.935   2.717
 1007SOL    HW1 3920   6.174   2.023   2.709
 1007SOL    HW2 3921   6.265   1.913   2.630
 1008SOL     OW 3922   3.691   1.277   5.286
 1008SOL    HW1 3923   3.686   1.335   5.205
 1008SOL    HW2 3924   3.691   1.333   5.368
 1009SOL     OW 3925   2.835   6.368   5.589
 1009SOL    HW1 3926   2.790   6.388   5.676
 1009SOL    HW2 3927   2.932   6.349   5.605
 1010SOL     OW 3928   4.780   6.499   5.720
 1010SOL    HW1 3929   4.811   6.535   5.809
 1010SOL    HW2 3930   4.783   6.572   5.652
 1011SOL     OW 3931   3.067   5.028   4.243
 1011SOL    HW1 3932   3.044   5.124   4.259
 1011SOL    HW2 3933   2.984   4.972   4.245
 1012SOL     OW 3934   2.988   6.065   0.832
 1012SOL    HW1 3935   3.074   6.021   0.809
 1012SOL    HW2 3936   2.960   6.127   0.758
 1013SOL     OW 3937   0.725   0.015   0.064
 1013SOL    HW1 3938   0.632   0.013   0.100
 1013SOL    HW2 3939   0.722   0.026   6.982
 1014SOL     OW 3940   5.928   6.918   6.789
 1014SOL    HW1 3941   5.878   7.002   6.813
 1014SOL    HW2 3942   5.971   6.930   6.700
 1015SOL     OW 3943   2.625   0.025   4.641
 1015SOL    HW1 3944   2.579   0.113   4.629
 1015SOL    HW2 3945   2.608   6.985   4.561
 1016SOL     OW 3946   4.202   3.243   1.515
 1016SOL    HW1 3947   4.123   3.196   1.476
 1016SOL    HW2 3948   4.226   3.201   1.603
 1017SOL     OW 3949   4.569   0.029   6.062
 1017SOL    HW1 3950   4.632   0.102   6.037
 1017SOL    HW2 3951   4.610   6.958   6.039
 1018SOL     OW 3952   1.215   1.764   1.539
 1018SOL    HW1 3953   1.205   1.825   1.617
 1018SOL    HW2 3954   1.129   1.714   1.524
 1019SOL     OW 3955   5.717   0.942   0.491
 1019SOL    HW1 3956   5.723   1.000   0.573
 1019SOL    HW2 3957   5.650   0.980   0.428
 1020SOL     OW 3958   4.031   1.797   1.531
 1020SOL    HW1 3959   4.117   1.846   1.515
 1020SOL    HW2 3960   4.044   1.729   1.603
 1021SOL     OW 3961   5.745   1.399   1.465
 1021SOL    HW1 3962   5.802   1.393   1.546
 1021SOL    HW2 3963   5.656   1.438   1.490
 1022SOL     OW 3964   3.074   3.561   0.016
 1022SOL    HW1 3965   3.027   3.630   0.072
 1022SOL    HW2 3966   3.080   3.475   0.067
 1023SOL     OW 3967   6.821   0.983   4.363
 1023SOL    HW1 3968   6.869   1.070   4.354
 1023SOL    HW2 3969   6.760   0.970   4.284
 1024SOL     OW 3970   6.403   2.435   4.096
 1024SOL    HW1 3971   6.322   2.390   4.133
 1024SOL    HW2 3972   6.380   2.528   4.069
 1025SOL     OW 3973   2.332   4.354   1.771
 1025SOL    HW1 3974   2.328   4.449   1.742
 1025SOL    HW2 3975   2.267   4.339   1.845
 1026SOL     OW 3976   0.708   2.590   6.409
 1026SOL    HW1 3977   0.779   2.628   6.350
 1026SOL    HW2 3978   0.636   2.659   6.423
 1027SOL     OW 3979   1.959   4.834   0.693
 1027SOL    HW1 3980   1.975   4.763   0.761
 1027SOL    HW2 3981   1.944   4.922   0.739
 1028SOL     OW 3982   0.354   5.564   6.639
 1028SOL    HW1 3983   0.268   5.613   6.622
 1028SOL    HW2 3984   0.425   5.629   6.666
 1029SOL     OW 3985   3.957   1.061   4.732
 1029SOL    HW1 3986   3.934   0.967   4.708
 1029SOL    HW2 3987   3.875   1.118   4.729
 1030SOL     OW 3988   4.420   4.839   4.674
 1030SOL    HW1 3989   4.322   4.832   4.657
 1030SOL    HW2 3990   4.462   4.748   4.664
 1031SOL     OW 3991   2.396   6.075   1.194
 1031SOL    HW1 3992   2.319   6.014   1.215
 1031SOL    HW2 3993   2.450   6.090   1.277
 1032SOL     OW 3994   1.136   2.123   5.364
 1032SOL    HW1 3995   1.104   2.077   5.447
 1032SOL    HW2 3996   1.106   2.219   5.365
 1033SOL     OW 3997   2.829   0.345   2.135
 1033SOL    HW1 3998   2.823   0.431   2.084
 1033SOL    HW2 3999   2.884   0.280   2.082
 1034SOL     OW 4000   0.165   5.255   2.099
 1034SOL    HW1 4001   0.118   5.339   2.072
 1034SOL    HW2 4002   0.108   5.176   2.079
 1035SOL     OW 4003   3.389   2.051   3.434
 1035SOL    HW1 4004   3.366   2.112   3.359
 1035SOL    HW2 4005   3.432   1.968   3.398
 1036SOL     OW 4006   4.751   6.551   6.433
 1036SOL    HW1 4007   4.765   6.470   6.376
 1036SOL    HW2 4008   4.792   6.630   6.389
 1037SOL     OW 4009   3.625   1.189   5.838
 1037SOL    HW1 4010   3.580   1.107   5.873
 1037SOL    HW2 4011   3.708   1.163   5.788
 1038SOL     OW 4012   2.972   1.868   5.261
 1038SOL    HW1 4013   2.975   1.801   5.186
 1038SOL    HW2 4014   2.979   1.961   5.223
 1039SOL     OW 4015   5.289   1.563   2.451
 1039SOL    HW1 4016   5.224   1.636   2.468
 1039SOL    HW2 4017   5.354   1.591   2.380
 1040SOL     OW 4018   5.877   4.672   4.641
 1040SOL    HW1 4019   5.859   4.749   4.580
 1040SOL    HW2 4020   5.807   4.602   4.629
 1041SOL     OW 4021   1.524   6.527   4.915
 1041SOL    HW1 4022   1.502   6.545   4.819
 1041SOL    HW2 4023   1.603   6.465   4.921
 1042SOL     OW 4024   4.680   4.513   0.718
 1042SOL    HW1 4025   4.592   4.470   0.739
 1042SOL    HW2 4026   4.754   4.450   0.741
 1043SOL     OW 4027   4.248   0.316   6.198
 1043SOL    HW1 4028   4.315   0.316   6.272
 1043SOL    HW2 4029   4.260   0.234   6.142
 1044SOL     OW 4030   3.877   4.011   4.029
 1044SOL    HW1 4031   3.864   3.980   3.935
 1044SOL    HW2 4032   3.950   3.957   4.072
 1045SOL     OW 4033   1.885   1.798   2.496
 1045SOL    HW1 4034   1.811   1.864   2.483
 1045SOL    HW2 4035   1.968   1.846   2.522
 1046SOL     OW 4036   2.658   1.043   2.484
 1046SOL    HW1 4037   2.753   1.055   2.513
 1046SOL    HW2 4038   2.624   1.129   2.446
 1047SOL     OW 4039   0.413   6.549   2.044
 1047SOL    HW1 4040   0.455   6.537   2.134
 1047SOL    HW2 4041   0.391   6.646   2.030
 1048SOL     OW 4042   0.066   3.574   5.067
 1048SOL    HW1 4043   0.038   3.542   4.976
 1048SOL    HW2 4044   0.031   3.667   5.082
 1049SOL     OW 4045   0.202   3.746   5.706
 1049SOL    HW1 4046   0.148   3.684   5.649
 1049SOL    HW2 4047   0.274   3.788   5.651
 1050SOL     OW 4048   3.065   0.421   1.498
 1050SOL    HW1 4049   3.145   0.365   1.522
 1050SOL    HW2 4050   3.004   0.369   1.439
 1051SOL     OW 4051   5.257   3.829   2.214
 1051SOL    HW1 4052   5.209   3.769   2.149
 1051SOL    HW2 4053   5.355   3.828   2.194
 1052SOL     OW 4054   2.871   6.561   3.636
 1052SOL    HW1 4055   2.840   6.647   3.595
 1052SOL    HW2 4056   2.793   6.510   3.671
 1053SOL     OW 4057   3.706   5.403   2.828
 1053SOL    HW1 4058   3.677   5.496   2.807
 1053SOL    HW2 4059   3.721   5.393   2.926
 1054SOL     OW 4060   3.590   6.137   5.555
 1054SOL    HW1 4061   3.530   6.207   5.516
 1054SOL    HW2 4062   3.595   6.149   5.654
 1055SOL     OW 4063   3.924   4.945   4.340
 1055SOL    HW1 4064   3.869   4.923   4.421
 1055SOL    HW2 4065   4.003   4.884   4.336
 1056SOL     OW 4066   2.707   5.589   0.338
 1056SOL    HW1 4067   2.733   5.681   0.368
 1056SOL    HW2 4068   2.783   5.549   0.286
 1057SOL     OW 4069   4.000   4.065   1.327
 1057SOL    HW1 4070   3.933   4.035   1.395
 1057SOL    HW2 4071   4.044   4.149   1.360
 1058SOL     OW 4072   2.548   0.460   2.359
 1058SOL    HW1 4073   2.612   0.534   2.340
 1058SOL    HW2 4074   2.469   0.467   2.297
 1059SOL     OW 4075   4.163   6.815   0.679
 1059SOL    HW1 4076   4.176   6.843   0.774
 1059SOL    HW2 4077   4.251   6.793   0.637
 1060SOL     OW 4078   3.291   1.797   3.840
 1060SOL    HW1 4079   3.213   1.856   3.861
 1060SOL    HW2 4080   3.303   1.731   3.915
 1061SOL     OW 4081   2.554   5.332   1.137
 1061SOL    HW1 4082   2.538   5.246   1.089
 1061SOL    HW2 4083   2.501   5.333   1.222
 1062SOL     OW 4084   5.191   3.950   4.920
 1062SOL    HW1 4085   5.104   3.912   4.890
 1062SOL    HW2 4086   5.219   4.022   4.856
 1063SOL     OW 4087   3.959   2.067   6.036
 1063SOL    HW1 4088   3.909   1.981   6.047
 1063SOL    HW2 4089   3.986   2.078   5.940
 1064SOL     OW 4090   1.014   3.185   2.594
 1064SOL    HW1 4091   0.969   3.097   2.582
 1064SOL    HW2 4092   0.956   3.245   2.649
 1065SOL     OW 4093   3.886   5.833   0.164
 1065SOL    HW1 4094   3.868   5.907   0.229
 1065SOL    HW2 4095   3.973   5.789   0.187
 1066SOL     OW 4096   5.633   6.959   3.758
 1066SOL    HW1 4097   5.551   6.951   3.701
 1066SOL    HW2 4098   5.611   7.005   3.844
 1067SOL     OW 4099   3.344   4.330   0.524
 1067SOL    HW1 4100   3.329   4.298   0.618
 1067SOL    HW2 4101   3.439   4.361   0.514
 1068SOL     OW 4102   1.102   5.407   2.186
 1068SOL    HW1 4103   1.062   5.459   2.261
 1068SOL    HW2 4104   1.186   5.453   2.155
 1069SOL     OW 4105   3.728   3.768   3.059
 1069SOL    HW1 4106   3.796   3.834   3.028
 1069SOL    HW2 4107   3.648   3.772   3.000
 1070SOL     OW 4108   1.482   6.496   0.461
 1070SOL    HW1 4109   1.495   6.461   0.368
 1070SOL    HW2 4110   1.393   6.467   0.495
 1071SOL     OW 4111   4.622   5.906   3.618
 1071SOL    HW1 4112   4.718   5.915   3.593
 1071SOL    HW2 4113   4.614   5.899   3.718
 1072SOL     OW 4114   4.470   5.717   3.488
 1072SOL    HW1 4115   4.531   5.790   3.519
 1072SOL    HW2 4116   4.517   5.662   3.418
 1073SOL     OW 4117   3.144   5.791   3.478
 1073SOL    HW1 4118   3.080   5.717   3.458
 1073SOL    HW2 4119   3.097   5.863   3.528
 1074SOL     OW 4120   2.372   5.274   3.767
 1074SOL    HW1 4121   2.460   5.321   3.772
 1074SOL    HW2 4122   2.369   5.200   3.834
 1075SOL     OW 4123   0.824   4.536   2.805
 1075SOL    HW1 4124   0.835   4.602   2.730
 1075SOL    HW2 4125   0.849   4.445   2.773
 1076SOL     OW 4126   5.339   3.479   3.403
 1076SOL    HW1 4127   5.307   3.492   3.496
 1076SOL    HW2 4128   5.294   3.543   3.342
 1077SOL     OW 4129   3.747   0.904   2.229
 1077SOL    HW1 4130   3.671   0.845   2.201
 1077SOL    HW2 4131   3.825   0.890   2.168
 1078SOL     OW 4132   6.232   2.538   1.923
 1078SOL    HW1 4133   6.212   2.528   1.825
 1078SOL    HW2 4134   6.324   2.575   1.934
 1079SOL     OW 4135   1.690   4.629   2.926
 1079SOL    HW1 4136   1.666   4.628   3.023
 1079SOL    HW2 4137   1.607   4.640   2.872
 1080SOL     OW 4138   2.612   5.501   3.985
 1080SOL    HW1 4139   2.640   5.436   4.056
 1080SOL    HW2 4140   2.612   5.455   3.896
 1081SOL     OW 4141   1.368   0.489   0.833
 1081SOL    HW1 4142   1.350   0.579   0.794
 1081SOL    HW2 4143   1.463   0.463   0.816
 1082SOL     OW 4144   1.948   0.626   1.145
 1082SOL    HW1 4145   1.942   0.714   1.192
 1082SOL    HW2 4146   1.857   0.585   1.138
 1083SOL     OW 4147   3.348   3.482   1.628
 1083SOL    HW1 4148   3.436   3.528   1.624
 1083SOL    HW2 4149   3.343   3.412   1.556
 1084SOL     OW 4150   6.150   4.313   1.772
 1084SOL    HW1 4151   6.160   4.412   1.774
 1084SOL    HW2 4152   6.057   4.288   1.799
 1085SOL     OW 4153   1.636   5.968   3.487
 1085SOL    HW1 4154   1.681   6.049   3.525
 1085SOL    HW2 4155   1.696   5.924   3.421
 1086SOL     OW 4156   2.622   6.257   2.217
 1086SOL    HW1 4157   2.688   6.288   2.149
 1086SOL    HW2 4158   2.621   6.157   2.220
 1087SOL     OW 4159   3.686   3.014   5.293
 1087SOL    HW1 4160   3.615   3.079   5.319
 1087SOL    HW2 4161   3.656   2.921   5.314
 1088SOL     OW 4162   7.015   5.333   2.416
 1088SOL    HW1 4163   6.994   5.284   2.332
 1088SOL    HW2 4164   6.941   5.397   2.437
 1089SOL     OW 4165   6.851   0.773   3.356
 1089SOL    HW1 4166   6.780   0.818   3.410
 1089SOL    HW2 4167   6.878   0.833   3.279
 1090SOL     OW 4168   2.916   2.276   6.630
 1090SOL    HW1 4169   2.942   2.180   6.635
 1090SOL    HW2 4170   2.819   2.286   6.649
 1091SOL     OW 4171   1.429   2.236   5.757
 1091SOL    HW1 4172   1.370   2.163   5.790
 1091SOL    HW2 4173   1.499   2.257   5.825
 1092SOL     OW 4174   2.813   4.802   1.307
 1092SOL    HW1 4175   2.856   4.782   1.219
 1092SOL    HW2 4176   2.776   4.718   1.346
 1093SOL     OW 4177   0.132   1.861   1.343
 1093SOL    HW1 4178   0.062   1.929   1.319
 1093SOL    HW2 4179   0.096   1.769   1.326
 1094SOL     OW 4180   0.867   5.531   2.687
 1094SOL    HW1 4181   0.872   5.515   2.786
 1094SOL    HW2 4182   0.895   5.625   2.667
 1095SOL     OW 4183   1.629   3.037   5.515
 1095SOL    HW1 4184   1.705   3.032   5.580
 1095SOL    HW2 4185   1.645   3.111   5.450
 1096SOL     OW 4186   3.923   3.160   2.344
 1096SOL    HW1 4187   3.911   3.182   2.248
 1096SOL    HW2 4188   3.919   3.061   2.356
 1097SOL     OW 4189   2.812   5.154   5.371
 1097SOL    HW1 4190   2.909   5.143   5.351
 1097SOL    HW2 4191   2.800   5.219   5.446
 1098SOL     OW 4192   2.781   0.719   2.868
 1098SOL    HW1 4193   2.774   0.817   2.888
 1098SOL    HW2 4194   2.845   0.706   2.792
 1099SOL     OW 4195   3.139   0.459   2.515
 1099SOL    HW1 4196   3.088   0.494   2.437
 1099SOL    HW2 4197   3.234   0.444   2.488
 1100SOL     OW 4198   6.910   0.666   0.436
 1100SOL    HW1 4199   6.859   0.595   0.388
 1100SOL    HW2 4200   6.857   0.696   0.516
 1101SOL     OW 4201   6.106   4.438   1.076
 1101SOL    HW1 4202   6.122   4.350   1.121
 1101SOL    HW2 4203   6.066   4.422   0.985
 1102SOL     OW 4204   6.722   4.243   4.128
 1102SOL    HW1 4205   6.785   4.272   4.056
 1102SOL    HW2 4206   6.634   4.288   4.115
 1103SOL     OW 4207   0.816   2.325   6.706
 1103SOL    HW1 4208   0.835   2.233   6.743
 1103SOL    HW2 4209   0.887   2.350   6.641
 1104SOL     OW 4210   3.142   5.438   5.458
 1104SOL    HW1 4211   3.142   5.352   5.509
 1104SOL    HW2 4212   3.129   5.420   5.361
 1105SOL     OW 4213   4.122   5.815   0.560
 1105SOL    HW1 4214   4.168   5.903   0.546
 1105SOL    HW2 4215   4.127   5.790   0.656
 1106SOL     OW 4216   0.951   2.074   6.793
 1106SOL    HW1 4217   1.004   2.069   6.878
 1106SOL    HW2 4218   0.980   2.000   6.732
 1107SOL     OW 4219   6.664   6.773   1.488
 1107SOL    HW1 4220   6.733   6.846   1.479
 1107SOL    HW2 4221   6.578   6.813   1.520
 1108SOL     OW 4222   1.027   1.181   0.207
 1108SOL    HW1 4223   1.124   1.205   0.214
 1108SOL    HW2 4224   1.004   1.163   0.111
 1109SOL     OW 4225   4.026   1.831   3.323
 1109SOL    HW1 4226   4.024   1.864   3.417
 1109SOL    HW2 4227   4.121   1.827   3.291
 1110SOL     OW 4228   3.845   3.470   3.247
 1110SOL    HW1 4229   3.774   3.465   3.318
 1110SOL    HW2 4230   3.925   3.418   3.277
 1111SOL     OW 4231   4.059   0.002   6.854
 1111SOL    HW1 4232   4.041   6.921   6.856
 1111SOL    HW2 4233   3.979   0.049   6.817
 1112SOL     OW 4234   0.853   1.351   2.458
 1112SOL    HW1 4235   0.793   1.272   2.469
 1112SOL    HW2 4236   0.933   1.341   2.517
 1113SOL     OW 4237   0.101   4.454   1.583
 1113SOL    HW1 4238   0.100   4.364   1.538
 1113SOL    HW2 4239   0.018   4.504   1.560
 1114SOL     OW 4240   5.941   0.959   5.604
 1114SOL    HW1 4241   5.862   0.898   5.604
 1114SOL    HW2 4242   5.974   0.971   5.510
 1115SOL     OW 4243   2.034   4.744   0.341
 1115SOL    HW1 4244   2.050   4.841   0.356
 1115SOL    HW2 4245   2.081   4.714   0.258
 1116SOL     OW 4246   3.294   6.621   6.487
 1116SOL    HW1 4247   3.329   6.611   6.580
 1116SOL    HW2 4248   3.260   6.533   6.454
 1117SOL     OW 4249   2.933   2.754   0.642
 1117SOL    HW1 4250   3.019   2.797   0.669
 1117SOL    HW2 4251   2.940   2.718   0.550
 1118SOL     OW 4252   1.626   2.391   0.931
 1118SOL    HW1 4253   1.539   2.381   0.883
 1118SOL    HW2 4254   1.700   2.362   0.870
 1119SOL     OW 4255   3.338   3.205   3.714
 1119SOL    HW1 4256   3.265   3.215   3.781
 1119SOL    HW2 4257   3.322   3.123   3.660
 1120SOL     OW 4258   3.224   1.392   3.391
 1120SOL    HW1 4259   3.196   1.316   3.333
 1120SOL    HW2 4260   3.321   1.411   3.377
 1121SOL     OW 4261   4.871   4.064   2.803
 1121SOL    HW1 4262   4.966   4.084   2.779
 1121SOL    HW2 4263   4.813   4.141   2.779
 1122SOL     OW 4264   4.623   5.233   6.495
 1122SOL    HW1 4265   4.558   5.256   6.567
 1122SOL    HW2 4266   4.702   5.186   6.534
 1123SOL     OW 4267   3.569   0.441   2.236
 1123SOL    HW1 4268   3.577   0.410   2.142
 1123SOL    HW2 4269   3.657   0.479   2.267
 1124SOL     OW 4270   2.711   4.848   3.333
 1124SOL    HW1 4271   2.652   4.788   3.278
 1124SOL    HW2 4272   2.657   4.891   3.405
 1125SOL     OW 4273   3.273   4.542   5.375
 1125SOL    HW1 4274   3.176   4.547   5.351
 1125SOL    HW2 4275   3.284   4.555   5.473
 1126SOL     OW 4276   6.217   0.517   2.210
 1126SOL    HW1 4277   6.285   0.463   2.259
 1126SOL    HW2 4278   6.127   0.474   2.217
 1127SOL     OW 4279   2.935   5.405   5.902
 1127SOL    HW1 4280   2.891   5.433   5.817
 1127SOL    HW2 4281   3.021   5.359   5.882
 1128SOL     OW 4282   2.416   1.899   5.318
 1128SOL    HW1 4283   2.429   1.995   5.341
 1128SOL    HW2 4284   2.485   1.871   5.251
 1129SOL     OW 4285   4.221   5.362   6.499
 1129SOL    HW1 4286   4.203   5.266   6.475
 1129SOL    HW2 4287   4.265   5.366   6.589
 1130SOL     OW 4288   1.265   4.912   5.167
 1130SOL    HW1 4289   1.269   4.892   5.069
 1130SOL    HW2 4290   1.186   4.867   5.207
 1131SOL     OW 4291   0.863   3.975   5.619
 1131SOL    HW1 4292   0.881   3.987   5.521
 1131SOL    HW2 4293   0.875   4.062   5.666
 1132SOL     OW 4294   5.208   6.841   4.873
 1132SOL    HW1 4295   5.307   6.854   4.864
 1132SOL    HW2 4296   5.173   6.792   4.794
 1133SOL     OW 4297   6.905   1.960   6.997
 1133SOL    HW1 4298   6.981   1.915   6.950
 1133SOL    HW2 4299   6.868   1.898   0.048
 1134SOL     OW 4300   0.384   3.144   5.764
 1134SOL    HW1 4301   0.307   3.200   5.732
 1134SOL    HW2 4302   0.372   3.050   5.734
 1135SOL     OW 4303   6.888   1.958   3.824
 1135SOL    HW1 4304   6.981   1.939   3.855
 1135SOL    HW2 4305   6.884   1.946   3.724
 1136SOL     OW 4306   3.758   5.316   3.834
 1136SOL    HW1 4307   3.840   5.373   3.826
 1136SOL    HW2 4308   3.778   5.225   3.798
 1137SOL     OW 4309   0.528   0.644   6.805
 1137SOL    HW1 4310   0.579   0.632   6.891
 1137SOL    HW2 4311   0.514   0.555   6.763
 1138SOL     OW 4312   1.017   2.602   5.653
 1138SOL    HW1 4313   1.076   2.625   5.730
 1138SOL    HW2 4314   1.031   2.669   5.579
 1139SOL     OW 4315   0.189   0.214   2.912
 1139SOL    HW1 4316   0.225   0.234   3.004
 1139SOL    HW2 4317   0.124   0.138   2.918
 1140SOL     OW 4318   4.520   1.995   3.182
 1140SOL    HW1 4319   4.473   2.021   3.098
 1140SOL    HW2 4320   4.456   1.998   3.259
 1141SOL     OW 4321   0.498   0.174   6.299
 1141SOL    HW1 4322   0.460   0.262   6.271
 1141SOL    HW2 4323   0.423   0.113   6.326
 1142SOL     OW 4324   5.713   0.300   5.780
 1142SOL    HW1 4325   5.766   0.219   5.802
 1142SOL    HW2 4326   5.658   0.283   5.699
 1143SOL     OW 4327   5.382   2.909   1.491
 1143SOL    HW1 4328   5.316   2.977   1.459
 1143SOL    HW2 4329   5.340   2.818   1.488
 1144SOL     OW 4330   1.122   0.103   4.858
 1144SOL    HW1 4331   1.056   0.159   4.808
 1144SOL    HW2 4332   1.188   0.163   4.904
 1145SOL     OW 4333   3.082   5.104   5.379
 1145SOL    HW1 4334   3.092   5.005   5.372
 1145SOL    HW2 4335   3.165   5.149   5.348
 1146SOL     OW 4336   5.932   2.016   1.993
 1146SOL    HW1 4337   5.890   2.081   1.930
 1146SOL    HW2 4338   5.911   2.042   2.087
 1147SOL     OW 4339   6.776   3.981   2.379
 1147SOL    HW1 4340   6.711   4.053   2.356
 1147SOL    HW2 4341   6.793   3.981   2.477
 1148SOL     OW 4342   5.784   0.166   6.101
 1148SOL    HW1 4343   5.804   0.126   6.012
 1148SOL    HW2 4344   5.712   0.235   6.091
 1149SOL     OW 4345   4.949   3.450   2.657
 1149SOL    HW1 4346   4.932   3.386   2.732
 1149SOL    HW2 4347   4.935   3.544   2.689
 1150SOL     OW 4348   2.499   5.908   5.012
 1150SOL    HW1 4349   2.547   5.835   5.062
 1150SOL    HW2 4350   2.405   5.915   5.047
 1151SOL     OW 4351   2.187   5.310   0.642
 1151SOL    HW1 4352   2.231   5.265   0.564
 1151SOL    HW2 4353   2.114   5.370   0.609
 1152SOL     OW 4354   6.526   0.889   3.675
 1152SOL    HW1 4355   6.450   0.948   3.649
 1152SOL    HW2 4356   6.509   0.851   3.766
 1153SOL     OW 4357   1.974   4.726   2.370
 1153SOL    HW1 4358   1.976   4.636   2.327
 1153SOL    HW2 4359   1.987   4.716   2.469
 1154SOL     OW 4360   1.543   3.557   1.608
 1154SOL    HW1 4361   1.554   3.643   1.557
 1154SOL    HW2 4362   1.467   3.566   1.672
 1155SOL     OW 4363   4.984   1.079   2.060
 1155SOL    HW1 4364   5.010   0.982   2.055
 1155SOL    HW2 4365   5.067   1.135   2.066
 1156SOL     OW 4366   2.666   1.020   4.126
 1156SOL    HW1 4367   2.586   0.961   4.135
 1156SOL    HW2 4368   2.748   0.965   4.115
 1157SOL     OW 4369   1.620   3.597   3.936
 1157SOL    HW1 4370   1.685   3.571   4.008
 1157SOL    HW2 4371   1.634   3.694   3.913
 1158SOL     OW 4372   5.026   5.439   5.425
 1158SOL    HW1 4373   5.088   5.449   5.502
 1158SOL    HW2 4374   5.040   5.514   5.360
 1159SOL     OW 4375   6.067   4.115   3.065
 1159SOL    HW1 4376   6.125   4.182   3.018
 1159SOL    HW2 4377   6.121   4.065   3.133
 1160SOL     OW 4378   2.549   2.488   1.536
 1160SOL    HW1 4379   2.469   2.436   1.565
 1160SOL    HW2 4380   2.622   2.478   1.604
 1161SOL     OW 4381   4.252   1.361   3.235
 1161SOL    HW1 4382   4.248   1.455   3.271
 1161SOL    HW2 4383   4.344   1.324   3.247
 1162SOL     OW 4384   3.017   4.990   1.419
 1162SOL    HW1 4385   2.999   4.937   1.502
 1162SOL    HW2 4386   2.966   4.952   1.342
 1163SOL     OW 4387   4.737   6.524   3.422
 1163SOL    HW1 4388   4.736   6.492   3.328
 1163SOL    HW2 4389   4.643   6.532   3.455
 1164SOL     OW 4390   6.456   4.358   4.206
 1164SOL    HW1 4391   6.459   4.274   4.260
 1164SOL    HW2 4392   6.366   4.401   4.216
 1165SOL     OW 4393   0.525   4.985   1.816
 1165SOL    HW1 4394   0.426   4.983   1.802
 1165SOL    HW2 4395   0.547   4.937   1.901
 1166SOL     OW 4396   3.382   0.918   5.871
 1166SOL    HW1 4397   3.381   0.972   5.787
 1166SOL    HW2 4398   3.406   0.977   5.948
 1167SOL     OW 4399   4.241   1.493   5.460
 1167SOL    HW1 4400   4.292   1.579   5.463
 1167SOL    HW2 4401   4.264   1.437   5.540
 1168SOL     OW 4402   5.538   1.272   4.293
 1168SOL    HW1 4403   5.510   1.349   4.350
 1168SOL    HW2 4404   5.590   1.305   4.214
 1169SOL     OW 4405   2.156   2.233   1.203
 1169SOL    HW1 4406   2.133   2.308   1.265
 1169SOL    HW2 4407   2.256   2.226   1.195
 1170SOL     OW 4408   2.562   0.847   2.140
 1170SOL    HW1 4409   2.493   0.903   2.093
 1170SOL    HW2 4410   2.568   0.758   2.096
 1171SOL     OW 4411   4.492   0.471   0.980
 1171SOL    HW1 4412   4.450   0.491   0.891
 1171SOL    HW2 4413   4.549   0.390   0.972
 1172SOL     OW 4414   3.763   3.238   6.072
 1172SOL    HW1 4415   3.717   3.255   5.985
 1172SOL    HW2 4416   3.797   3.325   6.109
 1173SOL     OW 4417   5.729   5.975   6.653
 1173SOL    HW1 4418   5.737   5.898   6.716
 1173SOL    HW2 4419   5.785   6.051   6.685
 1174SOL     OW 4420   3.471   5.689   6.874
 1174SOL    HW1 4421   3.449   5.752   6.800
 1174SOL    HW2 4422   3.494   5.742   6.956
 1175SOL     OW 4423   0.124   5.289   5.050
 1175SOL    HW1 4424   0.128   5.301   4.951
 1175SOL    HW2 4425   0.168   5.203   5.075
 1176SOL     OW 4426   6.142   3.219   1.638
 1176SOL    HW1 4427   6.089   3.196   1.719
 1176SOL    HW2 4428   6.084   3.269   1.573
 1177SOL     OW 4429   6.869   2.737   5.396
 1177SOL    HW1 4430   6.840   2.730   5.301
 1177SOL    HW2 4431   6.792   2.717   5.456
 1178SOL     OW 4432   4.827   4.887   2.172
 1178SOL    HW1 4433   4.809   4.896   2.270
 1178SOL    HW2 4434   4.856   4.976   2.135
 1179SOL     OW 4435   1.375   5.391   6.254
 1179SOL    HW1 4436   1.310   5.315   6.258
 1179SOL    HW2 4437   1.389   5.429   6.345
 1180SOL     OW 4438   2.395   1.153   4.327
 1180SOL    HW1 4439   2.298   1.175   4.322
 1180SOL    HW2 4440   2.435   1.157   4.235
 1181SOL     OW 4441   1.226   4.112   2.294
 1181SOL    HW1 4442   1.274   4.199   2.288
 1181SOL    HW2 4443   1.131   4.123   2.264
 1182SOL     OW 4444   0.009   3.528   4.111
 1182SOL    HW1 4445   0.103   3.494   4.109
 1182SOL    HW2 4446   6.998   3.552   4.018
 1183SOL     OW 4447   4.220   6.005   0.960
 1183SOL    HW1 4448   4.310   6.009   0.916
 1183SOL    HW2 4449   4.210   5.918   1.008
 1184SOL     OW 4450   4.403   3.189   6.682
 1184SOL    HW1 4451   4.407   3.280   6.722
 1184SOL    HW2 4452   4.354   3.127   6.743
 1185SOL     OW 4453   3.457   1.542   6.718
 1185SOL    HW1 4454   3.504   1.630   6.722
 1185SOL    HW2 4455   3.520   1.469   6.742
 1186SOL     OW 4456   3.923   6.917   5.009
 1186SOL    HW1 4457   3.881   6.831   5.039
 1186SOL    HW2 4458   3.858   6.968   4.952
 1187SOL     OW 4459   0.299   2.486   4.913
 1187SOL    HW1 4460   0.344   2.418   4.971
 1187SOL    HW2 4461   0.342   2.575   4.925
 1188SOL     OW 4462   2.224   0.652   5.673
 1188SOL    HW1 4463   2.206   0.744   5.636
 1188SOL    HW2 4464   2.282   0.602   5.610
 1189SOL     OW 4465   0.515   1.344   1.292
 1189SOL    HW1 4466   0.605   1.318   1.256
 1189SOL    HW2 4467   0.497   1.294   1.377
 1190SOL     OW 4468   2.922   6.177   1.518
 1190SOL    HW1 4469   2.913   6.164   1.419
 1190SOL    HW2 4470   2.832   6.193   1.558
 1191SOL     OW 4471   1.727   3.870   1.757
 1191SOL    HW1 4472   1.791   3.805   1.716
 1191SOL    HW2 4473   1.709   3.843   1.852
 1192SOL     OW 4474   3.454   5.509   2.419
 1192SOL    HW1 4475   3.413   5.522   2.329
 1192SOL    HW2 4476   3.538   5.564   2.425
 1193SOL     OW 4477   3.043   2.204   3.795
 1193SOL    HW1 4478   2.972   2.248   3.739
 1193SOL    HW2 4479   3.105   2.154   3.735
 1194SOL     OW 4480   6.649   2.605   2.690
 1194SOL    HW1 4481   6.608   2.550   2.763
 1194SOL    HW2 4482   6.593   2.687   2.675
 1195SOL     OW 4483   4.021   0.326   6.847
 1195SOL    HW1 4484   4.014   0.367   6.938
 1195SOL    HW2 4485   4.117   0.317   6.822
 1196SOL     OW 4486   1.453   5.561   3.434
 1196SOL    HW1 4487   1.536   5.539   3.486
 1196SOL    HW2 4488   1.475   5.629   3.364
 1197SOL     OW 4489   3.767   4.761   0.009
 1197SOL    HW1 4490   3.720   4.834   0.059
 1197SOL    HW2 4491   3.865   4.780   0.007
 1198SOL     OW 4492   3.512   1.399   3.403
 1198SOL    HW1 4493   3.560   1.325   3.354
 1198SOL    HW2 4494   3.491   1.369   3.496
 1199SOL     OW 4495   3.324   4.102   4.020
 1199SOL    HW1 4496   3.334   4.084   3.922
 1199SOL    HW2 4497   3.405   4.149   4.054
 1200SOL     OW 4498   4.898   4.089   1.444
 1200SOL    HW1 4499   4.798   4.082   1.454
 1200SOL    HW2 4500   4.930   4.015   1.385
 1201SOL     OW 4501   1.727   1.870   5.639
 1201SOL    HW1 4502   1.778   1.786   5.657
 1201SOL    HW2 4503   1.636   1.864   5.681
 1202SOL     OW 4504   6.207   6.717   4.335
 1202SOL    HW1 4505   6.233   6.638   4.279
 1202SOL    HW2 4506   6.284   6.746   4.390
 1203SOL     OW 4507   5.404   6.934   1.880
 1203SOL    HW1 4508   5.381   7.013   1.823
 1203SOL    HW2 4509   5.503   6.932   1.895
 1204SOL     OW 4510   2.654   0.128   0.416
 1204SOL    HW1 4511   2.579   0.173   0.368
 1204SOL    HW2 4512   2.668   0.171   0.505
 1205SOL     OW 4513   1.069   2.954   6.477
 1205SOL    HW1 4514   1.049   2.905   6.562
 1205SOL    HW2 4515   1.133   2.900   6.422
 1206SOL     OW 4516   6.366   1.694   5.587
 1206SOL    HW1 4517   6.461   1.726   5.595
 1206SOL    HW2 4518   6.360   1.600   5.623
 1207SOL     OW 4519   6.271   5.954   5.957
 1207SOL    HW1 4520   6.307   5.908   5.876
 1207SOL    HW2 4521   6.199   6.018   5.929
 1208SOL     OW 4522   3.532   4.120   3.131
 1208SOL    HW1 4523   3.628   4.097   3.114
 1208SOL    HW2 4524   3.510   4.099   3.226
 1209SOL     OW 4525   7.009   3.492   4.823
 1209SOL    HW1 4526   6.995   3.403   4.778
 1209SOL    HW2 4527   6.992   3.565   4.757
 1210SOL     OW 4528   2.755   0.268   4.326
 1210SOL    HW1 4529   2.809   0.341   4.367
 1210SOL    HW2 4530   2.701   0.222   4.396
 1211SOL     OW 4531   6.698   3.822   3.483
 1211SOL    HW1 4532   6.719   3.742   3.426
 1211SOL    HW2 4533   6.772   3.836   3.549
 1212SOL     OW 4534   1.220   4.238   2.917
 1212SOL    HW1 4535   1.281   4.307   2.956
 1212SOL    HW2 4536   1.184   4.179   2.990
 1213SOL     OW 4537   6.488   3.799   5.032
 1213SOL    HW1 4538   6.575   3.803   5.081
 1213SOL    HW2 4539   6.418   3.760   5.092
 1214SOL     OW 4540   0.360   1.894   0.771
 1214SOL    HW1 4541   0.375   1.955   0.693
 1214SOL    HW2 4542   0.314   1.811   0.740
 1215SOL     OW 4543   0.792   0.070   1.748
 1215SOL    HW1 4544   0.709   0.046   1.698
 1215SOL    HW2 4545   0.863   0.002   1.729
 1216SOL     OW 4546   1.980   0.019   0.926
 1216SOL    HW1 4547   2.025   0.070   0.853
 1216SOL    HW2 4548   1.941   0.083   0.992
 1217SOL     OW 4549   1.659   2.622   3.102
 1217SOL    HW1 4550   1.574   2.571   3.085
 1217SOL    HW2 4551   1.731   2.559   3.128
 1218SOL     OW 4552   6.922   4.408   3.608
 1218SOL    HW1 4553   6.899   4.416   3.512
 1218SOL    HW2 4554   6.969   4.491   3.638
 1219SOL     OW 4555   1.375   6.011   2.776
 1219SOL    HW1 4556   1.346   6.085   2.716
 1219SOL    HW2 4557   1.297   5.951   2.795
 1220SOL     OW 4558   6.580   4.262   3.101
 1220SOL    HW1 4559   6.637   4.314   3.037
 1220SOL    HW2 4560   6.543   4.181   3.055
 1221SOL     OW 4561   4.593   4.986   6.953
 1221SOL    HW1 4562   4.561   4.940   0.019
 1221SOL    HW2 4563   4.642   5.070   6.978
 1222SOL     OW 4564   6.709   5.297   1.103
 1222SOL    HW1 4565   6.614   5.314   1.075
 1222SOL    HW2 4566   6.711   5.270   1.199
 1223SOL     OW 4567   0.525   4.643   4.576
 1223SOL    HW1 4568   0.579   4.562   4.554
 1223SOL    HW2 4569   0.465   4.623   4.653
 1224SOL     OW 4570   4.044   5.398   1.317
 1224SOL    HW1 4571   4.064   5.466   1.388
 1224SOL    HW2 4572   4.098   5.315   1.334
 1225SOL     OW 4573   5.128   1.775   6.567
 1225SOL    HW1 4574   5.188   1.822   6.503
 1225SOL    HW2 4575   5.033   1.785   6.537
 1226SOL     OW 4576   6.035   5.672   0.616
 1226SOL    HW1 4577   6.085   5.641   0.535
 1226SOL    HW2 4578   6.060   5.615   0.695
 1227SOL     OW 4579   6.028   4.298   0.561
 1227SOL    HW1 4580   6.031   4.215   0.505
 1227SOL    HW2 4581   5.936   4.336   0.560
 1228SOL     OW 4582   4.105   3.799   5.012
 1228SOL    HW1 4583   4.046   3.877   4.992
 1228SOL    HW2 4584   4.135   3.756   4.927
 1229SOL     OW 4585   1.917   5.200   2.304
 1229SOL    HW1 4586   1.875   5.290   2.299
 1229SOL    HW2 4587   2.014   5.206   2.277
 1230SOL     OW 4588   5.323   4.438   6.982
 1230SOL    HW1 4589   5.331   4.473   0.058
 1230SOL    HW2 4590   5.409   4.450   6.934
 1231SOL     OW 4591   1.841   0.769   0.862
 1231SOL    HW1 4592   1.831   0.796   0.958
 1231SOL    HW2 4593   1.937   0.772   0.836
 1232SOL     OW 4594   2.198   1.711   5.897
 1232SOL    HW1 4595   2.271   1.702   5.830
 1232SOL    HW2 4596   2.216   1.790   5.956
 1233SOL     OW 4597   0.192   5.297   4.761
 1233SOL    HW1 4598   0.100   5.266   4.736
 1233SOL    HW2 4599   0.204   5.392   4.733
 1234SOL     OW 4600   6.899   4.181   5.097
 1234SOL    HW1 4601   6.870   4.255   5.158
 1234SOL    HW2 4602   6.987   4.144   5.129
 1235SOL     OW 4603   6.557   5.156   0.138
 1235SOL    HW1 4604   6.522   5.101   0.062
 1235SOL    HW2 4605   6.640   5.114   0.174
 1236SOL     OW 4606   0.437   0.889   2.898
 1236SOL    HW1 4607   0.358   0.928   2.851
 1236SOL    HW2 4608   0.506   0.960   2.912
 1237SOL     OW 4609   0.467   0.714   4.881
 1237SOL    HW1 4610   0.512   0.646   4.824
 1237SOL    HW2 4611   0.536   0.771   4.926
 1238SOL     OW 4612   0.631   0.841   4.394
 1238SOL    HW1 4613   0.567   0.850   4.470
 1238SOL    HW2 4614   0.619   0.918   4.332
 1239SOL     OW 4615   5.026   4.906   3.659
 1239SOL    HW1 4616   4.953   4.920   3.726
 1239SOL    HW2 4617   5.054   4.994   3.622
 1240SOL     OW 4618   0.754   3.741   1.955
 1240SOL    HW1 4619   0.792   3.784   1.874
 1240SOL    HW2 4620   0.809   3.765   2.035
 1241SOL     OW 4621   3.374   5.438   6.313
 1241SOL    HW1 4622   3.286   5.484   6.306
 1241SOL    HW2 4623   3.387   5.403   6.405
 1242SOL     OW 4624   2.377   5.728   0.774
 1242SOL    HW1 4625   2.469   5.764   0.786
 1242SOL    HW2 4626   2.372   5.635   0.811
 1243SOL     OW 4627   0.662   4.253   3.985
 1243SOL    HW1 4628   0.727   4.314   3.939
 1243SOL    HW2 4629   0.593   4.223   3.921
 1244SOL     OW 4630   6.402   6.429   4.460
 1244SOL    HW1 4631   6.361   6.395   4.544
 1244SOL    HW2 4632   6.405   6.529   4.463
 1245SOL     OW 4633   4.312   0.215   1.568
 1245SOL    HW1 4634   4.230   0.209   1.625
 1245SOL    HW2 4635   4.308   0.147   1.495
 1246SOL     OW 4636   5.263   2.367   2.300
 1246SOL    HW1 4637   5.214   2.326   2.377
 1246SOL    HW2 4638   5.327   2.436   2.335
 1247SOL     OW 4639   4.690   6.528   2.828
 1247SOL    HW1 4640   4.701   6.627   2.821
 1247SOL    HW2 4641   4.608   6.507   2.882
 1248SOL     OW 4642   6.998   0.482   5.261
 1248SOL    HW1 4643   0.013   0.571   5.230
 1248SOL    HW2 4644   6.903   0.470   5.234
 1249SOL     OW 4645   6.421   6.614   0.122
 1249SOL    HW1 4646   6.459   6.688   0.067
 1249SOL    HW2 4647   6.321   6.621   0.124
 1250SOL     OW 4648   0.414   4.119   4.676
 1250SOL    HW1 4649   0.327   4.110   4.628
 1250SOL    HW2 4650   0.397   4.154   4.768
 1251SOL     OW 4651   2.242   0.413   3.445
 1251SOL    HW1 4652   2.304   0.457   3.509
 1251SOL    HW2 4653   2.196   0.482   3.389
 1252SOL     OW 4654   2.617   4.965   6.234
 1252SOL    HW1 4655   2.659   4.964   6.143
 1252SOL    HW2 4656   2.517   4.964   6.224
 1253SOL     OW 4657   3.401   5.304   0.733
 1253SOL    HW1 4658   3.400   5.329   0.636
 1253SOL    HW2 4659   3.410   5.205   0.741
 1254SOL     OW 4660   6.755   0.962   3.823
 1254SOL    HW1 4661   6.776   1.056   3.850
 1254SOL    HW2 4662   6.665   0.960   3.780
 1255SOL     OW 4663   5.746   1.698   6.331
 1255SOL    HW1 4664   5.662   1.680   6.382
 1255SOL    HW2 4665   5.723   1.722   6.237
 1256SOL     OW 4666   6.166   6.277   5.994
 1256SOL    HW1 4667   6.258   6.291   6.029
 1256SOL    HW2 4668   6.108   6.240   6.067
 1257SOL     OW 4669   6.912   6.356   2.136
 1257SOL    HW1 4670   6.989   6.400   2.088
 1257SOL    HW2 4671   6.923   6.257   2.133
 1258SOL     OW 4672   5.167   5.736   6.237
 1258SOL    HW1 4673   5.186   5.638   6.248
 1258SOL    HW2 4674   5.084   5.760   6.287
 1259SOL     OW 4675   6.356   6.519   4.735
 1259SOL    HW1 4676   6.350   6.608   4.780
 1259SOL    HW2 4677   6.321   6.448   4.796
 1260SOL     OW 4678   3.198   0.645   0.852
 1260SOL    HW1 4679   3.142   0.562   0.851
 1260SOL    HW2 4680   3.249   0.650   0.938
 1261SOL     OW 4681   0.676   4.275   5.064
 1261SOL    HW1 4682   0.757   4.262   5.006
 1261SOL    HW2 4683   0.683   4.361   5.113
 1262SOL     OW 4684   4.688   6.602   0.865
 1262SOL    HW1 4685   4.683   6.618   0.963
 1262SOL    HW2 4686   4.722   6.684   0.819
 1263SOL     OW 4687   6.758   1.138   0.955
 1263SOL    HW1 4688   6.853   1.156   0.931
 1263SOL    HW2 4689   6.733   1.189   1.037
 1264SOL     OW 4690   5.734   2.782   5.046
 1264SOL    HW1 4691   5.689   2.845   4.982
 1264SOL    HW2 4692   5.687   2.694   5.044
 1265SOL     OW 4693   5.657   5.426   4.149
 1265SOL    HW1 4694   5.678   5.350   4.088
 1265SOL    HW2 4695   5.735   5.488   4.154
 1266SOL     OW 4696   2.335   0.752   3.783
 1266SOL    HW1 4697   2.293   0.824   3.839
 1266SOL    HW2 4698   2.428   0.780   3.758
 1267SOL     OW 4699   0.339   4.736   2.271
 1267SOL    HW1 4700   0.254   4.735   2.323
 1267SOL    HW2 4701   0.417   4.737   2.333
 1268SOL     OW 4702   6.388   4.591   6.294
 1268SOL    HW1 4703   6.469   4.597   6.352
 1268SOL    HW2 4704   6.314   4.547   6.344
 1269SOL     OW 4705   1.312   3.617   5.935
 1269SOL    HW1 4706   1.358   3.704   5.954
 1269SOL    HW2 4707   1.379   3.543   5.932
 1270SOL     OW 4708   1.482   2.206   3.673
 1270SOL    HW1 4709   1.517   2.114   3.657
 1270SOL    HW2 4710   1.403   2.222   3.615
 1271SOL     OW 4711   5.344   3.659   2.976
 1271SOL    HW1 4712   5.301   3.572   3.000
 1271SOL    HW2 4713   5.282   3.734   2.998
 1272SOL     OW 4714   5.816   6.535   1.077
 1272SOL    HW1 4715   5.729   6.502   1.113
 1272SOL    HW2 4716   5.806   6.562   0.982
 1273SOL     OW 4717   2.693   6.451   4.354
 1273SOL    HW1 4718   2.688   6.550   4.367
 1273SOL    HW2 4719   2.788   6.422   4.357
 1274SOL     OW 4720   5.276   2.550   1.851
 1274SOL    HW1 4721   5.238   2.482   1.914
 1274SOL    HW2 4722   5.369   2.573   1.880
 1275SOL     OW 4723   3.898   1.235   3.737
 1275SOL    HW1 4724   3.843   1.199   3.813
 1275SOL    HW2 4725   3.843   1.300   3.685
 1276SOL     OW 4726   5.487   6.508   3.549
 1276SOL    HW1 4727   5.403   6.465   3.583
 1276SOL    HW2 4728   5.478   6.525   3.451
 1277SOL     OW 4729   0.712   1.972   4.787
 1277SOL    HW1 4730   0.713   1.997   4.690
 1277SOL    HW2 4731   0.800   1.930   4.811
 1278SOL     OW 4732   2.929   1.694   5.023
 1278SOL    HW1 4733   2.988   1.621   4.988
 1278SOL    HW2 4734   2.881   1.739   4.948
 1279SOL     OW 4735   2.061   4.980   0.482
 1279SOL    HW1 4736   2.023   4.907   0.539
 1279SOL    HW2 4737   2.016   5.066   0.505
 1280SOL     OW 4738   0.836   6.365   3.046
 1280SOL    HW1 4739   0.926   6.328   3.069
 1280SOL    HW2 4740   0.838   6.464   3.056
 1281SOL     OW 4741   0.970   6.581   4.214
 1281SOL    HW1 4742   0.960   6.483   4.199
 1281SOL    HW2 4743   1.039   6.598   4.284
 1282SOL     OW 4744   1.700   6.719   2.560
 1282SOL    HW1 4745   1.717   6.662   2.640
 1282SOL    HW2 4746   1.786   6.756   2.525
 1283SOL     OW 4747   5.249   4.329   5.052
 1283SOL    HW1 4748   5.208   4.385   4.980
 1283SOL    HW2 4749   5.178   4.276   5.098
 1284SOL     OW 4750   2.852   2.301   3.148
 1284SOL    HW1 4751   2.856   2.353   3.233
 1284SOL    HW2 4752   2.944   2.273   3.121
 1285SOL     OW 4753   6.049   2.197   5.801
 1285SOL    HW1 4754   6.088   2.195   5.893
 1285SOL    HW2 4755   5.949   2.203   5.807
 1286SOL     OW 4756   5.208   5.971   0.679
 1286SOL    HW1 4757   5.243   5.964   0.585
 1286SOL    HW2 4758   5.163   5.885   0.704
 1287SOL     OW 4759   6.321   3.133   6.083
 1287SOL    HW1 4760   6.270   3.212   6.048
 1287SOL    HW2 4761   6.278   3.049   6.051
 1288SOL     OW 4762   0.205   3.163   3.627
 1288SOL    HW1 4763   0.124   3.189   3.680
 1288SOL    HW2 4764   0.179   3.143   3.533
 1289SOL     OW 4765   0.582   4.879   3.128
 1289SOL    HW1 4766   0.627   4.953   3.177
 1289SOL    HW2 4767   0.648   4.807   3.109
 1290SOL     OW 4768   6.627   0.266   2.087
 1290SOL    HW1 4769   6.681   0.182   2.082
 1290SOL    HW2 4770   6.672   0.331   2.148
 1291SOL     OW 4771   1.939   5.437   1.287
 1291SOL    HW1 4772   1.914   5.408   1.380
 1291SOL    HW2 4773   1.986   5.362   1.241
 1292SOL     OW 4774   1.386   6.663   1.029
 1292SOL    HW1 4775   1.473   6.707   1.007
 1292SOL    HW2 4776   1.364   6.596   0.958
 1293SOL     OW 4777   6.473   1.238   6.728
 1293SOL    HW1 4778   6.546   1.257   6.794
 1293SOL    HW2 4779   6.513   1.206   6.642
 1294SOL     OW 4780   0.675   1.833   4.309
 1294SOL    HW1 4781   0.665   1.930   4.287
 1294SOL    HW2 4782   0.648   1.818   4.404
 1295SOL     OW 4783   4.898   4.485   0.460
 1295SOL    HW1 4784   4.894   4.504   0.362
 1295SOL    HW2 4785   4.939   4.564   0.507
 1296SOL     OW 4786   3.659   1.516   0.794
 1296SOL    HW1 4787   3.652   1.417   0.784
 1296SOL    HW2 4788   3.675   1.558   0.704
 1297SOL     OW 4789   5.442   0.975   6.320
 1297SOL    HW1 4790   5.417   0.916   6.396
 1297SOL    HW2 4791   5.539   0.997   6.326
 1298SOL     OW 4792   6.048   2.580   3.079
 1298SOL    HW1 4793   6.009   2.648   3.017
 1298SOL    HW2 4794   6.072   2.623   3.166
 1299SOL     OW 4795   1.474   4.119   4.611
 1299SOL    HW1 4796   1.476   4.112   4.711
 1299SOL    HW2 4797   1.392   4.168   4.583
 1300SOL     OW 4798   3.824   3.071   2.956
 1300SOL    HW1 4799   3.787   2.994   3.008
 1300SOL    HW2 4800   3.834   3.045   2.860
 1301SOL     OW 4801   0.888   0.897   1.719
 1301SOL    HW1 4802   0.801   0.939   1.745
 1301SOL    HW2 4803   0.871   0.821   1.656
 1302SOL     OW 4804   2.748   5.985   5.428
 1302SOL    HW1 4805   2.840   5.963   5.462
 1302SOL    HW2 4806   2.742   6.083   5.410
 1303SOL     OW 4807   2.998   0.053   1.656
 1303SOL    HW1 4808   2.946   0.052   1.741
 1303SOL    HW2 4809   3.096   0.061   1.676
 1304SOL     OW 4810   3.712   0.789   5.340
 1304SOL    HW1 4811   3.736   0.742   5.425
 1304SOL    HW2 4812   3.759   0.745   5.263
 1305SOL     OW 4813   5.806   7.009   4.369
 1305SOL    HW1 4814   5.817   0.085   4.336
 1305SOL    HW2 4815   5.861   6.947   4.312
 1306SOL     OW 4816   1.598   5.167   3.713
 1306SOL    HW1 4817   1.630   5.133   3.624
 1306SOL    HW2 4818   1.667   5.230   3.750
 1307SOL     OW 4819   1.310   0.732   5.350
 1307SOL    HW1 4820   1.282   0.828   5.349
 1307SOL    HW2 4821   1.346   0.709   5.441
 1308SOL     OW 4822   4.201   6.680   3.243
 1308SOL    HW1 4823   4.136   6.603   3.239
 1308SOL    HW2 4824   4.235   6.689   3.337
 1309SOL     OW 4825   6.259   3.100   4.308
 1309SOL    HW1 4826   6.286   3.154   4.388
 1309SOL    HW2 4827   6.236   3.007   4.337
 1310SOL     OW 4828   5.726   3.955   5.802
 1310SOL    HW1 4829   5.731   3.917   5.894
 1310SOL    HW2 4830   5.632   3.948   5.768
 1311SOL     OW 4831   4.635   4.728   0.361
 1311SOL    HW1 4832   4.686   4.803   0.319
 1311SOL    HW2 4833   4.683   4.642   0.343
 1312SOL     OW 4834   6.964   1.295   2.102
 1312SOL    HW1 4835   6.966   1.257   2.194
 1312SOL    HW2 4836   0.040   1.302   2.067
 1313SOL     OW 4837   4.038   4.868   5.031
 1313SOL    HW1 4838   4.124   4.819   5.021
 1313SOL    HW2 4839   4.057   4.966   5.039
 1314SOL     OW 4840   0.024   1.042   6.464
 1314SOL    HW1 4841   6.987   1.036   6.548
 1314SOL    HW2 4842   0.044   1.138   6.444
 1315SOL     OW 4843   1.524   6.707   4.331
 1315SOL    HW1 4844   1.612   6.731   4.291
 1315SOL    HW2 4845   1.521   6.739   4.426
 1316SOL     OW 4846   3.352   5.842   3.896
 1316SOL    HW1 4847   3.452   5.850   3.896
 1316SOL    HW2 4848   3.320   5.836   3.801
 1317SOL     OW 4849   0.359   2.965   3.732
 1317SOL    HW1 4850   0.316   2.889   3.684
 1317SOL    HW2 4851   0.319   3.051   3.701
 1318SOL     OW 4852   0.940   0.043   2.599
 1318SOL    HW1 4853   0.973   0.032   2.505
 1318SOL    HW2 4854   0.841   0.055   2.599
 1319SOL     OW 4855   0.480   6.558   0.946
 1319SOL    HW1 4856   0.384   6.588   0.955
 1319SOL    HW2 4857   0.511   6.574   0.853
 1320SOL     OW 4858   5.159   5.119   5.168
 1320SOL    HW1 4859   5.074   5.070   5.146
 1320SOL    HW2 4860   5.145   5.217   5.155
 1321SOL     OW 4861   3.372   1.235   1.000
 1321SOL    HW1 4862   3.338   1.158   0.946
 1321SOL    HW2 4863   3.402   1.203   1.089
 1322SOL     OW 4864   4.500   1.274   6.266
 1322SOL    HW1 4865   4.564   1.244   6.337
 1322SOL    HW2 4866   4.548   1.281   6.179
 1323SOL     OW 4867   6.379   0.803   4.386
 1323SOL    HW1 4868   6.397   0.710   4.355
 1323SOL    HW2 4869   6.438   0.824   4.464
 1324SOL     OW 4870   1.305   2.822   0.435
 1324SOL    HW1 4871   1.400   2.847   0.452
 1324SOL    HW2 4872   1.251   2.837   0.518
 1325SOL     OW 4873   4.726   4.940   3.539
 1325SOL    HW1 4874   4.655   4.872   3.523
 1325SOL    HW2 4875   4.698   4.999   3.615
 1326SOL     OW 4876   5.492   4.140   4.211
 1326SOL    HW1 4877   5.414   4.155   4.271
 1326SOL    HW2 4878   5.493   4.045   4.181
 1327SOL     OW 4879   2.669   6.247   3.481
 1327SOL    HW1 4880   2.698   6.183   3.409
 1327SOL    HW2 4881   2.748   6.276   3.534
 1328SOL     OW 4882   2.296   1.944   1.692
 1328SOL    HW1 4883   2.354   1.894   1.627
 1328SOL    HW2 4884   2.351   1.978   1.767
 1329SOL     OW 4885   1.314   5.924   1.415
 1329SOL    HW1 4886   1.390   5.981   1.446
 1329SOL    HW2 4887   1.314   5.838   1.465
 1330SOL     OW 4888   5.340   6.739   1.715
 1330SOL    HW1 4889   5.433   6.702   1.714
 1330SOL    HW2 4890   5.333   6.812   1.783
 1331SOL     OW 4891   0.751   2.098   1.389
 1331SOL    HW1 4892   0.665   2.112   1.438
 1331SOL    HW2 4893   0.753   2.157   1.309
 1332SOL     OW 4894   4.702   2.038   0.415
 1332SOL    HW1 4895   4.675   2.129   0.445
 1332SOL    HW2 4896   4.632   2.002   0.352
 1333SOL     OW 4897   4.091   3.252   5.414
 1333SOL    HW1 4898   4.039   3.319   5.363
 1333SOL    HW2 4899   4.034   3.173   5.435
 1334SOL     OW 4900   1.728   3.320   4.518
 1334SOL    HW1 4901   1.647   3.326   4.576
 1334SOL    HW2 4902   1.776   3.407   4.518
 1335SOL     OW 4903   1.983   5.009   3.631
 1335SOL    HW1 4904   2.027   4.920   3.633
 1335SOL    HW2 4905   2.052   5.081   3.630
 1336SOL     OW 4906   0.369   6.632   5.340
 1336SOL    HW1 4907   0.433   6.680   5.280
 1336SOL    HW2 4908   0.278   6.672   5.329
 1337SOL     OW 4909   3.331   0.216   6.800
 1337SOL    HW1 4910   3.282   0.164   6.730
 1337SOL    HW2 4911   3.407   0.265   6.758
 1338SOL     OW 4912   3.794   4.748   0.846
 1338SOL    HW1 4913   3.799   4.794   0.758
 1338SOL    HW2 4914   3.761   4.654   0.833
 1339SOL     OW 4915   0.034   4.087   6.498
 1339SOL    HW1 4916   0.084   4.155   6.552
 1339SOL    HW2 4917   0.038   3.999   6.544
 1340SOL     OW 4918   2.968   2.146   6.104
 1340SOL    HW1 4919   3.023   2.230   6.098
 1340SOL    HW2 4920   2.929   2.125   6.014
 1341SOL     OW 4921   5.341   1.504   4.315
 1341SOL    HW1 4922   5.427   1.531   4.357
 1341SOL    HW2 4923   5.310   1.575   4.252
 1342SOL     OW 4924   0.095   6.344   0.284
 1342SOL    HW1 4925   0.176   6.402   0.279
 1342SOL    HW2 4926   0.114   6.267   0.345
 1343SOL     OW 4927   2.970   6.197   2.990
 1343SOL    HW1 4928   3.063   6.221   3.018
 1343SOL    HW2 4929   2.905   6.257   3.037
 1344SOL     OW 4930   4.715   1.537   2.389
 1344SOL    HW1 4931   4.754   1.628   2.399
 1344SOL    HW2 4932   4.739   1.481   2.468
 1345SOL     OW 4933   6.457   5.565   2.451
 1345SOL    HW1 4934   6.470   5.643   2.511
 1345SOL    HW2 4935   6.365   5.528   2.465
 1346SOL     OW 4936   6.712   1.786   3.109
 1346SOL    HW1 4937   6.700   1.708   3.171
 1346SOL    HW2 4938   6.635   1.790   3.046
 1347SOL     OW 4939   4.424   1.041   3.877
 1347SOL    HW1 4940   4.379   1.038   3.966
 1347SOL    HW2 4941   4.404   0.957   3.827
 1348SOL     OW 4942   5.135   6.097   5.065
 1348SOL    HW1 4943   5.218   6.108   5.119
 1348SOL    HW2 4944   5.058   6.139   5.114
 1349SOL     OW 4945   5.060   1.755   6.971
 1349SOL    HW1 4946   5.042   1.692   6.895
 1349SOL    HW2 4947   4.974   1.784   7.012
 1350SOL     OW 4948   3.912   1.511   4.679
 1350SOL    HW1 4949   3.898   1.568   4.760
 1350SOL    HW2 4950   3.824   1.476   4.648
 1351SOL     OW 4951   1.136   1.545   3.947
 1351SOL    HW1 4952   1.219   1.579   3.994
 1351SOL    HW2 4953   1.060   1.608   3.966
 1352SOL     OW 4954   1.101   6.150   4.690
 1352SOL    HW1 4955   1.039   6.125   4.615
 1352SOL    HW2 4956   1.172   6.079   4.698
 1353SOL     OW 4957   2.687   3.652   6.058
 1353SOL    HW1 4958   2.774   3.605   6.076
 1353SOL    HW2 4959   2.680   3.671   5.960
 1354SOL     OW 4960   0.242   6.324   6.710
 1354SOL    HW1 4961   0.209   6.362   6.795
 1354SOL    HW2 4962   0.165   6.297   6.652
 1355SOL     OW 4963   5.055   3.537   0.270
 1355SOL    HW1 4964   4.957   3.528   0.292
 1355SOL    HW2 4965   5.090   3.450   0.237
 1356SOL     OW 4966   3.363   3.028   2.649
 1356SOL    HW1 4967   3.408   3.097   2.705
 1356SOL    HW2 4968   3.430   2.989   2.585
 1357SOL     OW 4969   3.785   2.457   5.761
 1357SOL    HW1 4970   3.828   2.452   5.851
 1357SOL    HW2 4971   3.692   2.419   5.767
 1358SOL     OW 4972   1.573   3.128   5.131
 1358SOL    HW1 4973   1.488   3.139   5.079
 1358SOL    HW2 4974   1.581   3.202   5.198
 1359SOL     OW 4975   0.554   1.751   6.715
 1359SOL    HW1 4976   0.562   1.849   6.701
 1359SOL    HW2 4977   0.459   1.723   6.707
 1360SOL     OW 4978   3.290   3.235   4.449
 1360SOL    HW1 4979   3.248   3.322   4.473
 1360SOL    HW2 4980   3.274   3.168   4.522
 1361SOL     OW 4981   1.453   6.177   0.870
 1361SOL    HW1 4982   1.502   6.090   0.869
 1361SOL    HW2 4983   1.514   6.250   0.838
 1362SOL     OW 4984   3.455   1.178   6.377
 1362SOL    HW1 4985   3.529   1.239   6.406
 1362SOL    HW2 4986   3.493   1.087   6.359
 1363SOL     OW 4987   6.496   6.381   1.157
 1363SOL    HW1 4988   6.447   6.312   1.209
 1363SOL    HW2 4989   6.590   6.388   1.191
 1364SOL     OW 4990   1.021   3.285   0.571
 1364SOL    HW1 4991   0.992   3.329   0.656
 1364SOL    HW2 4992   0.982   3.334   0.494
 1365SOL     OW 4993   1.507   3.118   6.780
 1365SOL    HW1 4994   1.412   3.107   6.810
 1365SOL    HW2 4995   1.565   3.138   6.859
 1366SOL     OW 4996   3.724   1.285   1.816
 1366SOL    HW1 4997   3.698   1.206   1.871
 1366SOL    HW2 4998   3.796   1.260   1.752
 1367SOL     OW 4999   1.605   0.318   4.531
 1367SOL    HW1 5000   1.588   0.228   4.490
 1367SOL    HW2 5001   1.547   0.329   4.611
 1368SOL     OW 5002   1.522   5.905   5.129
 1368SOL    HW1 5003   1.548   5.860   5.215
 1368SOL    HW2 5004   1.597   5.962   5.097
 1369SOL     OW 5005   2.140   5.596   3.235
 1369SOL    HW1 5006   2.054   5.619   3.281
 1369SOL    HW2 5007   2.154   5.497   3.237
 1370SOL     OW 5008   7.016   2.924   2.952
 1370SOL    HW1 5009   0.085   2.907   2.905
 1370SOL    HW2 5010   6.957   2.979   2.892
 1371SOL     OW 5011   6.148   1.717   6.696
 1371SOL    HW1 5012   6.119   1.798   6.747
 1371SOL    HW2 5013   6.092   1.638   6.722
 1372SOL     OW 5014   5.163   2.423   2.048
 1372SOL    HW1 5015   5.224   2.399   2.124
 1372SOL    HW2 5016   5.072   2.441   2.084
 1373SOL     OW 5017   4.468   2.492   1.475
 1373SOL    HW1 5018   4.538   2.539   1.421
 1373SOL    HW2 5019   4.422   2.558   1.534
 1374SOL     OW 5020   3.410   4.131   3.389
 1374SOL    HW1 5021   3.374   4.079   3.466
 1374SOL    HW2 5022   3.365   4.220   3.384
 1375SOL     OW 5023   5.548   4.146   5.157
 1375SOL    HW1 5024   5.645   4.124   5.145
 1375SOL    HW2 5025   5.492   4.077   5.112
 1376SOL     OW 5026   3.225   4.724   5.997
 1376SOL    HW1 5027   3.157   4.732   6.069
 1376SOL    HW2 5028   3.241   4.814   5.956
 1377SOL     OW 5029   1.264   2.410   3.583
 1377SOL    HW1 5030   1.167   2.408   3.558
 1377SOL    HW2 5031   1.283   2.491   3.638
 1378SOL     OW 5032   4.392   2.420   4.056
 1378SOL    HW1 5033   4.451   2.487   4.102
 1378SOL    HW2 5034   4.403   2.330   4.100
 1379SOL     OW 5035   4.966   5.860   6.348
 1379SOL    HW1 5036   5.032   5.931   6.373
 1379SOL    HW2 5037   4.875   5.887   6.379
 1380SOL     OW 5038   0.124   6.013   4.270
 1380SOL    HW1 5039   0.201   6.061   4.228
 1380SOL    HW2 5040   0.087   5.946   4.206
 1381SOL     OW 5041   6.927   2.337   6.228
 1381SOL    HW1 5042   6.891   2.429   6.215
 1381SOL    HW2 5043   6.935   2.292   6.139
 1382SOL     OW 5044   4.437   2.348   5.622
 1382SOL    HW1 5045   4.373   2.324   5.695
 1382SOL    HW2 5046   4.464   2.444   5.631
 1383SOL     OW 5047   5.321   0.358   0.985
 1383SOL    HW1 5048   5.334   0.373   0.887
 1383SOL    HW2 5049   5.225   0.369   1.008
 1384SOL     OW 5050   5.498   1.917   2.599
 1384SOL    HW1 5051   5.465   1.876   2.514
 1384SOL    HW2 5052   5.494   2.016   2.592
 1385SOL     OW 5053   6.865   6.519   1.925
 1385SOL    HW1 5054   6.824   6.492   1.838
 1385SOL    HW2 5055   6.881   6.437   1.980
 1386SOL     OW 5056   1.837   0.454   4.564
 1386SOL    HW1 5057   1.822   0.550   4.585
 1386SOL    HW2 5058   1.749   0.406   4.565
 1387SOL     OW 5059   0.799   5.811   1.958
 1387SOL    HW1 5060   0.867   5.801   2.031
 1387SOL    HW2 5061   0.768   5.720   1.930
 1388SOL     OW 5062   6.537   1.173   1.754
 1388SOL    HW1 5063   6.608   1.119   1.799
 1388SOL    HW2 5064   6.484   1.222   1.823
 1389SOL     OW 5065   6.425   1.164   1.472
 1389SOL    HW1 5066   6.335   1.204   1.459
 1389SOL    HW2 5067   6.446   1.160   1.570
 1390SOL     OW 5068   0.917   1.476   4.376
 1390SOL    HW1 5069   0.915   1.563   4.425
 1390SOL    HW2 5070   0.938   1.402   4.441
 1391SOL     OW 5071   0.927   3.151   3.471
 1391SOL    HW1 5072   0.907   3.136   3.568
 1391SOL    HW2 5073   0.903   3.068   3.419
 1392SOL     OW 5074   5.902   5.535   3.809
 1392SOL    HW1 5075   5.872   5.528   3.905
 1392SOL    HW2 5076   5.826   5.570   3.754
 1393SOL     OW 5077   3.505   4.936   6.810
 1393SOL    HW1 5078   3.476   5.030   6.828
 1393SOL    HW2 5079   3.603   4.927   6.832
 1394SOL     OW 5080   1.182   6.660   6.750
 1394SOL    HW1 5081   1.195   6.561   6.753
 1394SOL    HW2 5082   1.265   6.704   6.717
 1395SOL     OW 5083   4.013   4.672   6.380
 1395SOL    HW1 5084   3.924   4.714   6.362
 1395SOL    HW2 5085   4.003   4.606   6.455
 1396SOL     OW 5086   5.018   5.809   3.208
 1396SOL    HW1 5087   5.075   5.730   3.187
 1396SOL    HW2 5088   5.074   5.892   3.207
 1397SOL     OW 5089   5.842   6.229   4.998
 1397SOL    HW1 5090   5.870   6.301   4.935
 1397SOL    HW2 5091   5.838   6.142   4.949
 1398SOL     OW 5092   1.569   6.982   5.386
 1398SOL    HW1 5093   1.539   0.034   5.450
 1398SOL    HW2 5094   1.655   6.941   5.418
 1399SOL     OW 5095   2.790   5.326   2.268
 1399SOL    HW1 5096   2.828   5.356   2.356
 1399SOL    HW2 5097   2.749   5.236   2.279
 1400SOL     OW 5098   0.972   0.375   3.546
 1400SOL    HW1 5099   0.962   0.311   3.622
 1400SOL    HW2 5100   0.945   0.466   3.575
 1401SOL     OW 5101   6.827   2.322   4.213
 1401SOL    HW1 5102   6.817   2.353   4.308
 1401SOL    HW2 5103   6.848   2.400   4.155
 1402SOL     OW 5104   5.710   2.576   0.160
 1402SOL    HW1 5105   5.726   2.478   0.161
 1402SOL    HW2 5106   5.647   2.600   0.234
 1403SOL     OW 5107   3.950   0.883   2.057
 1403SOL    HW1 5108   3.993   0.793   2.062
 1403SOL    HW2 5109   3.937   0.908   1.961
 1404SOL     OW 5110   4.132   0.998   0.154
 1404SOL    HW1 5111   4.081   1.006   0.068
 1404SOL    HW2 5112   4.082   1.045   0.227
 1405SOL     OW 5113   3.744   2.735   0.815
 1405SOL    HW1 5114   3.732   2.663   0.884
 1405SOL    HW2 5115   3.819   2.709   0.754
 1406SOL     OW 5116   1.058   3.246   2.333
 1406SOL    HW1 5117   1.078   3.209   2.423
 1406SOL    HW2 5118   1.076   3.176   2.263
 1407SOL     OW 5119   6.769   2.430   2.500
 1407SOL    HW1 5120   6.723   2.496   2.560
 1407SOL    HW2 5121   6.851   2.394   2.547
 1408SOL     OW 5122   6.293   5.241   6.485
 1408SOL    HW1 5123   6.307   5.273   6.391
 1408SOL    HW2 5124   6.379   5.208   6.523
 1409SOL     OW 5125   0.337   1.339   4.119
 1409SOL    HW1 5126   0.314   1.333   4.216
 1409SOL    HW2 5127   0.437   1.341   4.108
 1410SOL     OW 5128   7.007   1.847   6.591
 1410SOL    HW1 5129   0.004   1.862   6.688
 1410SOL    HW2 5130   6.963   1.759   6.577
 1411SOL     OW 5131   1.825   1.543   1.353
 1411SOL    HW1 5132   1.781   1.454   1.355
 1411SOL    HW2 5133   1.911   1.537   1.301
 1412SOL     OW 5134   1.798   2.459   0.132
 1412SOL    HW1 5135   1.803   2.495   0.040
 1412SOL    HW2 5136   1.708   2.417   0.147
 1413SOL     OW 5137   3.264   7.016   3.349
 1413SOL    HW1 5138   3.350   0.037   3.381
 1413SOL    HW2 5139   3.255   6.922   3.383
 1414SOL     OW 5140   1.654   1.326   2.493
 1414SOL    HW1 5141   1.555   1.327   2.476
 1414SOL    HW2 5142   1.682   1.415   2.529
 1415SOL     OW 5143   5.735   6.876   4.771
 1415SOL    HW1 5144   5.801   6.908   4.703
 1415SOL    HW2 5145   5.662   6.825   4.725
 1416SOL     OW 5146   4.973   5.372   3.457
 1416SOL    HW1 5147   4.909   5.441   3.490
 1416SOL    HW2 5148   4.938   5.334   3.371
 1417SOL     OW 5149   3.894   2.633   6.085
 1417SOL    HW1 5150   3.850   2.697   6.148
 1417SOL    HW2 5151   3.838   2.551   6.077
 1418SOL     OW 5152   3.219   4.024   3.543
 1418SOL    HW1 5153   3.178   3.962   3.609
 1418SOL    HW2 5154   3.185   4.003   3.451
 1419SOL     OW 5155   3.285   6.392   3.460
 1419SOL    HW1 5156   3.191   6.397   3.496
 1419SOL    HW2 5157   3.350   6.399   3.536
 1420SOL     OW 5158   0.745   6.239   2.806
 1420SOL    HW1 5159   0.686   6.287   2.741
 1420SOL    HW2 5160   0.795   6.305   2.862
 1421SOL     OW 5161   3.766   1.063   2.966
 1421SOL    HW1 5162   3.752   1.162   2.971
 1421SOL    HW2 5163   3.863   1.041   2.977
 1422SOL     OW 5164   2.339   6.199   0.843
 1422SOL    HW1 5165   2.313   6.275   0.903
 1422SOL    HW2 5166   2.288   6.117   0.869
 1423SOL     OW 5167   4.828   0.936   2.565
 1423SOL    HW1 5168   4.831   1.016   2.625
 1423SOL    HW2 5169   4.735   0.900   2.561
 1424SOL     OW 5170   6.669   5.484   2.733
 1424SOL    HW1 5171   6.623   5.474   2.822
 1424SOL    HW2 5172   6.619   5.552   2.679
 1425SOL     OW 5173   2.177   0.531   4.418
 1425SOL    HW1 5174   2.091   0.479   4.415
 1425SOL    HW2 5175   2.180   0.594   4.341
 1426SOL     OW 5176   1.634   1.357   6.112
 1426SOL    HW1 5177   1.634   1.428   6.041
 1426SOL    HW2 5178   1.575   1.385   6.187
 1427SOL     OW 5179   5.378   2.201   6.049
 1427SOL    HW1 5180   5.296   2.148   6.072
 1427SOL    HW2 5181   5.351   2.279   5.992
 1428SOL     OW 5182   5.624   0.639   0.742
 1428SOL    HW1 5183   5.575   0.633   0.829
 1428SOL    HW2 5184   5.567   0.687   0.675
 1429SOL     OW 5185   5.543   5.851   0.188
 1429SOL    HW1 5186   5.513   5.757   0.174
 1429SOL    HW2 5187   5.545   5.872   0.286
 1430SOL     OW 5188   3.069   5.023   2.554
 1430SOL    HW1 5189   3.056   4.974   2.640
 1430SOL    HW2 5190   3.017   4.978   2.482
 1431SOL     OW 5191   2.066   0.429   0.837
 1431SOL    HW1 5192   1.973   0.463   0.826
 1431SOL    HW2 5193   2.112   0.480   0.910
 1432SOL     OW 5194   3.513   6.759   1.511
 1432SOL    HW1 5195   3.553   6.711   1.434
 1432SOL    HW2 5196   3.549   6.721   1.596
 1433SOL     OW 5197   5.388   6.894   3.683
 1433SOL    HW1 5198   5.368   6.907   3.780
 1433SOL    HW2 5199   5.372   6.799   3.657
 1434SOL     OW 5200   1.028   0.931   5.130
 1434SOL    HW1 5201   1.099   0.963   5.193
 1434SOL    HW2 5202   0.938   0.955   5.166
 1435SOL     OW 5203   6.660   2.352   3.655
 1435SOL    HW1 5204   6.638   2.329   3.750
 1435SOL    HW2 5205   6.636   2.276   3.595
 1436SOL     OW 5206   5.202   3.069   1.297
 1436SOL    HW1 5207   5.237   3.055   1.205
 1436SOL    HW2 5208   5.182   3.166   1.310
 1437SOL     OW 5209   4.755   0.661   2.798
 1437SOL    HW1 5210   4.682   0.729   2.807
 1437SOL    HW2 5211   4.746   0.592   2.870
 1438SOL     OW 5212   2.611   0.156   2.200
 1438SOL    HW1 5213   2.631   0.061   2.176
 1438SOL    HW2 5214   2.694   0.211   2.189
 1439SOL     OW 5215   0.450   5.794   2.029
 1439SOL    HW1 5216   0.451   5.694   2.024
 1439SOL    HW2 5217   0.541   5.830   2.012
 1440SOL     OW 5218   2.451   2.748   1.426
 1440SOL    HW1 5219   2.519   2.753   1.354
 1440SOL    HW2 5220   2.470   2.669   1.485
 1441SOL     OW 5221   4.802   6.106   6.739
 1441SOL    HW1 5222   4.902   6.114   6.744
 1441SOL    HW2 5223   4.772   6.026   6.791
 1442SOL     OW 5224   5.221   5.671   1.663
 1442SOL    HW1 5225   5.122   5.664   1.668
 1442SOL    HW2 5226   5.261   5.583   1.639
 1443SOL     OW 5227   6.772   2.767   2.232
 1443SOL    HW1 5228   6.793   2.709   2.153
 1443SOL    HW2 5229   6.673   2.781   2.238
 1444SOL     OW 5230   0.449   6.373   5.375
 1444SOL    HW1 5231   0.411   6.464   5.357
 1444SOL    HW2 5232   0.540   6.384   5.416
 1445SOL     OW 5233   0.740   2.215   1.139
 1445SOL    HW1 5234   0.791   2.290   1.096
 1445SOL    HW2 5235   0.669   2.182   1.076
 1446SOL     OW 5236   6.671   5.179   1.430
 1446SOL    HW1 5237   6.653   5.146   1.523
 1446SOL    HW2 5238   6.762   5.220   1.425
 1447SOL     OW 5239   0.293   6.241   4.184
 1447SOL    HW1 5240   0.239   6.324   4.166
 1447SOL    HW2 5241   0.364   6.233   4.115
 1448SOL     OW 5242   1.637   1.215   5.661
 1448SOL    HW1 5243   1.666   1.310   5.676
 1448SOL    HW2 5244   1.632   1.197   5.563
 1449SOL     OW 5245   1.646   2.920   2.693
 1449SOL    HW1 5246   1.652   2.840   2.634
 1449SOL    HW2 5247   1.731   2.972   2.686
 1450SOL     OW 5248   3.096   2.131   2.815
 1450SOL    HW1 5249   3.042   2.143   2.732
 1450SOL    HW2 5250   3.186   2.095   2.791
 1451SOL     OW 5251   4.219   2.066   2.478
 1451SOL    HW1 5252   4.288   2.053   2.549
 1451SOL    HW2 5253   4.137   2.013   2.500
 1452SOL     OW 5254   4.366   2.923   5.561
 1452SOL    HW1 5255   4.327   2.843   5.517
 1452SOL    HW2 5256   4.328   2.933   5.653
 1453SOL     OW 5257   1.109   3.603   5.320
 1453SOL    HW1 5258   1.089   3.621   5.224
 1453SOL    HW2 5259   1.025   3.583   5.369
 1454SOL     OW 5260   2.955   2.138   2.548
 1454SOL    HW1 5261   2.914   2.154   2.459
 1454SOL    HW2 5262   3.043   2.091   2.537
 1455SOL     OW 5263   0.538   5.500   2.260
 1455SOL    HW1 5264   0.603   5.575   2.271
 1455SOL    HW2 5265   0.546   5.437   2.338
 1456SOL     OW 5266   6.763   5.503   3.932
 1456SOL    HW1 5267   6.848   5.470   3.973
 1456SOL    HW2 5268   6.706   5.425   3.905
 1457SOL     OW 5269   0.992   5.100   5.664
 1457SOL    HW1 5270   0.922   5.086   5.733
 1457SOL    HW2 5271   1.032   5.191   5.675
 1458SOL     OW 5272   6.749   5.457   4.808
 1458SOL    HW1 5273   6.808   5.414   4.740
 1458SOL    HW2 5274   6.725   5.550   4.778
 1459SOL     OW 5275   0.026   6.285   5.539
 1459SOL    HW1 5276   0.096   6.215   5.548
 1459SOL    HW2 5277   0.056   6.355   5.474
 1460SOL     OW 5278   1.454   5.834   4.818
 1460SOL    HW1 5279   1.362   5.850   4.783
 1460SOL    HW2 5280   1.458   5.745   4.863
 1461SOL     OW 5281   5.890   3.833   3.496
 1461SOL    HW1 5282   5.898   3.901   3.569
 1461SOL    HW2 5283   5.873   3.880   3.409
 1462SOL     OW 5284   1.030   1.907   2.113
 1462SOL    HW1 5285   0.990   1.980   2.058
 1462SOL    HW2 5286   0.958   1.857   2.160
 1463SOL     OW 5287   1.481   4.762   6.668
 1463SOL    HW1 5288   1.561   4.794   6.618
 1463SOL    HW2 5289   1.468   4.817   6.750
 1464SOL     OW 5290   0.853   4.238   5.354
 1464SOL    HW1 5291   0.940   4.275   5.384
 1464SOL    HW2 5292   0.792   4.313   5.327
 1465SOL     OW 5293   0.927   3.068   5.777
 1465SOL    HW1 5294   1.014   3.096   5.736
 1465SOL    HW2 5295   0.866   3.034   5.705
 1466SOL     OW 5296   5.875   0.693   2.699
 1466SOL    HW1 5297   5.849   0.737   2.784
 1466SOL    HW2 5298   5.878   0.760   2.625
 1467SOL     OW 5299   0.021   0.358   3.870
 1467SOL    HW1 5300   0.044   0.285   3.805
 1467SOL    HW2 5301   6.956   0.333   3.921
 1468SOL     OW 5302   3.618   6.620   3.610
 1468SOL    HW1 5303   3.629   6.530   3.652
 1468SOL    HW2 5304   3.659   6.690   3.669
 1469SOL     OW 5305   5.770   4.588   3.045
 1469SOL    HW1 5306   5.869   4.592   3.058
 1469SOL    HW2 5307   5.740   4.493   3.049
 1470SOL     OW 5308   6.353   2.186   2.227
 1470SOL    HW1 5309   6.341   2.088   2.217
 1470SOL    HW2 5310   6.302   2.234   2.156
 1471SOL     OW 5311   4.882   6.775   0.098
 1471SOL    HW1 5312   4.791   6.782   0.139
 1471SOL    HW2 5313   4.948   6.819   0.159
 1472SOL     OW 5314   2.481   0.871   6.718
 1472SOL    HW1 5315   2.526   0.882   6.630
 1472SOL    HW2 5316   2.386   0.841   6.704
 1473SOL     OW 5317   1.667   5.573   3.610
 1473SOL    HW1 5318   1.737   5.639   3.636
 1473SOL    HW2 5319   1.674   5.492   3.669
 1474SOL     OW 5320   1.621   3.908   1.497
 1474SOL    HW1 5321   1.587   4.001   1.481
 1474SOL    HW2 5322   1.648   3.898   1.592
 1475SOL     OW 5323   6.620   0.027   6.473
 1475SOL    HW1 5324   6.682   7.002   6.407
 1475SOL    HW2 5325   6.669   0.099   6.523
 1476SOL     OW 5326   5.838   0.164   6.823
 1476SOL    HW1 5327   5.789   0.174   6.737
 1476SOL    HW2 5328   5.775   0.176   6.899
 1477SOL     OW 5329   3.370   4.025   2.184
 1477SOL    HW1 5330   3.292   4.008   2.245
 1477SOL    HW2 5331   3.445   4.066   2.235
 1478SOL     OW 5332   5.048   4.101   6.318
 1478SOL    HW1 5333   4.992   4.055   6.250
 1478SOL    HW2 5334   5.044   4.051   6.404
 1479SOL     OW 5335   4.893   4.534   1.020
 1479SOL    HW1 5336   4.906   4.487   0.933
 1479SOL    HW2 5337   4.867   4.629   1.003
 1480SOL     OW 5338   3.280   1.610   3.644
 1480SOL    HW1 5339   3.183   1.606   3.620
 1480SOL    HW2 5340   3.296   1.684   3.708
 1481SOL     OW 5341   4.423   1.704   5.445
 1481SOL    HW1 5342   4.450   1.739   5.534
 1481SOL    HW2 5343   4.477   1.748   5.374
 1482SOL     OW 5344   6.358   1.323   1.923
 1482SOL    HW1 5345   6.327   1.301   2.015
 1482SOL    HW2 5346   6.389   1.418   1.919
 1483SOL     OW 5347   6.395   6.531   0.526
 1483SOL    HW1 5348   6.422   6.602   0.460
 1483SOL    HW2 5349   6.382   6.445   0.478
 1484SOL     OW 5350   2.817   6.042   5.072
 1484SOL    HW1 5351   2.743   6.085   5.020
 1484SOL    HW2 5352   2.779   5.988   5.146
 1485SOL     OW 5353   5.115   3.955   3.524
 1485SOL    HW1 5354   5.041   3.890   3.510
 1485SOL    HW2 5355   5.111   3.991   3.618
 1486SOL     OW 5356   6.046   6.391   4.045
 1486SOL    HW1 5357   6.110   6.315   4.042
 1486SOL    HW2 5358   5.999   6.399   3.957
 1487SOL     OW 5359   5.735   0.763   6.959
 1487SOL    HW1 5360   5.784   0.677   6.971
 1487SOL    HW2 5361   5.747   0.796   6.866
 1488SOL     OW 5362   6.956   2.773   2.685
 1488SOL    HW1 5363   6.976   2.868   2.663
 1488SOL    HW2 5364   6.936   2.723   2.601
 1489SOL     OW 5365   3.144   5.571   0.074
 1489SOL    HW1 5366   3.228   5.574   0.129
 1489SOL    HW2 5367   3.166   5.538   7.000
 1490SOL     OW 5368   5.978   2.834   2.352
 1490SOL    HW1 5369   5.920   2.835   2.433
 1490SOL    HW2 5370   6.054   2.771   2.367
 1491SOL     OW 5371   5.187   3.016   4.508
 1491SOL    HW1 5372   5.268   2.965   4.480
 1491SOL    HW2 5373   5.142   2.969   4.584
 1492SOL     OW 5374   1.348   2.508   1.995
 1492SOL    HW1 5375   1.381   2.576   1.930
 1492SOL    HW2 5376   1.282   2.550   2.057
 1493SOL     OW 5377   6.267   1.758   6.389
 1493SOL    HW1 5378   6.178   1.742   6.347
 1493SOL    HW2 5379   6.282   1.693   6.463
 1494SOL     OW 5380   1.312   3.589   6.735
 1494SOL    HW1 5381   1.285   3.493   6.730
 1494SOL    HW2 5382   1.257   3.643   6.672
 1495SOL     OW 5383   6.257   4.308   3.950
 1495SOL    HW1 5384   6.301   4.245   4.015
 1495SOL    HW2 5385   6.243   4.396   3.994
 1496SOL     OW 5386   6.772   6.536   5.654
 1496SOL    HW1 5387   6.793   6.439   5.671
 1496SOL    HW2 5388   6.855   6.583   5.623
 1497SOL     OW 5389   4.668   2.251   2.699
 1497SOL    HW1 5390   4.738   2.209   2.756
 1497SOL    HW2 5391   4.614   2.315   2.753
 1498SOL     OW 5392   3.393   4.411   0.868
 1498SOL    HW1 5393   3.301   4.445   0.882
 1498SOL    HW2 5394   3.411   4.334   0.929
 1499SOL     OW 5395   0.779   4.128   4.211
 1499SOL    HW1 5396   0.721   4.163   4.137
 1499SOL    HW2 5397   0.833   4.051   4.177
 1500SOL     OW 5398   2.282   5.310   1.866
 1500SOL    HW1 5399   2.346   5.345   1.935
 1500SOL    HW2 5400   2.216   5.249   1.910
 1501SOL     OW 5401   5.267   1.175   1.210
 1501SOL    HW1 5402   5.318   1.164   1.295
 1501SOL    HW2 5403   5.169   1.167   1.228
 1502SOL     OW 5404   0.693   6.204   6.163
 1502SOL    HW1 5405   0.600   6.234   6.181
 1502SOL    HW2 5406   0.725   6.145   6.237
 1503SOL     OW 5407   6.370   5.856   2.007
 1503SOL    HW1 5408   6.363   5.925   1.935
 1503SOL    HW2 5409   6.345   5.896   2.094
 1504SOL     OW 5410   1.731   6.852   3.297
 1504SOL    HW1 5411   1.745   6.753   3.287
 1504SOL    HW2 5412   1.645   6.878   3.253
 1505SOL     OW 5413   6.798   4.675   4.785
 1505SOL    HW1 5414   6.890   4.683   4.824
 1505SOL    HW2 5415   6.742   4.614   4.841
 1506SOL     OW 5416   1.088   1.303   0.657
 1506SOL    HW1 5417   1.100   1.266   0.749
 1506SOL    HW2 5418   0.992   1.327   0.644
 1507SOL     OW 5419   2.214   2.448   3.487
 1507SOL    HW1 5420   2.312   2.459   3.473
 1507SOL    HW2 5421   2.186   2.356   3.459
 1508SOL     OW 5422   1.297   0.826   1.720
 1508SOL    HW1 5423   1.359   0.804   1.796
 1508SOL    HW2 5424   1.333   0.904   1.669
 1509SOL     OW 5425   4.398   0.999   4.612
 1509SOL    HW1 5426   4.422   1.006   4.709
 1509SOL    HW2 5427   4.303   1.029   4.599
 1510SOL     OW 5428   2.707   6.739   5.390
 1510SOL    HW1 5429   2.609   6.758   5.381
 1510SOL    HW2 5430   2.738   6.768   5.480
 1511SOL     OW 5431   4.022   4.036   5.298
 1511SOL    HW1 5432   4.121   4.030   5.287
 1511SOL    HW2 5433   3.978   4.019   5.210
 1512SOL     OW 5434   5.221   6.384   0.902
 1512SOL    HW1 5435   5.301   6.339   0.944
 1512SOL    HW2 5436   5.241   6.406   0.807
 1513SOL     OW 5437   3.268   6.737   5.514
 1513SOL    HW1 5438   3.363   6.761   5.498
 1513SOL    HW2 5439   3.259   6.690   5.603
 1514SOL     OW 5440   3.325   2.026   0.220
 1514SOL    HW1 5441   3.285   2.064   0.303
 1514SOL    HW2 5442   3.384   1.948   0.244
 1515SOL     OW 5443   3.394   1.079   1.804
 1515SOL    HW1 5444   3.401   1.036   1.714
 1515SOL    HW2 5445   3.354   1.170   1.794
 1516SOL     OW 5446   6.746   6.739   6.441
 1516SOL    HW1 5447   6.666   6.703   6.393
 1516SOL    HW2 5448   6.806   6.663   6.468
 1517SOL     OW 5449   2.243   6.204   2.662
 1517SOL    HW1 5450   2.275   6.129   2.720
 1517SOL    HW2 5451   2.213   6.280   2.720
 1518SOL     OW 5452   1.251   2.767   6.667
 1518SOL    HW1 5453   1.213   2.674   6.673
 1518SOL    HW2 5454   1.296   2.790   6.753
 1519SOL     OW 5455   0.222   4.252   6.618
 1519SOL    HW1 5456   0.315   4.222   6.597
 1519SOL    HW2 5457   0.209   4.345   6.585
 1520SOL     OW 5458   0.067   6.772   3.397
 1520SOL    HW1 5459   0.102   6.853   3.350
 1520SOL    HW2 5460   0.095   6.690   3.347
 1521SOL     OW 5461   2.331   4.970   6.849
 1521SOL    HW1 5462   2.363   4.885   6.809
 1521SOL    HW2 5463   2.232   4.966   6.861
 1522SOL     OW 5464   6.246   6.425   3.817
 1522SOL    HW1 5465   6.245   6.514   3.770
 1522SOL    HW2 5466   6.220   6.353   3.752
 1523SOL     OW 5467   2.779   6.679   0.900
 1523SOL    HW1 5468   2.793   6.736   0.819
 1523SOL    HW2 5469   2.844   6.706   0.971
 1524SOL     OW 5470   2.129   2.531   4.687
 1524SOL    HW1 5471   2.145   2.615   4.636
 1524SOL    HW2 5472   2.031   2.521   4.704
 1525SOL     OW 5473   6.183   3.893   0.115
 1525SOL    HW1 5474   6.211   3.923   0.206
 1525SOL    HW2 5475   6.127   3.810   0.123
 1526SOL     OW 5476   1.066   1.299   1.645
 1526SOL    HW1 5477   1.117   1.213   1.646
 1526SOL    HW2 5478   0.995   1.294   1.574
 1527SOL     OW 5479   4.906   1.113   4.464
 1527SOL    HW1 5480   4.980   1.059   4.424
 1527SOL    HW2 5481   4.831   1.053   4.489
 1528SOL     OW 5482   3.598   3.488   2.233
 1528SOL    HW1 5483   3.659   3.490   2.154
 1528SOL    HW2 5484   3.548   3.401   2.235
 1529SOL     OW 5485   4.002   0.930   5.474
 1529SOL    HW1 5486   4.010   0.856   5.407
 1529SOL    HW2 5487   3.993   1.017   5.425
 1530SOL     OW 5488   2.894   7.007   2.119
 1530SOL    HW1 5489   2.897   0.028   2.026
 1530SOL    HW2 5490   2.799   6.987   2.143
 1531SOL     OW 5491   5.576   6.334   4.366
 1531SOL    HW1 5492   5.510   6.408   4.357
 1531SOL    HW2 5493   5.666   6.365   4.336
 1532SOL     OW 5494   2.715   5.049   2.343
 1532SOL    HW1 5495   2.721   5.031   2.245
 1532SOL    HW2 5496   2.797   5.014   2.388
 1533SOL     OW 5497   5.523   6.331   1.526
 1533SOL    HW1 5498   5.617   6.360   1.542
 1533SOL    HW2 5499   5.503   6.251   1.582
 1534SOL     OW 5500   2.014   4.891   6.612
 1534SOL    HW1 5501   1.927   4.841   6.609
 1534SOL    HW2 5502   2.074   4.858   6.540
 1535SOL     OW 5503   4.716   4.557   3.234
 1535SOL    HW1 5504   4.714   4.576   3.332
 1535SOL    HW2 5505   4.740   4.641   3.185
 1536SOL     OW 5506   4.328   4.382   6.422
 1536SOL    HW1 5507   4.393   4.311   6.397
 1536SOL    HW2 5508   4.319   4.385   6.522
 1537SOL     OW 5509   3.220   5.786   2.167
 1537SOL    HW1 5510   3.211   5.864   2.228
 1537SOL    HW2 5511   3.259   5.817   2.080
 1538SOL     OW 5512   2.124   1.328   0.622
 1538SOL    HW1 5513   2.064   1.277   0.684
 1538SOL    HW2 5514   2.219   1.320   0.654
 1539SOL     OW 5515   0.079   2.945   0.857
 1539SOL    HW1 5516   0.063   2.981   0.765
 1539SOL    HW2 5517   7.015   2.959   0.913
 1540SOL     OW 5518   3.668   5.600   3.742
 1540SOL    HW1 5519   3.749   5.619   3.686
 1540SOL    HW2 5520   3.669   5.505   3.771
 1541SOL     OW 5521   4.702   2.346   5.203
 1541SOL    HW1 5522   4.745   2.327   5.114
 1541SOL    HW2 5523   4.758   2.308   5.276
 1542SOL     OW 5524   0.517   4.350   2.661
 1542SOL    HW1 5525   0.470   4.386   2.581
 1542SOL    HW2 5526   0.604   4.309   2.633
 1543SOL     OW 5527   3.777   5.228   1.092
 1543SOL    HW1 5528   3.822   5.163   1.153
 1543SOL    HW2 5529   3.752   5.311   1.142
 1544SOL     OW 5530   4.131   3.595   4.321
 1544SOL    HW1 5531   4.059   3.585   4.390
 1544SOL    HW2 5532   4.168   3.505   4.298
 1545SOL     OW 5533   6.372   5.017   1.019
 1545SOL    HW1 5534   6.359   5.067   0.933
 1545SOL    HW2 5535   6.359   5.079   1.096
 1546SOL     OW 5536   6.282   6.312   5.574
 1546SOL    HW1 5537   6.323   6.228   5.538
 1546SOL    HW2 5538   6.348   6.359   5.632
 1547SOL     OW 5539   1.649   2.944   6.373
 1547SOL    HW1 5540   1.569   2.935   6.432
 1547SOL    HW2 5541   1.674   3.041   6.365
 1548SOL     OW 5542   6.821   2.274   0.371
 1548SOL    HW1 5543   6.903   2.218   0.383
 1548SOL    HW2 5544   6.821   2.315   0.280
 1549SOL     OW 5545   5.358   0.684   4.048
 1549SOL    HW1 5546   5.281   0.747   4.036
 1549SOL    HW2 5547   5.342   0.601   3.995
 1550SOL     OW 5548   3.015   3.867   4.313
 1550SOL    HW1 5549   3.064   3.950   4.286
 1550SOL    HW2 5550   3.037   3.844   4.408
 1551SOL     OW 5551   6.654   5.118   6.042
 1551SOL    HW1 5552   6.704   5.192   6.086
 1551SOL    HW2 5553   6.601   5.155   5.965
 1552SOL     OW 5554   2.502   4.074   1.232
 1552SOL    HW1 5555   2.419   4.059   1.178
 1552SOL    HW2 5556   2.571   4.007   1.206
 1553SOL     OW 5557   1.415   2.114   5.359
 1553SOL    HW1 5558   1.335   2.165   5.330
 1553SOL    HW2 5559   1.478   2.175   5.408
 1554SOL     OW 5560   4.857   1.844   3.423
 1554SOL    HW1 5561   4.893   1.751   3.433
 1554SOL    HW2 5562   4.797   1.865   3.500
 1555SOL     OW 5563   6.033   4.775   5.020
 1555SOL    HW1 5564   5.941   4.786   4.984
 1555SOL    HW2 5565   6.030   4.769   5.119
 1556SOL     OW 5566   1.553   0.782   5.770
 1556SOL    HW1 5567   1.633   0.842   5.759
 1556SOL    HW2 5568   1.488   0.825   5.833
 1557SOL     OW 5569   1.212   1.464   5.962
 1557SOL    HW1 5570   1.286   1.450   5.897
 1557SOL    HW2 5571   1.156   1.381   5.967
 1558SOL     OW 5572   6.771   0.020   4.444
 1558SOL    HW1 5573   6.752   6.941   4.426
 1558SOL    HW2 5574   6.684   0.070   4.450
 1559SOL     OW 5575   1.531   1.090   6.248
 1559SOL    HW1 5576   1.522   1.105   6.346
 1559SOL    HW2 5577   1.624   1.115   6.219
 1560SOL     OW 5578   0.048   0.360   0.554
 1560SOL    HW1 5579   0.088   0.444   0.517
 1560SOL    HW2 5580   6.974   0.348   0.515
 1561SOL     OW 5581   6.007   6.309   1.791
 1561SOL    HW1 5582   6.000   6.209   1.798
 1561SOL    HW2 5583   5.960   6.351   1.867
 1562SOL     OW 5584   5.366   6.983   4.458
 1562SOL    HW1 5585   5.438   6.915   4.442
 1562SOL    HW2 5586   5.382   0.044   4.399
 1563SOL     OW 5587   2.951   6.910   6.252
 1563SOL    HW1 5588   2.953   6.961   6.338
 1563SOL    HW2 5589   3.002   6.824   6.264
 1564SOL     OW 5590   1.877   2.803   2.968
 1564SOL    HW1 5591   1.909   2.866   3.039
 1564SOL    HW2 5592   1.777   2.805   2.965
 1565SOL     OW 5593   6.569   4.730   1.022
 1565SOL    HW1 5594   6.576   4.794   1.099
 1565SOL    HW2 5595   6.597   4.776   0.938
 1566SOL     OW 5596   5.891   4.316   2.318
 1566SOL    HW1 5597   5.985   4.282   2.310
 1566SOL    HW2 5598   5.885   4.407   2.276
 1567SOL     OW 5599   6.913   5.623   5.648
 1567SOL    HW1 5600   6.934   5.599   5.554
 1567SOL    HW2 5601   6.814   5.623   5.662
 1568SOL     OW 5602   0.346   6.495   0.582
 1568SOL    HW1 5603   0.326   6.430   0.655
 1568SOL    HW2 5604   0.431   6.544   0.603
 1569SOL     OW 5605   3.527   5.742   5.033
 1569SOL    HW1 5606   3.557   5.829   5.072
 1569SOL    HW2 5607   3.510   5.752   4.935
 1570SOL     OW 5608   2.891   1.703   2.010
 1570SOL    HW1 5609   2.976   1.747   2.039
 1570SOL    HW2 5610   2.858   1.747   1.926
 1571SOL     OW 5611   0.356   2.542   6.630
 1571SOL    HW1 5612   0.336   2.583   6.719
 1571SOL    HW2 5613   0.299   2.585   6.560
 1572SOL     OW 5614   0.597   5.483   3.882
 1572SOL    HW1 5615   0.666   5.427   3.836
 1572SOL    HW2 5616   0.583   5.567   3.831
 1573SOL     OW 5617   4.374   0.322   6.963
 1573SOL    HW1 5618   4.385   0.361   6.871
 1573SOL    HW2 5619   4.312   0.380   7.016
 1574SOL     OW 5620   5.050   3.613   1.757
 1574SOL    HW1 5621   5.017   3.531   1.711
 1574SOL    HW2 5622   4.995   3.629   1.839
 1575SOL     OW 5623   3.509   2.623   0.152
 1575SOL    HW1 5624   3.436   2.670   0.102
 1575SOL    HW2 5625   3.596   2.635   0.104
 1576SOL     OW 5626   6.289   5.449   3.352
 1576SOL    HW1 5627   6.271   5.425   3.256
 1576SOL    HW2 5628   6.243   5.385   3.412
 1577SOL     OW 5629   1.609   0.682   0.803
 1577SOL    HW1 5630   1.698   0.725   0.821
 1577SOL    HW2 5631   1.572   0.716   0.717
 1578SOL     OW 5632   6.129   6.169   4.711
 1578SOL    HW1 5633   6.204   6.107   4.687
 1578SOL    HW2 5634   6.044   6.116   4.722
 1579SOL     OW 5635   0.044   1.020   3.487
 1579SOL    HW1 5636   0.098   1.028   3.571
 1579SOL    HW2 5637   7.010   0.934   3.489
 1580SOL     OW 5638   3.379   4.086   5.530
 1580SOL    HW1 5639   3.477   4.076   5.551
 1580SOL    HW2 5640   3.368   4.160   5.464
 1581SOL     OW 5641   6.120   3.349   4.742
 1581SOL    HW1 5642   6.130   3.415   4.668
 1581SOL    HW2 5643   6.113   3.398   4.829
 1582SOL     OW 5644   6.439   6.600   4.012
 1582SOL    HW1 5645   6.449   6.505   3.981
 1582SOL    HW2 5646   6.368   6.604   4.082
 1583SOL     OW 5647   2.370   2.862   0.843
 1583SOL    HW1 5648   2.286   2.916   0.853
 1583SOL    HW2 5649   2.424   2.897   0.767
 1584SOL     OW 5650   2.018   6.963   6.638
 1584SOL    HW1 5651   2.014   6.980   6.736
 1584SOL    HW2 5652   1.928   6.981   6.597
 1585SOL     OW 5653   5.536   1.137   5.861
 1585SOL    HW1 5654   5.557   1.233   5.843
 1585SOL    HW2 5655   5.618   1.090   5.894
 1586SOL     OW 5656   4.097   3.661   2.896
 1586SOL    HW1 5657   4.157   3.625   2.967
 1586SOL    HW2 5658   4.123   3.623   2.808
 1587SOL     OW 5659   1.982   6.673   6.128
 1587SOL    HW1 5660   1.994   6.576   6.149
 1587SOL    HW2 5661   1.948   6.683   6.035
 1588SOL     OW 5662   6.442   4.170   0.512
 1588SOL    HW1 5663   6.499   4.167   0.594
 1588SOL    HW2 5664   6.477   4.240   0.449
 1589SOL     OW 5665   5.441   5.063   3.136
 1589SOL    HW1 5666   5.407   4.989   3.079
 1589SOL    HW2 5667   5.369   5.132   3.148
 1590SOL     OW 5668   2.246   6.081   4.358
 1590SOL    HW1 5669   2.264   6.067   4.261
 1590SOL    HW2 5670   2.303   6.018   4.411
 1591SOL     OW 5671   2.405   3.333   0.325
 1591SOL    HW1 5672   2.350   3.400   0.375
 1591SOL    HW2 5673   2.412   3.360   0.229
 1592SOL     OW 5674   3.453   3.734   3.950
 1592SOL    HW1 5675   3.356   3.716   3.961
 1592SOL    HW2 5676   3.506   3.661   3.993
 1593SOL     OW 5677   1.084   4.547   3.805
 1593SOL    HW1 5678   1.048   4.639   3.818
 1593SOL    HW2 5679   1.183   4.547   3.818
 1594SOL     OW 5680   0.745   5.668   2.312
 1594SOL    HW1 5681   0.841   5.644   2.329
 1594SOL    HW2 5682   0.739   5.765   2.288
 1595SOL     OW 5683   6.105   3.475   4.968
 1595SOL    HW1 5684   6.151   3.538   5.030
 1595SOL    HW2 5685   6.037   3.423   5.020
 1596SOL     OW 5686   3.483   4.747   6.624
 1596SOL    HW1 5687   3.576   4.722   6.600
 1596SOL    HW2 5688   3.484   4.826   6.686
 1597SOL     OW 5689   2.638   6.653   1.288
 1597SOL    HW1 5690   2.549   6.638   1.245
 1597SOL    HW2 5691   2.707   6.596   1.244
 1598SOL     OW 5692   6.761   5.587   1.858
 1598SOL    HW1 5693   6.702   5.633   1.924
 1598SOL    HW2 5694   6.818   5.655   1.812
 1599SOL     OW 5695   3.005   5.330   0.373
 1599SOL    HW1 5696   2.970   5.395   0.304
 1599SOL    HW2 5697   3.092   5.293   0.342
 1600SOL     OW 5698   3.513   1.562   4.827
 1600SOL    HW1 5699   3.415   1.580   4.823
 1600SOL    HW2 5700   3.548   1.552   4.734
 1601SOL     OW 5701   1.683   5.211   4.929
 1601SOL    HW1 5702   1.621   5.210   5.008
 1601SOL    HW2 5703   1.636   5.175   4.849
 1602SOL     OW 5704   6.654   3.183   1.744
 1602SOL    HW1 5705   6.690   3.275   1.761
 1602SOL    HW2 5706   6.716   3.134   1.682
 1603SOL     OW 5707   6.079   6.626   1.079
 1603SOL    HW1 5708   5.979   6.616   1.085
 1603SOL    HW2 5709   6.102   6.723   1.078
 1604SOL     OW 5710   1.315   5.151   4.495
 1604SOL    HW1 5711   1.231   5.205   4.501
 1604SOL    HW2 5712   1.294   5.061   4.456
 1605SOL     OW 5713   5.183   4.805   2.084
 1605SOL    HW1 5714   5.167   4.766   2.175
 1605SOL    HW2 5715   5.104   4.786   2.026
 1606SOL     OW 5716   5.876   5.239   4.907
 1606SOL    HW1 5717   5.949   5.190   4.955
 1606SOL    HW2 5718   5.894   5.239   4.809
 1607SOL     OW 5719   5.729   3.991   1.666
 1607SOL    HW1 5720   5.765   3.909   1.710
 1607SOL    HW2 5721   5.629   3.988   1.666
 1608SOL     OW 5722   2.462   6.985   1.051
 1608SOL    HW1 5723   2.425   0.048   1.098
 1608SOL    HW2 5724   2.525   7.015   0.979
 1609SOL     OW 5725   5.857   2.185   5.316
 1609SOL    HW1 5726   5.867   2.175   5.217
 1609SOL    HW2 5727   5.911   2.263   5.347
 1610SOL     OW 5728   4.276   6.709   3.511
 1610SOL    HW1 5729   4.176   6.707   3.517
 1610SOL    HW2 5730   4.312   6.772   3.580
 1611SOL     OW 5731   4.420   3.684   1.650
 1611SOL    HW1 5732   4.482   3.762   1.652
 1611SOL    HW2 5733   4.347   3.702   1.584
 1612SOL     OW 5734   2.947   0.154   4.797
 1612SOL    HW1 5735   2.935   0.070   4.743
 1612SOL    HW2 5736   2.891   0.227   4.758
 1613SOL     OW 5737   2.432   0.308   1.841
 1613SOL    HW1 5738   2.334   0.328   1.843
 1613SOL    HW2 5739   2.480   0.383   1.794
 1614SOL     OW 5740   6.997   2.109   5.231
 1614SOL    HW1 5741   0.028   2.035   5.277
 1614SOL    HW2 5742   6.937   2.072   5.160
 1615SOL     OW 5743   6.615   5.606   5.666
 1615SOL    HW1 5744   6.568   5.521   5.641
 1615SOL    HW2 5745   6.625   5.611   5.766
 1616SOL     OW 5746   2.471   2.083   5.991
 1616SOL    HW1 5747   2.489   2.112   5.897
 1616SOL    HW2 5748   2.517   2.144   6.055
 1617SOL     OW 5749   3.182   1.140   3.246
 1617SOL    HW1 5750   3.155   1.055   3.291
 1617SOL    HW2 5751   3.218   1.120   3.155
 1618SOL     OW 5752   5.197   2.896   2.002
 1618SOL    HW1 5753   5.242   2.980   1.972
 1618SOL    HW2 5754   5.110   2.885   1.954
 1619SOL     OW 5755   1.304   3.197   4.515
 1619SOL    HW1 5756   1.397   3.161   4.503
 1619SOL    HW2 5757   1.261   3.154   4.594
 1620SOL     OW 5758   3.303   5.965   1.170
 1620SOL    HW1 5759   3.387   5.919   1.200
 1620SOL    HW2 5760   3.247   5.988   1.249
 1621SOL     OW 5761   2.364   2.326   1.645
 1621SOL    HW1 5762   2.303   2.316   1.724
 1621SOL    HW2 5763   2.361   2.243   1.590
 1622SOL     OW 5764   2.494   2.500   5.354
 1622SOL    HW1 5765   2.521   2.538   5.265
 1622SOL    HW2 5766   2.398   2.472   5.349
 1623SOL     OW 5767   2.509   2.088   4.544
 1623SOL    HW1 5768   2.445   2.163   4.524
 1623SOL    HW2 5769   2.484   2.045   4.631
 1624SOL     OW 5770   1.847   0.488   0.284
 1624SOL    HW1 5771   1.908   0.480   0.205
 1624SOL    HW2 5772   1.754   0.466   0.258
 1625SOL     OW 5773   1.556   0.013   1.096
 1625SOL    HW1 5774   1.540   0.087   1.030
 1625SOL    HW2 5775   1.469   6.988   1.120
 1626SOL     OW 5776   2.302   3.418   6.346
 1626SOL    HW1 5777   2.307   3.516   6.361
 1626SOL    HW2 5778   2.325   3.397   6.251
 1627SOL     OW 5779   4.765   4.118   3.087
 1627SOL    HW1 5780   4.800   4.050   3.151
 1627SOL    HW2 5781   4.778   4.086   2.993
 1628SOL     OW 5782   4.133   3.243   0.129
 1628SOL    HW1 5783   4.039   3.277   0.140
 1628SOL    HW2 5784   4.188   3.314   0.085
 1629SOL     OW 5785   2.099   2.359   2.964
 1629SOL    HW1 5786   2.192   2.324   2.956
 1629SOL    HW2 5787   2.102   2.459   2.971
 1630SOL     OW 5788   5.611   4.729   4.330
 1630SOL    HW1 5789   5.701   4.741   4.372
 1630SOL    HW2 5790   5.550   4.684   4.395
 1631SOL     OW 5791   1.252   0.269   5.918
 1631SOL    HW1 5792   1.264   0.341   5.986
 1631SOL    HW2 5793   1.312   0.285   5.840
 1632SOL     OW 5794   4.060   6.741   6.943
 1632SOL    HW1 5795   4.146   6.690   6.931
 1632SOL    HW2 5796   4.052   6.772   0.020
 1633SOL     OW 5797   6.651   4.022   2.873
 1633SOL    HW1 5798   6.734   4.058   2.831
 1633SOL    HW2 5799   6.673   3.986   2.964
 1634SOL     OW 5800   3.666   0.637   1.315
 1634SOL    HW1 5801   3.693   0.540   1.310
 1634SOL    HW2 5802   3.649   0.672   1.223
 1635SOL     OW 5803   1.427   3.820   3.376
 1635SOL    HW1 5804   1.419   3.792   3.471
 1635SOL    HW2 5805   1.336   3.833   3.337
 1636SOL     OW 5806   2.537   6.222   0.649
 1636SOL    HW1 5807   2.479   6.232   0.730
 1636SOL    HW2 5808   2.601   6.298   0.644
 1637SOL     OW 5809   1.319   2.765   2.371
 1637SOL    HW1 5810   1.360   2.710   2.444
 1637SOL    HW2 5811   1.355   2.858   2.375
 1638SOL     OW 5812   0.789   2.465   5.766
 1638SOL    HW1 5813   0.696   2.430   5.779
 1638SOL    HW2 5814   0.787   2.543   5.703
 1639SOL     OW 5815   3.595   5.154   2.713
 1639SOL    HW1 5816   3.621   5.247   2.740
 1639SOL    HW2 5817   3.513   5.127   2.763
 1640SOL     OW 5818   5.574   6.864   0.760
 1640SOL    HW1 5819   5.568   6.963   0.748
 1640SOL    HW2 5820   5.574   6.819   0.670
 1641SOL     OW 5821   6.368   2.608   4.591
 1641SOL    HW1 5822   6.368   2.706   4.609
 1641SOL    HW2 5823   6.451   2.582   4.542
 1642SOL     OW 5824   0.253   2.176   1.289
 1642SOL    HW1 5825   0.310   2.109   1.241
 1642SOL    HW2 5826   0.157   2.152   1.278
 1643SOL     OW 5827   3.880   0.200   5.660
 1643SOL    HW1 5828   3.876   0.101   5.653
 1643SOL    HW2 5829   3.835   0.229   5.745
 1644SOL     OW 5830   4.094   0.817   1.145
 1644SOL    HW1 5831   4.057   0.762   1.220
 1644SOL    HW2 5832   4.064   0.912   1.155
 1645SOL     OW 5833   2.479   5.516   5.838
 1645SOL    HW1 5834   2.572   5.504   5.873
 1645SOL    HW2 5835   2.483   5.541   5.741
 1646SOL     OW 5836   2.875   3.322   0.402
 1646SOL    HW1 5837   2.919   3.245   0.449
 1646SOL    HW2 5838   2.874   3.305   0.304
 1647SOL     OW 5839   5.869   3.203   2.042
 1647SOL    HW1 5840   5.887   3.142   1.965
 1647SOL    HW2 5841   5.784   3.175   2.088
 1648SOL     OW 5842   2.647   0.436   3.329
 1648SOL    HW1 5843   2.572   0.370   3.319
 1648SOL    HW2 5844   2.714   0.401   3.394
 1649SOL     OW 5845   2.837   0.681   4.286
 1649SOL    HW1 5846   2.906   0.728   4.340
 1649SOL    HW2 5847   2.749   0.684   4.332
 1650SOL     OW 5848   2.833   7.002   4.322
 1650SOL    HW1 5849   2.789   0.054   4.265
 1650SOL    HW2 5850   2.911   0.025   4.370
 1651SOL     OW 5851   1.515   6.631   2.375
 1651SOL    HW1 5852   1.558   6.681   2.450
 1651SOL    HW2 5853   1.559   6.541   2.365
 1652SOL     OW 5854   3.894   3.682   1.188
 1652SOL    HW1 5855   3.969   3.629   1.228
 1652SOL    HW2 5856   3.807   3.650   1.224
 1653SOL     OW 5857   1.192   4.381   1.165
 1653SOL    HW1 5858   1.207   4.288   1.131
 1653SOL    HW2 5859   1.095   4.394   1.187
 1654SOL     OW 5860   1.086   2.567   3.813
 1654SOL    HW1 5861   1.029   2.563   3.731
 1654SOL    HW2 5862   1.027   2.570   3.894
 1655SOL     OW 5863   4.294   4.049   5.340
 1655SOL    HW1 5864   4.272   4.086   5.431
 1655SOL    HW2 5865   4.379   4.091   5.308
 1656SOL     OW 5866   0.055   3.222   1.992
 1656SOL    HW1 5867   0.129   3.229   1.925
 1656SOL    HW2 5868   0.093   3.214   2.084
 1657SOL     OW 5869   1.190   0.698   5.767
 1657SOL    HW1 5870   1.104   0.681   5.816
 1657SOL    HW2 5871   1.254   0.743   5.829
 1658SOL     OW 5872   6.309   6.793   3.090
 1658SOL    HW1 5873   6.333   6.793   2.993
 1658SOL    HW2 5874   6.374   6.736   3.141
 1659SOL     OW 5875   5.894   2.555   6.456
 1659SOL    HW1 5876   5.989   2.534   6.477
 1659SOL    HW2 5877   5.842   2.470   6.449
 1660SOL     OW 5878   2.465   5.552   3.501
 1660SOL    HW1 5879   2.427   5.616   3.435
 1660SOL    HW2 5880   2.563   5.540   3.483
 1661SOL     OW 5881   2.581   0.689   3.194
 1661SOL    HW1 5882   2.677   0.693   3.221
 1661SOL    HW2 5883   2.541   0.603   3.227
 1662SOL     OW 5884   0.558   1.357   3.768
 1662SOL    HW1 5885   0.651   1.374   3.735
 1662SOL    HW2 5886   0.558   1.350   3.867
 1663SOL     OW 5887   1.074   0.254   3.309
 1663SOL    HW1 5888   1.045   0.321   3.241
 1663SOL    HW2 5889   1.061   0.291   3.400
 1664SOL     OW 5890   1.821   5.635   4.303
 1664SOL    HW1 5891   1.808   5.552   4.357
 1664SOL    HW2 5892   1.777   5.625   4.214
 1665SOL     OW 5893   0.052   0.966   4.004
 1665SOL    HW1 5894   0.018   1.059   3.993
 1665SOL    HW2 5895   0.152   0.966   3.998
 1666SOL     OW 5896   6.175   2.297   6.737
 1666SOL    HW1 5897   6.176   2.340   6.827
 1666SOL    HW2 5898   6.089   2.248   6.724
 1667SOL     OW 5899   6.794   0.153   1.008
 1667SOL    HW1 5900   6.883   0.119   1.038
 1667SOL    HW2 5901   6.770   0.110   0.920
 1668SOL     OW 5902   2.275   0.210   4.579
 1668SOL    HW1 5903   2.317   0.298   4.555
 1668SOL    HW2 5904   2.175   0.218   4.574
 1669SOL     OW 5905   5.439   5.874   6.269
 1669SOL    HW1 5906   5.354   5.826   6.247
 1669SOL    HW2 5907   5.475   5.839   6.356
 1670SOL     OW 5908   6.940   3.580   5.757
 1670SOL    HW1 5909   6.997   3.590   5.675
 1670SOL    HW2 5910   6.901   3.488   5.760
 1671SOL     OW 5911   6.254   4.781   0.973
 1671SOL    HW1 5912   6.203   4.757   1.056
 1671SOL    HW2 5913   6.304   4.866   0.990
 1672SOL     OW 5914   2.253   4.167   2.607
 1672SOL    HW1 5915   2.193   4.105   2.556
 1672SOL    HW2 5916   2.316   4.211   2.544
 1673SOL     OW 5917   6.457   3.393   2.939
 1673SOL    HW1 5918   6.494   3.486   2.932
 1673SOL    HW2 5919   6.364   3.392   2.902
 1674SOL     OW 5920   2.455   5.687   0.321
 1674SOL    HW1 5921   2.410   5.750   0.384
 1674SOL    HW2 5922   2.543   5.658   0.360
 1675SOL     OW 5923   5.122   2.133   6.491
 1675SOL    HW1 5924   5.148   2.202   6.423
 1675SOL    HW2 5925   5.039   2.087   6.461
 1676SOL     OW 5926   2.978   2.014   3.278
 1676SOL    HW1 5927   3.023   2.082   3.220
 1676SOL    HW2 5928   2.968   2.050   3.371
 1677SOL     OW 5929   5.197   0.392   6.163
 1677SOL    HW1 5930   5.159   0.473   6.117
 1677SOL    HW2 5931   5.288   0.373   6.127
 1678SOL     OW 5932   4.880   6.300   2.128
 1678SOL    HW1 5933   4.908   6.307   2.033
 1678SOL    HW2 5934   4.801   6.238   2.135
 1679SOL     OW 5935   6.539   4.663   0.062
 1679SOL    HW1 5936   6.523   4.645   0.159
 1679SOL    HW2 5937   6.607   4.598   0.027
 1680SOL     OW 5938   0.135   2.284   5.628
 1680SOL    HW1 5939   0.157   2.265   5.724
 1680SOL    HW2 5940   0.108   2.380   5.620
 1681SOL     OW 5941   4.739   5.744   0.478
 1681SOL    HW1 5942   4.815   5.683   0.455
 1681SOL    HW2 5943   4.693   5.710   0.561
 1682SOL     OW 5944   0.118   3.251   5.950
 1682SOL    HW1 5945   0.040   3.299   5.989
 1682SOL    HW2 5946   0.203   3.287   5.988
 1683SOL     OW 5947   5.813   5.016   5.217
 1683SOL    HW1 5948   5.738   5.013   5.150
 1683SOL    HW2 5949   5.893   5.058   5.175
 1684SOL     OW 5950   0.566   0.033   4.321
 1684SOL    HW1 5951   0.662   0.002   4.325
 1684SOL    HW2 5952   0.506   6.972   4.337
 1685SOL     OW 5953   1.074   2.072   0.011
 1685SOL    HW1 5954   1.150   2.134   0.034
 1685SOL    HW2 5955   1.087   1.985   0.059
 1686SOL     OW 5956   1.530   6.842   6.357
 1686SOL    HW1 5957   1.627   6.839   6.331
 1686SOL    HW2 5958   1.482   6.905   6.295
 1687SOL     OW 5959   2.511   6.505   2.443
 1687SOL    HW1 5960   2.468   6.473   2.358
 1687SOL    HW2 5961   2.590   6.448   2.464
 1688SOL     OW 5962   0.755   1.896   3.741
 1688SOL    HW1 5963   0.783   1.972   3.800
 1688SOL    HW2 5964   0.700   1.831   3.794
 1689SOL     OW 5965   2.161   1.722   1.733
 1689SOL    HW1 5966   2.074   1.706   1.687
 1689SOL    HW2 5967   2.194   1.814   1.711
 1690SOL     OW 5968   1.133   1.955   0.294
 1690SOL    HW1 5969   1.216   1.905   0.319
 1690SOL    HW2 5970   1.153   2.053   0.286
 1691SOL     OW 5971   4.835   4.119   3.515
 1691SOL    HW1 5972   4.807   4.092   3.607
 1691SOL    HW2 5973   4.912   4.184   3.522
 1692SOL     OW 5974   0.885   6.816   4.089
 1692SOL    HW1 5975   0.918   6.738   4.142
 1692SOL    HW2 5976   0.787   6.804   4.070
 1693SOL     OW 5977   3.755   2.139   4.143
 1693SOL    HW1 5978   3.841   2.170   4.102
 1693SOL    HW2 5979   3.688   2.121   4.071
 1694SOL     OW 5980   6.442   5.953   5.223
 1694SOL    HW1 5981   6.389   6.002   5.293
 1694SOL    HW2 5982   6.415   5.857   5.222
 1695SOL     OW 5983   3.690   1.734   6.341
 1695SOL    HW1 5984   3.704   1.642   6.378
 1695SOL    HW2 5985   3.760   1.796   6.378
 1696SOL     OW 5986   3.651   5.749   2.180
 1696SOL    HW1 5987   3.656   5.681   2.253
 1696SOL    HW2 5988   3.634   5.840   2.220
 1697SOL     OW 5989   1.610   1.599   1.968
 1697SOL    HW1 5990   1.546   1.539   2.016
 1697SOL    HW2 5991   1.696   1.551   1.954
 1698SOL     OW 5992   4.856   1.254   6.914
 1698SOL    HW1 5993   4.894   1.301   6.834
 1698SOL    HW2 5994   4.917   1.266   6.992
 1699SOL     OW 5995   2.567   4.534   1.507
 1699SOL    HW1 5996   2.552   4.632   1.520
 1699SOL    HW2 5997   2.620   4.498   1.584
 1700SOL     OW 5998   5.741   2.668   4.372
 1700SOL    HW1 5999   5.650   2.662   4.414
 1700SOL    HW2 6000   5.757   2.587   4.317
 1701SOL     OW 6001   5.543   2.952   4.767
 1701SOL    HW1 6002   5.491   2.873   4.735
 1701SOL    HW2 6003   5.521   2.970   4.863
 1702SOL     OW 6004   5.071   2.927   1.489
 1702SOL    HW1 6005   5.016   2.994   1.540
 1702SOL    HW2 6006   5.107   2.971   1.406
 1703SOL     OW 6007   2.240   3.908   1.438
 1703SOL    HW1 6008   2.322   3.965   1.446
 1703SOL    HW2 6009   2.216   3.873   1.529
 1704SOL     OW 6010   6.989   1.739   2.428
 1704SOL    HW1 6011   0.021   1.696   2.353
 1704SOL    HW2 6012   6.979   1.673   2.503
 1705SOL     OW 6013   4.140   3.515   2.643
 1705SOL    HW1 6014   4.124   3.421   2.673
 1705SOL    HW2 6015   4.224   3.519   2.590
 1706SOL     OW 6016   2.514   0.416   6.065
 1706SOL    HW1 6017   2.419   0.435   6.040
 1706SOL    HW2 6018   2.565   0.387   5.984
 1707SOL     OW 6019   5.011   1.648   2.228
 1707SOL    HW1 6020   4.971   1.561   2.197
 1707SOL    HW2 6021   5.019   1.647   2.327
 1708SOL     OW 6022   0.578   4.428   1.055
 1708SOL    HW1 6023   0.570   4.528   1.059
 1708SOL    HW2 6024   0.636   4.402   0.977
 1709SOL     OW 6025   3.335   5.507   3.599
 1709SOL    HW1 6026   3.241   5.513   3.631
 1709SOL    HW2 6027   3.385   5.441   3.656
 1710SOL     OW 6028   6.624   4.411   4.811
 1710SOL    HW1 6029   6.710   4.368   4.840
 1710SOL    HW2 6030   6.552   4.341   4.807
 1711SOL     OW 6031   0.663   4.572   5.972
 1711SOL    HW1 6032   0.610   4.642   6.020
 1711SOL    HW2 6033   0.760   4.587   5.987
 1712SOL     OW 6034   1.525   4.360   2.068
 1712SOL    HW1 6035   1.620   4.350   2.099
 1712SOL    HW2 6036   1.503   4.284   2.006
 1713SOL     OW 6037   2.708   3.411   1.137
 1713SOL    HW1 6038   2.753   3.497   1.112
 1713SOL    HW2 6039   2.628   3.431   1.194
 1714SOL     OW 6040   4.405   1.329   1.053
 1714SOL    HW1 6041   4.367   1.236   1.050
 1714SOL    HW2 6042   4.464   1.343   0.973
 1715SOL     OW 6043   1.113   3.594   3.227
 1715SOL    HW1 6044   1.072   3.502   3.225
 1715SOL    HW2 6045   1.116   3.627   3.321
 1716SOL     OW 6046   6.832   6.988   0.148
 1716SOL    HW1 6047   6.932   6.986   0.152
 1716SOL    HW2 6048   6.795   6.968   0.239
 1717SOL     OW 6049   3.209   0.853   0.295
 1717SOL    HW1 6050   3.167   0.871   0.206
 1717SOL    HW2 6051   3.294   0.801   0.281
 1718SOL     OW 6052   1.930   4.127   5.548
 1718SOL    HW1 6053   2.008   4.157   5.604
 1718SOL    HW2 6054   1.954   4.041   5.502
 1719SOL     OW 6055   2.158   2.968   0.491
 1719SOL    HW1 6056   2.130   3.023   0.570
 1719SOL    HW2 6057   2.242   3.006   0.453
 1720SOL     OW 6058   0.218   2.192   2.449
 1720SOL    HW1 6059   0.242   2.107   2.494
 1720SOL    HW2 6060   0.291   2.260   2.464
 1721SOL     OW 6061   1.030   5.718   4.329
 1721SOL    HW1 6062   0.937   5.755   4.319
 1721SOL    HW2 6063   1.095   5.793   4.339
 1722SOL     OW 6064   5.320   0.074   1.691
 1722SOL    HW1 6065   5.340   0.153   1.749
 1722SOL    HW2 6066   5.256   0.101   1.619
 1723SOL     OW 6067   5.881   0.856   3.297
 1723SOL    HW1 6068   5.791   0.830   3.262
 1723SOL    HW2 6069   5.880   0.952   3.324
 1724SOL     OW 6070   4.853   0.718   0.048
 1724SOL    HW1 6071   4.886   0.788   0.112
 1724SOL    HW2 6072   4.757   0.697   0.067
 1725SOL     OW 6073   4.055   5.734   1.838
 1725SOL    HW1 6074   3.992   5.680   1.893
 1725SOL    HW2 6075   4.039   5.716   1.741
 1726SOL     OW 6076   5.962   4.404   4.866
 1726SOL    HW1 6077   5.914   4.434   4.949
 1726SOL    HW2 6078   6.032   4.470   4.842
 1727SOL     OW 6079   2.798   4.872   6.027
 1727SOL    HW1 6080   2.840   4.793   6.073
 1727SOL    HW2 6081   2.825   4.873   5.931
 1728SOL     OW 6082   5.193   5.589   3.487
 1728SOL    HW1 6083   5.110   5.572   3.539
 1728SOL    HW2 6084   5.207   5.515   3.421
 1729SOL     OW 6085   0.137   2.672   2.444
 1729SOL    HW1 6086   0.038   2.679   2.435
 1729SOL    HW2 6087   0.167   2.726   2.523
 1730SOL     OW 6088   4.261   2.362   4.710
 1730SOL    HW1 6089   4.264   2.295   4.784
 1730SOL    HW2 6090   4.166   2.373   4.678
 1731SOL     OW 6091   0.348   6.851   6.561
 1731SOL    HW1 6092   0.341   6.751   6.558
 1731SOL    HW2 6093   0.444   6.878   6.555
 1732SOL     OW 6094   1.042   4.235   7.009
 1732SOL    HW1 6095   0.963   4.295   0.009
 1732SOL    HW2 6096   1.110   4.285   6.956
 1733SOL     OW 6097   1.695   4.206   6.455
 1733SOL    HW1 6098   1.619   4.161   6.408
 1733SOL    HW2 6099   1.782   4.175   6.416
 1734SOL     OW 6100   5.503   4.050   0.732
 1734SOL    HW1 6101   5.454   3.964   0.747
 1734SOL    HW2 6102   5.496   4.075   0.635
 1735SOL     OW 6103   4.831   5.498   6.713
 1735SOL    HW1 6104   4.808   5.593   6.693
 1735SOL    HW2 6105   4.920   5.476   6.673
 1736SOL     OW 6106   3.916   3.012   0.507
 1736SOL    HW1 6107   3.951   3.014   0.600
 1736SOL    HW2 6108   3.954   2.933   0.458
 1737SOL     OW 6109   0.725   6.121   3.386
 1737SOL    HW1 6110   0.824   6.120   3.375
 1737SOL    HW2 6111   0.699   6.065   3.464
 1738SOL     OW 6112   0.741   1.394   2.095
 1738SOL    HW1 6113   0.664   1.331   2.092
 1738SOL    HW2 6114   0.827   1.342   2.098
 1739SOL     OW 6115   4.372   1.838   6.710
 1739SOL    HW1 6116   4.354   1.759   6.650
 1739SOL    HW2 6117   4.471   1.854   6.713
 1740SOL     OW 6118   0.730   1.984   6.955
 1740SOL    HW1 6119   0.660   2.010   6.888
 1740SOL    HW2 6120   0.820   1.989   6.912
 1741SOL     OW 6121   0.974   0.718   2.744
 1741SOL    HW1 6122   1.048   0.652   2.733
 1741SOL    HW2 6123   0.905   0.704   2.674
 1742SOL     OW 6124   6.468   6.341   3.942
 1742SOL    HW1 6125   6.433   6.298   4.025
 1742SOL    HW2 6126   6.391   6.366   3.883
 1743SOL     OW 6127   4.020   1.161   0.331
 1743SOL    HW1 6128   4.076   1.230   0.285
 1743SOL    HW2 6129   4.039   1.163   0.429
 1744SOL     OW 6130   4.035   6.293   1.730
 1744SOL    HW1 6131   4.103   6.227   1.699
 1744SOL    HW2 6132   4.042   6.304   1.829
 1745SOL     OW 6133   0.664   2.189   5.179
 1745SOL    HW1 6134   0.734   2.258   5.197
 1745SOL    HW2 6135   0.644   2.138   5.263
 1746SOL     OW 6136   2.921   1.023   6.821
 1746SOL    HW1 6137   2.859   0.996   6.894
 1746SOL    HW2 6138   2.889   0.986   6.734
 1747SOL     OW 6139   3.864   6.905   4.571
 1747SOL    HW1 6140   3.886   6.978   4.636
 1747SOL    HW2 6141   3.770   6.873   4.588
 1748SOL     OW 6142   5.740   0.978   1.860
 1748SOL    HW1 6143   5.831   0.937   1.862
 1748SOL    HW2 6144   5.699   0.966   1.769
 1749SOL     OW 6145   4.986   0.067   6.246
 1749SOL    HW1 6146   4.951   0.122   6.171
 1749SOL    HW2 6147   5.019   6.997   6.211
 1750SOL     OW 6148   3.698   0.808   3.134
 1750SOL    HW1 6149   3.701   0.906   3.116
 1750SOL    HW2 6150   3.772   0.762   3.084
 1751SOL     OW 6151   2.149   5.621   4.365
 1751SOL    HW1 6152   2.061   5.576   4.353
 1751SOL    HW2 6153   2.160   5.647   4.461
 1752SOL     OW 6154   6.604   1.671   6.095
 1752SOL    HW1 6155   6.684   1.699   6.041
 1752SOL    HW2 6156   6.605   1.572   6.106
 1753SOL     OW 6157   2.020   6.723   2.090
 1753SOL    HW1 6158   1.925   6.729   2.120
 1753SOL    HW2 6159   2.029   6.767   2.001
 1754SOL     OW 6160   3.165   3.013   3.232
 1754SOL    HW1 6161   3.177   2.965   3.145
 1754SOL    HW2 6162   3.221   3.095   3.233
 1755SOL     OW 6163   6.854   4.236   6.832
 1755SOL    HW1 6164   6.948   4.238   6.866
 1755SOL    HW2 6165   6.854   4.216   6.734
 1756SOL     OW 6166   5.809   5.172   5.449
 1756SOL    HW1 6167   5.845   5.137   5.363
 1756SOL    HW2 6168   5.768   5.263   5.433
 1757SOL     OW 6169   3.496   0.412   5.068
 1757SOL    HW1 6170   3.492   0.511   5.084
 1757SOL    HW2 6171   3.503   0.395   4.970
 1758SOL     OW 6172   2.086   1.323   3.172
 1758SOL    HW1 6173   2.153   1.257   3.136
 1758SOL    HW2 6174   2.072   1.396   3.105
 1759SOL     OW 6175   6.420   6.326   6.102
 1759SOL    HW1 6176   6.485   6.251   6.089
 1759SOL    HW2 6177   6.453   6.387   6.174
 1760SOL     OW 6178   4.470   6.493   3.527
 1760SOL    HW1 6179   4.418   6.429   3.471
 1760SOL    HW2 6180   4.419   6.578   3.539
 1761SOL     OW 6181   5.837   3.323   0.966
 1761SOL    HW1 6182   5.872   3.394   1.028
 1761SOL    HW2 6183   5.885   3.237   0.984
 1762SOL     OW 6184   6.091   2.803   0.153
 1762SOL    HW1 6185   5.997   2.798   0.188
 1762SOL    HW2 6186   6.133   2.888   0.185
 1763SOL     OW 6187   2.103   2.208   4.447
 1763SOL    HW1 6188   2.076   2.272   4.374
 1763SOL    HW2 6189   2.021   2.163   4.483
 1764SOL     OW 6190   6.405   3.625   3.281
 1764SOL    HW1 6191   6.344   3.616   3.360
 1764SOL    HW2 6192   6.366   3.692   3.217
 1765SOL     OW 6193   1.649   3.206   6.324
 1765SOL    HW1 6194   1.562   3.236   6.364
 1765SOL    HW2 6195   1.725   3.251   6.370
 1766SOL     OW 6196   5.751   4.254   5.593
 1766SOL    HW1 6197   5.677   4.238   5.528
 1766SOL    HW2 6198   5.772   4.169   5.641
 1767SOL     OW 6199   0.068   5.286   1.277
 1767SOL    HW1 6200   0.051   5.204   1.332
 1767SOL    HW2 6201   7.001   5.340   1.270
 1768SOL     OW 6202   6.212   0.311   3.260
 1768SOL    HW1 6203   6.267   0.358   3.191
 1768SOL    HW2 6204   6.158   0.379   3.310
 1769SOL     OW 6205   4.663   0.920   3.946
 1769SOL    HW1 6206   4.674   0.943   4.042
 1769SOL    HW2 6207   4.581   0.964   3.910
 1770SOL     OW 6208   3.294   5.684   5.342
 1770SOL    HW1 6209   3.252   5.760   5.292
 1770SOL    HW2 6210   3.240   5.601   5.330
 1771SOL     OW 6211   5.182   5.732   6.871
 1771SOL    HW1 6212   5.121   5.807   6.844
 1771SOL    HW2 6213   5.267   5.769   6.906
 1772SOL     OW 6214   2.176   5.826   2.358
 1772SOL    HW1 6215   2.190   5.925   2.352
 1772SOL    HW2 6216   2.205   5.783   2.273
 1773SOL     OW 6217   2.013   6.795   0.009
 1773SOL    HW1 6218   1.941   6.727   7.016
 1773SOL    HW2 6219   1.980   6.884   6.996
 1774SOL     OW 6220   2.449   5.335   1.393
 1774SOL    HW1 6221   2.380   5.402   1.419
 1774SOL    HW2 6222   2.470   5.277   1.472
 1775SOL     OW 6223   0.728   5.126   0.386
 1775SOL    HW1 6224   0.791   5.195   0.421
 1775SOL    HW2 6225   0.779   5.059   0.331
 1776SOL     OW 6226   3.008   6.003   4.868
 1776SOL    HW1 6227   3.101   6.022   4.899
 1776SOL    HW2 6228   2.943   6.042   4.934
 1777SOL     OW 6229   4.325   6.007   6.759
 1777SOL    HW1 6230   4.285   6.098   6.758
 1777SOL    HW2 6231   4.273   5.949   6.822
 1778SOL     OW 6232   0.654   3.656   5.914
 1778SOL    HW1 6233   0.651   3.625   5.818
 1778SOL    HW2 6234   0.561   3.669   5.948
 1779SOL     OW 6235   4.122   6.662   4.735
 1779SOL    HW1 6236   4.157   6.719   4.809
 1779SOL    HW2 6237   4.054   6.598   4.771
 1780SOL     OW 6238   4.043   2.137   6.708
 1780SOL    HW1 6239   3.971   2.138   6.777
 1780SOL    HW2 6240   4.051   2.229   6.668
 1781SOL     OW 6241   1.885   5.924   3.302
 1781SOL    HW1 6242   1.891   5.973   3.215
 1781SOL    HW2 6243   1.972   5.932   3.351
 1782SOL     OW 6244   3.145   1.265   4.801
 1782SOL    HW1 6245   3.204   1.277   4.881
 1782SOL    HW2 6246   3.198   1.225   4.726
 1783SOL     OW 6247   2.287   6.133   0.323
 1783SOL    HW1 6248   2.370   6.163   0.370
 1783SOL    HW2 6249   2.308   6.120   0.226
 1784SOL     OW 6250   1.766   6.551   6.469
 1784SOL    HW1 6251   1.782   6.633   6.415
 1784SOL    HW2 6252   1.696   6.495   6.425
 1785SOL     OW 6253   0.056   5.247   2.978
 1785SOL    HW1 6254   0.148   5.210   2.994
 1785SOL    HW2 6255   0.063   5.335   2.932
 1786SOL     OW 6256   3.711   2.550   1.421
 1786SOL    HW1 6257   3.698   2.572   1.518
 1786SOL    HW2 6258   3.625   2.564   1.372
 1787SOL     OW 6259   3.287   0.290   5.481
 1787SOL    HW1 6260   3.319   0.195   5.480
 1787SOL    HW2 6261   3.364   0.351   5.462
 1788SOL     OW 6262   1.923   4.964   5.117
 1788SOL    HW1 6263   2.001   4.925   5.166
 1788SOL    HW2 6264   1.922   4.930   5.024
 1789SOL     OW 6265   5.756   6.643   0.814
 1789SOL    HW1 6266   5.699   6.561   0.812
 1789SOL    HW2 6267   5.698   6.724   0.823
 1790SOL     OW 6268   2.028   6.678   2.713
 1790SOL    HW1 6269   2.014   6.768   2.672
 1790SOL    HW2 6270   2.125   6.666   2.734
 1791SOL     OW 6271   0.907   6.714   3.579
 1791SOL    HW1 6272   0.884   6.803   3.538
 1791SOL    HW2 6273   0.903   6.721   3.678
 1792SOL     OW 6274   0.533   3.772   4.083
 1792SOL    HW1 6275   0.570   3.849   4.135
 1792SOL    HW2 6276   0.447   3.742   4.123
 1793SOL     OW 6277   0.178   0.406   4.278
 1793SOL    HW1 6278   0.183   0.311   4.247
 1793SOL    HW2 6279   0.264   0.452   4.258
 1794SOL     OW 6280   4.677   5.754   6.207
 1794SOL    HW1 6281   4.641   5.666   6.238
 1794SOL    HW2 6282   4.708   5.808   6.285
 1795SOL     OW 6283   0.887   3.796   0.168
 1795SOL    HW1 6284   0.871   3.717   0.109
 1795SOL    HW2 6285   0.916   3.874   0.113
 1796SOL     OW 6286   3.587   0.130   5.571
 1796SOL    HW1 6287   3.593   0.228   5.590
 1796SOL    HW2 6288   3.666   0.101   5.517
 1797SOL     OW 6289   0.336   1.173   2.250
 1797SOL    HW1 6290   0.290   1.193   2.336
 1797SOL    HW2 6291   0.333   1.075   2.232
 1798SOL     OW 6292   6.063   1.625   3.140
 1798SOL    HW1 6293   6.018   1.557   3.082
 1798SOL    HW2 6294   6.144   1.660   3.093
 1799SOL     OW 6295   2.700   0.243   0.655
 1799SOL    HW1 6296   2.751   0.289   0.583
 1799SOL    HW2 6297   2.643   0.310   0.703
 1800SOL     OW 6298   2.728   4.670   2.306
 1800SOL    HW1 6299   2.709   4.583   2.351
 1800SOL    HW2 6300   2.731   4.657   2.207
 1801SOL     OW 6301   5.596   6.401   0.836
 1801SOL    HW1 6302   5.641   6.343   0.768
 1801SOL    HW2 6303   5.559   6.343   0.909
 1802SOL     OW 6304   5.924   5.221   4.406
 1802SOL    HW1 6305   5.866   5.171   4.343
 1802SOL    HW2 6306   5.971   5.295   4.357
 1803SOL     OW 6307   6.450   4.641   0.348
 1803SOL    HW1 6308   6.487   4.550   0.333
 1803SOL    HW2 6309   6.370   4.635   0.407
 1804SOL     OW 6310   2.981   3.910   6.001
 1804SOL    HW1 6311   3.075   3.936   6.024
 1804SOL    HW2 6312   2.949   3.969   5.927
 1805SOL     OW 6313   6.738   2.676   6.918
 1805SOL    HW1 6314   6.657   2.723   6.883
 1805SOL    HW2 6315   6.814   2.740   6.925
 1806SOL     OW 6316   6.413   6.274   0.415
 1806SOL    HW1 6317   6.452   6.205   0.476
 1806SOL    HW2 6318   6.470   6.282   0.333
 1807SOL     OW 6319   0.039   2.046   5.590
 1807SOL    HW1 6320   0.086   2.004   5.513
 1807SOL    HW2 6321   0.078   2.136   5.608
 1808SOL     OW 6322   2.423   4.864   3.743
 1808SOL    HW1 6323   2.489   4.790   3.758
 1808SOL    HW2 6324   2.425   4.927   3.820
 1809SOL     OW 6325   3.779   0.831   6.344
 1809SOL    HW1 6326   3.848   0.790   6.404
 1809SOL    HW2 6327   3.688   0.822   6.386
 1810SOL     OW 6328   3.254   6.438   3.097
 1810SOL    HW1 6329   3.293   6.350   3.070
 1810SOL    HW2 6330   3.328   6.502   3.117
 1811SOL     OW 6331   5.794   5.634   2.939
 1811SOL    HW1 6332   5.785   5.587   3.027
 1811SOL    HW2 6333   5.794   5.567   2.865
 1812SOL     OW 6334   4.645   5.347   5.129
 1812SOL    HW1 6335   4.563   5.398   5.103
 1812SOL    HW2 6336   4.637   5.253   5.095
 1813SOL     OW 6337   7.005   6.745   5.383
 1813SOL    HW1 6338   0.051   6.821   5.371
 1813SOL    HW2 6339   6.998   6.722   5.480
 1814SOL     OW 6340   4.777   0.374   2.928
 1814SOL    HW1 6341   4.854   0.399   2.986
 1814SOL    HW2 6342   4.758   0.277   2.937
 1815SOL     OW 6343   0.392   1.329   3.198
 1815SOL    HW1 6344   0.296   1.342   3.226
 1815SOL    HW2 6345   0.424   1.240   3.230
 1816SOL     OW 6346   1.402   5.422   0.350
 1816SOL    HW1 6347   1.431   5.508   0.307
 1816SOL    HW2 6348   1.386   5.354   0.279
 1817SOL     OW 6349   1.288   4.140   1.753
 1817SOL    HW1 6350   1.246   4.217   1.801
 1817SOL    HW2 6351   1.387   4.155   1.745
 1818SOL     OW 6352   0.266   1.764   2.929
 1818SOL    HW1 6353   0.226   1.779   3.019
 1818SOL    HW2 6354   0.363   1.785   2.932
 1819SOL     OW 6355   1.258   3.920   2.486
 1819SOL    HW1 6356   1.356   3.903   2.484
 1819SOL    HW2 6357   1.229   3.961   2.399
 1820SOL     OW 6358   5.747   6.435   2.683
 1820SOL    HW1 6359   5.816   6.462   2.616
 1820SOL    HW2 6360   5.725   6.514   2.741
 1821SOL     OW 6361   1.338   2.037   2.989
 1821SOL    HW1 6362   1.248   2.081   2.985
 1821SOL    HW2 6363   1.410   2.105   2.976
 1822SOL     OW 6364   3.105   3.393   2.006
 1822SOL    HW1 6365   3.150   3.458   2.067
 1822SOL    HW2 6366   3.073   3.315   2.060
 1823SOL     OW 6367   4.068   0.117   2.515
 1823SOL    HW1 6368   4.138   0.177   2.477
 1823SOL    HW2 6369   4.108   0.055   2.582
 1824SOL     OW 6370   4.754   1.562   1.819
 1824SOL    HW1 6371   4.656   1.541   1.819
 1824SOL    HW2 6372   4.767   1.660   1.836
 1825SOL     OW 6373   0.521   0.218   1.435
 1825SOL    HW1 6374   0.540   0.254   1.344
 1825SOL    HW2 6375   0.606   0.192   1.480
 1826SOL     OW 6376   2.734   5.648   6.261
 1826SOL    HW1 6377   2.727   5.705   6.179
 1826SOL    HW2 6378   2.815   5.589   6.254
 1827SOL     OW 6379   5.503   0.145   1.044
 1827SOL    HW1 6380   5.574   0.160   0.975
 1827SOL    HW2 6381   5.429   0.210   1.031
 1828SOL     OW 6382   3.127   2.580   0.335
 1828SOL    HW1 6383   3.028   2.584   0.318
 1828SOL    HW2 6384   3.151   2.492   0.375
 1829SOL     OW 6385   5.426   5.372   2.216
 1829SOL    HW1 6386   5.347   5.312   2.203
 1829SOL    HW2 6387   5.423   5.412   2.307
 1830SOL     OW 6388   4.591   0.350   4.740
 1830SOL    HW1 6389   4.601   0.318   4.646
 1830SOL    HW2 6390   4.536   0.433   4.741
 1831SOL     OW 6391   5.153   1.246   2.979
 1831SOL    HW1 6392   5.076   1.293   2.938
 1831SOL    HW2 6393   5.207   1.311   3.033
 1832SOL     OW 6394   5.769   2.832   6.825
 1832SOL    HW1 6395   5.830   2.775   6.880
 1832SOL    HW2 6396   5.678   2.790   6.822
 1833SOL     OW 6397   5.695   2.103   6.251
 1833SOL    HW1 6398   5.645   2.025   6.215
 1833SOL    HW2 6399   5.704   2.173   6.180
 1834SOL     OW 6400   2.552   4.512   6.838
 1834SOL    HW1 6401   2.642   4.533   6.876
 1834SOL    HW2 6402   2.495   4.471   6.908
 1835SOL     OW 6403   1.599   5.096   0.092
 1835SOL    HW1 6404   1.640   5.187   0.106
 1835SOL    HW2 6405   1.646   5.029   0.149
 1836SOL     OW 6406   0.795   6.307   0.464
 1836SOL    HW1 6407   0.792   6.269   0.556
 1836SOL    HW2 6408   0.801   6.232   0.398
 1837SOL     OW 6409   0.031   2.759   4.451
 1837SOL    HW1 6410   6.962   2.802   4.478
 1837SOL    HW2 6411   0.021   2.660   4.451
 1838SOL     OW 6412   0.809   2.936   4.434
 1838SOL    HW1 6413   0.710   2.943   4.450
 1838SOL    HW2 6414   0.828   2.853   4.382
 1839SOL     OW 6415   1.525   1.387   0.026
 1839SOL    HW1 6416   1.515   1.329   0.107
 1839SOL    HW2 6417   1.599   1.351   6.986
 1840SOL     OW 6418   0.987   5.347   1.485
 1840SOL    HW1 6419   1.048   5.319   1.558
 1840SOL    HW2 6420   0.928   5.421   1.516
 1841SOL     OW 6421   1.942   2.974   4.175
 1841SOL    HW1 6422   1.965   3.071   4.170
 1841SOL    HW2 6423   1.938   2.946   4.270
 1842SOL     OW 6424   1.660   5.692   6.079
 1842SOL    HW1 6425   1.564   5.664   6.086
 1842SOL    HW2 6426   1.718   5.624   6.123
 1843SOL     OW 6427   4.577   2.113   5.671
 1843SOL    HW1 6428   4.506   2.182   5.658
 1843SOL    HW2 6429   4.627   2.100   5.585
 1844SOL     OW 6430   5.667   5.132   3.697
 1844SOL    HW1 6431   5.652   5.071   3.775
 1844SOL    HW2 6432   5.595   5.118   3.629
 1845SOL     OW 6433   4.945   6.398   0.773
 1845SOL    HW1 6434   4.994   6.435   0.852
 1845SOL    HW2 6435   4.896   6.472   0.727
 1846SOL     OW 6436   3.812   1.541   5.671
 1846SOL    HW1 6437   3.756   1.494   5.602
 1846SOL    HW2 6438   3.862   1.474   5.724
 1847SOL     OW 6439   1.299   6.050   6.199
 1847SOL    HW1 6440   1.270   5.956   6.216
 1847SOL    HW2 6441   1.369   6.050   6.127
 1848SOL     OW 6442   2.195   1.328   4.329
 1848SOL    HW1 6443   2.225   1.387   4.253
 1848SOL    HW2 6444   2.108   1.363   4.365
 1849SOL     OW 6445   2.427   0.940   5.918
 1849SOL    HW1 6446   2.370   1.015   5.883
 1849SOL    HW2 6447   2.419   0.936   6.017
 1850SOL     OW 6448   5.174   1.673   1.412
 1850SOL    HW1 6449   5.117   1.742   1.368
 1850SOL    HW2 6450   5.255   1.657   1.356
 1851SOL     OW 6451   6.848   4.593   2.404
 1851SOL    HW1 6452   6.761   4.548   2.385
 1851SOL    HW2 6453   6.837   4.692   2.397
 1852SOL     OW 6454   5.574   1.691   5.741
 1852SOL    HW1 6455   5.598   1.626   5.669
 1852SOL    HW2 6456   5.603   1.656   5.829
 1853SOL     OW 6457   1.637   4.911   0.533
 1853SOL    HW1 6458   1.705   4.843   0.560
 1853SOL    HW2 6459   1.653   4.996   0.583
 1854SOL     OW 6460   2.483   5.084   4.216
 1854SOL    HW1 6461   2.520   5.169   4.179
 1854SOL    HW2 6462   2.555   5.015   4.221
 1855SOL     OW 6463   6.872   4.844   1.428
 1855SOL    HW1 6464   6.886   4.845   1.527
 1855SOL    HW2 6465   6.889   4.752   1.393
 1856SOL     OW 6466   5.769   3.448   0.064
 1856SOL    HW1 6467   5.730   3.357   0.076
 1856SOL    HW2 6468   5.764   3.473   6.985
 1857SOL     OW 6469   5.625   1.201   3.426
 1857SOL    HW1 6470   5.725   1.190   3.423
 1857SOL    HW2 6471   5.602   1.275   3.489
 1858SOL     OW 6472   5.170   4.340   2.323
 1858SOL    HW1 6473   5.119   4.402   2.383
 1858SOL    HW2 6474   5.196   4.388   2.240
 1859SOL     OW 6475   5.773   2.099   3.593
 1859SOL    HW1 6476   5.689   2.133   3.552
 1859SOL    HW2 6477   5.791   2.148   3.678
 1860SOL     OW 6478   3.577   2.079   5.133
 1860SOL    HW1 6479   3.666   2.033   5.144
 1860SOL    HW2 6480   3.510   2.013   5.101
 1861SOL     OW 6481   5.138   6.632   2.465
 1861SOL    HW1 6482   5.106   6.603   2.375
 1861SOL    HW2 6483   5.218   6.691   2.454
 1862SOL     OW 6484   2.749   2.271   0.688
 1862SOL    HW1 6485   2.847   2.251   0.680
 1862SOL    HW2 6486   2.707   2.204   0.750
 1863SOL     OW 6487   2.231   1.737   1.233
 1863SOL    HW1 6488   2.219   1.645   1.269
 1863SOL    HW2 6489   2.183   1.802   1.293
 1864SOL     OW 6490   0.430   6.502   3.213
 1864SOL    HW1 6491   0.469   6.592   3.227
 1864SOL    HW2 6492   0.497   6.432   3.237
 1865SOL     OW 6493   5.369   3.185   6.731
 1865SOL    HW1 6494   5.410   3.163   6.643
 1865SOL    HW2 6495   5.408   3.125   6.801
 1866SOL     OW 6496   6.107   5.176   1.367
 1866SOL    HW1 6497   6.105   5.223   1.455
 1866SOL    HW2 6498   6.014   5.166   1.332
 1867SOL     OW 6499   1.441   4.450   6.383
 1867SOL    HW1 6500   1.381   4.513   6.333
 1867SOL    HW2 6501   1.414   4.356   6.363
 1868SOL     OW 6502   6.559   4.236   5.123
 1868SOL    HW1 6503   6.558   4.331   5.093
 1868SOL    HW2 6504   6.466   4.201   5.128
 1869SOL     OW 6505   5.610   1.121   4.693
 1869SOL    HW1 6506   5.623   1.172   4.779
 1869SOL    HW2 6507   5.542   1.049   4.707
 1870SOL     OW 6508   2.125   3.917   4.854
 1870SOL    HW1 6509   2.206   3.947   4.904
 1870SOL    HW2 6510   2.059   3.992   4.848
 1871SOL     OW 6511   1.814   0.872   1.100
 1871SOL    HW1 6512   1.742   0.852   1.166
 1871SOL    HW2 6513   1.837   0.970   1.105
 1872SOL     OW 6514   1.685   5.497   6.500
 1872SOL    HW1 6515   1.707   5.435   6.575
 1872SOL    HW2 6516   1.753   5.571   6.496
 1873SOL     OW 6517   5.708   6.608   6.863
 1873SOL    HW1 6518   5.673   6.664   6.787
 1873SOL    HW2 6519   5.634   6.587   6.926
 1874SOL     OW 6520   0.554   3.625   2.833
 1874SOL    HW1 6521   0.474   3.681   2.855
 1874SOL    HW2 6522   0.539   3.579   2.745
 1875SOL     OW 6523   0.522   0.064   2.016
 1875SOL    HW1 6524   0.552   0.036   2.107
 1875SOL    HW2 6525   0.561   0.154   1.994
 1876SOL     OW 6526   1.828   6.097   4.361
 1876SOL    HW1 6527   1.814   6.067   4.455
 1876SOL    HW2 6528   1.870   6.024   4.308
 1877SOL     OW 6529   0.409   0.084   4.097
 1877SOL    HW1 6530   0.481   0.091   4.166
 1877SOL    HW2 6531   0.323   0.116   4.136
 1878SOL     OW 6532   6.426   3.220   5.701
 1878SOL    HW1 6533   6.510   3.220   5.648
 1878SOL    HW2 6534   6.436   3.279   5.781
 1879SOL     OW 6535   1.778   5.591   5.630
 1879SOL    HW1 6536   1.703   5.578   5.696
 1879SOL    HW2 6537   1.745   5.569   5.538
 1880SOL     OW 6538   6.324   0.332   4.027
 1880SOL    HW1 6539   6.281   0.249   4.063
 1880SOL    HW2 6540   6.406   0.307   3.975
 1881SOL     OW 6541   0.428   2.215   6.896
 1881SOL    HW1 6542   0.439   2.254   6.805
 1881SOL    HW2 6543   0.511   2.229   6.949
 1882SOL     OW 6544   0.638   6.647   0.341
 1882SOL    HW1 6545   0.724   6.596   0.342
 1882SOL    HW2 6546   0.566   6.593   0.386
 1883SOL     OW 6547   6.935   2.008   4.224
 1883SOL    HW1 6548   6.895   1.948   4.155
 1883SOL    HW2 6549   6.906   2.102   4.208
 1884SOL     OW 6550   5.746   2.155   1.404
 1884SOL    HW1 6551   5.651   2.186   1.397
 1884SOL    HW2 6552   5.752   2.080   1.469
 1885SOL     OW 6553   3.481   1.269   4.528
 1885SOL    HW1 6554   3.504   1.257   4.431
 1885SOL    HW2 6555   3.391   1.229   4.545
 1886SOL     OW 6556   0.319   6.147   3.780
 1886SOL    HW1 6557   0.354   6.178   3.692
 1886SOL    HW2 6558   0.374   6.185   3.854
 1887SOL     OW 6559   2.400   5.503   6.120
 1887SOL    HW1 6560   2.468   5.486   6.049
 1887SOL    HW2 6561   2.434   5.470   6.208
 1888SOL     OW 6562   2.196   6.987   3.362
 1888SOL    HW1 6563   2.227   0.064   3.367
 1888SOL    HW2 6564   2.243   6.940   3.287
 1889SOL     OW 6565   0.176   3.246   2.250
 1889SOL    HW1 6566   0.273   3.238   2.275
 1889SOL    HW2 6567   0.134   3.319   2.304
 1890SOL     OW 6568   1.740   6.057   4.652
 1890SOL    HW1 6569   1.756   5.988   4.723
 1890SOL    HW2 6570   1.659   6.110   4.674
 1891SOL     OW 6571   4.082   3.806   3.646
 1891SOL    HW1 6572   4.084   3.831   3.549
 1891SOL    HW2 6573   4.104   3.710   3.656
 1892SOL     OW 6574   6.755   0.741   2.732
 1892SOL    HW1 6575   6.661   0.732   2.765
 1892SOL    HW2 6576   6.816   0.753   2.811
 1893SOL     OW 6577   3.688   3.043   4.115
 1893SOL    HW1 6578   3.633   2.964   4.086
 1893SOL    HW2 6579   3.653   3.079   4.201
 1894SOL     OW 6580   3.366   3.058   4.763
 1894SOL    HW1 6581   3.357   3.000   4.844
 1894SOL    HW2 6582   3.400   3.148   4.791
 1895SOL     OW 6583   0.817   6.197   1.372
 1895SOL    HW1 6584   0.762   6.250   1.307
 1895SOL    HW2 6585   0.908   6.238   1.380
 1896SOL     OW 6586   6.008   3.076   1.016
 1896SOL    HW1 6587   5.986   3.034   1.104
 1896SOL    HW2 6588   6.040   3.005   0.953
 1897SOL     OW 6589   2.173   4.676   3.092
 1897SOL    HW1 6590   2.153   4.729   3.174
 1897SOL    HW2 6591   2.098   4.613   3.073
 1898SOL     OW 6592   1.637   6.041   2.274
 1898SOL    HW1 6593   1.591   5.996   2.197
 1898SOL    HW2 6594   1.654   6.137   2.250
 1899SOL     OW 6595   6.751   0.951   1.874
 1899SOL    HW1 6596   6.841   0.920   1.905
 1899SOL    HW2 6597   6.681   0.916   1.936
 1900SOL     OW 6598   3.029   6.165   6.303
 1900SOL    HW1 6599   2.963   6.145   6.231
 1900SOL    HW2 6600   3.085   6.084   6.320
 1901SOL     OW 6601   3.991   3.352   3.023
 1901SOL    HW1 6602   3.909   3.298   3.004
 1901SOL    HW2 6603   4.052   3.347   2.944
 1902SOL     OW 6604   0.979   6.797   5.352
 1902SOL    HW1 6605   1.010   6.738   5.426
 1902SOL    HW2 6606   1.001   6.892   5.373
 1903SOL     OW 6607   1.253   2.107   4.267
 1903SOL    HW1 6608   1.195   2.044   4.318
 1903SOL    HW2 6609   1.343   2.065   4.253
 1904SOL     OW 6610   5.991   5.465   1.796
 1904SOL    HW1 6611   5.901   5.486   1.834
 1904SOL    HW2 6612   6.060   5.471   1.868
 1905SOL     OW 6613   0.433   3.152   3.973
 1905SOL    HW1 6614   0.362   3.208   3.931
 1905SOL    HW2 6615   0.396   3.106   4.054
 1906SOL     OW 6616   0.223   5.954   3.962
 1906SOL    HW1 6617   0.299   5.891   3.972
 1906SOL    HW2 6618   0.247   6.025   3.895
 1907SOL     OW 6619   6.669   2.861   0.796
 1907SOL    HW1 6620   6.636   2.795   0.728
 1907SOL    HW2 6621   6.732   2.926   0.751
 1908SOL     OW 6622   4.140   0.479   1.609
 1908SOL    HW1 6623   4.102   0.528   1.687
 1908SOL    HW2 6624   4.221   0.527   1.576
 1909SOL     OW 6625   6.512   4.989   5.083
 1909SOL    HW1 6626   6.530   5.002   5.181
 1909SOL    HW2 6627   6.596   5.004   5.032
 1910SOL     OW 6628   0.457   6.118   5.277
 1910SOL    HW1 6629   0.379   6.078   5.229
 1910SOL    HW2 6630   0.435   6.212   5.303
 1911SOL     OW 6631   5.738   6.620   4.152
 1911SOL    HW1 6632   5.820   6.586   4.196
 1911SOL    HW2 6633   5.759   6.646   4.057
 1912SOL     OW 6634   3.272   4.911   1.958
 1912SOL    HW1 6635   3.255   4.873   1.867
 1912SOL    HW2 6636   3.198   4.973   1.984
 1913SOL     OW 6637   2.906   4.280   5.995
 1913SOL    HW1 6638   2.860   4.206   6.044
 1913SOL    HW2 6639   3.004   4.275   6.011
 1914SOL     OW 6640   4.199   4.084   0.524
 1914SOL    HW1 6641   4.109   4.114   0.494
 1914SOL    HW2 6642   4.269   4.141   0.481
 1915SOL     OW 6643   4.374   2.372   0.297
 1915SOL    HW1 6644   4.299   2.414   0.246
 1915SOL    HW2 6645   4.337   2.324   0.377
 1916SOL     OW 6646   3.659   1.625   2.883
 1916SOL    HW1 6647   3.598   1.699   2.855
 1916SOL    HW2 6648   3.728   1.609   2.813
 1917SOL     OW 6649   2.802   3.634   1.392
 1917SOL    HW1 6650   2.876   3.638   1.325
 1917SOL    HW2 6651   2.725   3.688   1.360
 1918SOL     OW 6652   4.973   2.954   4.311
 1918SOL    HW1 6653   4.986   2.855   4.316
 1918SOL    HW2 6654   5.054   3.000   4.348
 1919SOL     OW 6655   6.548   1.195   6.413
 1919SOL    HW1 6656   6.558   1.145   6.327
 1919SOL    HW2 6657   6.464   1.248   6.412
 1920SOL     OW 6658   4.748   3.629   0.593
 1920SOL    HW1 6659   4.794   3.691   0.529
 1920SOL    HW2 6660   4.653   3.657   0.605
 1921SOL     OW 6661   3.438   2.119   6.999
 1921SOL    HW1 6662   3.349   2.091   6.963
 1921SOL    HW2 6663   3.459   2.066   0.063
 1922SOL     OW 6664   3.629   3.766   4.420
 1922SOL    HW1 6665   3.632   3.674   4.382
 1922SOL    HW2 6666   3.606   3.831   4.347
 1923SOL     OW 6667   3.141   0.579   3.896
 1923SOL    HW1 6668   3.172   0.513   3.828
 1923SOL    HW2 6669   3.184   0.558   3.984
 1924SOL     OW 6670   5.737   0.777   1.355
 1924SOL    HW1 6671   5.650   0.788   1.308
 1924SOL    HW2 6672   5.781   0.693   1.325
 1925SOL     OW 6673   1.566   4.567   1.031
 1925SOL    HW1 6674   1.637   4.596   0.966
 1925SOL    HW2 6675   1.509   4.497   0.989
 1926SOL     OW 6676   2.870   6.617   2.156
 1926SOL    HW1 6677   2.794   6.681   2.163
 1926SOL    HW2 6678   2.914   6.627   2.067
 1927SOL     OW 6679   2.193   5.390   0.991
 1927SOL    HW1 6680   2.231   5.307   1.034
 1927SOL    HW2 6681   2.114   5.366   0.936
 1928SOL     OW 6682   0.778   4.235   2.591
 1928SOL    HW1 6683   0.875   4.234   2.565
 1928SOL    HW2 6684   0.768   4.195   2.682
 1929SOL     OW 6685   3.273   0.539   3.205
 1929SOL    HW1 6686   3.353   0.582   3.163
 1929SOL    HW2 6687   3.298   0.503   3.295
 1930SOL     OW 6688   3.434   3.434   0.016
 1930SOL    HW1 6689   3.343   3.408   0.047
 1930SOL    HW2 6690   3.427   3.515   6.974
 1931SOL     OW 6691   5.725   3.551   3.864
 1931SOL    HW1 6692   5.752   3.641   3.899
 1931SOL    HW2 6693   5.786   3.526   3.788
 1932SOL     OW 6694   4.610   0.997   2.027
 1932SOL    HW1 6695   4.516   1.030   2.013
 1932SOL    HW2 6696   4.674   1.070   2.004
 1933SOL     OW 6697   1.372   1.285   0.975
 1933SOL    HW1 6698   1.376   1.327   0.884
 1933SOL    HW2 6699   1.409   1.192   0.969
 1934SOL     OW 6700   6.451   0.701   6.784
 1934SOL    HW1 6701   6.352   0.709   6.791
 1934SOL    HW2 6702   6.475   0.648   6.703
 1935SOL     OW 6703   6.262   5.105   3.927
 1935SOL    HW1 6704   6.232   5.156   4.007
 1935SOL    HW2 6705   6.311   5.166   3.865
 1936SOL     OW 6706   5.700   3.086   6.731
 1936SOL    HW1 6707   5.717   2.991   6.757
 1936SOL    HW2 6708   5.691   3.093   6.632
 1937SOL     OW 6709   1.020   5.094   6.787
 1937SOL    HW1 6710   1.037   5.148   6.705
 1937SOL    HW2 6711   1.011   4.997   6.762
 1938SOL     OW 6712   6.594   1.512   6.611
 1938SOL    HW1 6713   6.648   1.488   6.530
 1938SOL    HW2 6714   6.511   1.561   6.582
 1939SOL     OW 6715   0.555   0.881   3.967
 1939SOL    HW1 6716   0.597   0.820   4.034
 1939SOL    HW2 6717   0.567   0.844   3.875
 1940SOL     OW 6718   1.141   5.293   1.724
 1940SOL    HW1 6719   1.074   5.227   1.759
 1940SOL    HW2 6720   1.152   5.368   1.790
 1941SOL     OW 6721   6.081   0.684   4.189
 1941SOL    HW1 6722   6.167   0.732   4.207
 1941SOL    HW2 6723   6.097   0.610   4.124
 1942SOL     OW 6724   0.779   6.020   1.801
 1942SOL    HW1 6725   0.797   5.941   1.859
 1942SOL    HW2 6726   0.680   6.030   1.788
 1943SOL     OW 6727   0.677   3.863   4.377
 1943SOL    HW1 6728   0.748   3.906   4.321
 1943SOL    HW2 6729   0.593   3.918   4.371
 1944SOL     OW 6730   6.936   3.650   3.855
 1944SOL    HW1 6731   6.848   3.691   3.834
 1944SOL    HW2 6732   7.001   3.671   3.782
 1945SOL     OW 6733   4.767   1.820   2.373
 1945SOL    HW1 6734   4.805   1.854   2.287
 1945SOL    HW2 6735   4.716   1.892   2.418
 1946SOL     OW 6736   5.978   4.790   0.038
 1946SOL    HW1 6737   5.929   4.877   0.034
 1946SOL    HW2 6738   5.958   4.737   6.973
 1947SOL     OW 6739   5.576   6.329   2.850
 1947SOL    HW1 6740   5.635   6.374   2.784
 1947SOL    HW2 6741   5.508   6.274   2.802
 1948SOL     OW 6742   5.357   3.074   3.168
 1948SOL    HW1 6743   5.447   3.030   3.172
 1948SOL    HW2 6744   5.327   3.097   3.261
 1949SOL     OW 6745   3.217   3.892   6.452
 1949SOL    HW1 6746   3.243   3.900   6.548
 1949SOL    HW2 6747   3.296   3.910   6.394
 1950SOL     OW 6748   3.607   3.929   3.864
 1950SOL    HW1 6749   3.692   3.876   3.872
 1950SOL    HW2 6750   3.531   3.875   3.899
 1951SOL     OW 6751   0.487   5.414   6.185
 1951SOL    HW1 6752   0.449   5.417   6.093
 1951SOL    HW2 6753   0.583   5.442   6.183
 1952SOL     OW 6754   5.490   4.147   0.204
 1952SOL    HW1 6755   5.531   4.233   0.173
 1952SOL    HW2 6756   5.497   4.079   0.130
 1953SOL     OW 6757   0.624   1.044   6.593
 1953SOL    HW1 6758   0.567   1.115   6.634
 1953SOL    HW2 6759   0.721   1.064   6.612
 1954SOL     OW 6760   3.851   6.496   2.927
 1954SOL    HW1 6761   3.780   6.520   2.993
 1954SOL    HW2 6762   3.878   6.577   2.875
 1955SOL     OW 6763   6.616   3.315   4.299
 1955SOL    HW1 6764   6.671   3.254   4.241
 1955SOL    HW2 6765   6.669   3.396   4.322
 1956SOL     OW 6766   4.713   1.429   1.472
 1956SOL    HW1 6767   4.723   1.361   1.544
 1956SOL    HW2 6768   4.799   1.480   1.462
 1957SOL     OW 6769   6.856   3.079   4.937
 1957SOL    HW1 6770   6.918   3.007   4.969
 1957SOL    HW2 6771   6.901   3.135   4.868
 1958SOL     OW 6772   5.418   2.063   0.543
 1958SOL    HW1 6773   5.440   2.160   0.556
 1958SOL    HW2 6774   5.325   2.046   0.577
 1959SOL     OW 6775   2.029   1.782   6.192
 1959SOL    HW1 6776   1.932   1.788   6.216
 1959SOL    HW2 6777   2.063   1.874   6.172
 1960SOL     OW 6778   4.640   4.525   1.944
 1960SOL    HW1 6779   4.624   4.434   1.981
 1960SOL    HW2 6780   4.720   4.566   1.988
 1961SOL     OW 6781   6.778   3.737   4.375
 1961SOL    HW1 6782   6.867   3.728   4.418
 1961SOL    HW2 6783   6.774   3.823   4.324
 1962SOL     OW 6784   0.610   6.733   2.488
 1962SOL    HW1 6785   0.688   6.768   2.435
 1962SOL    HW2 6786   0.613   6.770   2.580
 1963SOL     OW 6787   0.633   1.419   6.815
 1963SOL    HW1 6788   0.562   1.426   6.885
 1963SOL    HW2 6789   0.600   1.459   6.730
 1964SOL     OW 6790   5.623   3.388   0.365
 1964SOL    HW1 6791   5.592   3.336   0.286
 1964SOL    HW2 6792   5.674   3.328   0.427
 1965SOL     OW 6793   5.053   4.902   4.678
 1965SOL    HW1 6794   4.971   4.954   4.656
 1965SOL    HW2 6795   5.118   4.908   4.602
 1966SOL     OW 6796   1.530   5.129   6.602
 1966SOL    HW1 6797   1.491   5.063   6.538
 1966SOL    HW2 6798   1.466   5.144   6.678
 1967SOL     OW 6799   6.573   2.522   4.438
 1967SOL    HW1 6800   6.661   2.509   4.484
 1967SOL    HW2 6801   6.589   2.565   4.349
 1968SOL     OW 6802   2.581   1.563   5.904
 1968SOL    HW1 6803   2.548   1.508   5.982
 1968SOL    HW2 6804   2.555   1.518   5.819
 1969SOL     OW 6805   0.390   6.557   1.765
 1969SOL    HW1 6806   0.425   6.478   1.715
 1969SOL    HW2 6807   0.416   6.550   1.861
 1970SOL     OW 6808   5.117   4.126   2.691
 1970SOL    HW1 6809   5.099   4.086   2.601
 1970SOL    HW2 6810   5.167   4.060   2.747
 1971SOL     OW 6811   1.446   5.586   4.294
 1971SOL    HW1 6812   1.496   5.672   4.290
 1971SOL    HW2 6813   1.379   5.590   4.368
 1972SOL     OW 6814   5.498   1.931   3.255
 1972SOL    HW1 6815   5.496   1.874   3.336
 1972SOL    HW2 6816   5.511   1.874   3.174
 1973SOL     OW 6817   4.384   2.587   6.806
 1973SOL    HW1 6818   4.426   2.497   6.791
 1973SOL    HW2 6819   4.334   2.587   6.892
 1974SOL     OW 6820   2.145   6.279   4.525
 1974SOL    HW1 6821   2.188   6.359   4.482
 1974SOL    HW2 6822   2.174   6.196   4.477
 1975SOL     OW 6823   2.218   2.496   2.678
 1975SOL    HW1 6824   2.140   2.519   2.736
 1975SOL    HW2 6825   2.220   2.397   2.663
 1976SOL     OW 6826   2.547   0.293   4.649
 1976SOL    HW1 6827   2.512   0.352   4.577
 1976SOL    HW2 6828   2.471   0.252   4.699
 1977SOL     OW 6829   1.212   4.542   0.269
 1977SOL    HW1 6830   1.251   4.589   0.190
 1977SOL    HW2 6831   1.164   4.607   0.328
 1978SOL     OW 6832   2.252   0.630   2.526
 1978SOL    HW1 6833   2.269   0.625   2.428
 1978SOL    HW2 6834   2.329   0.674   2.572
 1979SOL     OW 6835   5.568   3.415   6.743
 1979SOL    HW1 6836   5.512   3.374   6.815
 1979SOL    HW2 6837   5.555   3.364   6.657
 1980SOL     OW 6838   4.141   0.153   1.756
 1980SOL    HW1 6839   4.095   0.178   1.840
 1980SOL    HW2 6840   4.108   0.064   1.724
 1981SOL     OW 6841   4.394   2.698   1.632
 1981SOL    HW1 6842   4.306   2.742   1.646
 1981SOL    HW2 6843   4.465   2.748   1.681
 1982SOL     OW 6844   2.303   2.260   6.277
 1982SOL    HW1 6845   2.283   2.169   6.314
 1982SOL    HW2 6846   2.396   2.260   6.238
 1983SOL     OW 6847   6.978   2.339   1.181
 1983SOL    HW1 6848   6.961   2.393   1.264
 1983SOL    HW2 6849   7.014   2.398   1.109
 1984SOL     OW 6850   4.799   3.287   6.064
 1984SOL    HW1 6851   4.797   3.235   6.150
 1984SOL    HW2 6852   4.745   3.370   6.074
 1985SOL     OW 6853   5.243   5.573   4.895
 1985SOL    HW1 6854   5.182   5.604   4.822
 1985SOL    HW2 6855   5.330   5.622   4.888
 1986SOL     OW 6856   3.032   3.100   3.459
 1986SOL    HW1 6857   3.091   3.056   3.527
 1986SOL    HW2 6858   3.040   3.052   3.372
 1987SOL     OW 6859   1.868   1.992   1.727
 1987SOL    HW1 6860   1.921   1.918   1.685
 1987SOL    HW2 6861   1.903   2.080   1.697
 1988SOL     OW 6862   0.916   2.044   2.789
 1988SOL    HW1 6863   0.905   2.129   2.739
 1988SOL    HW2 6864   0.838   2.030   2.850
 1989SOL     OW 6865   3.550   5.320   3.455
 1989SOL    HW1 6866   3.544   5.414   3.488
 1989SOL    HW2 6867   3.499   5.260   3.516
 1990SOL     OW 6868   4.320   6.426   0.643
 1990SOL    HW1 6869   4.283   6.397   0.731
 1990SOL    HW2 6870   4.419   6.433   0.650
 1991SOL     OW 6871   3.055   5.237   2.752
 1991SOL    HW1 6872   3.002   5.175   2.810
 1991SOL    HW2 6873   3.025   5.228   2.657
 1992SOL     OW 6874   0.864   6.879   2.993
 1992SOL    HW1 6875   0.928   6.912   3.062
 1992SOL    HW2 6876   0.908   6.878   2.904
 1993SOL     OW 6877   1.279   1.067   1.563
 1993SOL    HW1 6878   1.273   1.028   1.472
 1993SOL    HW2 6879   1.305   1.164   1.557
 1994SOL     OW 6880   2.872   3.175   1.486
 1994SOL    HW1 6881   2.887   3.155   1.583
 1994SOL    HW2 6882   2.819   3.259   1.477
 1995SOL     OW 6883   6.097   0.962   4.002
 1995SOL    HW1 6884   6.010   0.921   4.028
 1995SOL    HW2 6885   6.170   0.925   4.059
 1996SOL     OW 6886   4.863   0.393   1.309
 1996SOL    HW1 6887   4.773   0.354   1.289
 1996SOL    HW2 6888   4.903   0.346   1.387
 1997SOL     OW 6889   2.529   1.827   2.988
 1997SOL    HW1 6890   2.556   1.873   3.073
 1997SOL    HW2 6891   2.543   1.889   2.911
 1998SOL     OW 6892   2.152   3.644   1.316
 1998SOL    HW1 6893   2.196   3.732   1.333
 1998SOL    HW2 6894   2.216   3.583   1.269
 1999SOL     OW 6895   0.719   0.314   5.739
 1999SOL    HW1 6896   0.780   0.241   5.772
 1999SOL    HW2 6897   0.739   0.332   5.643
 2000SOL     OW 6898   4.761   3.881   6.747
 2000SOL    HW1 6899   4.761   3.862   6.649
 2000SOL    HW2 6900   4.855   3.896   6.778
 2001SOL     OW 6901   1.364   1.781   0.307
 2001SOL    HW1 6902   1.429   1.854   0.332
 2001SOL    HW2 6903   1.405   1.722   0.238
 2002SOL     OW 6904   5.868   4.696   6.413
 2002SOL    HW1 6905   5.934   4.757   6.370
 2002SOL    HW2 6906   5.895   4.601   6.397
 2003SOL     OW 6907   6.793   5.749   1.324
 2003SOL    HW1 6908   6.863   5.732   1.393
 2003SOL    HW2 6909   6.736   5.826   1.353
 2004SOL     OW 6910   3.508   1.046   2.891
 2004SOL    HW1 6911   3.507   0.959   2.841
 2004SOL    HW2 6912   3.599   1.062   2.929
 2005SOL     OW 6913   1.785   6.649   0.081
 2005SOL    HW1 6914   1.810   6.698   0.164
 2005SOL    HW2 6915   1.812   6.553   0.089
 2006SOL     OW 6916   5.938   0.158   2.195
 2006SOL    HW1 6917   5.944   0.247   2.238
 2006SOL    HW2 6918   6.028   0.130   2.163
 2007SOL     OW 6919   5.535   5.091   5.766
 2007SOL    HW1 6920   5.498   5.166   5.820
 2007SOL    HW2 6921   5.560   5.015   5.826
 2008SOL     OW 6922   2.186   3.140   2.606
 2008SOL    HW1 6923   2.197   3.096   2.517
 2008SOL    HW2 6924   2.183   3.071   2.678
 2009SOL     OW 6925   5.995   0.370   3.780
 2009SOL    HW1 6926   6.059   0.317   3.724
 2009SOL    HW2 6927   6.042   0.408   3.859
 2010SOL     OW 6928   6.926   1.309   1.619
 2010SOL    HW1 6929   6.915   1.363   1.703
 2010SOL    HW2 6930   6.961   1.218   1.643
 2011SOL     OW 6931   0.606   0.646   5.251
 2011SOL    HW1 6932   0.571   0.576   5.314
 2011SOL    HW2 6933   0.648   0.601   5.172
 2012SOL     OW 6934   0.042   2.088   0.435
 2012SOL    HW1 6935   7.008   2.006   0.456
 2012SOL    HW2 6936   0.068   2.088   0.338
 2013SOL     OW 6937   0.457   2.426   2.136
 2013SOL    HW1 6938   0.412   2.510   2.106
 2013SOL    HW2 6939   0.388   2.358   2.161
 2014SOL     OW 6940   4.249   2.259   3.651
 2014SOL    HW1 6941   4.268   2.166   3.685
 2014SOL    HW2 6942   4.207   2.253   3.561
 2015SOL     OW 6943   3.479   6.390   1.621
 2015SOL    HW1 6944   3.384   6.364   1.606
 2015SOL    HW2 6945   3.528   6.392   1.534
 2016SOL     OW 6946   2.247   0.566   4.699
 2016SOL    HW1 6947   2.242   0.543   4.602
 2016SOL    HW2 6948   2.179   0.514   4.750
 2017SOL     OW 6949   1.632   0.003   4.712
 2017SOL    HW1 6950   1.673   0.048   4.633
 2017SOL    HW2 6951   1.614   6.925   4.690
 2018SOL     OW 6952   0.548   1.072   4.665
 2018SOL    HW1 6953   0.475   1.028   4.612
 2018SOL    HW2 6954   0.554   1.030   4.755
 2019SOL     OW 6955   0.769   5.093   6.927
 2019SOL    HW1 6956   0.851   5.110   6.873
 2019SOL    HW2 6957   0.688   5.121   6.874
 2020SOL     OW 6958   2.089   0.164   1.652
 2020SOL    HW1 6959   2.143   0.109   1.588
 2020SOL    HW2 6960   1.999   0.183   1.613
 2021SOL     OW 6961   0.434   5.099   3.428
 2021SOL    HW1 6962   0.396   5.191   3.436
 2021SOL    HW2 6963   0.503   5.097   3.356
 2022SOL     OW 6964   2.134   3.147   4.502
 2022SOL    HW1 6965   2.184   3.223   4.460
 2022SOL    HW2 6966   2.144   3.153   4.602
 2023SOL     OW 6967   0.559   5.750   6.625
 2023SOL    HW1 6968   0.641   5.705   6.593
 2023SOL    HW2 6969   0.544   5.834   6.573
 2024SOL     OW 6970   6.488   6.043   3.367
 2024SOL    HW1 6971   6.451   5.951   3.377
 2024SOL    HW2 6972   6.581   6.046   3.401
 2025SOL     OW 6973   1.798   0.721   4.646
 2025SOL    HW1 6974   1.831   0.816   4.651
 2025SOL    HW2 6975   1.829   0.670   4.726
 2026SOL     OW 6976   1.594   6.499   5.720
 2026SOL    HW1 6977   1.654   6.547   5.656
 2026SOL    HW2 6978   1.646   6.475   5.802
 2027SOL     OW 6979   6.710   6.733   3.137
 2027SOL    HW1 6980   6.765   6.686   3.206
 2027SOL    HW2 6981   6.619   6.692   3.133
 2028SOL     OW 6982   1.744   6.075   5.031
 2028SOL    HW1 6983   1.837   6.087   5.065
 2028SOL    HW2 6984   1.746   6.019   4.948
 2029SOL     OW 6985   6.752   2.347   0.093
 2029SOL    HW1 6986   6.778   2.381   0.002
 2029SOL    HW2 6987   6.680   2.278   0.083
 2030SOL     OW 6988   1.627   6.029   2.659
 2030SOL    HW1 6989   1.548   5.992   2.709
 2030SOL    HW2 6990   1.604   6.120   2.624
 2031SOL     OW 6991   6.818   0.269   4.654
 2031SOL    HW1 6992   6.737   0.238   4.605
 2031SOL    HW2 6993   6.885   0.305   4.588
 2032SOL     OW 6994   2.866   3.126   6.403
 2032SOL    HW1 6995   2.769   3.130   6.379
 2032SOL    HW2 6996   2.912   3.207   6.366
 2033SOL     OW 6997   2.735   0.021   1.542
 2033SOL    HW1 6998   2.706   0.033   1.637
 2033SOL    HW2 6999   2.835   0.022   1.537
 2034SOL     OW 7000   0.918   3.700   4.705
 2034SOL    HW1 7001   0.954   3.769   4.768
 2034SOL    HW2 7002   0.863   3.634   4.756
 2035SOL     OW 7003   4.723   6.160   3.236
 2035SOL    HW1 7004   4.725   6.257   3.212
 2035SOL    HW2 7005   4.794   6.141   3.302
 2036SOL     OW 7006   6.923   3.217   5.737
 2036SOL    HW1 7007   7.012   3.237   5.777
 2036SOL    HW2 7008   6.877   3.147   5.791
 2037SOL     OW 7009   1.056   2.548   6.282
 2037SOL    HW1 7010   1.017   2.532   6.191
 2037SOL    HW2 7011   1.133   2.610   6.275
 2038SOL     OW 7012   1.940   0.862   6.073
 2038SOL    HW1 7013   2.026   0.886   6.027
 2038SOL    HW2 7014   1.874   0.936   6.063
 2039SOL     OW 7015   5.337   5.993   4.629
 2039SOL    HW1 7016   5.273   6.015   4.702
 2039SOL    HW2 7017   5.330   6.062   4.557
 2040SOL     OW 7018   2.822   1.279   0.817
 2040SOL    HW1 7019   2.852   1.353   0.758
 2040SOL    HW2 7020   2.878   1.277   0.900
 2041SOL     OW 7021   2.931   0.344   6.854
 2041SOL    HW1 7022   3.001   0.401   6.896
 2041SOL    HW2 7023   2.962   0.249   6.852
 2042SOL     OW 7024   0.094   0.208   5.127
 2042SOL    HW1 7025   0.072   0.286   5.185
 2042SOL    HW2 7026   0.127   0.240   5.038
 2043SOL     OW 7027   1.485   3.519   0.339
 2043SOL    HW1 7028   1.462   3.432   0.295
 2043SOL    HW2 7029   1.401   3.571   0.354
 2044SOL     OW 7030   3.101   1.197   2.669
 2044SOL    HW1 7031   3.201   1.206   2.670
 2044SOL    HW2 7032   3.061   1.265   2.730
 2045SOL     OW 7033   1.916   5.647   3.377
 2045SOL    HW1 7034   1.820   5.641   3.407
 2045SOL    HW2 7035   1.944   5.743   3.375
 2046SOL     OW 7036   0.520   2.438   5.723
 2046SOL    HW1 7037   0.444   2.504   5.721
 2046SOL    HW2 7038   0.539   2.408   5.629
 2047SOL     OW 7039   0.094   0.304   2.015
 2047SOL    HW1 7040   0.010   0.309   1.962
 2047SOL    HW2 7041   0.161   0.248   1.967
 2048SOL     OW 7042   2.216   1.492   3.629
 2048SOL    HW1 7043   2.117   1.479   3.616
 2048SOL    HW2 7044   2.236   1.498   3.726
 2049SOL     OW 7045   4.268   1.942   5.293
 2049SOL    HW1 7046   4.227   1.870   5.238
 2049SOL    HW2 7047   4.283   1.909   5.386
 2050SOL     OW 7048   0.086   0.959   2.487
 2050SOL    HW1 7049   0.009   1.023   2.492
 2050SOL    HW2 7050   0.050   0.866   2.476
 2051SOL     OW 7051   3.553   6.632   6.374
 2051SOL    HW1 7052   3.465   6.647   6.419
 2051SOL    HW2 7053   3.621   6.602   6.441
 2052SOL     OW 7054   0.651   4.495   0.577
 2052SOL    HW1 7055   0.553   4.481   0.590
 2052SOL    HW2 7056   0.698   4.484   0.664
 2053SOL     OW 7057   4.594   5.377   1.479
 2053SOL    HW1 7058   4.642   5.292   1.455
 2053SOL    HW2 7059   4.642   5.422   1.554
 2054SOL     OW 7060   3.075   3.839   3.714
 2054SOL    HW1 7061   2.992   3.820   3.662
 2054SOL    HW2 7062   3.052   3.847   3.811
 2055SOL     OW 7063   3.081   3.056   5.543
 2055SOL    HW1 7064   3.102   3.011   5.629
 2055SOL    HW2 7065   3.075   3.155   5.557
 2056SOL     OW 7066   2.497   5.352   2.050
 2056SOL    HW1 7067   2.564   5.301   1.996
 2056SOL    HW2 7068   2.507   5.328   2.146
 2057SOL     OW 7069   6.193   2.875   4.438
 2057SOL    HW1 7070   6.158   2.785   4.412
 2057SOL    HW2 7071   6.120   2.928   4.481
 2058SOL     OW 7072   5.784   0.684   3.604
 2058SOL    HW1 7073   5.753   0.602   3.652
 2058SOL    HW2 7074   5.728   0.698   3.522
 2059SOL     OW 7075   2.649   1.139   6.019
 2059SOL    HW1 7076   2.712   1.132   6.097
 2059SOL    HW2 7077   2.687   1.091   5.940
 2060SOL     OW 7078   1.437   2.366   6.330
 2060SOL    HW1 7079   1.344   2.333   6.312
 2060SOL    HW2 7080   1.440   2.465   6.317
 2061SOL     OW 7081   2.277   2.792   3.977
 2061SOL    HW1 7082   2.262   2.863   4.046
 2061SOL    HW2 7083   2.190   2.748   3.955
 2062SOL     OW 7084   5.141   5.379   3.783
 2062SOL    HW1 7085   5.113   5.348   3.873
 2062SOL    HW2 7086   5.125   5.477   3.774
 2063SOL     OW 7087   1.259   1.437   4.371
 2063SOL    HW1 7088   1.228   1.524   4.331
 2063SOL    HW2 7089   1.208   1.361   4.329
 2064SOL     OW 7090   0.422   3.984   4.253
 2064SOL    HW1 7091   0.352   3.924   4.294
 2064SOL    HW2 7092   0.378   4.045   4.187
 2065SOL     OW 7093   3.712   3.862   5.634
 2065SOL    HW1 7094   3.632   3.802   5.624
 2065SOL    HW2 7095   3.682   3.954   5.660
 2066SOL     OW 7096   2.344   2.312   4.515
 2066SOL    HW1 7097   2.342   2.391   4.576
 2066SOL    HW2 7098   2.251   2.283   4.495
 2067SOL     OW 7099   6.244   4.210   2.884
 2067SOL    HW1 7100   6.201   4.286   2.835
 2067SOL    HW2 7101   6.322   4.176   2.831
 2068SOL     OW 7102   2.986   6.640   4.424
 2068SOL    HW1 7103   2.981   6.545   4.393
 2068SOL    HW2 7104   2.915   6.693   4.379
 2069SOL     OW 7105   5.595   1.436   2.900
 2069SOL    HW1 7106   5.606   1.523   2.853
 2069SOL    HW2 7107   5.533   1.448   2.978
 2070SOL     OW 7108   0.125   5.977   1.843
 2070SOL    HW1 7109   0.189   5.922   1.789
 2070SOL    HW2 7110   0.079   5.919   1.910
 2071SOL     OW 7111   6.866   2.565   4.069
 2071SOL    HW1 7112   6.861   2.592   3.973
 2071SOL    HW2 7113   6.775   2.571   4.110
 2072SOL     OW 7114   5.108   2.986   6.183
 2072SOL    HW1 7115   5.145   2.975   6.091
 2072SOL    HW2 7116   5.108   2.898   6.230
 2073SOL     OW 7117   3.191   5.909   7.005
 2073SOL    HW1 7118   3.135   5.882   6.927
 2073SOL    HW2 7119   3.267   5.846   7.017
 2074SOL     OW 7120   3.574   4.480   5.268
 2074SOL    HW1 7121   3.664   4.489   5.312
 2074SOL    HW2 7122   3.532   4.570   5.261
 2075SOL     OW 7123   5.263   0.757   1.081
 2075SOL    HW1 7124   5.299   0.684   1.138
 2075SOL    HW2 7125   5.164   0.744   1.068
 2076SOL     OW 7126   6.829   0.127   3.712
 2076SOL    HW1 7127   6.737   0.091   3.697
 2076SOL    HW2 7128   6.840   0.212   3.661
 2077SOL     OW 7129   0.765   4.144   1.030
 2077SOL    HW1 7130   0.733   4.135   1.125
 2077SOL    HW2 7131   0.862   4.120   1.026
 2078SOL     OW 7132   0.671   2.523   0.339
 2078SOL    HW1 7133   0.737   2.560   0.274
 2078SOL    HW2 7134   0.614   2.454   0.294
 2079SOL     OW 7135   5.158   1.905   3.690
 2079SOL    HW1 7136   5.097   1.948   3.624
 2079SOL    HW2 7137   5.137   1.807   3.696
 2080SOL     OW 7138   2.075   2.921   4.898
 2080SOL    HW1 7139   2.145   2.986   4.928
 2080SOL    HW2 7140   2.055   2.936   4.801
 2081SOL     OW 7141   0.434   5.595   3.091
 2081SOL    HW1 7142   0.474   5.669   3.037
 2081SOL    HW2 7143   0.441   5.617   3.188
 2082SOL     OW 7144   6.903   6.126   4.202
 2082SOL    HW1 7145   6.847   6.048   4.226
 2082SOL    HW2 7146   6.998   6.096   4.188
 2083SOL     OW 7147   0.985   5.889   3.153
 2083SOL    HW1 7148   1.072   5.840   3.156
 2083SOL    HW2 7149   0.988   5.965   3.218
 2084SOL     OW 7150   5.583   2.931   1.308
 2084SOL    HW1 7151   5.508   2.940   1.374
 2084SOL    HW2 7152   5.561   2.858   1.242
 2085SOL     OW 7153   6.079   5.017   6.512
 2085SOL    HW1 7154   6.150   5.087   6.525
 2085SOL    HW2 7155   6.122   4.931   6.484
 2086SOL     OW 7156   5.250   1.459   5.300
 2086SOL    HW1 7157   5.319   1.451   5.229
 2086SOL    HW2 7158   5.256   1.550   5.342
 2087SOL     OW 7159   4.880   0.944   6.313
 2087SOL    HW1 7160   4.870   0.974   6.218
 2087SOL    HW2 7161   4.818   0.868   6.331
 2088SOL     OW 7162   0.357   3.378   5.333
 2088SOL    HW1 7163   0.264   3.384   5.371
 2088SOL    HW2 7164   0.423   3.379   5.407
 2089SOL     OW 7165   3.144   4.875   4.731
 2089SOL    HW1 7166   3.165   4.860   4.634
 2089SOL    HW2 7167   3.045   4.865   4.746
 2090SOL     OW 7168   5.446   2.571   6.187
 2090SOL    HW1 7169   5.440   2.650   6.247
 2090SOL    HW2 7170   5.448   2.487   6.241
 2091SOL     OW 7171   5.315   6.920   0.996
 2091SOL    HW1 7172   5.382   6.909   0.923
 2091SOL    HW2 7173   5.357   6.968   1.073
 2092SOL     OW 7174   3.839   3.216   2.600
 2092SOL    HW1 7175   3.794   3.305   2.602
 2092SOL    HW2 7176   3.878   3.201   2.509
 2093SOL     OW 7177   4.561   6.905   6.933
 2093SOL    HW1 7178   4.656   6.923   6.907
 2093SOL    HW2 7179   4.505   6.986   6.914
 2094SOL     OW 7180   4.562   2.952   1.467
 2094SOL    HW1 7181   4.519   3.041   1.451
 2094SOL    HW2 7182   4.518   2.883   1.409
 2095SOL     OW 7183   4.601   5.856   3.897
 2095SOL    HW1 7184   4.624   5.944   3.938
 2095SOL    HW2 7185   4.514   5.823   3.934
 2096SOL     OW 7186   4.137   0.514   2.567
 2096SOL    HW1 7187   4.235   0.502   2.579
 2096SOL    HW2 7188   4.105   0.590   2.624
 2097SOL     OW 7189   2.633   5.316   5.259
 2097SOL    HW1 7190   2.684   5.239   5.298
 2097SOL    HW2 7191   2.555   5.338   5.319
 2098SOL     OW 7192   1.728   6.823   4.199
 2098SOL    HW1 7193   1.757   6.809   4.104
 2098SOL    HW2 7194   1.771   6.906   4.235
 2099SOL     OW 7195   4.523   1.665   0.151
 2099SOL    HW1 7196   4.462   1.705   0.083
 2099SOL    HW2 7197   4.470   1.602   0.210
 2100SOL     OW 7198   4.461   0.159   0.747
 2100SOL    HW1 7199   4.390   0.228   0.765
 2100SOL    HW2 7200   4.451   0.126   0.653
 2101SOL     OW 7201   1.166   0.231   2.853
 2101SOL    HW1 7202   1.192   0.166   2.782
 2101SOL    HW2 7203   1.248   0.262   2.902
 2102SOL     OW 7204   4.063   3.277   2.750
 2102SOL    HW1 7205   3.979   3.260   2.698
 2102SOL    HW2 7206   4.093   3.192   2.794
 2103SOL     OW 7207   1.553   0.208   1.644
 2103SOL    HW1 7208   1.521   0.244   1.731
 2103SOL    HW2 7209   1.531   0.272   1.571
 2104SOL     OW 7210   0.833   4.429   2.103
 2104SOL    HW1 7211   0.773   4.456   2.027
 2104SOL    HW2 7212   0.876   4.342   2.083
 2105SOL     OW 7213   5.182   5.919   5.521
 2105SOL    HW1 7214   5.272   5.935   5.481
 2105SOL    HW2 7215   5.191   5.909   5.620
 2106SOL     OW 7216   3.599   3.240   0.469
 2106SOL    HW1 7217   3.662   3.317   0.464
 2106SOL    HW2 7218   3.590   3.211   0.564
 2107SOL     OW 7219   6.123   4.561   4.688
 2107SOL    HW1 7220   6.198   4.554   4.622
 2107SOL    HW2 7221   6.060   4.634   4.659
 2108SOL     OW 7222   4.201   6.314   5.509
 2108SOL    HW1 7223   4.125   6.327   5.445
 2108SOL    HW2 7224   4.211   6.217   5.532
 2109SOL     OW 7225   2.613   5.996   2.202
 2109SOL    HW1 7226   2.710   5.987   2.180
 2109SOL    HW2 7227   2.585   5.917   2.258
 2110SOL     OW 7228   3.844   5.800   0.631
 2110SOL    HW1 7229   3.774   5.772   0.566
 2110SOL    HW2 7230   3.932   5.811   0.584
 2111SOL     OW 7231   0.468   2.711   0.386
 2111SOL    HW1 7232   0.422   2.672   0.466
 2111SOL    HW2 7233   0.553   2.662   0.369
 2112SOL     OW 7234   0.869   0.638   6.483
 2112SOL    HW1 7235   0.783   0.663   6.527
 2112SOL    HW2 7236   0.851   0.574   6.408
 2113SOL     OW 7237   6.613   1.900   4.435
 2113SOL    HW1 7238   6.698   1.848   4.421
 2113SOL    HW2 7239   6.563   1.907   4.349
 2114SOL     OW 7240   3.199   0.498   5.918
 2114SOL    HW1 7241   3.169   0.416   5.870
 2114SOL    HW2 7242   3.168   0.494   6.013
 2115SOL     OW 7243   0.187   6.742   4.115
 2115SOL    HW1 7244   0.263   6.780   4.062
 2115SOL    HW2 7245   0.211   6.744   4.213
 2116SOL     OW 7246   2.287   6.586   6.488
 2116SOL    HW1 7247   2.290   6.668   6.545
 2116SOL    HW2 7248   2.346   6.516   6.528
 2117SOL     OW 7249   5.718   2.524   0.905
 2117SOL    HW1 7250   5.674   2.521   0.996
 2117SOL    HW2 7251   5.813   2.552   0.915
 2118SOL     OW 7252   0.023   3.040   2.356
 2118SOL    HW1 7253   0.066   2.955   2.387
 2118SOL    HW2 7254   0.091   3.099   2.315
 2119SOL     OW 7255   1.983   2.750   6.985
 2119SOL    HW1 7256   1.941   2.799   0.044
 2119SOL    HW2 7257   2.060   2.696   0.000
 2120SOL     OW 7258   6.090   1.400   0.729
 2120SOL    HW1 7259   6.119   1.319   0.780
 2120SOL    HW2 7260   6.091   1.479   0.789
 2121SOL     OW 7261   2.608   5.642   1.893
 2121SOL    HW1 7262   2.676   5.600   1.955
 2121SOL    HW2 7263   2.651   5.716   1.841
 2122SOL     OW 7264   0.572   1.181   5.531
 2122SOL    HW1 7265   0.595   1.277   5.550
 2122SOL    HW2 7266   0.655   1.130   5.511
 2123SOL     OW 7267   0.822   4.538   3.223
 2123SOL    HW1 7268   0.872   4.560   3.306
 2123SOL    HW2 7269   0.827   4.439   3.206
 2124SOL     OW 7270   5.473   3.190   6.492
 2124SOL    HW1 7271   5.415   3.171   6.413
 2124SOL    HW2 7272   5.549   3.249   6.465
 2125SOL     OW 7273   2.250   5.326   5.860
 2125SOL    HW1 7274   2.320   5.397   5.872
 2125SOL    HW2 7275   2.272   5.247   5.917
 2126SOL     OW 7276   2.823   5.512   2.057
 2126SOL    HW1 7277   2.809   5.445   2.129
 2126SOL    HW2 7278   2.863   5.596   2.095
 2127SOL     OW 7279   1.708   3.856   4.041
 2127SOL    HW1 7280   1.693   3.870   3.943
 2127SOL    HW2 7281   1.800   3.887   4.065
 2128SOL     OW 7282   5.500   3.034   0.507
 2128SOL    HW1 7283   5.580   3.039   0.568
 2128SOL    HW2 7284   5.428   3.093   0.542
 2129SOL     OW 7285   5.444   4.387   3.986
 2129SOL    HW1 7286   5.450   4.476   3.942
 2129SOL    HW2 7287   5.521   4.374   4.048
 2130SOL     OW 7288   2.242   6.830   3.140
 2130SOL    HW1 7289   2.182   6.750   3.136
 2130SOL    HW2 7290   2.225   6.888   3.061
 2131SOL     OW 7291   5.727   0.107   6.423
 2131SOL    HW1 7292   5.753   0.196   6.460
 2131SOL    HW2 7293   5.696   0.118   6.329
 2132SOL     OW 7294   3.034   1.428   0.635
 2132SOL    HW1 7295   3.082   1.494   0.694
 2132SOL    HW2 7296   3.083   1.419   0.548
 2133SOL     OW 7297   3.784   3.466   2.029
 2133SOL    HW1 7298   3.776   3.481   1.931
 2133SOL    HW2 7299   3.829   3.378   2.045
 2134SOL     OW 7300   2.289   6.955   4.873
 2134SOL    HW1 7301   2.242   6.900   4.804
 2134SOL    HW2 7302   2.254   0.031   4.872
 2135SOL     OW 7303   0.384   5.814   4.219
 2135SOL    HW1 7304   0.292   5.806   4.257
 2135SOL    HW2 7305   0.381   5.803   4.120
 2136SOL     OW 7306   0.387   4.780   3.424
 2136SOL    HW1 7307   0.376   4.830   3.338
 2136SOL    HW2 7308   0.478   4.799   3.462
 2137SOL     OW 7309   0.133   0.360   4.591
 2137SOL    HW1 7310   0.160   0.312   4.507
 2137SOL    HW2 7311   0.085   0.444   4.568
 2138SOL     OW 7312   1.277   2.239   0.039
 2138SOL    HW1 7313   1.304   2.280   0.126
 2138SOL    HW2 7314   1.345   2.263   6.987
 2139SOL     OW 7315   3.739   6.397   4.332
 2139SOL    HW1 7316   3.680   6.321   4.359
 2139SOL    HW2 7317   3.687   6.483   4.334
 2140SOL     OW 7318   1.261   5.502   3.631
 2140SOL    HW1 7319   1.335   5.518   3.566
 2140SOL    HW2 7320   1.277   5.416   3.679
 2141SOL     OW 7321   6.445   0.496   7.000
 2141SOL    HW1 7322   6.365   0.438   6.988
 2141SOL    HW2 7323   6.453   0.558   6.922
 2142SOL     OW 7324   4.095   1.173   3.438
 2142SOL    HW1 7325   4.012   1.229   3.446
 2142SOL    HW2 7326   4.167   1.228   3.396
 2143SOL     OW 7327   3.215   5.551   0.545
 2143SOL    HW1 7328   3.219   5.462   0.500
 2143SOL    HW2 7329   3.208   5.538   0.644
 2144SOL     OW 7330   1.034   1.241   2.155
 2144SOL    HW1 7331   1.058   1.185   2.234
 2144SOL    HW2 7332   1.060   1.336   2.173
 2145SOL     OW 7333   2.711   5.845   3.429
 2145SOL    HW1 7334   2.758   5.906   3.492
 2145SOL    HW2 7335   2.774   5.817   3.356
 2146SOL     OW 7336   3.259   2.169   1.492
 2146SOL    HW1 7337   3.275   2.265   1.471
 2146SOL    HW2 7338   3.346   2.122   1.504
 2147SOL     OW 7339   6.930   0.436   4.225
 2147SOL    HW1 7340   0.005   0.429   4.261
 2147SOL    HW2 7341   6.923   0.381   4.141
 2148SOL     OW 7342   6.432   4.276   3.319
 2148SOL    HW1 7343   6.459   4.365   3.355
 2148SOL    HW2 7344   6.497   4.248   3.249
 2149SOL     OW 7345   2.202   1.165   2.197
 2149SOL    HW1 7346   2.268   1.236   2.221
 2149SOL    HW2 7347   2.140   1.199   2.127
 2150SOL     OW 7348   5.369   0.834   3.041
 2150SOL    HW1 7349   5.294   0.892   3.073
 2150SOL    HW2 7350   5.404   0.869   2.955
 2151SOL     OW 7351   4.720   4.490   5.542
 2151SOL    HW1 7352   4.794   4.451   5.597
 2151SOL    HW2 7353   4.735   4.589   5.530
 2152SOL     OW 7354   0.075   6.371   3.021
 2152SOL    HW1 7355   0.068   6.317   3.104
 2152SOL    HW2 7356   0.170   6.397   3.004
 2153SOL     OW 7357   4.317   2.024   3.758
 2153SOL    HW1 7358   4.347   1.940   3.712
 2153SOL    HW2 7359   4.297   2.004   3.854
 2154SOL     OW 7360   4.474   0.048   3.895
 2154SOL    HW1 7361   4.514   0.139   3.884
 2154SOL    HW2 7362   4.537   7.007   3.946
 2155SOL     OW 7363   5.786   4.035   0.729
 2155SOL    HW1 7364   5.825   3.971   0.662
 2155SOL    HW2 7365   5.687   4.028   0.727
 2156SOL     OW 7366   5.722   5.883   2.406
 2156SOL    HW1 7367   5.675   5.851   2.324
 2156SOL    HW2 7368   5.821   5.866   2.397
 2157SOL     OW 7369   5.235   1.328   4.101
 2157SOL    HW1 7370   5.233   1.293   4.195
 2157SOL    HW2 7371   5.322   1.375   4.085
 2158SOL     OW 7372   4.132   0.802   3.815
 2158SOL    HW1 7373   4.091   0.849   3.737
 2158SOL    HW2 7374   4.081   0.825   3.898
 2159SOL     OW 7375   2.314   1.505   4.909
 2159SOL    HW1 7376   2.369   1.588   4.919
 2159SOL    HW2 7377   2.293   1.491   4.813
 2160SOL     OW 7378   2.389   3.793   0.471
 2160SOL    HW1 7379   2.322   3.845   0.524
 2160SOL    HW2 7380   2.415   3.711   0.522
 2161SOL     OW 7381   4.505   2.511   2.499
 2161SOL    HW1 7382   4.566   2.507   2.420
 2161SOL    HW2 7383   4.427   2.450   2.484
 2162SOL     OW 7384   2.096   1.984   2.474
 2162SOL    HW1 7385   2.129   2.014   2.385
 2162SOL    HW2 7386   2.172   1.948   2.527
 2163SOL     OW 7387   4.249   1.533   0.852
 2163SOL    HW1 7388   4.274   1.485   0.936
 2163SOL    HW2 7389   4.271   1.630   0.862
 2164SOL     OW 7390   6.481   0.259   1.684
 2164SOL    HW1 7391   6.446   0.293   1.771
 2164SOL    HW2 7392   6.537   0.331   1.641
 2165SOL     OW 7393   2.092   0.197   1.964
 2165SOL    HW1 7394   2.130   0.125   2.021
 2165SOL    HW2 7395   2.078   0.162   1.871
 2166SOL     OW 7396   5.356   2.761   4.702
 2166SOL    HW1 7397   5.362   2.711   4.788
 2166SOL    HW2 7398   5.265   2.802   4.693
 2167SOL     OW 7399   3.616   1.679   1.216
 2167SOL    HW1 7400   3.605   1.596   1.161
 2167SOL    HW2 7401   3.584   1.661   1.309
 2168SOL     OW 7402   5.553   6.724   4.658
 2168SOL    HW1 7403   5.589   6.720   4.564
 2168SOL    HW2 7404   5.544   6.632   4.694
 2169SOL     OW 7405   4.869   1.925   5.611
 2169SOL    HW1 7406   4.839   1.853   5.548
 2169SOL    HW2 7407   4.814   1.919   5.695
 2170SOL     OW 7408   4.705   5.900   4.693
 2170SOL    HW1 7409   4.612   5.936   4.698
 2170SOL    HW2 7410   4.705   5.813   4.643
 2171SOL     OW 7411   0.126   2.811   0.486
 2171SOL    HW1 7412   0.172   2.823   0.398
 2171SOL    HW2 7413   0.105   2.714   0.499
 2172SOL     OW 7414   2.802   0.232   3.162
 2172SOL    HW1 7415   2.850   0.304   3.212
 2172SOL    HW2 7416   2.840   0.143   3.186
 2173SOL     OW 7417   4.487   1.716   4.365
 2173SOL    HW1 7418   4.393   1.711   4.330
 2173SOL    HW2 7419   4.517   1.811   4.368
 2174SOL     OW 7420   0.992   6.087   5.597
 2174SOL    HW1 7421   0.990   6.037   5.511
 2174SOL    HW2 7422   1.085   6.119   5.615
 2175SOL     OW 7423   1.009   0.259   6.981
 2175SOL    HW1 7424   1.088   0.319   6.991
 2175SOL    HW2 7425   0.941   0.281   0.034
 2176SOL     OW 7426   2.273   2.620   2.180
 2176SOL    HW1 7427   2.249   2.688   2.110
 2176SOL    HW2 7428   2.298   2.666   2.265
 2177SOL     OW 7429   0.899   1.586   2.345
 2177SOL    HW1 7430   0.807   1.625   2.340
 2177SOL    HW2 7431   0.894   1.490   2.373
 2178SOL     OW 7432   6.536   5.734   0.295
 2178SOL    HW1 7433   6.510   5.721   0.391
 2178SOL    HW2 7434   6.479   5.676   0.237
 2179SOL     OW 7435   2.032   3.926   4.004
 2179SOL    HW1 7436   2.088   3.990   4.056
 2179SOL    HW2 7437   2.072   3.834   4.009
 2180SOL     OW 7438   3.472   2.983   2.969
 2180SOL    HW1 7439   3.507   3.023   2.884
 2180SOL    HW2 7440   3.544   2.932   3.015
 2181SOL     OW 7441   3.691   6.843   1.048
 2181SOL    HW1 7442   3.677   6.935   1.013
 2181SOL    HW2 7443   3.773   6.841   1.105
 2182SOL     OW 7444   4.575   3.982   0.260
 2182SOL    HW1 7445   4.615   3.957   0.171
 2182SOL    HW2 7446   4.637   4.044   0.308
 2183SOL     OW 7447   4.719   2.693   2.111
 2183SOL    HW1 7448   4.748   2.723   2.202
 2183SOL    HW2 7449   4.744   2.763   2.044
 2184SOL     OW 7450   4.626   2.381   6.292
 2184SOL    HW1 7451   4.604   2.466   6.246
 2184SOL    HW2 7452   4.542   2.329   6.309
 2185SOL     OW 7453   0.005   6.658   2.265
 2185SOL    HW1 7454   0.003   6.582   2.201
 2185SOL    HW2 7455   7.015   6.745   2.215
 2186SOL     OW 7456   6.889   4.240   3.016
 2186SOL    HW1 7457   6.957   4.279   2.954
 2186SOL    HW2 7458   6.918   4.149   3.045
 2187SOL     OW 7459   6.363   0.250   6.796
 2187SOL    HW1 7460   6.315   0.245   6.883
 2187SOL    HW2 7461   6.298   0.236   6.721
 2188SOL     OW 7462   4.934   2.973   3.779
 2188SOL    HW1 7463   4.895   2.971   3.871
 2188SOL    HW2 7464   4.963   2.881   3.753
 2189SOL     OW 7465   3.784   6.883   6.507
 2189SOL    HW1 7466   3.795   6.978   6.477
 2189SOL    HW2 7467   3.745   6.882   6.599
 2190SOL     OW 7468   6.081   3.742   1.166
 2190SOL    HW1 7469   5.989   3.769   1.196
 2190SOL    HW2 7470   6.105   3.793   1.084
 2191SOL     OW 7471   3.505   0.489   0.662
 2191SOL    HW1 7472   3.414   0.525   0.642
 2191SOL    HW2 7473   3.573   0.541   0.610
 2192SOL     OW 7474   4.199   6.754   1.828
 2192SOL    HW1 7475   4.291   6.741   1.793
 2192SOL    HW2 7476   4.137   6.690   1.782
 2193SOL     OW 7477   0.438   6.069   4.777
 2193SOL    HW1 7478   0.450   6.126   4.696
 2193SOL    HW2 7479   0.527   6.042   4.813
 2194SOL     OW 7480   2.501   6.647   2.977
 2194SOL    HW1 7481   2.405   6.617   2.981
 2194SOL    HW2 7482   2.504   6.745   2.955
 2195SOL     OW 7483   0.466   4.825   2.647
 2195SOL    HW1 7484   0.370   4.824   2.621
 2195SOL    HW2 7485   0.519   4.771   2.582
 2196SOL     OW 7486   4.666   3.890   0.029
 2196SOL    HW1 7487   4.659   3.947   6.965
 2196SOL    HW2 7488   4.744   3.829   0.021
 2197SOL     OW 7489   4.767   3.578   0.102
 2197SOL    HW1 7490   4.805   3.489   0.127
 2197SOL    HW2 7491   4.837   3.631   0.055
 2198SOL     OW 7492   0.779   4.888   6.575
 2198SOL    HW1 7493   0.769   4.983   6.605
 2198SOL    HW2 7494   0.858   4.848   6.621
 2199SOL     OW 7495   3.752   1.753   3.566
 2199SOL    HW1 7496   3.661   1.711   3.568
 2199SOL    HW2 7497   3.818   1.693   3.611
 2200SOL     OW 7498   3.710   0.284   3.679
 2200SOL    HW1 7499   3.744   0.223   3.607
 2200SOL    HW2 7500   3.623   0.325   3.651
 2201SOL     OW 7501   5.164   4.621   4.255
 2201SOL    HW1 7502   5.198   4.541   4.305
 2201SOL    HW2 7503   5.216   4.701   4.282
 2202SOL     OW 7504   4.889   6.085   4.390
 2202SOL    HW1 7505   4.941   6.058   4.471
 2202SOL    HW2 7506   4.818   6.018   4.371
 2203SOL     OW 7507   1.909   1.569   2.957
 2203SOL    HW1 7508   1.889   1.487   2.905
 2203SOL    HW2 7509   1.955   1.636   2.897
 2204SOL     OW 7510   3.742   2.514   1.022
 2204SOL    HW1 7511   3.833   2.473   1.012
 2204SOL    HW2 7512   3.672   2.449   0.992
 2205SOL     OW 7513   2.971   0.563   2.301
 2205SOL    HW1 7514   2.978   0.642   2.240
 2205SOL    HW2 7515   2.910   0.495   2.259
 2206SOL     OW 7516   1.825   4.662   0.153
 2206SOL    HW1 7517   1.889   4.656   0.229
 2206SOL    HW2 7518   1.798   4.570   0.125
 2207SOL     OW 7519   6.486   4.777   4.923
 2207SOL    HW1 7520   6.423   4.699   4.924
 2207SOL    HW2 7521   6.491   4.816   5.015
 2208SOL     OW 7522   6.834   4.887   2.369
 2208SOL    HW1 7523   6.747   4.849   2.339
 2208SOL    HW2 7524   6.854   4.971   2.319
 2209SOL     OW 7525   6.787   0.037   2.024
 2209SOL    HW1 7526   6.848   0.004   2.096
 2209SOL    HW2 7527   6.756   6.978   1.968
 2210SOL     OW 7528   2.384   4.358   3.515
 2210SOL    HW1 7529   2.325   4.389   3.440
 2210SOL    HW2 7530   2.463   4.419   3.522
 2211SOL     OW 7531   5.211   0.813   5.675
 2211SOL    HW1 7532   5.133   0.853   5.627
 2211SOL    HW2 7533   5.294   0.866   5.655
 2212SOL     OW 7534   2.332   6.020   6.121
 2212SOL    HW1 7535   2.382   5.937   6.095
 2212SOL    HW2 7536   2.235   5.999   6.134
 2213SOL     OW 7537   4.535   0.830   3.513
 2213SOL    HW1 7538   4.499   0.840   3.606
 2213SOL    HW2 7539   4.460   0.834   3.447
 2214SOL     OW 7540   4.214   0.301   4.154
 2214SOL    HW1 7541   4.215   0.379   4.092
 2214SOL    HW2 7542   4.256   0.222   4.108
 2215SOL     OW 7543   5.861   1.867   6.558
 2215SOL    HW1 7544   5.877   1.782   6.508
 2215SOL    HW2 7545   5.763   1.878   6.575
 2216SOL     OW 7546   3.375   1.166   2.672
 2216SOL    HW1 7547   3.414   1.143   2.761
 2216SOL    HW2 7548   3.434   1.232   2.625
 2217SOL     OW 7549   3.092   6.963   0.911
 2217SOL    HW1 7550   3.038   6.893   0.959
 2217SOL    HW2 7551   3.088   6.946   0.812
 2218SOL     OW 7552   6.515   1.148   2.151
 2218SOL    HW1 7553   6.485   1.092   2.074
 2218SOL    HW2 7554   6.481   1.108   2.236
 2219SOL     OW 7555   2.329   2.195   2.947
 2219SOL    HW1 7556   2.424   2.169   2.960
 2219SOL    HW2 7557   2.270   2.137   3.003
 2220SOL     OW 7558   1.812   6.173   2.877
 2220SOL    HW1 7559   1.840   6.121   2.796
 2220SOL    HW2 7560   1.718   6.147   2.901
 2221SOL     OW 7561   0.021   6.901   5.016
 2221SOL    HW1 7562   0.012   6.951   4.930
 2221SOL    HW2 7563   0.032   6.965   5.092
 2222SOL     OW 7564   6.186   5.716   3.576
 2222SOL    HW1 7565   6.204   5.653   3.651
 2222SOL    HW2 7566   6.087   5.719   3.559
 2223SOL     OW 7567   6.416   6.783   2.283
 2223SOL    HW1 7568   6.439   6.711   2.349
 2223SOL    HW2 7569   6.328   6.762   2.240
 2224SOL     OW 7570   1.021   5.717   1.486
 2224SOL    HW1 7571   1.116   5.711   1.516
 2224SOL    HW2 7572   1.015   5.700   1.388
 2225SOL     OW 7573   0.371   4.440   0.582
 2225SOL    HW1 7574   0.370   4.350   0.539
 2225SOL    HW2 7575   0.283   4.457   0.626
 2226SOL     OW 7576   3.587   4.145   2.825
 2226SOL    HW1 7577   3.517   4.207   2.862
 2226SOL    HW2 7578   3.651   4.121   2.897
 2227SOL     OW 7579   1.937   2.155   5.024
 2227SOL    HW1 7580   1.988   2.201   4.951
 2227SOL    HW2 7581   1.939   2.056   5.010
 2228SOL     OW 7582   1.430   4.516   4.247
 2228SOL    HW1 7583   1.350   4.492   4.191
 2228SOL    HW2 7584   1.433   4.616   4.258
 2229SOL     OW 7585   5.735   5.311   2.832
 2229SOL    HW1 7586   5.738   5.311   2.732
 2229SOL    HW2 7587   5.641   5.295   2.863
 2230SOL     OW 7588   1.504   5.293   2.913
 2230SOL    HW1 7589   1.522   5.378   2.963
 2230SOL    HW2 7590   1.428   5.308   2.849
 2231SOL     OW 7591   2.058   5.787   0.589
 2231SOL    HW1 7592   2.145   5.808   0.634
 2231SOL    HW2 7593   2.051   5.840   0.505
 2232SOL     OW 7594   6.080   2.309   3.845
 2232SOL    HW1 7595   6.115   2.395   3.882
 2232SOL    HW2 7596   6.016   2.327   3.771
 2233SOL     OW 7597   3.570   1.466   1.067
 2233SOL    HW1 7598   3.492   1.408   1.039
 2233SOL    HW2 7599   3.638   1.466   0.994
 2234SOL     OW 7600   4.485   2.280   1.285
 2234SOL    HW1 7601   4.478   2.353   1.353
 2234SOL    HW2 7602   4.578   2.276   1.249
 2235SOL     OW 7603   1.973   2.928   1.732
 2235SOL    HW1 7604   1.981   2.888   1.640
 2235SOL    HW2 7605   1.896   2.887   1.780
 2236SOL     OW 7606   0.916   3.979   5.329
 2236SOL    HW1 7607   1.009   3.971   5.363
 2236SOL    HW2 7608   0.898   4.074   5.303
 2237SOL     OW 7609   5.999   2.321   3.052
 2237SOL    HW1 7610   6.036   2.276   2.970
 2237SOL    HW2 7611   6.042   2.410   3.063
 2238SOL     OW 7612   5.044   6.593   0.278
 2238SOL    HW1 7613   5.013   6.658   0.208
 2238SOL    HW2 7614   5.022   6.500   0.250
 2239SOL     OW 7615   6.905   6.042   1.555
 2239SOL    HW1 7616   6.988   5.997   1.522
 2239SOL    HW2 7617   6.900   6.135   1.517
 2240SOL     OW 7618   0.309   3.959   1.439
 2240SOL    HW1 7619   0.335   3.961   1.343
 2240SOL    HW2 7620   0.374   3.904   1.490
 2241SOL     OW 7621   1.140   0.083   3.899
 2241SOL    HW1 7622   1.214   0.023   3.869
 2241SOL    HW2 7623   1.137   0.084   3.999
 2242SOL     OW 7624   1.951   1.915   3.250
 2242SOL    HW1 7625   1.987   1.832   3.208
 2242SOL    HW2 7626   1.985   1.995   3.200
 2243SOL     OW 7627   1.073   0.516   4.583
 2243SOL    HW1 7628   1.114   0.596   4.627
 2243SOL    HW2 7629   1.146   0.457   4.547
 2244SOL     OW 7630   3.083   0.063   4.409
 2244SOL    HW1 7631   3.137   0.109   4.481
 2244SOL    HW2 7632   3.144   0.006   4.354
 2245SOL     OW 7633   0.757   2.377   1.555
 2245SOL    HW1 7634   0.680   2.322   1.524
 2245SOL    HW2 7635   0.751   2.393   1.653
 2246SOL     OW 7636   0.601   4.362   4.609
 2246SOL    HW1 7637   0.563   4.290   4.666
 2246SOL    HW2 7638   0.596   4.335   4.513
 2247SOL     OW 7639   2.140   2.469   4.121
 2247SOL    HW1 7640   2.191   2.390   4.085
 2247SOL    HW2 7641   2.100   2.520   4.045
 2248SOL     OW 7642   5.187   3.947   5.666
 2248SOL    HW1 7643   5.228   4.029   5.708
 2248SOL    HW2 7644   5.137   3.896   5.736
 2249SOL     OW 7645   5.717   6.100   4.543
 2249SOL    HW1 7646   5.630   6.086   4.592
 2249SOL    HW2 7647   5.699   6.148   4.458
 2250SOL     OW 7648   4.397   4.649   2.117
 2250SOL    HW1 7649   4.425   4.554   2.107
 2250SOL    HW2 7650   4.357   4.682   2.032
 2251SOL     OW 7651   0.650   1.446   5.588
 2251SOL    HW1 7652   0.726   1.506   5.565
 2251SOL    HW2 7653   0.635   1.447   5.687
 2252SOL     OW 7654   3.699   1.358   6.685
 2252SOL    HW1 7655   3.687   1.392   6.592
 2252SOL    HW2 7656   3.784   1.394   6.723
 2253SOL     OW 7657   0.797   3.836   1.008
 2253SOL    HW1 7658   0.780   3.934   1.019
 2253SOL    HW2 7659   0.895   3.818   1.014
 2254SOL     OW 7660   1.638   5.199   6.011
 2254SOL    HW1 7661   1.734   5.178   5.993
 2254SOL    HW2 7662   1.628   5.230   6.106
 2255SOL     OW 7663   6.831   3.676   6.393
 2255SOL    HW1 7664   6.759   3.636   6.450
 2255SOL    HW2 7665   6.851   3.615   6.317
 2256SOL     OW 7666   2.958   5.729   2.144
 2256SOL    HW1 7667   3.057   5.742   2.149
 2256SOL    HW2 7668   2.915   5.810   2.105
 2257SOL     OW 7669   0.984   4.737   6.188
 2257SOL    HW1 7670   0.972   4.671   6.114
 2257SOL    HW2 7671   0.945   4.701   6.272
 2258SOL     OW 7672   2.304   6.526   5.955
 2258SOL    HW1 7673   2.292   6.584   6.035
 2258SOL    HW2 7674   2.331   6.434   5.984
 2259SOL     OW 7675   6.013   1.661   6.335
 2259SOL    HW1 7676   5.919   1.695   6.347
 2259SOL    HW2 7677   6.014   1.562   6.350
 2260SOL     OW 7678   4.836   3.360   1.378
 2260SOL    HW1 7679   4.798   3.269   1.387
 2260SOL    HW2 7680   4.811   3.398   1.289
 2261SOL     OW 7681   2.260   0.014   5.254
 2261SOL    HW1 7682   2.197   6.955   5.245
 2261SOL    HW2 7683   2.244   0.079   5.180
 2262SOL     OW 7684   2.616   1.823   4.060
 2262SOL    HW1 7685   2.585   1.863   4.146
 2262SOL    HW2 7686   2.563   1.741   4.040
 2263SOL     OW 7687   0.185   4.540   5.697
 2263SOL    HW1 7688   0.277   4.522   5.731
 2263SOL    HW2 7689   0.144   4.455   5.664
 2264SOL     OW 7690   3.501   3.272   4.017
 2264SOL    HW1 7691   3.428   3.239   3.957
 2264SOL    HW2 7692   3.536   3.196   4.071
 2265SOL     OW 7693   0.762   5.771   4.307
 2265SOL    HW1 7694   0.705   5.724   4.240
 2265SOL    HW2 7695   0.705   5.833   4.361
 2266SOL     OW 7696   6.933   0.870   5.308
 2266SOL    HW1 7697   0.007   0.831   5.306
 2266SOL    HW2 7698   6.939   0.967   5.335
 2267SOL     OW 7699   6.066   1.719   4.866
 2267SOL    HW1 7700   6.086   1.685   4.774
 2267SOL    HW2 7701   6.072   1.643   4.931
 2268SOL     OW 7702   0.340   6.910   0.288
 2268SOL    HW1 7703   0.421   6.958   0.254
 2268SOL    HW2 7704   0.316   6.947   0.378
 2269SOL     OW 7705   6.843   6.168   2.683
 2269SOL    HW1 7706   6.940   6.152   2.666
 2269SOL    HW2 7707   6.834   6.237   2.756
 2270SOL     OW 7708   3.911   2.986   3.615
 2270SOL    HW1 7709   3.825   2.945   3.645
 2270SOL    HW2 7710   3.960   2.921   3.556
 2271SOL     OW 7711   1.494   3.624   2.542
 2271SOL    HW1 7712   1.530   3.539   2.505
 2271SOL    HW2 7713   1.399   3.610   2.572
 2272SOL     OW 7714   4.867   0.659   6.178
 2272SOL    HW1 7715   4.854   0.675   6.080
 2272SOL    HW2 7716   4.808   0.721   6.230
 2273SOL     OW 7717   0.105   0.806   1.683
 2273SOL    HW1 7718   0.080   0.847   1.595
 2273SOL    HW2 7719   0.062   0.855   1.758
 2274SOL     OW 7720   6.625   4.866   3.102
 2274SOL    HW1 7721   6.695   4.854   3.032
 2274SOL    HW2 7722   6.651   4.941   3.163
 2275SOL     OW 7723   4.691   6.188   3.855
 2275SOL    HW1 7724   4.722   6.228   3.769
 2275SOL    HW2 7725   4.594   6.208   3.868
 2276SOL     OW 7726   3.637   6.002   3.081
 2276SOL    HW1 7727   3.694   5.948   3.143
 2276SOL    HW2 7728   3.564   5.945   3.044
 2277SOL     OW 7729   3.775   2.980   2.708
 2277SOL    HW1 7730   3.793   3.070   2.667
 2277SOL    HW2 7731   3.712   2.929   2.650
 2278SOL     OW 7732   4.053   4.990   1.427
 2278SOL    HW1 7733   4.041   4.952   1.518
 2278SOL    HW2 7734   4.145   4.970   1.395
 2279SOL     OW 7735   5.538   4.165   5.443
 2279SOL    HW1 7736   5.445   4.169   5.479
 2279SOL    HW2 7737   5.537   4.184   5.344
 2280SOL     OW 7738   5.461   0.922   5.651
 2280SOL    HW1 7739   5.538   0.859   5.642
 2280SOL    HW2 7740   5.475   0.980   5.732
 2281SOL     OW 7741   2.497   0.474   0.634
 2281SOL    HW1 7742   2.535   0.561   0.665
 2281SOL    HW2 7743   2.436   0.438   0.705
 2282SOL     OW 7744   3.548   0.427   2.770
 2282SOL    HW1 7745   3.608   0.402   2.694
 2282SOL    HW2 7746   3.455   0.439   2.736
 2283SOL     OW 7747   0.948   3.124   0.896
 2283SOL    HW1 7748   0.943   3.220   0.866
 2283SOL    HW2 7749   1.030   3.111   0.951
 2284SOL     OW 7750   1.925   2.671   0.365
 2284SOL    HW1 7751   2.021   2.674   0.391
 2284SOL    HW2 7752   1.901   2.577   0.339
 2285SOL     OW 7753   2.635   2.931   0.388
 2285SOL    HW1 7754   2.695   3.004   0.354
 2285SOL    HW2 7755   2.542   2.966   0.398
 2286SOL     OW 7756   6.625   5.598   4.187
 2286SOL    HW1 7757   6.682   5.606   4.106
 2286SOL    HW2 7758   6.682   5.573   4.266
 2287SOL     OW 7759   2.501   1.567   0.667
 2287SOL    HW1 7760   2.582   1.587   0.612
 2287SOL    HW2 7761   2.519   1.588   0.763
 2288SOL     OW 7762   3.096   5.950   4.439
 2288SOL    HW1 7763   3.067   5.891   4.514
 2288SOL    HW2 7764   3.117   6.041   4.475
 2289SOL     OW 7765   3.959   0.293   6.125
 2289SOL    HW1 7766   4.057   0.280   6.135
 2289SOL    HW2 7767   3.911   0.208   6.149
 2290SOL     OW 7768   2.252   3.479   6.005
 2290SOL    HW1 7769   2.295   3.535   5.935
 2290SOL    HW2 7770   2.163   3.517   6.029
 2291SOL     OW 7771   3.450   2.389   0.308
 2291SOL    HW1 7772   3.360   2.346   0.297
 2291SOL    HW2 7773   3.462   2.458   0.237
 2292SOL     OW 7774   5.282   2.003   2.973
 2292SOL    HW1 7775   5.300   1.958   3.060
 2292SOL    HW2 7776   5.184   1.999   2.954
 2293SOL     OW 7777   0.503   0.997   0.054
 2293SOL    HW1 7778   0.472   1.055   0.129
 2293SOL    HW2 7779   0.424   0.965   0.001
 2294SOL     OW 7780   6.959   2.403   5.371
 2294SOL    HW1 7781   6.993   2.354   5.290
 2294SOL    HW2 7782   6.909   2.484   5.342
 2295SOL     OW 7783   5.784   5.619   0.079
 2295SOL    HW1 7784   5.837   5.538   0.104
 2295SOL    HW2 7785   5.693   5.613   0.120
 2296SOL     OW 7786   3.696   5.979   4.741
 2296SOL    HW1 7787   3.625   5.955   4.675
 2296SOL    HW2 7788   3.784   5.985   4.695
 2297SOL     OW 7789   6.617   2.690   0.217
 2297SOL    HW1 7790   6.527   2.715   0.181
 2297SOL    HW2 7791   6.660   2.623   0.156
 2298SOL     OW 7792   1.892   3.726   5.235
 2298SOL    HW1 7793   1.988   3.728   5.208
 2298SOL    HW2 7794   1.842   3.797   5.185
 2299SOL     OW 7795   5.976   3.063   4.470
 2299SOL    HW1 7796   5.984   3.145   4.413
 2299SOL    HW2 7797   5.945   3.089   4.561
 2300SOL     OW 7798   4.283   0.921   2.814
 2300SOL    HW1 7799   4.301   0.937   2.911
 2300SOL    HW2 7800   4.259   1.007   2.770
 2301SOL     OW 7801   4.700   3.345   5.802
 2301SOL    HW1 7802   4.606   3.314   5.814
 2301SOL    HW2 7803   4.757   3.305   5.874
 2302SOL     OW 7804   6.982   3.212   4.725
 2302SOL    HW1 7805   0.045   3.157   4.701
 2302SOL    HW2 7806   6.928   3.229   4.643
 2303SOL     OW 7807   2.529   2.430   6.620
 2303SOL    HW1 7808   2.436   2.403   6.597
 2303SOL    HW2 7809   2.582   2.349   6.644
 2304SOL     OW 7810   3.719   0.005   3.551
 2304SOL    HW1 7811   3.790   7.016   3.621
 2304SOL    HW2 7812   3.751   6.980   3.467
 2305SOL     OW 7813   2.463   6.239   4.715
 2305SOL    HW1 7814   2.496   6.153   4.754
 2305SOL    HW2 7815   2.508   6.316   4.761
 2306SOL     OW 7816   0.898   4.512   5.571
 2306SOL    HW1 7817   0.801   4.527   5.588
 2306SOL    HW2 7818   0.951   4.545   5.649
 2307SOL     OW 7819   6.289   4.448   5.154
 2307SOL    HW1 7820   6.300   4.510   5.077
 2307SOL    HW2 7821   6.212   4.478   5.210
 2308SOL     OW 7822   1.092   6.291   3.052
 2308SOL    HW1 7823   1.141   6.221   3.104
 2308SOL    HW2 7824   1.154   6.366   3.029
 2309SOL     OW 7825   1.778   0.999   4.676
 2309SOL    HW1 7826   1.715   1.047   4.616
 2309SOL    HW2 7827   1.836   1.065   4.724
 2310SOL     OW 7828   5.222   6.122   0.057
 2310SOL    HW1 7829   5.147   6.122   0.123
 2310SOL    HW2 7830   5.310   6.124   0.105
 2311SOL     OW 7831   2.648   5.309   0.441
 2311SOL    HW1 7832   2.656   5.401   0.403
 2311SOL    HW2 7833   2.700   5.245   0.384
 2312SOL     OW 7834   2.378   4.781   2.237
 2312SOL    HW1 7835   2.435   4.845   2.185
 2312SOL    HW2 7836   2.414   4.772   2.329
 2313SOL     OW 7837   5.134   5.215   1.084
 2313SOL    HW1 7838   5.120   5.116   1.094
 2313SOL    HW2 7839   5.138   5.238   0.987
 2314SOL     OW 7840   2.186   4.185   2.944
 2314SOL    HW1 7841   2.229   4.174   2.854
 2314SOL    HW2 7842   2.172   4.095   2.985
 2315SOL     OW 7843   3.909   1.962   6.381
 2315SOL    HW1 7844   3.976   1.919   6.441
 2315SOL    HW2 7845   3.949   2.042   6.337
 2316SOL     OW 7846   6.212   4.409   1.452
 2316SOL    HW1 7847   6.197   4.377   1.545
 2316SOL    HW2 7848   6.310   4.425   1.438
 2317SOL     OW 7849   0.127   6.385   3.580
 2317SOL    HW1 7850   0.067   6.371   3.501
 2317SOL    HW2 7851   0.203   6.321   3.575
 2318SOL     OW 7852   6.737   1.687   3.609
 2318SOL    HW1 7853   6.667   1.624   3.576
 2318SOL    HW2 7854   6.827   1.659   3.574
 2319SOL     OW 7855   0.897   5.659   3.029
 2319SOL    HW1 7856   0.924   5.748   3.066
 2319SOL    HW2 7857   0.798   5.659   3.013
 2320SOL     OW 7858   6.747   4.632   3.317
 2320SOL    HW1 7859   6.652   4.664   3.314
 2320SOL    HW2 7860   6.798   4.684   3.386
 2321SOL     OW 7861   3.227   4.937   3.625
 2321SOL    HW1 7862   3.168   4.856   3.627
 2321SOL    HW2 7863   3.306   4.919   3.566
 2322SOL     OW 7864   2.073   1.860   4.668
 2322SOL    HW1 7865   2.136   1.839   4.742
 2322SOL    HW2 7866   2.112   1.829   4.581
 2323SOL     OW 7867   5.455   3.968   1.644
 2323SOL    HW1 7868   5.398   4.048   1.627
 2323SOL    HW2 7869   5.448   3.942   1.740
 2324SOL     OW 7870   0.376   5.353   3.953
 2324SOL    HW1 7871   0.329   5.384   4.035
 2324SOL    HW2 7872   0.449   5.417   3.930
 2325SOL     OW 7873   6.317   2.015   0.861
 2325SOL    HW1 7874   6.307   1.947   0.788
 2325SOL    HW2 7875   6.405   2.003   0.906
 2326SOL     OW 7876   0.267   5.480   0.074
 2326SOL    HW1 7877   0.292   5.384   0.060
 2326SOL    HW2 7878   0.230   5.491   0.166
 2327SOL     OW 7879   4.854   1.665   3.071
 2327SOL    HW1 7880   4.844   1.760   3.100
 2327SOL    HW2 7881   4.828   1.604   3.146
 2328SOL     OW 7882   6.175   5.258   4.140
 2328SOL    HW1 7883   6.261   5.300   4.170
 2328SOL    HW2 7884   6.099   5.319   4.162
 2329SOL     OW 7885   1.432   6.525   3.439
 2329SOL    HW1 7886   1.400   6.547   3.347
 2329SOL    HW2 7887   1.414   6.428   3.458
 2330SOL     OW 7888   2.094   4.390   0.216
 2330SOL    HW1 7889   2.026   4.402   0.288
 2330SOL    HW2 7890   2.159   4.467   0.217
 2331SOL     OW 7891   1.687   4.814   5.098
 2331SOL    HW1 7892   1.611   4.870   5.065
 2331SOL    HW2 7893   1.763   4.873   5.125
 2332SOL     OW 7894   7.002   3.535   6.197
 2332SOL    HW1 7895   6.953   3.453   6.167
 2332SOL    HW2 7896   0.080   3.512   6.212
 2333SOL     OW 7897   2.161   4.304   3.664
 2333SOL    HW1 7898   2.230   4.358   3.617
 2333SOL    HW2 7899   2.161   4.329   3.761
 2334SOL     OW 7900   2.332   0.023   6.214
 2334SOL    HW1 7901   2.284   0.056   6.295
 2334SOL    HW2 7902   2.332   0.094   6.144
 2335SOL     OW 7903   4.769   4.049   4.259
 2335SOL    HW1 7904   4.801   4.054   4.354
 2335SOL    HW2 7905   4.673   4.020   4.258
 2336SOL     OW 7906   4.281   1.350   5.673
 2336SOL    HW1 7907   4.353   1.413   5.703
 2336SOL    HW2 7908   4.307   1.256   5.698
 2337SOL     OW 7909   5.658   0.700   5.108
 2337SOL    HW1 7910   5.593   0.700   5.032
 2337SOL    HW2 7911   5.751   0.705   5.071
 2338SOL     OW 7912   1.461   6.841   0.145
 2338SOL    HW1 7913   1.537   6.783   0.174
 2338SOL    HW2 7914   1.374   6.796   0.169
 2339SOL     OW 7915   3.298   4.487   6.107
 2339SOL    HW1 7916   3.291   4.574   6.057
 2339SOL    HW2 7917   3.228   4.486   6.179
 2340SOL     OW 7918   4.079   5.174   3.944
 2340SOL    HW1 7919   4.165   5.163   3.994
 2340SOL    HW2 7920   4.028   5.088   3.945
 2341SOL     OW 7921   0.588   4.037   5.982
 2341SOL    HW1 7922   0.606   4.074   6.073
 2341SOL    HW2 7923   0.501   3.987   5.983
 2342SOL     OW 7924   5.139   1.159   5.875
 2342SOL    HW1 7925   5.048   1.154   5.835
 2342SOL    HW2 7926   5.147   1.243   5.929
 2343SOL     OW 7927   1.029   5.715   2.096
 2343SOL    HW1 7928   1.112   5.662   2.116
 2343SOL    HW2 7929   1.053   5.811   2.082
 2344SOL     OW 7930   2.121   0.875   2.576
 2344SOL    HW1 7931   2.122   0.782   2.615
 2344SOL    HW2 7932   2.168   0.874   2.488
 2345SOL     OW 7933   1.542   2.785   1.830
 2345SOL    HW1 7934   1.623   2.843   1.819
 2345SOL    HW2 7935   1.544   2.712   1.761
 2346SOL     OW 7936   5.527   2.866   5.336
 2346SOL    HW1 7937   5.624   2.855   5.316
 2346SOL    HW2 7938   5.511   2.956   5.376
 2347SOL     OW 7939   1.930   4.181   1.111
 2347SOL    HW1 7940   1.847   4.184   1.165
 2347SOL    HW2 7941   1.969   4.089   1.114
 2348SOL     OW 7942   3.261   0.097   1.689
 2348SOL    HW1 7943   3.252   0.192   1.718
 2348SOL    HW2 7944   3.357   0.071   1.684
 2349SOL     OW 7945   5.879   2.602   6.967
 2349SOL    HW1 7946   5.905   2.514   6.927
 2349SOL    HW2 7947   5.821   2.587   0.029
 2350SOL     OW 7948   2.475   5.650   5.192
 2350SOL    HW1 7949   2.433   5.576   5.139
 2350SOL    HW2 7950   2.426   5.660   5.278
 2351SOL     OW 7951   1.776   5.169   3.507
 2351SOL    HW1 7952   1.867   5.131   3.521
 2351SOL    HW2 7953   1.783   5.264   3.477
 2352SOL     OW 7954   6.078   5.870   6.524
 2352SOL    HW1 7955   6.041   5.876   6.432
 2352SOL    HW2 7956   6.011   5.827   6.585
 2353SOL     OW 7957   3.227   2.774   6.375
 2353SOL    HW1 7958   3.302   2.709   6.367
 2353SOL    HW2 7959   3.171   2.750   6.455
 2354SOL     OW 7960   3.434   1.886   2.176
 2354SOL    HW1 7961   3.353   1.938   2.202
 2354SOL    HW2 7962   3.462   1.828   2.253
 2355SOL     OW 7963   0.021   1.560   2.202
 2355SOL    HW1 7964   6.971   1.495   2.168
 2355SOL    HW2 7965   0.113   1.526   2.183
 2356SOL     OW 7966   3.669   4.966   3.625
 2356SOL    HW1 7967   3.740   5.036   3.633
 2356SOL    HW2 7968   3.642   4.935   3.716
 2357SOL     OW 7969   0.972   5.675   1.230
 2357SOL    HW1 7970   0.990   5.740   1.155
 2357SOL    HW2 7971   0.877   5.647   1.227
 2358SOL     OW 7972   1.982   1.075   5.242
 2358SOL    HW1 7973   1.909   1.030   5.292
 2358SOL    HW2 7974   2.007   1.020   5.162
 2359SOL     OW 7975   3.647   2.898   5.833
 2359SOL    HW1 7976   3.675   2.892   5.929
 2359SOL    HW2 7977   3.604   2.987   5.817
 2360SOL     OW 7978   3.421   5.273   1.432
 2360SOL    HW1 7979   3.326   5.261   1.403
 2360SOL    HW2 7980   3.427   5.352   1.493
 2361SOL     OW 7981   3.475   4.819   1.159
 2361SOL    HW1 7982   3.379   4.792   1.151
 2361SOL    HW2 7983   3.483   4.897   1.221
 2362SOL     OW 7984   2.839   4.858   4.287
 2362SOL    HW1 7985   2.764   4.807   4.245
 2362SOL    HW2 7986   2.838   4.842   4.386
 2363SOL     OW 7987   2.530   3.812   1.649
 2363SOL    HW1 7988   2.600   3.765   1.702
 2363SOL    HW2 7989   2.474   3.869   1.709
 2364SOL     OW 7990   4.550   0.921   2.624
 2364SOL    HW1 7991   4.566   0.945   2.720
 2364SOL    HW2 7992   4.479   0.980   2.586
 2365SOL     OW 7993   5.883   3.777   2.688
 2365SOL    HW1 7994   5.892   3.697   2.747
 2365SOL    HW2 7995   5.905   3.860   2.740
 2366SOL     OW 7996   3.862   5.699   4.850
 2366SOL    HW1 7997   3.786   5.702   4.786
 2366SOL    HW2 7998   3.909   5.611   4.843
 2367SOL     OW 7999   5.765   4.520   5.568
 2367SOL    HW1 8000   5.739   4.548   5.661
 2367SOL    HW2 8001   5.765   4.420   5.563
 2368SOL     OW 8002   5.002   1.469   5.645
 2368SOL    HW1 8003   5.088   1.435   5.684
 2368SOL    HW2 8004   5.020   1.547   5.586
 2369SOL     OW 8005   3.921   1.944   3.941
 2369SOL    HW1 8006   3.913   1.999   4.024
 2369SOL    HW2 8007   3.930   2.004   3.862
 2370SOL     OW 8008   4.100   2.012   0.977
 2370SOL    HW1 8009   4.146   2.080   0.921
 2370SOL    HW2 8010   4.043   2.058   1.045
 2371SOL     OW 8011   2.797   6.357   3.127
 2371SOL    HW1 8012   2.729   6.414   3.082
 2371SOL    HW2 8013   2.845   6.411   3.196
 2372SOL     OW 8014   5.933   6.892   6.169
 2372SOL    HW1 8015   6.007   6.828   6.190
 2372SOL    HW2 8016   5.924   6.902   6.070
 2373SOL     OW 8017   6.497   4.151   5.608
 2373SOL    HW1 8018   6.443   4.231   5.634
 2373SOL    HW2 8019   6.547   4.171   5.523
 2374SOL     OW 8020   0.587   5.739   2.909
 2374SOL    HW1 8021   0.604   5.723   2.812
 2374SOL    HW2 8022   0.546   5.829   2.921
 2375SOL     OW 8023   2.059   0.392   4.823
 2375SOL    HW1 8024   1.977   0.442   4.849
 2375SOL    HW2 8025   2.053   0.298   4.856
 2376SOL     OW 8026   5.678   3.026   3.901
 2376SOL    HW1 8027   5.590   2.981   3.916
 2376SOL    HW2 8028   5.664   3.124   3.886
 2377SOL     OW 8029   3.753   4.809   5.974
 2377SOL    HW1 8030   3.782   4.741   6.041
 2377SOL    HW2 8031   3.665   4.781   5.934
 2378SOL     OW 8032   0.659   0.442   0.549
 2378SOL    HW1 8033   0.667   0.346   0.521
 2378SOL    HW2 8034   0.683   0.451   0.645
 2379SOL     OW 8035   0.595   4.706   2.400
 2379SOL    HW1 8036   0.634   4.614   2.403
 2379SOL    HW2 8037   0.668   4.774   2.412
 2380SOL     OW 8038   4.597   5.725   6.632
 2380SOL    HW1 8039   4.634   5.654   6.572
 2380SOL    HW2 8040   4.553   5.682   6.711
 2381SOL     OW 8041   2.049   3.817   3.689
 2381SOL    HW1 8042   2.076   3.876   3.613
 2381SOL    HW2 8043   1.988   3.866   3.750
 2382SOL     OW 8044   6.415   6.041   2.483
 2382SOL    HW1 8045   6.352   6.119   2.490
 2382SOL    HW2 8046   6.410   5.986   2.566
 2383SOL     OW 8047   4.894   3.971   6.163
 2383SOL    HW1 8048   4.831   3.905   6.204
 2383SOL    HW2 8049   4.916   3.943   6.069
 2384SOL     OW 8050   1.049   2.125   3.472
 2384SOL    HW1 8051   1.025   2.136   3.375
 2384SOL    HW2 8052   1.046   2.214   3.517
 2385SOL     OW 8053   0.630   1.214   0.773
 2385SOL    HW1 8054   0.663   1.120   0.786
 2385SOL    HW2 8055   0.601   1.226   0.678
 2386SOL     OW 8056   6.975   4.764   6.043
 2386SOL    HW1 8057   6.921   4.686   6.011
 2386SOL    HW2 8058   6.940   4.796   6.131
 2387SOL     OW 8059   0.019   7.009   2.911
 2387SOL    HW1 8060   6.946   6.981   2.940
 2387SOL    HW2 8061   0.050   6.949   2.837
 2388SOL     OW 8062   1.947   4.230   3.510
 2388SOL    HW1 8063   2.018   4.248   3.579
 2388SOL    HW2 8064   1.960   4.138   3.473
 2389SOL     OW 8065   3.496   0.141   2.816
 2389SOL    HW1 8066   3.503   0.072   2.887
 2389SOL    HW2 8067   3.517   0.231   2.854
 2390SOL     OW 8068   5.200   3.247   5.035
 2390SOL    HW1 8069   5.268   3.319   5.020
 2390SOL    HW2 8070   5.220   3.169   4.976
 2391SOL     OW 8071   2.367   3.960   6.355
 2391SOL    HW1 8072   2.312   4.030   6.308
 2391SOL    HW2 8073   2.407   3.999   6.438
 2392SOL     OW 8074   4.048   5.322   5.707
 2392SOL    HW1 8075   4.081   5.231   5.680
 2392SOL    HW2 8076   4.117   5.367   5.764
 2393SOL     OW 8077   4.491   4.926   0.183
 2393SOL    HW1 8078   4.510   4.988   0.258
 2393SOL    HW2 8079   4.475   4.834   0.219
 2394SOL     OW 8080   6.975   2.750   3.181
 2394SOL    HW1 8081   6.943   2.661   3.147
 2394SOL    HW2 8082   7.002   2.807   3.104
 2395SOL     OW 8083   0.904   2.698   3.620
 2395SOL    HW1 8084   0.848   2.672   3.542
 2395SOL    HW2 8085   0.996   2.723   3.590
 2396SOL     OW 8086   0.390   0.810   6.160
 2396SOL    HW1 8087   0.487   0.787   6.153
 2396SOL    HW2 8088   0.367   0.831   6.255
 2397SOL     OW 8089   2.559   4.773   5.965
 2397SOL    HW1 8090   2.533   4.799   5.872
 2397SOL    HW2 8091   2.638   4.827   5.994
 2398SOL     OW 8092   3.921   6.497   4.852
 2398SOL    HW1 8093   3.920   6.399   4.875
 2398SOL    HW2 8094   3.856   6.514   4.778
 2399SOL     OW 8095   3.184   1.681   2.630
 2399SOL    HW1 8096   3.085   1.692   2.615
 2399SOL    HW2 8097   3.220   1.613   2.566
 2400SOL     OW 8098   1.210   1.658   6.523
 2400SOL    HW1 8099   1.182   1.738   6.576
 2400SOL    HW2 8100   1.285   1.683   6.462
 2401SOL     OW 8101   1.007   6.920   0.882
 2401SOL    HW1 8102   1.089   6.869   0.859
 2401SOL    HW2 8103   1.011   7.011   0.839
 2402SOL     OW 8104   0.326   3.413   1.439
 2402SOL    HW1 8105   0.330   3.413   1.539
 2402SOL    HW2 8106   0.369   3.330   1.404
 2403SOL     OW 8107   3.077   4.275   5.282
 2403SOL    HW1 8108   3.041   4.269   5.374
 2403SOL    HW2 8109   3.023   4.339   5.228
 2404SOL     OW 8110   6.215   1.969   2.033
 2404SOL    HW1 8111   6.121   1.977   2.001
 2404SOL    HW2 8112   6.271   2.041   1.992
 2405SOL     OW 8113   2.664   3.321   0.099
 2405SOL    HW1 8114   2.665   3.316   0.199
 2405SOL    HW2 8115   2.596   3.388   0.070
 2406SOL     OW 8116   4.403   6.130   5.340
 2406SOL    HW1 8117   4.492   6.137   5.385
 2406SOL    HW2 8118   4.378   6.219   5.302
 2407SOL     OW 8119   2.285   1.923   3.541
 2407SOL    HW1 8120   2.301   1.845   3.480
 2407SOL    HW2 8121   2.308   1.898   3.635
 2408SOL     OW 8122   4.519   6.791   5.302
 2408SOL    HW1 8123   4.579   6.846   5.244
 2408SOL    HW2 8124   4.476   6.719   5.247
 2409SOL     OW 8125   1.237   3.171   6.836
 2409SOL    HW1 8126   1.265   3.231   6.911
 2409SOL    HW2 8127   1.259   3.213   6.749
 2410SOL     OW 8128   6.407   3.552   4.656
 2410SOL    HW1 8129   6.390   3.529   4.752
 2410SOL    HW2 8130   6.452   3.641   4.651
 2411SOL     OW 8131   2.975   1.071   1.129
 2411SOL    HW1 8132   2.961   1.100   1.223
 2411SOL    HW2 8133   2.999   1.150   1.073
 2412SOL     OW 8134   3.771   2.419   6.777
 2412SOL    HW1 8135   3.859   2.378   6.802
 2412SOL    HW2 8136   3.699   2.350   6.787
 2413SOL     OW 8137   6.681   3.806   6.142
 2413SOL    HW1 8138   6.719   3.878   6.200
 2413SOL    HW2 8139   6.605   3.761   6.189
 2414SOL     OW 8140   6.484   1.750   4.996
 2414SOL    HW1 8141   6.526   1.751   4.905
 2414SOL    HW2 8142   6.391   1.787   4.990
 2415SOL     OW 8143   3.357   3.855   5.340
 2415SOL    HW1 8144   3.450   3.852   5.303
 2415SOL    HW2 8145   3.349   3.931   5.404
 2416SOL     OW 8146   6.829   3.201   3.278
 2416SOL    HW1 8147   6.761   3.200   3.205
 2416SOL    HW2 8148   6.784   3.182   3.365
 2417SOL     OW 8149   3.521   2.870   1.688
 2417SOL    HW1 8150   3.469   2.910   1.764
 2417SOL    HW2 8151   3.459   2.827   1.624
 2418SOL     OW 8152   6.116   3.496   6.415
 2418SOL    HW1 8153   6.186   3.449   6.470
 2418SOL    HW2 8154   6.151   3.585   6.386
 2419SOL     OW 8155   3.394   1.387   3.000
 2419SOL    HW1 8156   3.340   1.303   3.004
 2419SOL    HW2 8157   3.337   1.462   2.965
 2420SOL     OW 8158   0.538   2.956   1.217
 2420SOL    HW1 8159   0.548   2.887   1.145
 2420SOL    HW2 8160   0.450   2.944   1.262
 2421SOL     OW 8161   2.770   0.286   3.553
 2421SOL    HW1 8162   2.868   0.274   3.532
 2421SOL    HW2 8163   2.718   0.215   3.507
 2422SOL     OW 8164   3.811   6.455   0.548
 2422SOL    HW1 8165   3.736   6.520   0.558
 2422SOL    HW2 8166   3.803   6.384   0.618
 2423SOL     OW 8167   3.905   4.965   4.788
 2423SOL    HW1 8168   3.952   4.939   4.873
 2423SOL    HW2 8169   3.964   5.026   4.735
 2424SOL     OW 8170   4.839   0.379   6.252
 2424SOL    HW1 8171   4.802   0.394   6.343
 2424SOL    HW2 8172   4.845   0.466   6.204
 2425SOL     OW 8173   4.628   5.386   4.620
 2425SOL    HW1 8174   4.577   5.407   4.537
 2425SOL    HW2 8175   4.693   5.312   4.602
 2426SOL     OW 8176   2.925   2.455   5.332
 2426SOL    HW1 8177   3.004   2.405   5.298
 2426SOL    HW2 8178   2.955   2.539   5.377
 2427SOL     OW 8179   4.793   2.114   0.014
 2427SOL    HW1 8180   4.797   2.182   0.087
 2427SOL    HW2 8181   4.813   2.023   0.052
 2428SOL     OW 8182   1.607   1.727   2.241
 2428SOL    HW1 8183   1.623   1.708   2.145
 2428SOL    HW2 8184   1.524   1.679   2.272
 2429SOL     OW 8185   5.177   5.246   1.679
 2429SOL    HW1 8186   5.140   5.203   1.762
 2429SOL    HW2 8187   5.200   5.175   1.612
 2430SOL     OW 8188   6.613   6.469   6.806
 2430SOL    HW1 8189   6.541   6.426   6.860
 2430SOL    HW2 8190   6.701   6.456   6.851
 2431SOL     OW 8191   2.037   2.442   1.314
 2431SOL    HW1 8192   1.945   2.472   1.288
 2431SOL    HW2 8193   2.105   2.492   1.261
 2432SOL     OW 8194   3.149   5.909   2.792
 2432SOL    HW1 8195   3.060   5.948   2.768
 2432SOL    HW2 8196   3.143   5.809   2.791
 2433SOL     OW 8197   0.411   4.351   4.077
 2433SOL    HW1 8198   0.365   4.436   4.105
 2433SOL    HW2 8199   0.501   4.372   4.039
 2434SOL     OW 8200   3.901   2.074   3.014
 2434SOL    HW1 8201   3.936   2.141   2.949
 2434SOL    HW2 8202   3.932   2.098   3.106
 2435SOL     OW 8203   5.493   6.844   5.900
 2435SOL    HW1 8204   5.424   6.796   5.955
 2435SOL    HW2 8205   5.565   6.780   5.873
 2436SOL     OW 8206   0.449   2.907   0.202
 2436SOL    HW1 8207   0.434   2.856   0.286
 2436SOL    HW2 8208   0.547   2.919   0.187
 2437SOL     OW 8209   0.971   4.972   1.030
 2437SOL    HW1 8210   0.879   4.943   1.055
 2437SOL    HW2 8211   1.009   5.029   1.103
 2438SOL     OW 8212   3.770   1.916   4.328
 2438SOL    HW1 8213   3.762   1.962   4.240
 2438SOL    HW2 8214   3.798   1.981   4.398
 2439SOL     OW 8215   0.376   5.898   6.870
 2439SOL    HW1 8216   0.434   5.901   6.952
 2439SOL    HW2 8217   0.280   5.900   6.897
 2440SOL     OW 8218   0.097   2.600   5.060
 2440SOL    HW1 8219   0.088   2.506   5.093
 2440SOL    HW2 8220   0.177   2.606   5.001
 2441SOL     OW 8221   6.462   0.120   0.321
 2441SOL    HW1 8222   6.469   0.158   0.413
 2441SOL    HW2 8223   6.371   0.079   0.309
 2442SOL     OW 8224   5.500   2.795   2.966
 2442SOL    HW1 8225   5.524   2.840   3.052
 2442SOL    HW2 8226   5.553   2.711   2.955
 2443SOL     OW 8227   0.759   2.933   0.964
 2443SOL    HW1 8228   0.665   2.966   0.974
 2443SOL    HW2 8229   0.813   3.003   0.917
 2444SOL     OW 8230   3.330   5.333   2.693
 2444SOL    HW1 8231   3.238   5.308   2.726
 2444SOL    HW2 8232   3.355   5.272   2.618
 2445SOL     OW 8233   0.629   1.868   1.174
 2445SOL    HW1 8234   0.543   1.900   1.212
 2445SOL    HW2 8235   0.625   1.768   1.162
 2446SOL     OW 8236   6.578   5.486   0.712
 2446SOL    HW1 8237   6.567   5.554   0.785
 2446SOL    HW2 8238   6.611   5.400   0.751
 2447SOL     OW 8239   2.262   0.048   6.913
 2447SOL    HW1 8240   2.274   6.991   6.978
 2447SOL    HW2 8241   2.337   0.048   6.847
 2448SOL     OW 8242   5.444   0.744   4.345
 2448SOL    HW1 8243   5.402   0.835   4.340
 2448SOL    HW2 8244   5.442   0.702   4.255
 2449SOL     OW 8245   2.039   3.926   1.202
 2449SOL    HW1 8246   2.083   3.920   1.292
 2449SOL    HW2 8247   1.965   3.859   1.197
 2450SOL     OW 8248   6.368   6.749   5.321
 2450SOL    HW1 8249   6.297   6.681   5.298
 2450SOL    HW2 8250   6.418   6.718   5.402
 2451SOL     OW 8251   1.882   0.160   0.177
 2451SOL    HW1 8252   1.886   0.252   0.214
 2451SOL    HW2 8253   1.820   0.104   0.233
 2452SOL     OW 8254   1.991   2.269   3.674
 2452SOL    HW1 8255   1.929   2.340   3.642
 2452SOL    HW2 8256   2.044   2.233   3.597
 2453SOL     OW 8257   1.076   2.016   6.470
 2453SOL    HW1 8258   1.133   2.098   6.460
 2453SOL    HW2 8259   1.112   1.960   6.545
 2454SOL     OW 8260   2.788   6.415   0.010
 2454SOL    HW1 8261   2.848   6.336   7.015
 2454SOL    HW2 8262   2.843   6.493   0.039
 2455SOL     OW 8263   5.209   1.575   0.125
 2455SOL    HW1 8264   5.246   1.605   0.213
 2455SOL    HW2 8265   5.153   1.648   0.086
 2456SOL     OW 8266   0.808   3.494   6.087
 2456SOL    HW1 8267   0.729   3.537   6.044
 2456SOL    HW2 8268   0.891   3.546   6.067
 2457SOL     OW 8269   5.322   1.808   5.739
 2457SOL    HW1 8270   5.417   1.789   5.716
 2457SOL    HW2 8271   5.318   1.882   5.807
 2458SOL     OW 8272   1.016   0.024   2.321
 2458SOL    HW1 8273   1.095   7.007   2.270
 2458SOL    HW2 8274   0.981   0.106   2.277
 2459SOL     OW 8275   1.633   6.551   1.383
 2459SOL    HW1 8276   1.551   6.501   1.353
 2459SOL    HW2 8277   1.662   6.516   1.472
 2460SOL     OW 8278   0.479   1.189   4.407
 2460SOL    HW1 8279   0.435   1.266   4.454
 2460SOL    HW2 8280   0.516   1.125   4.475
 2461SOL     OW 8281   2.263   1.764   2.932
 2461SOL    HW1 8282   2.237   1.674   2.969
 2461SOL    HW2 8283   2.362   1.776   2.940
 2462SOL     OW 8284   0.379   6.008   0.638
 2462SOL    HW1 8285   0.316   5.957   0.578
 2462SOL    HW2 8286   0.419   5.945   0.705
 2463SOL     OW 8287   6.818   6.350   0.588
 2463SOL    HW1 8288   6.776   6.365   0.678
 2463SOL    HW2 8289   6.910   6.312   0.601
 2464SOL     OW 8290   0.761   2.563   4.625
 2464SOL    HW1 8291   0.705   2.644   4.641
 2464SOL    HW2 8292   0.707   2.481   4.641
 2465SOL     OW 8293   6.610   1.582   0.166
 2465SOL    HW1 8294   6.563   1.494   0.180
 2465SOL    HW2 8295   6.603   1.608   0.070
 2466SOL     OW 8296   1.026   2.184   1.155
 2466SOL    HW1 8297   0.963   2.109   1.135
 2466SOL    HW2 8298   0.976   2.258   1.202
 2467SOL     OW 8299   5.164   2.448   5.311
 2467SOL    HW1 8300   5.126   2.448   5.219
 2467SOL    HW2 8301   5.095   2.479   5.377
 2468SOL     OW 8302   2.936   6.916   4.633
 2468SOL    HW1 8303   2.953   6.959   4.544
 2468SOL    HW2 8304   2.881   6.834   4.620
 2469SOL     OW 8305   2.863   1.876   6.144
 2469SOL    HW1 8306   2.960   1.865   6.167
 2469SOL    HW2 8307   2.846   1.972   6.119
 2470SOL     OW 8308   1.784   5.089   6.460
 2470SOL    HW1 8309   1.725   5.163   6.490
 2470SOL    HW2 8310   1.862   5.126   6.410
 2471SOL     OW 8311   2.972   5.649   3.209
 2471SOL    HW1 8312   2.962   5.577   3.140
 2471SOL    HW2 8313   2.928   5.733   3.176
 2472SOL     OW 8314   4.955   0.857   3.015
 2472SOL    HW1 8315   4.942   0.802   3.098
 2472SOL    HW2 8316   4.888   0.829   2.946
 2473SOL     OW 8317   1.032   4.262   4.594
 2473SOL    HW1 8318   1.129   4.266   4.569
 2473SOL    HW2 8319   1.001   4.167   4.590
 2474SOL     OW 8320   1.864   0.232   1.060
 2474SOL    HW1 8321   1.767   0.239   1.038
 2474SOL    HW2 8322   1.903   0.324   1.071
 2475SOL     OW 8323   5.750   2.197   0.403
 2475SOL    HW1 8324   5.773   2.156   0.491
 2475SOL    HW2 8325   5.792   2.288   0.397
 2476SOL     OW 8326   4.904   6.733   6.815
 2476SOL    HW1 8327   4.804   6.726   6.814
 2476SOL    HW2 8328   4.935   6.752   6.908
 2477SOL     OW 8329   3.708   1.388   3.633
 2477SOL    HW1 8330   3.756   1.473   3.656
 2477SOL    HW2 8331   3.613   1.395   3.660
 2478SOL     OW 8332   3.169   0.303   4.150
 2478SOL    HW1 8333   3.117   0.242   4.210
 2478SOL    HW2 8334   3.255   0.327   4.194
 2479SOL     OW 8335   6.344   4.135   1.721
 2479SOL    HW1 8336   6.410   4.094   1.784
 2479SOL    HW2 8337   6.297   4.210   1.766
 2480SOL     OW 8338   3.119   2.069   1.732
 2480SOL    HW1 8339   3.178   2.081   1.652
 2480SOL    HW2 8340   3.056   2.146   1.739
 2481SOL     OW 8341   2.839   6.818   2.447
 2481SOL    HW1 8342   2.812   6.831   2.543
 2481SOL    HW2 8343   2.921   6.761   2.443
 2482SOL     OW 8344   0.281   3.437   6.899
 2482SOL    HW1 8345   0.212   3.499   6.936
 2482SOL    HW2 8346   0.245   3.393   6.816
 2483SOL     OW 8347   2.388   2.116   1.468
 2483SOL    HW1 8348   2.366   2.024   1.503
 2483SOL    HW2 8349   2.394   2.113   1.369
 2484SOL     OW 8350   4.655   0.754   6.321
 2484SOL    HW1 8351   4.572   0.707   6.290
 2484SOL    HW2 8352   4.630   0.829   6.382
 2485SOL     OW 8353   0.378   1.767   6.966
 2485SOL    HW1 8354   0.475   1.751   6.986
 2485SOL    HW2 8355   0.332   1.680   6.954
 2486SOL     OW 8356   6.389   6.114   3.121
 2486SOL    HW1 8357   6.407   6.192   3.061
 2486SOL    HW2 8358   6.438   6.126   3.207
 2487SOL     OW 8359   4.364   6.253   7.005
 2487SOL    HW1 8360   4.445   6.294   6.963
 2487SOL    HW2 8361   4.283   6.280   6.952
 2488SOL     OW 8362   0.247   3.917   0.464
 2488SOL    HW1 8363   0.292   3.933   0.551
 2488SOL    HW2 8364   0.245   4.002   0.411
 2489SOL     OW 8365   6.290   5.796   4.846
 2489SOL    HW1 8366   6.243   5.722   4.799
 2489SOL    HW2 8367   6.345   5.759   4.921
 2490SOL     OW 8368   2.814   5.944   2.007
 2490SOL    HW1 8369   2.896   6.001   1.994
 2490SOL    HW2 8370   2.776   5.920   1.918
 2491SOL     OW 8371   4.097   4.693   1.616
 2491SOL    HW1 8372   4.170   4.685   1.547
 2491SOL    HW2 8373   4.106   4.781   1.663
 2492SOL     OW 8374   6.763   5.419   1.638
 2492SOL    HW1 8375   6.665   5.410   1.620
 2492SOL    HW2 8376   6.778   5.485   1.712
 2493SOL     OW 8377   6.154   6.111   0.818
 2493SOL    HW1 8378   6.181   6.192   0.869
 2493SOL    HW2 8379   6.054   6.107   0.810
 2494SOL     OW 8380   6.588   3.998   1.141
 2494SOL    HW1 8381   6.491   3.978   1.135
 2494SOL    HW2 8382   6.602   4.091   1.175
 2495SOL     OW 8383   6.823   3.043   2.171
 2495SOL    HW1 8384   6.910   3.062   2.218
 2495SOL    HW2 8385   6.796   2.949   2.188
 2496SOL     OW 8386   5.364   4.054   5.879
 2496SOL    HW1 8387   5.459   4.086   5.881
 2496SOL    HW2 8388   5.302   4.133   5.884
 2497SOL     OW 8389   1.000   0.059   4.140
 2497SOL    HW1 8390   0.944   0.087   4.217
 2497SOL    HW2 8391   0.966   6.990   4.103
 2498SOL     OW 8392   1.982   3.707   4.747
 2498SOL    HW1 8393   2.033   3.789   4.771
 2498SOL    HW2 8394   2.037   3.626   4.765
 2499SOL     OW 8395   5.714   3.436   1.714
 2499SOL    HW1 8396   5.727   3.508   1.646
 2499SOL    HW2 8397   5.633   3.382   1.690
 2500SOL     OW 8398   3.310   3.523   2.169
 2500SOL    HW1 8399   3.303   3.588   2.245
 2500SOL    HW2 8400   3.357   3.566   2.092
 2501SOL     OW 8401   6.301   5.218   5.096
 2501SOL    HW1 8402   6.303   5.309   5.137
 2501SOL    HW2 8403   6.387   5.171   5.113
 2502SOL     OW 8404   2.874   5.819   3.854
 2502SOL    HW1 8405   2.776   5.808   3.838
 2502SOL    HW2 8406   2.897   5.784   3.946
 2503SOL     OW 8407   2.202   0.415   5.272
 2503SOL    HW1 8408   2.240   0.361   5.346
 2503SOL    HW2 8409   2.271   0.481   5.241
 2504SOL     OW 8410   3.987   0.702   3.177
 2504SOL    HW1 8411   4.070   0.653   3.151
 2504SOL    HW2 8412   3.951   0.664   3.262
 2505SOL     OW 8413   5.352   4.823   4.210
 2505SOL    HW1 8414   5.335   4.829   4.111
 2505SOL    HW2 8415   5.443   4.785   4.226
 2506SOL     OW 8416   6.228   4.814   6.168
 2506SOL    HW1 8417   6.293   4.890   6.158
 2506SOL    HW2 8418   6.278   4.728   6.170
 2507SOL     OW 8419   6.108   3.718   4.032
 2507SOL    HW1 8420   6.136   3.704   3.937
 2507SOL    HW2 8421   6.052   3.800   4.039
 2508SOL     OW 8422   5.755   1.105   3.743
 2508SOL    HW1 8423   5.705   1.022   3.767
 2508SOL    HW2 8424   5.848   1.081   3.715
 2509SOL     OW 8425   0.519   3.052   6.139
 2509SOL    HW1 8426   0.503   2.958   6.168
 2509SOL    HW2 8427   0.572   3.053   6.055
 2510SOL     OW 8428   3.027   3.746   2.557
 2510SOL    HW1 8429   3.068   3.686   2.626
 2510SOL    HW2 8430   2.969   3.692   2.496
 2511SOL     OW 8431   2.480   0.977   4.506
 2511SOL    HW1 8432   2.459   1.029   4.423
 2511SOL    HW2 8433   2.579   0.975   4.521
 2512SOL     OW 8434   3.445   4.884   3.458
 2512SOL    HW1 8435   3.530   4.898   3.510
 2512SOL    HW2 8436   3.466   4.834   3.374
 2513SOL     OW 8437   1.828   5.730   6.476
 2513SOL    HW1 8438   1.869   5.758   6.563
 2513SOL    HW2 8439   1.759   5.797   6.449
 2514SOL     OW 8440   0.730   2.312   2.914
 2514SOL    HW1 8441   0.721   2.395   2.969
 2514SOL    HW2 8442   0.782   2.332   2.831
 2515SOL     OW 8443   6.785   1.725   1.343
 2515SOL    HW1 8444   6.708   1.702   1.403
 2515SOL    HW2 8445   6.768   1.689   1.251
 2516SOL     OW 8446   6.736   2.649   4.808
 2516SOL    HW1 8447   6.770   2.576   4.867
 2516SOL    HW2 8448   6.731   2.735   4.859
 2517SOL     OW 8449   0.141   1.354   4.739
 2517SOL    HW1 8450   0.222   1.386   4.789
 2517SOL    HW2 8451   0.089   1.291   4.798
 2518SOL     OW 8452   3.182   3.864   1.350
 2518SOL    HW1 8453   3.102   3.918   1.378
 2518SOL    HW2 8454   3.227   3.909   1.273
 2519SOL     OW 8455   1.337   1.321   0.536
 2519SOL    HW1 8456   1.351   1.410   0.492
 2519SOL    HW2 8457   1.249   1.320   0.582
 2520SOL     OW 8458   3.067   3.040   1.365
 2520SOL    HW1 8459   2.987   3.054   1.423
 2520SOL    HW2 8460   3.049   3.079   1.274
 2521SOL     OW 8461   5.245   0.923   5.211
 2521SOL    HW1 8462   5.293   1.011   5.216
 2521SOL    HW2 8463   5.160   0.935   5.159
 2522SOL     OW 8464   1.720   1.879   0.166
 2522SOL    HW1 8465   1.779   1.804   0.197
 2522SOL    HW2 8466   1.773   1.943   0.112
 2523SOL     OW 8467   0.910   5.806   5.667
 2523SOL    HW1 8468   0.820   5.792   5.626
 2523SOL    HW2 8469   0.931   5.904   5.670
 2524SOL     OW 8470   0.641   2.295   4.723
 2524SOL    HW1 8471   0.700   2.284   4.802
 2524SOL    HW2 8472   0.638   2.210   4.670
 2525SOL     OW 8473   6.599   2.716   6.162
 2525SOL    HW1 8474   6.565   2.807   6.137
 2525SOL    HW2 8475   6.577   2.698   6.258
 2526SOL     OW 8476   1.870   0.975   0.663
 2526SOL    HW1 8477   1.886   1.065   0.703
 2526SOL    HW2 8478   1.829   0.915   0.732
 2527SOL     OW 8479   3.780   5.251   0.254
 2527SOL    HW1 8480   3.864   5.291   0.291
 2527SOL    HW2 8481   3.746   5.308   0.179
 2528SOL     OW 8482   4.533   5.503   6.227
 2528SOL    HW1 8483   4.488   5.508   6.138
 2528SOL    HW2 8484   4.485   5.438   6.285
 2529SOL     OW 8485   0.114   5.892   5.381
 2529SOL    HW1 8486   0.163   5.932   5.303
 2529SOL    HW2 8487   0.170   5.820   5.421
 2530SOL     OW 8488   2.087   5.838   7.002
 2530SOL    HW1 8489   2.029   5.905   0.030
 2530SOL    HW2 8490   2.177   5.838   0.028
 2531SOL     OW 8491   0.314   4.200   6.135
 2531SOL    HW1 8492   0.258   4.200   6.053
 2531SOL    HW2 8493   0.322   4.294   6.170
 2532SOL     OW 8494   5.637   6.083   2.598
 2532SOL    HW1 8495   5.647   6.031   2.513
 2532SOL    HW2 8496   5.728   6.109   2.631
 2533SOL     OW 8497   4.477   0.562   3.951
 2533SOL    HW1 8498   4.484   0.602   4.042
 2533SOL    HW2 8499   4.546   0.490   3.941
 2534SOL     OW 8500   4.352   1.491   2.654
 2534SOL    HW1 8501   4.404   1.408   2.673
 2534SOL    HW2 8502   4.407   1.552   2.597
 2535SOL     OW 8503   3.323   2.987   6.210
 2535SOL    HW1 8504   3.235   2.999   6.164
 2535SOL    HW2 8505   3.313   2.921   6.284
 2536SOL     OW 8506   1.048   0.280   0.701
 2536SOL    HW1 8507   1.026   0.201   0.645
 2536SOL    HW2 8508   1.138   0.268   0.742
 2537SOL     OW 8509   4.369   6.742   4.585
 2537SOL    HW1 8510   4.376   6.725   4.487
 2537SOL    HW2 8511   4.283   6.705   4.619
 2538SOL     OW 8512   5.621   3.915   3.400
 2538SOL    HW1 8513   5.526   3.946   3.408
 2538SOL    HW2 8514   5.679   3.970   3.460
 2539SOL     OW 8515   4.980   2.161   5.132
 2539SOL    HW1 8516   4.940   2.070   5.124
 2539SOL    HW2 8517   4.985   2.187   5.228
 2540SOL     OW 8518   2.617   2.183   1.633
 2540SOL    HW1 8519   2.550   2.150   1.567
 2540SOL    HW2 8520   2.572   2.242   1.700
 2541SOL     OW 8521   3.119   0.243   3.898
 2541SOL    HW1 8522   3.027   0.211   3.877
 2541SOL    HW2 8523   3.130   0.252   3.997
 2542SOL     OW 8524   2.026   5.703   5.524
 2542SOL    HW1 8525   1.985   5.625   5.571
 2542SOL    HW2 8526   1.959   5.743   5.462
 2543SOL     OW 8527   1.113   0.787   3.908
 2543SOL    HW1 8528   1.154   0.714   3.964
 2543SOL    HW2 8529   1.049   0.839   3.963
 2544SOL     OW 8530   0.493   5.740   5.989
 2544SOL    HW1 8531   0.587   5.706   5.983
 2544SOL    HW2 8532   0.450   5.705   6.072
 2545SOL     OW 8533   2.737   5.826   2.853
 2545SOL    HW1 8534   2.722   5.766   2.931
 2545SOL    HW2 8535   2.649   5.846   2.810
 2546SOL     OW 8536   6.491   0.914   1.973
 2546SOL    HW1 8537   6.476   0.874   1.882
 2546SOL    HW2 8538   6.500   0.840   2.040
 2547SOL     OW 8539   0.494   3.790   4.899
 2547SOL    HW1 8540   0.485   3.693   4.878
 2547SOL    HW2 8541   0.515   3.840   4.814
 2548SOL     OW 8542   0.468   1.041   6.386
 2548SOL    HW1 8543   0.382   1.022   6.434
 2548SOL    HW2 8544   0.540   1.057   6.453
 2549SOL     OW 8545   5.726   2.109   2.967
 2549SOL    HW1 8546   5.674   2.151   3.042
 2549SOL    HW2 8547   5.664   2.056   2.909
 2550SOL     OW 8548   5.512   5.267   6.897
 2550SOL    HW1 8549   5.592   5.317   6.867
 2550SOL    HW2 8550   5.509   5.266   6.997
 2551SOL     OW 8551   1.219   4.747   6.531
 2551SOL    HW1 8552   1.297   4.752   6.594
 2551SOL    HW2 8553   1.230   4.668   6.471
 2552SOL     OW 8554   1.482   5.795   3.672
 2552SOL    HW1 8555   1.541   5.872   3.649
 2552SOL    HW2 8556   1.533   5.710   3.660
 2553SOL     OW 8557   4.726   3.338   0.746
 2553SOL    HW1 8558   4.640   3.347   0.696
 2553SOL    HW2 8559   4.768   3.428   0.758
 2554SOL     OW 8560   1.189   2.022   0.577
 2554SOL    HW1 8561   1.150   2.052   0.665
 2554SOL    HW2 8562   1.124   1.960   0.533
 2555SOL     OW 8563   0.063   0.405   6.173
 2555SOL    HW1 8564   0.068   0.306   6.158
 2555SOL    HW2 8565   6.986   0.434   6.177
 2556SOL     OW 8566   4.073   4.860   0.291
 2556SOL    HW1 8567   3.983   4.890   0.320
 2556SOL    HW2 8568   4.141   4.884   0.361
 2557SOL     OW 8569   2.002   4.982   6.867
 2557SOL    HW1 8570   2.039   4.962   6.776
 2557SOL    HW2 8571   1.924   4.922   6.885
 2558SOL     OW 8572   3.871   0.413   5.469
 2558SOL    HW1 8573   3.838   0.364   5.388
 2558SOL    HW2 8574   3.914   0.349   5.532
 2559SOL     OW 8575   0.514   5.126   4.973
 2559SOL    HW1 8576   0.551   5.118   4.880
 2559SOL    HW2 8577   0.574   5.184   5.028
 2560SOL     OW 8578   6.212   0.714   0.748
 2560SOL    HW1 8579   6.200   0.726   0.846
 2560SOL    HW2 8580   6.269   0.788   0.712
 2561SOL     OW 8581   3.115   5.842   4.067
 2561SOL    HW1 8582   3.194   5.845   4.005
 2561SOL    HW2 8583   3.121   5.761   4.125
 2562SOL     OW 8584   2.139   4.003   0.511
 2562SOL    HW1 8585   2.137   4.051   0.423
 2562SOL    HW2 8586   2.099   3.912   0.500
 2563SOL     OW 8587   1.514   0.842   1.922
 2563SOL    HW1 8588   1.583   0.776   1.891
 2563SOL    HW2 8589   1.534   0.868   2.017
 2564SOL     OW 8590   1.402   6.177   2.309
 2564SOL    HW1 8591   1.495   6.141   2.310
 2564SOL    HW2 8592   1.402   6.267   2.264
 2565SOL     OW 8593   1.005   0.452   1.128
 2565SOL    HW1 8594   1.008   0.363   1.083
 2565SOL    HW2 8595   0.981   0.440   1.224
 2566SOL     OW 8596   2.166   6.574   4.797
 2566SOL    HW1 8597   2.183   6.475   4.800
 2566SOL    HW2 8598   2.249   6.621   4.768
 2567SOL     OW 8599   1.230   0.706   0.678
 2567SOL    HW1 8600   1.152   0.650   0.706
 2567SOL    HW2 8601   1.198   0.795   0.647
 2568SOL     OW 8602   5.423   3.538   0.533
 2568SOL    HW1 8603   5.344   3.528   0.594
 2568SOL    HW2 8604   5.493   3.472   0.558
 2569SOL     OW 8605   2.319   0.925   2.383
 2569SOL    HW1 8606   2.354   0.835   2.356
 2569SOL    HW2 8607   2.311   0.983   2.302
 2570SOL     OW 8608   5.773   2.298   6.432
 2570SOL    HW1 8609   5.734   2.220   6.383
 2570SOL    HW2 8610   5.737   2.299   6.525
 2571SOL     OW 8611   1.041   4.226   4.124
 2571SOL    HW1 8612   1.011   4.225   4.029
 2571SOL    HW2 8613   0.983   4.164   4.177
 2572SOL     OW 8614   1.405   4.683   3.447
 2572SOL    HW1 8615   1.448   4.772   3.435
 2572SOL    HW2 8616   1.314   4.695   3.485
 2573SOL     OW 8617   1.376   0.054   0.045
 2573SOL    HW1 8618   1.286   0.027   0.011
 2573SOL    HW2 8619   1.424   6.991   0.080
 2574SOL     OW 8620   6.650   3.914   0.846
 2574SOL    HW1 8621   6.662   4.004   0.888
 2574SOL    HW2 8622   6.560   3.878   0.871
 2575SOL     OW 8623   0.825   6.622   5.621
 2575SOL    HW1 8624   0.783   6.704   5.583
 2575SOL    HW2 8625   0.924   6.634   5.626
 2576SOL     OW 8626   4.434   6.386   5.717
 2576SOL    HW1 8627   4.490   6.461   5.752
 2576SOL    HW2 8628   4.350   6.422   5.677
 2577SOL     OW 8629   1.444   3.387   2.411
 2577SOL    HW1 8630   1.430   3.319   2.483
 2577SOL    HW2 8631   1.534   3.374   2.369
 2578SOL     OW 8632   4.129   1.786   1.967
 2578SOL    HW1 8633   4.168   1.699   1.937
 2578SOL    HW2 8634   4.052   1.809   1.908
 2579SOL     OW 8635   0.429   6.080   3.040
 2579SOL    HW1 8636   0.412   6.177   3.025
 2579SOL    HW2 8637   0.502   6.049   2.980
 2580SOL     OW 8638   2.931   2.273   5.591
 2580SOL    HW1 8639   2.994   2.246   5.518
 2580SOL    HW2 8640   2.887   2.359   5.566
 2581SOL     OW 8641   3.262   0.075   5.929
 2581SOL    HW1 8642   3.222   0.107   6.014
 2581SOL    HW2 8643   3.230   7.000   5.908
 2582SOL     OW 8644   0.036   3.990   0.802
 2582SOL    HW1 8645   0.022   3.921   0.731
 2582SOL    HW2 8646   0.073   3.946   0.884
 2583SOL     OW 8647   5.260   0.591   0.567
 2583SOL    HW1 8648   5.195   0.612   0.640
 2583SOL    HW2 8649   5.338   0.653   0.573
 2584SOL     OW 8650   3.662   4.278   6.562
 2584SOL    HW1 8651   3.757   4.295   6.588
 2584SOL    HW2 8652   3.608   4.257   6.644
 2585SOL     OW 8653   2.005   5.405   0.117
 2585SOL    HW1 8654   2.080   5.462   0.149
 2585SOL    HW2 8655   2.041   5.319   0.081
 2586SOL     OW 8656   1.893   1.091   2.876
 2586SOL    HW1 8657   1.979   1.046   2.852
 2586SOL    HW2 8658   1.874   1.078   2.973
 2587SOL     OW 8659   5.827   1.397   4.186
 2587SOL    HW1 8660   5.858   1.464   4.252
 2587SOL    HW2 8661   5.818   1.308   4.230
 2588SOL     OW 8662   4.745   1.557   6.730
 2588SOL    HW1 8663   4.820   1.490   6.733
 2588SOL    HW2 8664   4.679   1.535   6.802
 2589SOL     OW 8665   1.829   6.226   0.437
 2589SOL    HW1 8666   1.822   6.164   0.515
 2589SOL    HW2 8667   1.917   6.274   0.439
 2590SOL     OW 8668   2.473   5.123   0.639
 2590SOL    HW1 8669   2.529   5.198   0.674
 2590SOL    HW2 8670   2.424   5.152   0.557
 2591SOL     OW 8671   5.011   6.485   3.406
 2591SOL    HW1 8672   5.031   6.447   3.496
 2591SOL    HW2 8673   4.914   6.507   3.399
 2592SOL     OW 8674   3.237   3.338   0.646
 2592SOL    HW1 8675   3.326   3.345   0.692
 2592SOL    HW2 8676   3.199   3.430   0.634
 2593SOL     OW 8677   2.800   4.719   6.679
 2593SOL    HW1 8678   2.752   4.804   6.700
 2593SOL    HW2 8679   2.762   4.679   6.596
 2594SOL     OW 8680   2.195   3.034   3.436
 2594SOL    HW1 8681   2.204   3.010   3.532
 2594SOL    HW2 8682   2.234   2.960   3.380
 2595SOL     OW 8683   1.451   1.092   2.825
 2595SOL    HW1 8684   1.476   1.036   2.747
 2595SOL    HW2 8685   1.507   1.175   2.826
 2596SOL     OW 8686   0.173   1.147   1.011
 2596SOL    HW1 8687   0.166   1.084   1.088
 2596SOL    HW2 8688   0.213   1.233   1.043
 2597SOL     OW 8689   6.512   6.110   0.612
 2597SOL    HW1 8690   6.495   6.192   0.667
 2597SOL    HW2 8691   6.442   6.042   0.632
 2598SOL     OW 8692   4.845   3.038   2.227
 2598SOL    HW1 8693   4.914   3.109   2.242
 2598SOL    HW2 8694   4.801   3.053   2.138
 2599SOL     OW 8695   2.322   5.649   2.007
 2599SOL    HW1 8696   2.411   5.642   1.962
 2599SOL    HW2 8697   2.327   5.604   2.096
 2600SOL     OW 8698   5.435   5.336   4.247
 2600SOL    HW1 8699   5.407   5.366   4.338
 2600SOL    HW2 8700   5.526   5.371   4.227
 2601SOL     OW 8701   6.979   0.771   3.863
 2601SOL    HW1 8702   6.887   0.809   3.849
 2601SOL    HW2 8703   0.025   0.845   3.882
 2602SOL     OW 8704   1.164   4.526   2.887
 2602SOL    HW1 8705   1.099   4.484   2.951
 2602SOL    HW2 8706   1.254   4.485   2.899
 2603SOL     OW 8707   1.466   5.946   1.907
 2603SOL    HW1 8708   1.371   5.963   1.881
 2603SOL    HW2 8709   1.511   5.891   1.837
 2604SOL     OW 8710   4.861   3.175   2.909
 2604SOL    HW1 8711   4.920   3.140   2.836
 2604SOL    HW2 8712   4.765   3.163   2.883
 2605SOL     OW 8713   1.530   2.676   0.802
 2605SOL    HW1 8714   1.604   2.655   0.739
 2605SOL    HW2 8715   1.565   2.730   0.879
 2606SOL     OW 8716   5.229   4.097   0.656
 2606SOL    HW1 8717   5.189   4.142   0.576
 2606SOL    HW2 8718   5.250   4.002   0.633
 2607SOL     OW 8719   2.560   2.731   1.745
 2607SOL    HW1 8720   2.479   2.763   1.794
 2607SOL    HW2 8721   2.572   2.633   1.762
 2608SOL     OW 8722   3.759   4.977   4.561
 2608SOL    HW1 8723   3.663   4.973   4.588
 2608SOL    HW2 8724   3.817   4.952   4.638
 2609SOL     OW 8725   0.076   1.603   1.345
 2609SOL    HW1 8726   0.131   1.536   1.394
 2609SOL    HW2 8727   0.046   1.565   1.258
 2610SOL     OW 8728   1.642   4.568   4.678
 2610SOL    HW1 8729   1.595   4.641   4.628
 2610SOL    HW2 8730   1.695   4.608   4.753
 2611SOL     OW 8731   5.709   1.499   5.595
 2611SOL    HW1 8732   5.760   1.514   5.511
 2611SOL    HW2 8733   5.622   1.454   5.574
 2612SOL     OW 8734   6.837   6.444   6.992
 2612SOL    HW1 8735   6.779   6.452   0.055
 2612SOL    HW2 8736   6.905   6.371   7.006
 2613SOL     OW 8737   1.812   6.881   0.721
 2613SOL    HW1 8738   1.876   6.924   0.785
 2613SOL    HW2 8739   1.761   6.952   0.671
 2614SOL     OW 8740   6.141   2.088   1.048
 2614SOL    HW1 8741   6.194   2.053   0.971
 2614SOL    HW2 8742   6.196   2.084   1.132
 2615SOL     OW 8743   0.797   3.588   7.015
 2615SOL    HW1 8744   0.830   3.494   0.002
 2615SOL    HW2 8745   0.698   3.589   7.004
 2616SOL     OW 8746   1.296   1.220   5.089
 2616SOL    HW1 8747   1.233   1.292   5.060
 2616SOL    HW2 8748   1.367   1.208   5.020
 2617SOL     OW 8749   5.662   0.270   7.008
 2617SOL    HW1 8750   5.694   0.247   0.082
 2617SOL    HW2 8751   5.573   0.226   6.992
 2618SOL     OW 8752   1.365   0.803   0.133
 2618SOL    HW1 8753   1.391   0.900   0.129
 2618SOL    HW2 8754   1.443   0.749   0.166
 2619SOL     OW 8755   4.653   0.990   2.855
 2619SOL    HW1 8756   4.713   1.059   2.815
 2619SOL    HW2 8757   4.620   1.023   2.944
 2620SOL     OW 8758   5.635   2.479   2.128
 2620SOL    HW1 8759   5.694   2.518   2.199
 2620SOL    HW2 8760   5.594   2.554   2.076
 2621SOL     OW 8761   2.532   6.384   1.007
 2621SOL    HW1 8762   2.594   6.458   0.980
 2621SOL    HW2 8763   2.575   6.296   0.987
 2622SOL     OW 8764   2.442   3.996   6.626
 2622SOL    HW1 8765   2.412   4.085   6.661
 2622SOL    HW2 8766   2.380   3.925   6.659
 2623SOL     OW 8767   0.491   1.770   4.131
 2623SOL    HW1 8768   0.559   1.783   4.204
 2623SOL    HW2 8769   0.537   1.767   4.043
 2624SOL     OW 8770   1.737   1.715   5.325
 2624SOL    HW1 8771   1.686   1.793   5.291
 2624SOL    HW2 8772   1.674   1.643   5.354
 2625SOL     OW 8773   3.147   5.238   6.134
 2625SOL    HW1 8774   3.100   5.156   6.101
 2625SOL    HW2 8775   3.175   5.294   6.056
 2626SOL     OW 8776   6.736   6.558   0.409
 2626SOL    HW1 8777   6.805   6.629   0.417
 2626SOL    HW2 8778   6.755   6.486   0.475
 2627SOL     OW 8779   2.369   0.191   6.012
 2627SOL    HW1 8780   2.433   0.266   6.032
 2627SOL    HW2 8781   2.417   0.118   5.964
 2628SOL     OW 8782   6.849   5.451   1.345
 2628SOL    HW1 8783   6.802   5.536   1.320
 2628SOL    HW2 8784   6.843   5.438   1.444
 2629SOL     OW 8785   3.224   3.610   3.140
 2629SOL    HW1 8786   3.154   3.541   3.160
 2629SOL    HW2 8787   3.270   3.636   3.224
 2630SOL     OW 8788   2.944   1.053   4.843
 2630SOL    HW1 8789   3.021   0.989   4.849
 2630SOL    HW2 8790   2.979   1.147   4.844
 2631SOL     OW 8791   5.108   6.213   0.617
 2631SOL    HW1 8792   5.047   6.268   0.673
 2631SOL    HW2 8793   5.117   6.122   0.656
 2632SOL     OW 8794   4.499   4.993   1.803
 2632SOL    HW1 8795   4.498   4.981   1.903
 2632SOL    HW2 8796   4.466   5.084   1.781
 2633SOL     OW 8797   6.744   2.868   5.764
 2633SOL    HW1 8798   6.747   2.903   5.670
 2633SOL    HW2 8799   6.723   2.771   5.762
 2634SOL     OW 8800   1.943   2.282   6.198
 2634SOL    HW1 8801   2.003   2.262   6.276
 2634SOL    HW2 8802   1.848   2.287   6.229
 2635SOL     OW 8803   4.164   5.357   3.033
 2635SOL    HW1 8804   4.108   5.301   2.972
 2635SOL    HW2 8805   4.228   5.412   2.979
 2636SOL     OW 8806   3.173   6.769   6.324
 2636SOL    HW1 8807   3.242   6.791   6.256
 2636SOL    HW2 8808   3.214   6.715   6.397
 2637SOL     OW 8809   6.914   1.028   2.893
 2637SOL    HW1 8810   6.844   1.059   2.957
 2637SOL    HW2 8811   6.928   0.930   2.904
 2638SOL     OW 8812   0.797   6.213   5.003
 2638SOL    HW1 8813   0.780   6.283   5.073
 2638SOL    HW2 8814   0.895   6.207   4.985
 2639SOL     OW 8815   4.787   5.546   4.777
 2639SOL    HW1 8816   4.752   5.572   4.866
 2639SOL    HW2 8817   4.714   5.505   4.723
 2640SOL     OW 8818   2.159   0.899   3.093
 2640SOL    HW1 8819   2.164   0.903   2.993
 2640SOL    HW2 8820   2.063   0.898   3.121
 2641SOL     OW 8821   5.500   2.340   0.565
 2641SOL    HW1 8822   5.428   2.408   0.582
 2641SOL    HW2 8823   5.575   2.354   0.629
 2642SOL     OW 8824   0.381   0.455   2.966
 2642SOL    HW1 8825   0.475   0.466   2.931
 2642SOL    HW2 8826   0.377   0.378   3.029
 2643SOL     OW 8827   1.912   4.414   4.023
 2643SOL    HW1 8828   1.910   4.430   4.121
 2643SOL    HW2 8829   1.824   4.441   3.983
 2644SOL     OW 8830   5.930   5.436   3.389
 2644SOL    HW1 8831   5.994   5.367   3.423
 2644SOL    HW2 8832   5.862   5.456   3.459
 2645SOL     OW 8833   4.832   5.204   2.446
 2645SOL    HW1 8834   4.848   5.237   2.353
 2645SOL    HW2 8835   4.810   5.282   2.505
 2646SOL     OW 8836   0.919   1.781   6.921
 2646SOL    HW1 8837   0.941   1.687   6.896
 2646SOL    HW2 8838   0.980   1.812   6.994
 2647SOL     OW 8839   4.164   0.432   3.438
 2647SOL    HW1 8840   4.227   0.447   3.362
 2647SOL    HW2 8841   4.211   0.384   3.512
 2648SOL     OW 8842   1.913   0.640   5.875
 2648SOL    HW1 8843   1.909   0.714   5.943
 2648SOL    HW2 8844   1.997   0.588   5.887
 2649SOL     OW 8845   6.137   1.807   3.847
 2649SOL    HW1 8846   6.063   1.848   3.794
 2649SOL    HW2 8847   6.200   1.878   3.878
 2650SOL     OW 8848   1.881   6.842   4.464
 2650SOL    HW1 8849   1.856   6.754   4.423
 2650SOL    HW2 8850   1.800   6.901   4.468
 2651SOL     OW 8851   3.357   2.060   2.765
 2651SOL    HW1 8852   3.441   2.049   2.712
 2651SOL    HW2 8853   3.379   2.053   2.863
 2652SOL     OW 8854   4.665   3.520   6.116
 2652SOL    HW1 8855   4.676   3.617   6.098
 2652SOL    HW2 8856   4.572   3.502   6.150
 2653SOL     OW 8857   2.381   6.548   6.990
 2653SOL    HW1 8858   2.309   6.483   6.966
 2653SOL    HW2 8859   2.423   6.522   0.059
 2654SOL     OW 8860   6.934   0.427   0.830
 2654SOL    HW1 8861   6.964   0.496   0.897
 2654SOL    HW2 8862   6.988   0.344   0.841
 2655SOL     OW 8863   5.162   6.654   3.844
 2655SOL    HW1 8864   5.175   6.743   3.889
 2655SOL    HW2 8865   5.145   6.668   3.747
 2656SOL     OW 8866   4.699   6.960   5.172
 2656SOL    HW1 8867   4.796   6.980   5.159
 2656SOL    HW2 8868   4.645   7.008   5.102
 2657SOL     OW 8869   1.837   3.499   5.787
 2657SOL    HW1 8870   1.899   3.436   5.741
 2657SOL    HW2 8871   1.830   3.584   5.734
 2658SOL     OW 8872   3.745   4.478   0.850
 2658SOL    HW1 8873   3.715   4.395   0.803
 2658SOL    HW2 8874   3.775   4.454   0.943
 2659SOL     OW 8875   0.583   2.106   5.453
 2659SOL    HW1 8876   0.486   2.125   5.438
 2659SOL    HW2 8877   0.598   2.007   5.450
 2660SOL     OW 8878   1.369   1.818   0.657
 2660SOL    HW1 8879   1.310   1.897   0.643
 2660SOL    HW2 8880   1.342   1.745   0.594
 2661SOL     OW 8881   2.168   1.048   1.170
 2661SOL    HW1 8882   2.070   1.050   1.188
 2661SOL    HW2 8883   2.194   1.129   1.118
 2662SOL     OW 8884   2.588   1.562   1.667
 2662SOL    HW1 8885   2.613   1.514   1.751
 2662SOL    HW2 8886   2.559   1.496   1.598
 2663SOL     OW 8887   3.699   0.095   0.915
 2663SOL    HW1 8888   3.769   0.050   0.859
 2663SOL    HW2 8889   3.639   0.150   0.857
 2664SOL     OW 8890   4.923   3.448   5.567
 2664SOL    HW1 8891   4.975   3.533   5.564
 2664SOL    HW2 8892   4.919   3.409   5.474
 2665SOL     OW 8893   0.895   3.591   4.198
 2665SOL    HW1 8894   0.886   3.652   4.119
 2665SOL    HW2 8895   0.940   3.640   4.273
 2666SOL     OW 8896   2.041   3.829   1.604
 2666SOL    HW1 8897   1.979   3.751   1.610
 2666SOL    HW2 8898   1.991   3.909   1.571
 2667SOL     OW 8899   6.114   2.466   4.609
 2667SOL    HW1 8900   6.211   2.481   4.629
 2667SOL    HW2 8901   6.061   2.472   4.693
 2668SOL     OW 8902   5.776   1.044   4.151
 2668SOL    HW1 8903   5.715   1.058   4.229
 2668SOL    HW2 8904   5.780   0.947   4.128
 2669SOL     OW 8905   2.619   1.705   2.114
 2669SOL    HW1 8906   2.590   1.636   2.048
 2669SOL    HW2 8907   2.711   1.736   2.091
 2670SOL     OW 8908   0.418   0.157   1.095
 2670SOL    HW1 8909   0.328   0.156   1.138
 2670SOL    HW2 8910   0.477   0.220   1.146
 2671SOL     OW 8911   5.472   4.347   6.196
 2671SOL    HW1 8912   5.563   4.311   6.216
 2671SOL    HW2 8913   5.479   4.425   6.134
 2672SOL     OW 8914   1.836   1.564   2.267
 2672SOL    HW1 8915   1.843   1.491   2.336
 2672SOL    HW2 8916   1.781   1.639   2.304
 2673SOL     OW 8917   3.532   0.601   3.139
 2673SOL    HW1 8918   3.559   0.540   3.064
 2673SOL    HW2 8919   3.598   0.675   3.148
 2674SOL     OW 8920   6.002   5.974   3.373
 2674SOL    HW1 8921   5.995   5.874   3.377
 2674SOL    HW2 8922   6.077   6.000   3.312
 2675SOL     OW 8923   4.692   0.977   4.202
 2675SOL    HW1 8924   4.714   1.074   4.190
 2675SOL    HW2 8925   4.642   0.964   4.287
 2676SOL     OW 8926   4.044   3.573   5.397
 2676SOL    HW1 8927   4.017   3.669   5.397
 2676SOL    HW2 8928   4.143   3.566   5.395
 2677SOL     OW 8929   1.570   5.824   1.056
 2677SOL    HW1 8930   1.493   5.780   1.102
 2677SOL    HW2 8931   1.655   5.777   1.082
 2678SOL     OW 8932   3.544   1.960   1.912
 2678SOL    HW1 8933   3.579   2.047   1.945
 2678SOL    HW2 8934   3.507   1.907   1.988
 2679SOL     OW 8935   2.084   3.732   2.505
 2679SOL    HW1 8936   2.159   3.731   2.438
 2679SOL    HW2 8937   2.055   3.639   2.525
 2680SOL     OW 8938   6.137   1.972   6.461
 2680SOL    HW1 8939   6.197   1.895   6.441
 2680SOL    HW2 8940   6.042   1.940   6.465
 2681SOL     OW 8941   2.306   2.564   3.208
 2681SOL    HW1 8942   2.393   2.526   3.238
 2681SOL    HW2 8943   2.242   2.564   3.285
 2682SOL     OW 8944   3.350   4.056   2.507
 2682SOL    HW1 8945   3.407   4.127   2.466
 2682SOL    HW2 8946   3.320   4.085   2.598
 2683SOL     OW 8947   1.756   3.044   1.093
 2683SOL    HW1 8948   1.741   3.114   1.162
 2683SOL    HW2 8949   1.844   3.059   1.048
 2684SOL     OW 8950   5.808   0.474   4.019
 2684SOL    HW1 8951   5.869   0.425   3.957
 2684SOL    HW2 8952   5.743   0.528   3.966
 2685SOL     OW 8953   1.637   6.420   6.003
 2685SOL    HW1 8954   1.578   6.477   6.059
 2685SOL    HW2 8955   1.689   6.357   6.061
 2686SOL     OW 8956   2.252   2.654   6.016
 2686SOL    HW1 8957   2.192   2.608   6.082
 2686SOL    HW2 8958   2.292   2.735   6.059
 2687SOL     OW 8959   3.643   2.565   1.722
 2687SOL    HW1 8960   3.549   2.596   1.735
 2687SOL    HW2 8961   3.654   2.475   1.763
 2688SOL     OW 8962   4.610   2.292   0.415
 2688SOL    HW1 8963   4.591   2.346   0.497
 2688SOL    HW2 8964   4.527   2.281   0.361
 2689SOL     OW 8965   0.009   4.042   2.252
 2689SOL    HW1 8966   0.104   4.014   2.259
 2689SOL    HW2 8967   6.969   3.978   2.302
 2690SOL     OW 8968   5.151   1.278   4.419
 2690SOL    HW1 8969   5.080   1.266   4.489
 2690SOL    HW2 8970   5.159   1.375   4.397
 2691SOL     OW 8971   5.427   3.659   3.830
 2691SOL    HW1 8972   5.507   3.653   3.889
 2691SOL    HW2 8973   5.456   3.683   3.737
 2692SOL     OW 8974   1.416   5.577   1.016
 2692SOL    HW1 8975   1.480   5.553   0.943
 2692SOL    HW2 8976   1.377   5.494   1.057
 2693SOL     OW 8977   0.865   6.076   2.495
 2693SOL    HW1 8978   0.794   6.139   2.528
 2693SOL    HW2 8979   0.946   6.128   2.469
 2694SOL     OW 8980   2.324   0.487   3.097
 2694SOL    HW1 8981   2.395   0.418   3.112
 2694SOL    HW2 8982   2.340   0.533   3.010
 2695SOL     OW 8983   6.760   6.023   3.179
 2695SOL    HW1 8984   6.734   6.023   3.276
 2695SOL    HW2 8985   6.701   5.960   3.129
 2696SOL     OW 8986   3.476   4.732   6.266
 2696SOL    HW1 8987   3.520   4.775   6.345
 2696SOL    HW2 8988   3.406   4.793   6.229
 2697SOL     OW 8989   4.622   2.702   0.604
 2697SOL    HW1 8990   4.613   2.736   0.510
 2697SOL    HW2 8991   4.561   2.754   0.664
 2698SOL     OW 8992   1.735   5.568   0.303
 2698SOL    HW1 8993   1.814   5.628   0.296
 2698SOL    HW2 8994   1.686   5.588   0.388
 2699SOL     OW 8995   2.793   6.795   2.737
 2699SOL    HW1 8996   2.825   6.702   2.756
 2699SOL    HW2 8997   2.693   6.798   2.742
 2700SOL     OW 8998   4.527   1.934   1.483
 2700SOL    HW1 8999   4.617   1.935   1.440
 2700SOL    HW2 9000   4.522   1.859   1.548
 2701SOL     OW 9001   5.089   4.026   5.417
 2701SOL    HW1 9002   5.138   3.990   5.497
 2701SOL    HW2 9003   5.054   4.117   5.437
 2702SOL     OW 9004   1.715   1.769   4.967
 2702SOL    HW1 9005   1.635   1.829   4.974
 2702SOL    HW2 9006   1.702   1.690   5.026
 2703SOL     OW 9007   1.986   6.075   1.802
 2703SOL    HW1 9008   2.003   5.993   1.746
 2703SOL    HW2 9009   2.067   6.093   1.858
 2704SOL     OW 9010   4.416   0.768   3.771
 2704SOL    HW1 9011   4.317   0.757   3.767
 2704SOL    HW2 9012   4.455   0.699   3.832
 2705SOL     OW 9013   1.207   0.110   5.637
 2705SOL    HW1 9014   1.176   0.111   5.732
 2705SOL    HW2 9015   1.145   0.055   5.582
 2706SOL     OW 9016   0.373   4.452   4.362
 2706SOL    HW1 9017   0.290   4.461   4.416
 2706SOL    HW2 9018   0.406   4.358   4.366
 2707SOL     OW 9019   4.314   1.055   3.077
 2707SOL    HW1 9020   4.364   0.992   3.136
 2707SOL    HW2 9021   4.356   1.146   3.084
 2708SOL     OW 9022   5.461   3.117   5.455
 2708SOL    HW1 9023   5.422   3.083   5.541
 2708SOL    HW2 9024   5.498   3.209   5.470
 2709SOL     OW 9025   4.866   1.285   5.801
 2709SOL    HW1 9026   4.913   1.361   5.757
 2709SOL    HW2 9027   4.812   1.318   5.878
 2710SOL     OW 9028   1.105   2.996   4.113
 2710SOL    HW1 9029   1.125   3.023   4.207
 2710SOL    HW2 9030   1.059   3.071   4.066
 2711SOL     OW 9031   5.061   0.996   1.612
 2711SOL    HW1 9032   5.092   0.906   1.582
 2711SOL    HW2 9033   4.961   0.997   1.618
 2712SOL     OW 9034   4.909   6.380   1.859
 2712SOL    HW1 9035   4.838   6.367   1.789
 2712SOL    HW2 9036   4.957   6.466   1.842
 2713SOL     OW 9037   3.890   4.717   5.519
 2713SOL    HW1 9038   3.957   4.749   5.451
 2713SOL    HW2 9039   3.891   4.779   5.597
 2714SOL     OW 9040   2.999   4.713   6.195
 2714SOL    HW1 9041   3.027   4.619   6.216
 2714SOL    HW2 9042   2.940   4.747   6.268
 2715SOL     OW 9043   4.645   6.769   0.239
 2715SOL    HW1 9044   4.680   6.757   0.332
 2715SOL    HW2 9045   4.567   6.831   0.240
 2716SOL     OW 9046   4.566   1.210   2.385
 2716SOL    HW1 9047   4.662   1.215   2.355
 2716SOL    HW2 9048   4.542   1.116   2.406
 2717SOL     OW 9049   0.425   1.713   2.282
 2717SOL    HW1 9050   0.522   1.688   2.282
 2717SOL    HW2 9051   0.374   1.650   2.340
 2718SOL     OW 9052   6.503   1.236   5.954
 2718SOL    HW1 9053   6.466   1.155   5.999
 2718SOL    HW2 9054   6.434   1.277   5.894
 2719SOL     OW 9055   0.869   4.360   3.854
 2719SOL    HW1 9056   0.924   4.430   3.810
 2719SOL    HW2 9057   0.919   4.273   3.853
 2720SOL     OW 9058   2.010   5.201   6.331
 2720SOL    HW1 9059   2.028   5.281   6.274
 2720SOL    HW2 9060   2.096   5.163   6.363
 2721SOL     OW 9061   2.062   5.859   3.546
 2721SOL    HW1 9062   1.974   5.845   3.590
 2721SOL    HW2 9063   2.136   5.847   3.612
 2722SOL     OW 9064   3.515   4.269   6.780
 2722SOL    HW1 9065   3.434   4.218   6.749
 2722SOL    HW2 9066   3.493   4.367   6.783
 2723SOL     OW 9067   4.524   5.316   0.462
 2723SOL    HW1 9068   4.434   5.329   0.504
 2723SOL    HW2 9069   4.534   5.376   0.383
 2724SOL     OW 9070   6.763   6.110   0.926
 2724SOL    HW1 9071   6.734   6.206   0.928
 2724SOL    HW2 9072   6.802   6.090   0.836
 2725SOL     OW 9073   6.000   4.054   2.772
 2725SOL    HW1 9074   6.000   4.057   2.872
 2725SOL    HW2 9075   6.086   4.093   2.737
 2726SOL     OW 9076   6.500   2.819   2.668
 2726SOL    HW1 9077   6.483   2.866   2.582
 2726SOL    HW2 9078   6.465   2.874   2.744
 2727SOL     OW 9079   1.339   4.536   3.833
 2727SOL    HW1 9080   1.396   4.613   3.863
 2727SOL    HW2 9081   1.365   4.454   3.883
 2728SOL     OW 9082   4.717   4.908   5.927
 2728SOL    HW1 9083   4.757   4.894   5.836
 2728SOL    HW2 9084   4.679   5.000   5.933
 2729SOL     OW 9085   0.231   0.228   0.311
 2729SOL    HW1 9086   0.257   0.290   0.385
 2729SOL    HW2 9087   0.172   0.276   0.246
 2730SOL     OW 9088   1.457   5.289   3.359
 2730SOL    HW1 9089   1.424   5.356   3.425
 2730SOL    HW2 9090   1.534   5.326   3.309
 2731SOL     OW 9091   4.221   3.668   5.756
 2731SOL    HW1 9092   4.254   3.588   5.805
 2731SOL    HW2 9093   4.227   3.652   5.657
 2732SOL     OW 9094   4.257   0.768   2.343
 2732SOL    HW1 9095   4.162   0.738   2.347
 2732SOL    HW2 9096   4.315   0.703   2.392
 2733SOL     OW 9097   0.615   0.427   0.826
 2733SOL    HW1 9098   0.518   0.402   0.832
 2733SOL    HW2 9099   0.642   0.474   0.910
 2734SOL     OW 9100   3.290   0.361   1.753
 2734SOL    HW1 9101   3.250   0.349   1.843
 2734SOL    HW2 9102   3.266   0.451   1.717
 2735SOL     OW 9103   0.786   2.679   2.578
 2735SOL    HW1 9104   0.862   2.618   2.598
 2735SOL    HW2 9105   0.735   2.697   2.663
 2736SOL     OW 9106   5.410   4.510   2.654
 2736SOL    HW1 9107   5.386   4.413   2.660
 2736SOL    HW2 9108   5.488   4.528   2.714
 2737SOL     OW 9109   2.762   0.257   6.403
 2737SOL    HW1 9110   2.686   0.230   6.343
 2737SOL    HW2 9111   2.736   0.338   6.455
 2738SOL     OW 9112   5.280   6.398   1.499
 2738SOL    HW1 9113   5.379   6.383   1.511
 2738SOL    HW2 9114   5.257   6.388   1.402
 2739SOL     OW 9115   0.636   5.368   1.694
 2739SOL    HW1 9116   0.716   5.413   1.654
 2739SOL    HW2 9117   0.665   5.309   1.769
 2740SOL     OW 9118   6.648   5.724   5.422
 2740SOL    HW1 9119   6.619   5.690   5.511
 2740SOL    HW2 9120   6.614   5.664   5.350
 2741SOL     OW 9121   0.084   0.041   6.839
 2741SOL    HW1 9122   0.025   0.013   6.915
 2741SOL    HW2 9123   0.121   6.977   6.794
 2742SOL     OW 9124   2.779   4.984   2.081
 2742SOL    HW1 9125   2.699   4.943   2.036
 2742SOL    HW2 9126   2.848   4.913   2.097
 2743SOL     OW 9127   5.607   1.627   2.686
 2743SOL    HW1 9128   5.581   1.713   2.642
 2743SOL    HW2 9129   5.703   1.607   2.667
 2744SOL     OW 9130   2.837   3.532   2.835
 2744SOL    HW1 9131   2.810   3.600   2.904
 2744SOL    HW2 9132   2.798   3.444   2.859
 2745SOL     OW 9133   0.806   5.938   6.910
 2745SOL    HW1 9134   0.738   5.871   6.940
 2745SOL    HW2 9135   0.897   5.897   6.915
 2746SOL     OW 9136   1.688   0.779   4.391
 2746SOL    HW1 9137   1.787   0.791   4.388
 2746SOL    HW2 9138   1.659   0.763   4.485
 2747SOL     OW 9139   4.959   5.018   6.999
 2747SOL    HW1 9140   5.042   5.001   6.946
 2747SOL    HW2 9141   4.910   4.931   7.013
 2748SOL     OW 9142   3.993   0.197   0.264
 2748SOL    HW1 9143   3.982   0.126   0.193
 2748SOL    HW2 9144   4.090   0.206   0.287
 2749SOL     OW 9145   3.877   0.499   0.363
 2749SOL    HW1 9146   3.888   0.477   0.460
 2749SOL    HW2 9147   3.917   0.425   0.308
 2750SOL     OW 9148   1.721   5.955   1.707
 2750SOL    HW1 9149   1.688   5.872   1.752
 2750SOL    HW2 9150   1.795   5.995   1.761
 2751SOL     OW 9151   6.458   5.493   1.775
 2751SOL    HW1 9152   6.522   5.454   1.842
 2751SOL    HW2 9153   6.465   5.441   1.690
 2752SOL     OW 9154   4.144   5.096   6.428
 2752SOL    HW1 9155   4.232   5.053   6.445
 2752SOL    HW2 9156   4.119   5.083   6.332
 2753SOL     OW 9157   4.445   5.143   5.985
 2753SOL    HW1 9158   4.472   5.152   6.081
 2753SOL    HW2 9159   4.384   5.065   5.974
 2754SOL     OW 9160   1.092   0.900   4.737
 2754SOL    HW1 9161   1.100   0.927   4.641
 2754SOL    HW2 9162   1.161   0.832   4.759
 2755SOL     OW 9163   3.602   7.013   2.341
 2755SOL    HW1 9164   3.568   6.949   2.410
 2755SOL    HW2 9165   3.532   0.063   2.321
 2756SOL     OW 9166   4.763   5.179   6.052
 2756SOL    HW1 9167   4.857   5.145   6.049
 2756SOL    HW2 9168   4.763   5.277   6.071
 2757SOL     OW 9169   1.009   4.695   0.730
 2757SOL    HW1 9170   1.071   4.691   0.652
 2757SOL    HW2 9171   0.958   4.782   0.727
 2758SOL     OW 9172   4.756   0.234   6.042
 2758SOL    HW1 9173   4.773   0.285   6.127
 2758SOL    HW2 9174   4.836   0.241   5.983
 2759SOL     OW 9175   4.753   5.047   3.291
 2759SOL    HW1 9176   4.766   5.006   3.381
 2759SOL    HW2 9177   4.675   5.110   3.294
 2760SOL     OW 9178   0.588   6.076   3.651
 2760SOL    HW1 9179   0.578   6.021   3.735
 2760SOL    HW2 9180   0.605   6.171   3.676
 2761SOL     OW 9181   2.636   4.758   4.998
 2761SOL    HW1 9182   2.714   4.697   5.015
 2761SOL    HW2 9183   2.637   4.832   5.065
 2762SOL     OW 9184   1.758   2.409   5.796
 2762SOL    HW1 9185   1.704   2.355   5.862
 2762SOL    HW2 9186   1.846   2.364   5.782
 2763SOL     OW 9187   5.397   0.192   2.201
 2763SOL    HW1 9188   5.356   0.101   2.192
 2763SOL    HW2 9189   5.462   0.191   2.278
 2764SOL     OW 9190   6.356   0.599   1.806
 2764SOL    HW1 9191   6.259   0.614   1.826
 2764SOL    HW2 9192   6.394   0.532   1.870
 2765SOL     OW 9193   5.317   1.648   3.811
 2765SOL    HW1 9194   5.225   1.664   3.777
 2765SOL    HW2 9195   5.325   1.552   3.840
 2766SOL     OW 9196   5.629   6.774   2.338
 2766SOL    HW1 9197   5.694   6.825   2.395
 2766SOL    HW2 9198   5.678   6.734   2.260
 2767SOL     OW 9199   6.310   4.016   5.423
 2767SOL    HW1 9200   6.288   4.067   5.506
 2767SOL    HW2 9201   6.335   3.923   5.447
 2768SOL     OW 9202   5.476   0.532   6.469
 2768SOL    HW1 9203   5.537   0.527   6.390
 2768SOL    HW2 9204   5.387   0.569   6.441
 2769SOL     OW 9205   1.304   3.914   0.955
 2769SOL    HW1 9206   1.291   3.959   0.866
 2769SOL    HW2 9207   1.398   3.879   0.961
 2770SOL     OW 9208   4.719   5.967   2.173
 2770SOL    HW1 9209   4.688   6.054   2.135
 2770SOL    HW2 9210   4.662   5.942   2.251
 2771SOL     OW 9211   4.366   0.574   1.504
 2771SOL    HW1 9212   4.392   0.478   1.498
 2771SOL    HW2 9213   4.426   0.628   1.446
 2772SOL     OW 9214   3.485   0.838   0.236
 2772SOL    HW1 9215   3.535   0.766   0.285
 2772SOL    HW2 9216   3.472   0.916   0.297
 2773SOL     OW 9217   3.003   4.463   1.420
 2773SOL    HW1 9218   3.023   4.405   1.341
 2773SOL    HW2 9219   2.992   4.406   1.501
 2774SOL     OW 9220   4.944   2.879   1.889
 2774SOL    HW1 9221   4.894   2.796   1.865
 2774SOL    HW2 9222   4.879   2.950   1.917
 2775SOL     OW 9223   0.316   0.007   2.398
 2775SOL    HW1 9224   0.286   6.948   2.453
 2775SOL    HW2 9225   0.413   7.014   2.376
 2776SOL     OW 9226   2.888   5.983   6.916
 2776SOL    HW1 9227   2.930   6.038   6.844
 2776SOL    HW2 9228   2.925   5.890   6.912
 2777SOL     OW 9229   1.345   2.598   3.991
 2777SOL    HW1 9230   1.296   2.511   3.987
 2777SOL    HW2 9231   1.361   2.632   3.899
 2778SOL     OW 9232   3.117   2.221   5.355
 2778SOL    HW1 9233   3.147   2.297   5.297
 2778SOL    HW2 9234   3.074   2.151   5.299
 2779SOL     OW 9235   6.394   0.557   0.604
 2779SOL    HW1 9236   6.340   0.610   0.668
 2779SOL    HW2 9237   6.379   0.459   0.619
 2780SOL     OW 9238   3.445   5.939   6.444
 2780SOL    HW1 9239   3.435   5.985   6.532
 2780SOL    HW2 9240   3.527   5.972   6.399
 2781SOL     OW 9241   5.308   4.022   6.581
 2781SOL    HW1 9242   5.376   3.949   6.588
 2781SOL    HW2 9243   5.317   4.068   6.493
 2782SOL     OW 9244   3.499   0.668   5.215
 2782SOL    HW1 9245   3.563   0.721   5.271
 2782SOL    HW2 9246   3.444   0.609   5.274
 2783SOL     OW 9247   0.348   3.947   5.081
 2783SOL    HW1 9248   0.383   3.893   5.005
 2783SOL    HW2 9249   0.424   3.981   5.136
 2784SOL     OW 9250   2.745   2.029   1.448
 2784SOL    HW1 9251   2.737   2.081   1.363
 2784SOL    HW2 9252   2.715   2.085   1.525
 2785SOL     OW 9253   6.019   2.482   2.353
 2785SOL    HW1 9254   6.050   2.565   2.306
 2785SOL    HW2 9255   6.098   2.425   2.377
 2786SOL     OW 9256   3.687   0.344   1.282
 2786SOL    HW1 9257   3.639   0.312   1.363
 2786SOL    HW2 9258   3.621   0.376   1.214
 2787SOL     OW 9259   1.754   4.293   6.109
 2787SOL    HW1 9260   1.693   4.328   6.037
 2787SOL    HW2 9261   1.847   4.285   6.073
 2788SOL     OW 9262   1.421   3.080   0.535
 2788SOL    HW1 9263   1.382   3.032   0.614
 2788SOL    HW2 9264   1.500   3.028   0.500
 2789SOL     OW 9265   6.927   3.467   3.520
 2789SOL    HW1 9266   6.933   3.418   3.433
 2789SOL    HW2 9267   6.967   3.558   3.511
 2790SOL     OW 9268   3.546   6.210   4.445
 2790SOL    HW1 9269   3.520   6.132   4.503
 2790SOL    HW2 9270   3.536   6.184   4.349
 2791SOL     OW 9271   2.103   3.361   2.377
 2791SOL    HW1 9272   2.180   3.315   2.420
 2791SOL    HW2 9273   2.041   3.396   2.447
 2792SOL     OW 9274   0.410   1.823   6.170
 2792SOL    HW1 9275   0.379   1.834   6.076
 2792SOL    HW2 9276   0.456   1.734   6.180
 2793SOL     OW 9277   4.643   0.611   4.499
 2793SOL    HW1 9278   4.664   0.640   4.405
 2793SOL    HW2 9279   4.625   0.513   4.500
 2794SOL     OW 9280   1.066   1.513   2.139
 2794SOL    HW1 9281   1.028   1.569   2.214
 2794SOL    HW2 9282   1.089   1.573   2.062
 2795SOL     OW 9283   0.624   3.660   0.674
 2795SOL    HW1 9284   0.592   3.686   0.765
 2795SOL    HW2 9285   0.560   3.695   0.605
 2796SOL     OW 9286   3.975   5.010   2.014
 2796SOL    HW1 9287   3.906   4.973   2.076
 2796SOL    HW2 9288   3.962   5.109   2.006
 2797SOL     OW 9289   4.870   4.266   5.194
 2797SOL    HW1 9290   4.787   4.211   5.200
 2797SOL    HW2 9291   4.950   4.206   5.191
 2798SOL     OW 9292   2.078   3.641   3.048
 2798SOL    HW1 9293   2.015   3.689   2.987
 2798SOL    HW2 9294   2.051   3.545   3.056
 2799SOL     OW 9295   6.709   5.641   5.919
 2799SOL    HW1 9296   6.711   5.696   6.003
 2799SOL    HW2 9297   6.743   5.549   5.939
 2800SOL     OW 9298   2.539   0.472   6.345
 2800SOL    HW1 9299   2.468   0.542   6.360
 2800SOL    HW2 9300   2.527   0.433   6.254
 2801SOL     OW 9301   3.896   5.380   1.718
 2801SOL    HW1 9302   3.801   5.408   1.734
 2801SOL    HW2 9303   3.897   5.289   1.676
 2802SOL     OW 9304   6.360   0.149   6.381
 2802SOL    HW1 9305   6.458   0.148   6.403
 2802SOL    HW2 9306   6.342   0.088   6.304
 2803SOL     OW 9307   2.604   5.999   4.781
 2803SOL    HW1 9308   2.558   5.972   4.866
 2803SOL    HW2 9309   2.619   5.918   4.724
 2804SOL     OW 9310   0.736   4.926   2.810
 2804SOL    HW1 9311   0.756   5.024   2.820
 2804SOL    HW2 9312   0.785   4.890   2.731
 2805SOL     OW 9313   6.820   3.946   6.374
 2805SOL    HW1 9314   6.876   4.002   6.435
 2805SOL    HW2 9315   6.833   3.850   6.396
 2806SOL     OW 9316   6.134   4.796   2.641
 2806SOL    HW1 9317   6.222   4.805   2.688
 2806SOL    HW2 9318   6.149   4.771   2.546
 2807SOL     OW 9319   3.880   5.043   3.380
 2807SOL    HW1 9320   3.895   5.060   3.283
 2807SOL    HW2 9321   3.841   4.952   3.392
 2808SOL     OW 9322   4.684   6.838   4.706
 2808SOL    HW1 9323   4.643   6.747   4.709
 2808SOL    HW2 9324   4.746   6.844   4.628
 2809SOL     OW 9325   5.498   1.910   0.302
 2809SOL    HW1 9326   5.528   1.829   0.352
 2809SOL    HW2 9327   5.441   1.967   0.361
 2810SOL     OW 9328   2.135   1.126   6.239
 2810SOL    HW1 9329   2.233   1.108   6.240
 2810SOL    HW2 9330   2.088   1.051   6.286
 2811SOL     OW 9331   0.385   0.554   4.220
 2811SOL    HW1 9332   0.344   0.645   4.211
 2811SOL    HW2 9333   0.392   0.512   4.129
 2812SOL     OW 9334   4.813   4.383   2.974
 2812SOL    HW1 9335   4.822   4.295   3.020
 2812SOL    HW2 9336   4.798   4.455   3.042
 2813SOL     OW 9337   6.135   1.878   5.856
 2813SOL    HW1 9338   6.233   1.893   5.869
 2813SOL    HW2 9339   6.097   1.950   5.797
 2814SOL     OW 9340   5.477   4.833   5.515
 2814SOL    HW1 9341   5.401   4.770   5.529
 2814SOL    HW2 9342   5.454   4.923   5.551
 2815SOL     OW 9343   1.616   1.023   3.823
 2815SOL    HW1 9344   1.709   0.986   3.829
 2815SOL    HW2 9345   1.551   0.949   3.836
 2816SOL     OW 9346   4.335   6.303   3.384
 2816SOL    HW1 9347   4.378   6.222   3.423
 2816SOL    HW2 9348   4.263   6.275   3.320
 2817SOL     OW 9349   1.313   1.546   1.313
 2817SOL    HW1 9350   1.295   1.556   1.411
 2817SOL    HW2 9351   1.405   1.579   1.292
 2818SOL     OW 9352   1.435   2.267   6.597
 2818SOL    HW1 9353   1.497   2.317   6.658
 2818SOL    HW2 9354   1.438   2.309   6.506
 2819SOL     OW 9355   6.452   3.587   1.796
 2819SOL    HW1 9356   6.427   3.498   1.757
 2819SOL    HW2 9357   6.465   3.653   1.723
 2820SOL     OW 9358   5.155   3.179   4.032
 2820SOL    HW1 9359   5.193   3.091   4.061
 2820SOL    HW2 9360   5.192   3.252   4.090
 2821SOL     OW 9361   1.428   3.219   2.630
 2821SOL    HW1 9362   1.511   3.185   2.673
 2821SOL    HW2 9363   1.384   3.285   2.689
 2822SOL     OW 9364   3.474   2.439   0.591
 2822SOL    HW1 9365   3.465   2.409   0.496
 2822SOL    HW2 9366   3.504   2.534   0.593
 2823SOL     OW 9367   1.311   0.413   4.465
 2823SOL    HW1 9368   1.347   0.333   4.513
 2823SOL    HW2 9369   1.315   0.398   4.367
 2824SOL     OW 9370   3.605   2.316   6.109
 2824SOL    HW1 9371   3.625   2.318   6.207
 2824SOL    HW2 9372   3.514   2.354   6.092
 2825SOL     OW 9373   5.706   5.931   1.103
 2825SOL    HW1 9374   5.749   6.021   1.101
 2825SOL    HW2 9375   5.635   5.928   1.173
 2826SOL     OW 9376   5.260   3.825   4.375
 2826SOL    HW1 9377   5.247   3.756   4.446
 2826SOL    HW2 9378   5.172   3.862   4.347
 2827SOL     OW 9379   0.022   0.120   6.246
 2827SOL    HW1 9380   6.956   0.075   6.277
 2827SOL    HW2 9381   0.100   0.079   6.292
 2828SOL     OW 9382   3.609   2.350   6.512
 2828SOL    HW1 9383   3.528   2.317   6.463
 2828SOL    HW2 9384   3.584   2.428   6.569
 2829SOL     OW 9385   2.961   1.382   6.965
 2829SOL    HW1 9386   2.955   1.398   6.866
 2829SOL    HW2 9387   2.966   1.284   6.983
 2830SOL     OW 9388   3.217   3.857   6.757
 2830SOL    HW1 9389   3.215   3.956   6.771
 2830SOL    HW2 9390   3.133   3.817   6.793
 2831SOL     OW 9391   6.664   6.569   4.190
 2831SOL    HW1 9392   6.601   6.503   4.230
 2831SOL    HW2 9393   6.622   6.612   4.110
 2832SOL     OW 9394   0.308   0.813   2.419
 2832SOL    HW1 9395   0.236   0.847   2.480
 2832SOL    HW2 9396   0.354   0.735   2.461
 2833SOL     OW 9397   5.881   3.378   2.529
 2833SOL    HW1 9398   5.921   3.444   2.466
 2833SOL    HW2 9399   5.782   3.382   2.524
 2834SOL     OW 9400   4.221   0.805   5.269
 2834SOL    HW1 9401   4.173   0.733   5.320
 2834SOL    HW2 9402   4.172   0.824   5.184
 2835SOL     OW 9403   6.177   6.521   3.029
 2835SOL    HW1 9404   6.268   6.519   2.989
 2835SOL    HW2 9405   6.163   6.608   3.076
 2836SOL     OW 9406   6.362   6.887   1.445
 2836SOL    HW1 9407   6.335   6.798   1.407
 2836SOL    HW2 9408   6.299   6.912   1.519
 2837SOL     OW 9409   5.946   2.279   4.102
 2837SOL    HW1 9410   5.859   2.230   4.096
 2837SOL    HW2 9411   5.980   2.297   4.010
 2838SOL     OW 9412   1.847   4.663   4.404
 2838SOL    HW1 9413   1.801   4.595   4.347
 2838SOL    HW2 9414   1.815   4.655   4.498
 2839SOL     OW 9415   5.322   2.982   0.767
 2839SOL    HW1 9416   5.255   2.908   0.758
 2839SOL    HW2 9417   5.291   3.060   0.713
 2840SOL     OW 9418   0.180   2.813   4.730
 2840SOL    HW1 9419   0.175   2.740   4.662
 2840SOL    HW2 9420   0.262   2.801   4.785
 2841SOL     OW 9421   0.095   5.950   7.012
 2841SOL    HW1 9422   0.082   5.961   6.913
 2841SOL    HW2 9423   0.033   5.879   0.028
 2842SOL     OW 9424   5.889   3.352   2.803
 2842SOL    HW1 9425   5.880   3.362   2.704
 2842SOL    HW2 9426   5.800   3.331   2.842
 2843SOL     OW 9427   3.961   0.607   3.437
 2843SOL    HW1 9428   3.887   0.571   3.381
 2843SOL    HW2 9429   4.030   0.536   3.452
 2844SOL     OW 9430   1.401   4.399   5.226
 2844SOL    HW1 9431   1.429   4.406   5.131
 2844SOL    HW2 9432   1.474   4.355   5.279
 2845SOL     OW 9433   0.496   4.198   6.519
 2845SOL    HW1 9434   0.534   4.150   6.598
 2845SOL    HW2 9435   0.448   4.133   6.460
 2846SOL     OW 9436   5.396   1.194   6.147
 2846SOL    HW1 9437   5.414   1.127   6.219
 2846SOL    HW2 9438   5.337   1.153   6.078
 2847SOL     OW 9439   4.226   4.876   4.182
 2847SOL    HW1 9440   4.244   4.961   4.132
 2847SOL    HW2 9441   4.225   4.894   4.280
 2848SOL     OW 9442   2.360   6.884   5.668
 2848SOL    HW1 9443   2.358   6.799   5.614
 2848SOL    HW2 9444   2.274   6.893   5.719
 2849SOL     OW 9445   2.180   2.738   1.441
 2849SOL    HW1 9446   2.278   2.734   1.418
 2849SOL    HW2 9447   2.143   2.645   1.445
 2850SOL     OW 9448   4.367   1.820   0.724
 2850SOL    HW1 9449   4.460   1.855   0.732
 2850SOL    HW2 9450   4.317   1.838   0.809
 2851SOL     OW 9451   2.971   5.690   5.270
 2851SOL    HW1 9452   2.957   5.783   5.304
 2851SOL    HW2 9453   2.912   5.627   5.320
 2852SOL     OW 9454   0.229   2.171   6.575
 2852SOL    HW1 9455   0.211   2.109   6.651
 2852SOL    HW2 9456   0.144   2.185   6.524
 2853SOL     OW 9457   3.862   2.715   1.232
 2853SOL    HW1 9458   3.824   2.623   1.240
 2853SOL    HW2 9459   3.828   2.772   1.306
 2854SOL     OW 9460   0.501   0.767   3.709
 2854SOL    HW1 9461   0.477   0.675   3.679
 2854SOL    HW2 9462   0.503   0.829   3.631
 2855SOL     OW 9463   3.079   1.663   4.249
 2855SOL    HW1 9464   3.158   1.717   4.278
 2855SOL    HW2 9465   3.007   1.724   4.217
 2856SOL     OW 9466   3.183   1.422   5.787
 2856SOL    HW1 9467   3.133   1.467   5.713
 2856SOL    HW2 9468   3.155   1.327   5.794
 2857SOL     OW 9469   3.527   2.856   3.929
 2857SOL    HW1 9470   3.432   2.873   3.956
 2857SOL    HW2 9471   3.567   2.787   3.989
 2858SOL     OW 9472   5.173   2.579   2.971
 2858SOL    HW1 9473   5.199   2.663   2.922
 2858SOL    HW2 9474   5.086   2.546   2.934
 2859SOL     OW 9475   5.728   5.403   6.808
 2859SOL    HW1 9476   5.820   5.425   6.841
 2859SOL    HW2 9477   5.732   5.384   6.710
 2860SOL     OW 9478   4.478   2.703   0.957
 2860SOL    HW1 9479   4.460   2.605   0.954
 2860SOL    HW2 9480   4.576   2.719   0.945
 2861SOL     OW 9481   4.459   4.522   5.845
 2861SOL    HW1 9482   4.448   4.439   5.900
 2861SOL    HW2 9483   4.398   4.519   5.767
 2862SOL     OW 9484   6.559   6.576   3.643
 2862SOL    HW1 9485   6.507   6.550   3.561
 2862SOL    HW2 9486   6.621   6.503   3.668
 2863SOL     OW 9487   5.819   0.130   0.171
 2863SOL    HW1 9488   5.758   0.053   0.155
 2863SOL    HW2 9489   5.831   0.143   0.269
 2864SOL     OW 9490   4.258   2.594   0.699
 2864SOL    HW1 9491   4.241   2.557   0.790
 2864SOL    HW2 9492   4.339   2.654   0.702
 2865SOL     OW 9493   4.635   5.085   5.091
 2865SOL    HW1 9494   4.732   5.087   5.069
 2865SOL    HW2 9495   4.587   5.027   5.025
 2866SOL     OW 9496   0.229   0.055   6.414
 2866SOL    HW1 9497   0.224   0.110   6.497
 2866SOL    HW2 9498   0.275   6.986   6.434
 2867SOL     OW 9499   6.018   4.154   4.770
 2867SOL    HW1 9500   5.945   4.088   4.788
 2867SOL    HW2 9501   5.984   4.247   4.788
 2868SOL     OW 9502   1.970   4.813   4.851
 2868SOL    HW1 9503   1.883   4.837   4.808
 2868SOL    HW2 9504   2.040   4.804   4.780
 2869SOL     OW 9505   6.124   1.400   2.320
 2869SOL    HW1 9506   6.114   1.496   2.295
 2869SOL    HW2 9507   6.106   1.343   2.239
 2870SOL     OW 9508   4.458   2.066   1.709
 2870SOL    HW1 9509   4.400   2.148   1.715
 2870SOL    HW2 9510   4.471   2.042   1.613
 2871SOL     OW 9511   1.239   1.441   5.579
 2871SOL    HW1 9512   1.157   1.439   5.636
 2871SOL    HW2 9513   1.240   1.525   5.524
 2872SOL     OW 9514   1.595   0.143   3.978
 2872SOL    HW1 9515   1.589   0.237   4.011
 2872SOL    HW2 9516   1.611   0.144   3.879
 2873SOL     OW 9517   6.448   5.274   2.247
 2873SOL    HW1 9518   6.380   5.294   2.176
 2873SOL    HW2 9519   6.404   5.224   2.322
 2874SOL     OW 9520   5.082   2.171   1.882
 2874SOL    HW1 9521   5.144   2.243   1.915
 2874SOL    HW2 9522   5.049   2.117   1.959
 2875SOL     OW 9523   2.977   4.697   0.717
 2875SOL    HW1 9524   2.879   4.699   0.739
 2875SOL    HW2 9525   2.989   4.708   0.619
 2876SOL     OW 9526   5.719   2.196   1.893
 2876SOL    HW1 9527   5.623   2.191   1.864
 2876SOL    HW2 9528   5.723   2.210   1.992
 2877SOL     OW 9529   1.177   3.620   5.701
 2877SOL    HW1 9530   1.206   3.624   5.797
 2877SOL    HW2 9531   1.254   3.591   5.644
 2878SOL     OW 9532   4.779   4.960   0.377
 2878SOL    HW1 9533   4.721   4.978   0.456
 2878SOL    HW2 9534   4.831   5.042   0.354
 2879SOL     OW 9535   4.934   4.472   6.842
 2879SOL    HW1 9536   4.983   4.388   6.866
 2879SOL    HW2 9537   4.902   4.465   6.748
 2880SOL     OW 9538   1.754   6.584   3.214
 2880SOL    HW1 9539   1.786   6.490   3.228
 2880SOL    HW2 9540   1.659   6.582   3.185
 2881SOL     OW 9541   6.785   0.182   6.982
 2881SOL    HW1 9542   6.811   0.101   0.017
 2881SOL    HW2 9543   6.721   0.237   0.019
 2882SOL     OW 9544   6.488   4.000   3.497
 2882SOL    HW1 9545   6.515   4.096   3.489
 2882SOL    HW2 9546   6.570   3.942   3.497
 2883SOL     OW 9547   3.458   6.521   2.493
 2883SOL    HW1 9548   3.391   6.459   2.452
 2883SOL    HW2 9549   3.409   6.596   2.539
 2884SOL     OW 9550   1.932   4.985   3.096
 2884SOL    HW1 9551   1.839   4.957   3.120
 2884SOL    HW2 9552   1.942   4.982   2.996
 2885SOL     OW 9553   1.157   2.149   4.737
 2885SOL    HW1 9554   1.236   2.087   4.734
 2885SOL    HW2 9555   1.188   2.244   4.733
 2886SOL     OW 9556   2.492   2.719   6.188
 2886SOL    HW1 9557   2.539   2.793   6.236
 2886SOL    HW2 9558   2.411   2.691   6.241
 2887SOL     OW 9559   2.521   0.920   5.172
 2887SOL    HW1 9560   2.528   0.873   5.259
 2887SOL    HW2 9561   2.612   0.927   5.130
 2888SOL     OW 9562   6.851   5.954   6.416
 2888SOL    HW1 9563   6.946   5.945   6.446
 2888SOL    HW2 9564   6.790   5.913   6.485
 2889SOL     OW 9565   1.133   0.974   0.610
 2889SOL    HW1 9566   1.221   0.970   0.563
 2889SOL    HW2 9567   1.147   1.003   0.705
 2890SOL     OW 9568   2.552   0.495   1.087
 2890SOL    HW1 9569   2.584   0.550   1.010
 2890SOL    HW2 9570   2.624   0.488   1.155
 2891SOL     OW 9571   3.014   4.816   5.144
 2891SOL    HW1 9572   2.952   4.745   5.112
 2891SOL    HW2 9573   3.062   4.784   5.226
 2892SOL     OW 9574   4.216   3.809   5.295
 2892SOL    HW1 9575   4.261   3.894   5.322
 2892SOL    HW2 9576   4.167   3.823   5.209
 2893SOL     OW 9577   3.096   0.493   5.015
 2893SOL    HW1 9578   3.085   0.476   5.113
 2893SOL    HW2 9579   3.007   0.486   4.970
 2894SOL     OW 9580   4.073   3.238   1.880
 2894SOL    HW1 9581   4.079   3.328   1.836
 2894SOL    HW2 9582   4.138   3.175   1.836
 2895SOL     OW 9583   3.790   2.795   0.141
 2895SOL    HW1 9584   3.787   2.785   0.042
 2895SOL    HW2 9585   3.768   2.890   0.165
 2896SOL     OW 9586   1.438   4.678   0.110
 2896SOL    HW1 9587   1.519   4.689   0.168
 2896SOL    HW2 9588   1.409   4.767   0.076
 2897SOL     OW 9589   0.542   6.764   3.285
 2897SOL    HW1 9590   0.550   6.858   3.317
 2897SOL    HW2 9591   0.613   6.708   3.328
 2898SOL     OW 9592   1.779   5.139   2.867
 2898SOL    HW1 9593   1.724   5.187   2.799
 2898SOL    HW2 9594   1.741   5.155   2.958
 2899SOL     OW 9595   5.608   0.621   1.099
 2899SOL    HW1 9596   5.519   0.577   1.111
 2899SOL    HW2 9597   5.666   0.599   1.178
 2900SOL     OW 9598   2.509   5.498   6.637
 2900SOL    HW1 9599   2.477   5.582   6.681
 2900SOL    HW2 9600   2.564   5.446   6.702
 2901SOL     OW 9601   2.811   6.493   1.623
 2901SOL    HW1 9602   2.878   6.445   1.566
 2901SOL    HW2 9603   2.858   6.540   1.698
 2902SOL     OW 9604   4.547   5.209   0.970
 2902SOL    HW1 9605   4.537   5.260   1.056
 2902SOL    HW2 9606   4.616   5.254   0.913
 2903SOL     OW 9607   3.054   2.658   1.764
 2903SOL    HW1 9608   3.007   2.576   1.795
 2903SOL    HW2 9609   3.152   2.641   1.759
 2904SOL     OW 9610   2.885   1.931   4.390
 2904SOL    HW1 9611   2.938   1.870   4.448
 2904SOL    HW2 9612   2.927   2.022   4.389
 2905SOL     OW 9613   1.024   2.279   1.825
 2905SOL    HW1 9614   0.945   2.219   1.831
 2905SOL    HW2 9615   1.089   2.257   1.898
 2906SOL     OW 9616   5.275   5.083   2.542
 2906SOL    HW1 9617   5.333   5.051   2.617
 2906SOL    HW2 9618   5.183   5.103   2.577
 2907SOL     OW 9619   5.600   0.364   5.142
 2907SOL    HW1 9620   5.579   0.462   5.137
 2907SOL    HW2 9621   5.682   0.346   5.088
 2908SOL     OW 9622   4.100   6.262   4.651
 2908SOL    HW1 9623   4.051   6.322   4.587
 2908SOL    HW2 9624   4.065   6.168   4.642
 2909SOL     OW 9625   2.198   5.969   5.696
 2909SOL    HW1 9626   2.209   5.909   5.775
 2909SOL    HW2 9627   2.277   5.959   5.636
 2910SOL     OW 9628   3.997   5.312   5.050
 2910SOL    HW1 9629   3.910   5.267   5.032
 2910SOL    HW2 9630   3.981   5.409   5.069
 2911SOL     OW 9631   2.408   4.581   2.995
 2911SOL    HW1 9632   2.327   4.635   3.022
 2911SOL    HW2 9633   2.413   4.499   3.052
 2912SOL     OW 9634   2.698   5.041   1.316
 2912SOL    HW1 9635   2.599   5.039   1.320
 2912SOL    HW2 9636   2.732   4.952   1.285
 2913SOL     OW 9637   0.177   2.676   1.180
 2913SOL    HW1 9638   0.167   2.622   1.096
 2913SOL    HW2 9639   0.169   2.616   1.260
 2914SOL     OW 9640   5.030   4.365   6.276
 2914SOL    HW1 9641   5.039   4.377   6.375
 2914SOL    HW2 9642   5.011   4.269   6.255
 2915SOL     OW 9643   4.678   1.106   3.123
 2915SOL    HW1 9644   4.678   1.016   3.166
 2915SOL    HW2 9645   4.765   1.152   3.143
 2916SOL     OW 9646   4.993   0.273   4.323
 2916SOL    HW1 9647   5.043   0.203   4.373
 2916SOL    HW2 9648   5.058   0.337   4.282
 2917SOL     OW 9649   4.057   0.084   2.180
 2917SOL    HW1 9650   4.115   0.025   2.123
 2917SOL    HW2 9651   4.115   0.148   2.231
 2918SOL     OW 9652   1.152   3.437   4.500
 2918SOL    HW1 9653   1.234   3.384   4.521
 2918SOL    HW2 9654   1.125   3.420   4.405
 2919SOL     OW 9655   5.525   5.559   0.146
 2919SOL    HW1 9656   5.521   5.460   0.128
 2919SOL    HW2 9657   5.467   5.580   0.225
 2920SOL     OW 9658   4.447   1.265   2.875
 2920SOL    HW1 9659   4.383   1.190   2.859
 2920SOL    HW2 9660   4.503   1.279   2.793
 2921SOL     OW 9661   6.542   1.554   0.655
 2921SOL    HW1 9662   6.459   1.514   0.616
 2921SOL    HW2 9663   6.610   1.565   0.583
 2922SOL     OW 9664   4.877   0.341   4.881
 2922SOL    HW1 9665   4.915   0.335   4.788
 2922SOL    HW2 9666   4.784   0.376   4.877
 2923SOL     OW 9667   0.488   4.343   6.794
 2923SOL    HW1 9668   0.481   4.412   6.866
 2923SOL    HW2 9669   0.412   4.278   6.802
 2924SOL     OW 9670   6.198   6.882   6.447
 2924SOL    HW1 9671   6.275   6.888   6.509
 2924SOL    HW2 9672   6.133   6.814   6.481
 2925SOL     OW 9673   6.509   4.350   0.305
 2925SOL    HW1 9674   6.544   4.278   0.244
 2925SOL    HW2 9675   6.418   4.378   0.274
 2926SOL     OW 9676   0.061   1.249   2.771
 2926SOL    HW1 9677   6.999   1.285   2.724
 2926SOL    HW2 9678   0.036   1.164   2.819
 2927SOL     OW 9679   6.763   3.316   2.841
 2927SOL    HW1 9680   6.702   3.305   2.763
 2927SOL    HW2 9681   6.712   3.352   2.919
 2928SOL     OW 9682   5.442   6.075   0.826
 2928SOL    HW1 9683   5.452   5.978   0.806
 2928SOL    HW2 9684   5.390   6.120   0.754
 2929SOL     OW 9685   0.400   0.512   5.460
 2929SOL    HW1 9686   0.306   0.481   5.474
 2929SOL    HW2 9687   0.404   0.611   5.472
 2930SOL     OW 9688   2.513   0.220   4.099
 2930SOL    HW1 9689   2.575   0.296   4.076
 2930SOL    HW2 9690   2.425   0.234   4.054
 2931SOL     OW 9691   4.437   4.776   6.268
 2931SOL    HW1 9692   4.411   4.872   6.275
 2931SOL    HW2 9693   4.368   4.727   6.215
 2932SOL     OW 9694   1.037   4.546   1.550
 2932SOL    HW1 9695   1.091   4.568   1.469
 2932SOL    HW2 9696   0.940   4.559   1.530
 2933SOL     OW 9697   4.874   2.294   3.259
 2933SOL    HW1 9698   4.923   2.370   3.301
 2933SOL    HW2 9699   4.922   2.265   3.176
 2934SOL     OW 9700   1.905   1.108   1.184
 2934SOL    HW1 9701   1.862   1.194   1.157
 2934SOL    HW2 9702   1.879   1.087   1.279
 2935SOL     OW 9703   0.144   0.930   1.150
 2935SOL    HW1 9704   0.065   0.920   1.089
 2935SOL    HW2 9705   0.135   0.865   1.225
 2936SOL     OW 9706   3.844   5.028   1.266
 2936SOL    HW1 9707   3.835   4.952   1.201
 2936SOL    HW2 9708   3.927   5.016   1.319
 2937SOL     OW 9709   2.634   4.310   0.260
 2937SOL    HW1 9710   2.547   4.352   0.288
 2937SOL    HW2 9711   2.623   4.267   0.170
 2938SOL     OW 9712   4.106   5.375   6.836
 2938SOL    HW1 9713   4.113   5.475   6.829
 2938SOL    HW2 9714   4.055   5.350   6.919
 2939SOL     OW 9715   6.882   6.620   5.951
 2939SOL    HW1 9716   6.858   6.684   5.878
 2939SOL    HW2 9717   6.980   6.623   5.967
 2940SOL     OW 9718   3.483   6.976   5.769
 2940SOL    HW1 9719   3.410   7.015   5.825
 2940SOL    HW2 9720   3.525   0.029   5.713
 2941SOL     OW 9721   4.051   1.647   5.551
 2941SOL    HW1 9722   3.962   1.605   5.532
 2941SOL    HW2 9723   4.123   1.578   5.541
 2942SOL     OW 9724   3.245   6.625   4.117
 2942SOL    HW1 9725   3.293   6.630   4.030
 2942SOL    HW2 9726   3.197   6.538   4.124
 2943SOL     OW 9727   5.570   4.611   2.822
 2943SOL    HW1 9728   5.621   4.596   2.907
 2943SOL    HW2 9729   5.555   4.710   2.809
 2944SOL     OW 9730   5.178   5.918   0.275
 2944SOL    HW1 9731   5.123   5.991   0.316
 2944SOL    HW2 9732   5.271   5.952   0.260
 2945SOL     OW 9733   2.992   3.419   4.367
 2945SOL    HW1 9734   3.075   3.473   4.383
 2945SOL    HW2 9735   2.978   3.357   4.445
 2946SOL     OW 9736   1.008   6.328   5.397
 2946SOL    HW1 9737   0.917   6.294   5.375
 2946SOL    HW2 9738   1.074   6.292   5.331
 2947SOL     OW 9739   6.953   5.241   6.559
 2947SOL    HW1 9740   6.972   5.331   6.519
 2947SOL    HW2 9741   6.963   5.247   6.658
 2948SOL     OW 9742   6.218   3.310   5.485
 2948SOL    HW1 9743   6.250   3.324   5.578
 2948SOL    HW2 9744   6.293   3.328   5.421
 2949SOL     OW 9745   0.650   6.522   0.641
 2949SOL    HW1 9746   0.641   6.423   0.655
 2949SOL    HW2 9747   0.740   6.542   0.603
 2950SOL     OW 9748   4.957   3.357   5.021
 2950SOL    HW1 9749   5.046   3.313   5.014
 2950SOL    HW2 9750   4.891   3.308   4.963
 2951SOL     OW 9751   5.820   0.427   0.174
 2951SOL    HW1 9752   5.847   0.331   0.172
 2951SOL    HW2 9753   5.895   0.482   0.211
 2952SOL     OW 9754   0.627   3.234   1.668
 2952SOL    HW1 9755   0.589   3.149   1.703
 2952SOL    HW2 9756   0.563   3.309   1.685
 2953SOL     OW 9757   5.809   1.755   1.820
 2953SOL    HW1 9758   5.860   1.812   1.883
 2953SOL    HW2 9759   5.824   1.659   1.842
 2954SOL     OW 9760   5.006   5.917   2.065
 2954SOL    HW1 9761   4.965   5.827   2.052
 2954SOL    HW2 9762   4.938   5.980   2.104
 2955SOL     OW 9763   5.798   1.583   1.262
 2955SOL    HW1 9764   5.806   1.556   1.358
 2955SOL    HW2 9765   5.865   1.532   1.208
 2956SOL     OW 9766   5.872   6.357   3.827
 2956SOL    HW1 9767   5.816   6.348   3.909
 2956SOL    HW2 9768   5.815   6.389   3.751
 2957SOL     OW 9769   1.527   4.519   1.744
 2957SOL    HW1 9770   1.454   4.563   1.693
 2957SOL    HW2 9771   1.531   4.558   1.837
 2958SOL     OW 9772   2.798   4.803   6.365
 2958SOL    HW1 9773   2.764   4.715   6.396
 2958SOL    HW2 9774   2.725   4.852   6.317
 2959SOL     OW 9775   3.701   5.109   0.004
 2959SOL    HW1 9776   3.724   5.177   6.952
 2959SOL    HW2 9777   3.781   5.093   0.062
 2960SOL     OW 9778   2.978   1.840   0.422
 2960SOL    HW1 9779   2.993   1.760   0.364
 2960SOL    HW2 9780   2.881   1.848   0.444
 2961SOL     OW 9781   5.487   1.427   4.047
 2961SOL    HW1 9782   5.544   1.500   4.008
 2961SOL    HW2 9783   5.528   1.338   4.027
 2962SOL     OW 9784   4.505   0.097   2.605
 2962SOL    HW1 9785   4.483   0.193   2.619
 2962SOL    HW2 9786   4.531   0.055   2.692
 2963SOL     OW 9787   2.164   3.145   5.047
 2963SOL    HW1 9788   2.113   3.171   5.129
 2963SOL    HW2 9789   2.254   3.110   5.073
 2964SOL     OW 9790   2.766   5.941   0.287
 2964SOL    HW1 9791   2.798   5.889   0.367
 2964SOL    HW2 9792   2.681   5.988   0.310
 2965SOL     OW 9793   0.842   2.768   6.185
 2965SOL    HW1 9794   0.816   2.837   6.253
 2965SOL    HW2 9795   0.913   2.805   6.125
 2966SOL     OW 9796   4.508   5.332   3.314
 2966SOL    HW1 9797   4.436   5.283   3.264
 2966SOL    HW2 9798   4.501   5.310   3.411
 2967SOL     OW 9799   5.768   2.432   4.228
 2967SOL    HW1 9800   5.846   2.392   4.180
 2967SOL    HW2 9801   5.785   2.430   4.327
 2968SOL     OW 9802   6.544   4.482   3.511
 2968SOL    HW1 9803   6.486   4.526   3.579
 2968SOL    HW2 9804   6.545   4.537   3.427
 2969SOL     OW 9805   3.319   1.293   5.041
 2969SOL    HW1 9806   3.337   1.361   5.112
 2969SOL    HW2 9807   3.244   1.234   5.070
 2970SOL     OW 9808   1.244   4.380   6.119
 2970SOL    HW1 9809   1.170   4.342   6.174
 2970SOL    HW2 9810   1.209   4.408   6.029
 2971SOL     OW 9811   5.659   2.923   1.962
 2971SOL    HW1 9812   5.721   2.865   2.014
 2971SOL    HW2 9813   5.701   2.948   1.874
 2972SOL     OW 9814   0.452   4.207   4.424
 2972SOL    HW1 9815   0.449   4.171   4.517
 2972SOL    HW2 9816   0.456   4.131   4.359
 2973SOL     OW 9817   6.326   0.048   4.072
 2973SOL    HW1 9818   6.251   0.053   4.137
 2973SOL    HW2 9819   6.409   0.017   4.119
 2974SOL     OW 9820   6.508   4.234   0.884
 2974SOL    HW1 9821   6.417   4.199   0.907
 2974SOL    HW2 9822   6.557   4.256   0.968
 2975SOL     OW 9823   6.293   1.383   3.989
 2975SOL    HW1 9824   6.241   1.468   3.997
 2975SOL    HW2 9825   6.380   1.401   3.943
 2976SOL     OW 9826   2.543   5.821   1.111
 2976SOL    HW1 9827   2.493   5.888   1.165
 2976SOL    HW2 9828   2.611   5.775   1.169
 2977SOL     OW 9829   2.977   0.002   3.638
 2977SOL    HW1 9830   3.070   7.005   3.673
 2977SOL    HW2 9831   2.981   0.053   3.552
 2978SOL     OW 9832   2.165   0.333   6.663
 2978SOL    HW1 9833   2.180   0.249   6.612
 2978SOL    HW2 9834   2.244   0.353   6.720
 2979SOL     OW 9835   2.475   1.286   3.336
 2979SOL    HW1 9836   2.440   1.207   3.286
 2979SOL    HW2 9837   2.404   1.357   3.341
 2980SOL     OW 9838   6.083   0.067   3.298
 2980SOL    HW1 9839   6.106   0.159   3.267
 2980SOL    HW2 9840   6.157   0.032   3.356
 2981SOL     OW 9841   1.609   1.531   5.758
 2981SOL    HW1 9842   1.567   1.622   5.754
 2981SOL    HW2 9843   1.683   1.526   5.691
 2982SOL     OW 9844   5.196   5.640   2.247
 2982SOL    HW1 9845   5.283   5.669   2.288
 2982SOL    HW2 9846   5.187   5.682   2.157
 2983SOL     OW 9847   0.705   1.111   2.708
 2983SOL    HW1 9848   0.645   1.118   2.788
 2983SOL    HW2 9849   0.793   1.073   2.736
 2984SOL     OW 9850   6.461   4.489   1.423
 2984SOL    HW1 9851   6.490   4.493   1.327
 2984SOL    HW2 9852   6.514   4.420   1.471
 2985SOL     OW 9853   6.313   2.199   3.194
 2985SOL    HW1 9854   6.277   2.283   3.237
 2985SOL    HW2 9855   6.245   2.126   3.202
 2986SOL     OW 9856   1.533   3.433   4.675
 2986SOL    HW1 9857   1.493   3.500   4.612
 2986SOL    HW2 9858   1.543   3.474   4.766
 2987SOL     OW 9859   5.083   1.850   4.895
 2987SOL    HW1 9860   5.156   1.782   4.901
 2987SOL    HW2 9861   5.018   1.822   4.824
 2988SOL     OW 9862   0.604   0.721   2.773
 2988SOL    HW1 9863   0.531   0.767   2.823
 2988SOL    HW2 9864   0.619   0.766   2.686
 2989SOL     OW 9865   0.068   5.397   0.318
 2989SOL    HW1 9866   0.033   5.354   0.401
 2989SOL    HW2 9867   7.014   5.401   0.249
 2990SOL     OW 9868   2.901   1.468   1.442
 2990SOL    HW1 9869   2.823   1.413   1.475
 2990SOL    HW2 9870   2.937   1.522   1.518
 2991SOL     OW 9871   6.395   4.665   6.848
 2991SOL    HW1 9872   6.441   4.677   6.936
 2991SOL    HW2 9873   6.430   4.582   6.804
 2992SOL     OW 9874   4.298   4.405   6.714
 2992SOL    HW1 9875   4.243   4.472   6.764
 2992SOL    HW2 9876   4.276   4.313   6.747
 2993SOL     OW 9877   1.445   4.132   6.979
 2993SOL    HW1 9878   1.359   4.151   0.008
 2993SOL    HW2 9879   1.429   4.064   6.907
 2994SOL     OW 9880   4.284   6.574   6.892
 2994SOL    HW1 9881   4.356   6.532   6.948
 2994SOL    HW2 9882   4.250   6.507   6.826
 2995SOL     OW 9883   2.715   0.565   5.751
 2995SOL    HW1 9884   2.804   0.583   5.792
 2995SOL    HW2 9885   2.648   0.631   5.785
 2996SOL     OW 9886   4.542   6.590   5.867
 2996SOL    HW1 9887   4.597   6.514   5.902
 2996SOL    HW2 9888   4.539   6.663   5.935
 2997SOL     OW 9889   3.680   5.694   0.448
 2997SOL    HW1 9890   3.655   5.761   0.377
 2997SOL    HW2 9891   3.628   5.610   0.433
 2998SOL     OW 9892   6.401   3.849   5.948
 2998SOL    HW1 9893   6.459   3.860   5.867
 2998SOL    HW2 9894   6.449   3.885   6.028
 2999SOL     OW 9895   2.466   1.474   2.046
 2999SOL    HW1 9896   2.530   1.436   1.979
 2999SOL    HW2 9897   2.398   1.530   1.998
 3000SOL     OW 9898   1.437   1.840   4.958
 3000SOL    HW1 9899   1.428   1.908   4.885
 3000SOL    HW2 9900   1.390   1.872   5.040
 3001SOL     OW 9901   4.785   6.034   5.729
 3001SOL    HW1 9902   4.832   6.098   5.668
 3001SOL    HW2 9903   4.719   5.980   5.676
 3002SOL     OW 9904   2.985   0.199   5.198
 3002SOL    HW1 9905   2.991   0.177   5.295
 3002SOL    HW2 9906   2.889   0.201   5.170
 3003SOL     OW 9907   1.587   6.940   6.030
 3003SOL    HW1 9908   1.558   6.862   5.975
 3003SOL    HW2 9909   1.518   6.961   6.099
 3004SOL     OW 9910   6.985   2.567   5.823
 3004SOL    HW1 9911   7.015   2.600   5.912
 3004SOL    HW2 9912   6.888   2.585   5.811
 3005SOL     OW 9913   4.875   1.920   0.587
 3005SOL    HW1 9914   4.822   1.979   0.527
 3005SOL    HW2 9915   4.863   1.825   0.559
 3006SOL     OW 9916   4.497   6.469   1.852
 3006SOL    HW1 9917   4.541   6.491   1.939
 3006SOL    HW2 9918   4.485   6.370   1.845
 3007SOL     OW 9919   6.154   5.279   1.642
 3007SOL    HW1 9920   6.086   5.338   1.685
 3007SOL    HW2 9921   6.244   5.323   1.646
 3008SOL     OW 9922   4.670   5.155   5.591
 3008SOL    HW1 9923   4.694   5.199   5.677
 3008SOL    HW2 9924   4.711   5.207   5.515
 3009SOL     OW 9925   1.367   0.512   2.369
 3009SOL    HW1 9926   1.288   0.558   2.410
 3009SOL    HW2 9927   1.336   0.433   2.316
 3010SOL     OW 9928   3.176   0.484   3.492
 3010SOL    HW1 9929   3.146   0.578   3.509
 3010SOL    HW2 9930   3.221   0.448   3.574
 3011SOL     OW 9931   4.794   0.118   0.755
 3011SOL    HW1 9932   4.822   0.188   0.690
 3011SOL    HW2 9933   4.866   0.104   0.823
 3012SOL     OW 9934   0.102   5.556   1.298
 3012SOL    HW1 9935   0.135   5.470   1.260
 3012SOL    HW2 9936   0.011   5.544   1.337
 3013SOL     OW 9937   6.082   4.889   1.592
 3013SOL    HW1 9938   5.982   4.882   1.599
 3013SOL    HW2 9939   6.114   4.963   1.651
 3014SOL     OW 9940   5.618   6.059   5.249
 3014SOL    HW1 9941   5.644   6.065   5.345
 3014SOL    HW2 9942   5.627   6.150   5.207
 3015SOL     OW 9943   3.165   1.398   0.377
 3015SOL    HW1 9944   3.152   1.319   0.316
 3015SOL    HW2 9945   3.260   1.426   0.375
 3016SOL     OW 9946   4.060   6.196   4.241
 3016SOL    HW1 9947   4.011   6.109   4.232
 3016SOL    HW2 9948   4.005   6.260   4.295
 3017SOL     OW 9949   0.878   6.199   1.634
 3017SOL    HW1 9950   0.840   6.124   1.688
 3017SOL    HW2 9951   0.838   6.198   1.542
 3018SOL     OW 9952   4.483   6.909   5.766
 3018SOL    HW1 9953   4.458   6.823   5.811
 3018SOL    HW2 9954   4.527   6.888   5.678
 3019SOL     OW 9955   4.784   0.928   1.601
 3019SOL    HW1 9956   4.783   0.899   1.505
 3019SOL    HW2 9957   4.737   0.859   1.657
 3020SOL     OW 9958   1.623   0.657   1.733
 3020SOL    HW1 9959   1.644   0.684   1.639
 3020SOL    HW2 9960   1.679   0.578   1.758
 3021SOL     OW 9961   4.336   1.001   6.346
 3021SOL    HW1 9962   4.366   0.978   6.254
 3021SOL    HW2 9963   4.238   1.023   6.345
 3022SOL     OW 9964   0.104   0.804   3.200
 3022SOL    HW1 9965   0.175   0.783   3.134
 3022SOL    HW2 9966   0.067   0.719   3.238
 3023SOL     OW 9967   5.591   0.304   1.534
 3023SOL    HW1 9968   5.540   0.331   1.615
 3023SOL    HW2 9969   5.672   0.362   1.524
 3024SOL     OW 9970   1.985   0.026   6.923
 3024SOL    HW1 9971   2.081   0.051   6.937
 3024SOL    HW2 9972   1.930   0.064   6.998
 3025SOL     OW 9973   1.926   2.518   1.702
 3025SOL    HW1 9974   1.857   2.579   1.663
 3025SOL    HW2 9975   2.013   2.531   1.654
 3026SOL     OW 9976   2.852   5.826   0.503
 3026SOL    HW1 9977   2.799   5.757   0.552
 3026SOL    HW2 9978   2.945   5.829   0.540
 3027SOL     OW 9979   1.190   1.863   3.785
 3027SOL    HW1 9980   1.249   1.841   3.707
 3027SOL    HW2 9981   1.240   1.846   3.870
 3028SOL     OW 9982   1.246   0.648   4.337
 3028SOL    HW1 9983   1.149   0.635   4.316
 3028SOL    HW2 9984   1.282   0.566   4.383
 3029SOL     OW 9985   6.168   4.728   5.905
 3029SOL    HW1 9986   6.110   4.778   5.970
 3029SOL    HW2 9987   6.216   4.655   5.953
 3030SOL     OW 9988   0.784   0.852   5.669
 3030SOL    HW1 9989   0.846   0.806   5.733
 3030SOL    HW2 9990   0.816   0.837   5.576
 3031SOL     OW 9991   6.904   6.016   6.117
 3031SOL    HW1 9992   6.878   5.976   6.204
 3031SOL    HW2 9993   6.867   5.961   6.042
 3032SOL     OW 9994   3.712   6.554   5.939
 3032SOL    HW1 9995   3.671   6.545   6.030
 3032SOL    HW2 9996   3.664   6.625   5.888
 3033SOL     OW 9997   4.957   4.585   6.093
 3033SOL    HW1 9998   4.870   4.632   6.112
 3033SOL    HW2 9999   4.962   4.502   6.149
 3034SOL     OW10000   2.557   6.764   5.013
 3034SOL    HW110001   2.647   6.721   5.013
 3034SOL    HW210002   2.496   6.714   5.074
 3035SOL     OW10003   6.031   6.817   0.331
 3035SOL    HW110004   5.997   6.779   0.417
 3035SOL    HW210005   6.092   6.752   0.287
 3036SOL     OW10006   0.691   4.929   5.620
 3036SOL    HW110007   0.764   4.972   5.567
 3036SOL    HW210008   0.614   4.908   5.561
 3037SOL     OW10009   5.420   6.488   6.208
 3037SOL    HW110010   5.430   6.478   6.307
 3037SOL    HW210011   5.493   6.545   6.172
 3038SOL     OW10012   5.620   6.104   5.753
 3038SOL    HW110013   5.598   6.013   5.719
 3038SOL    HW210014   5.692   6.096   5.822
 3039SOL     OW10015   0.505   5.076   0.525
 3039SOL    HW110016   0.573   5.103   0.457
 3039SOL    HW210017   0.436   5.017   0.482
 3040SOL     OW10018   2.728   1.233   0.317
 3040SOL    HW110019   2.664   1.257   0.244
 3040SOL    HW210020   2.738   1.310   0.379
 3041SOL     OW10021   1.615   2.225   5.990
 3041SOL    HW110022   1.674   2.150   5.960
 3041SOL    HW210023   1.597   2.217   6.088
 3042SOL     OW10024   5.828   0.262   1.110
 3042SOL    HW110025   5.820   0.206   1.193
 3042SOL    HW210026   5.870   0.208   1.038
 3043SOL     OW10027   0.226   5.400   6.389
 3043SOL    HW110028   0.321   5.385   6.418
 3043SOL    HW210029   0.215   5.494   6.357
 3044SOL     OW10030   2.426   3.297   6.591
 3044SOL    HW110031   2.487   3.223   6.562
 3044SOL    HW210032   2.375   3.332   6.512
 3045SOL     OW10033   4.669   2.664   4.662
 3045SOL    HW110034   4.739   2.643   4.594
 3045SOL    HW210035   4.623   2.580   4.690
 3046SOL     OW10036   2.632   2.488   6.100
 3046SOL    HW110037   2.714   2.499   6.043
 3046SOL    HW210038   2.602   2.578   6.133
 3047SOL     OW10039   6.938   5.367   1.910
 3047SOL    HW110040   6.894   5.438   1.856
 3047SOL    HW210041   6.906   5.371   2.004
 3048SOL     OW10042   3.809   2.903   2.276
 3048SOL    HW110043   3.822   2.941   2.185
 3048SOL    HW210044   3.856   2.815   2.282
 3049SOL     OW10045   1.010   0.599   0.804
 3049SOL    HW110046   0.924   0.558   0.772
 3049SOL    HW210047   1.070   0.527   0.839
 3050SOL     OW10048   1.562   0.394   4.085
 3050SOL    HW110049   1.645   0.419   4.134
 3050SOL    HW210050   1.536   0.469   4.023
 3051SOL     OW10051   2.860   4.886   5.746
 3051SOL    HW110052   2.864   4.790   5.717
 3051SOL    HW210053   2.936   4.936   5.706
 3052SOL     OW10054   4.853   6.246   2.528
 3052SOL    HW110055   4.818   6.315   2.464
 3052SOL    HW210056   4.879   6.291   2.614
 3053SOL     OW10057   3.925   6.395   2.224
 3053SOL    HW110058   3.892   6.398   2.129
 3053SOL    HW210059   3.916   6.302   2.259
 3054SOL     OW10060   1.595   4.263   5.355
 3054SOL    HW110061   1.678   4.319   5.360
 3054SOL    HW210062   1.614   4.173   5.394
 3055SOL     OW10063   6.390   6.518   2.798
 3055SOL    HW110064   6.405   6.610   2.835
 3055SOL    HW210065   6.475   6.466   2.801
 3056SOL     OW10066   5.023   0.919   2.378
 3056SOL    HW110067   5.072   0.839   2.413
 3056SOL    HW210068   4.944   0.938   2.437
 3057SOL     OW10069   6.898   4.957   2.623
 3057SOL    HW110070   6.939   5.047   2.641
 3057SOL    HW210071   6.878   4.949   2.525
 3058SOL     OW10072   5.729   6.489   1.676
 3058SOL    HW110073   5.685   6.574   1.706
 3058SOL    HW210074   5.821   6.485   1.713
 3059SOL     OW10075   2.823   2.569   6.594
 3059SOL    HW110076   2.843   2.601   6.687
 3059SOL    HW210077   2.743   2.617   6.559
 3060SOL     OW10078   0.425   6.230   6.242
 3060SOL    HW110079   0.443   6.141   6.282
 3060SOL    HW210080   0.327   6.240   6.226
 3061SOL     OW10081   0.183   0.942   6.033
 3061SOL    HW110082   0.103   0.951   6.094
 3061SOL    HW210083   0.263   0.920   6.088
 3062SOL     OW10084   3.250   5.157   6.371
 3062SOL    HW110085   3.234   5.218   6.294
 3062SOL    HW210086   3.165   5.107   6.392
 3063SOL     OW10087   2.615   5.839   0.859
 3063SOL    HW110088   2.564   5.841   0.945
 3063SOL    HW210089   2.666   5.925   0.849
 3064SOL     OW10090   0.150   4.559   2.993
 3064SOL    HW110091   0.190   4.573   3.084
 3064SOL    HW210092   0.223   4.559   2.925
 3065SOL     OW10093   3.320   1.943   1.254
 3065SOL    HW110094   3.416   1.965   1.239
 3065SOL    HW210095   3.267   2.027   1.261
 3066SOL     OW10096   5.437   5.058   0.850
 3066SOL    HW110097   5.341   5.037   0.834
 3066SOL    HW210098   5.485   4.974   0.878
 3067SOL     OW10099   4.224   6.916   3.068
 3067SOL    HW110100   4.212   6.834   3.124
 3067SOL    HW210101   4.172   6.906   2.983
 3068SOL     OW10102   6.222   4.259   6.712
 3068SOL    HW110103   6.304   4.235   6.661
 3068SOL    HW210104   6.232   4.228   6.807
 3069SOL     OW10105   1.167   4.630   3.277
 3069SOL    HW110106   1.135   4.612   3.370
 3069SOL    HW210107   1.213   4.719   3.274
 3070SOL     OW10108   4.752   1.576   3.556
 3070SOL    HW110109   4.721   1.498   3.610
 3070SOL    HW210110   4.852   1.574   3.550
 3071SOL     OW10111   5.739   0.426   3.697
 3071SOL    HW110112   5.688   0.355   3.650
 3071SOL    HW210113   5.831   0.393   3.720
 3072SOL     OW10114   6.831   0.532   1.472
 3072SOL    HW110115   6.756   0.506   1.533
 3072SOL    HW210116   6.820   0.627   1.444
 3073SOL     OW10117   1.977   1.874   5.032
 3073SOL    HW110118   1.991   1.900   5.127
 3073SOL    HW210119   1.882   1.847   5.018
 3074SOL     OW10120   4.682   3.775   5.978
 3074SOL    HW110121   4.746   3.719   5.925
 3074SOL    HW210122   4.697   3.871   5.956
 3075SOL     OW10123   0.163   5.605   0.907
 3075SOL    HW110124   0.126   5.675   0.846
 3075SOL    HW210125   0.090   5.569   0.965
 3076SOL     OW10126   0.487   0.857   5.150
 3076SOL    HW110127   0.544   0.777   5.167
 3076SOL    HW210128   0.427   0.872   5.229
 3077SOL     OW10129   4.335   4.718   3.235
 3077SOL    HW110130   4.376   4.639   3.191
 3077SOL    HW210131   4.274   4.765   3.171
 3078SOL     OW10132   1.831   2.977   0.505
 3078SOL    HW110133   1.865   3.064   0.471
 3078SOL    HW210134   1.882   2.949   0.586
 3079SOL     OW10135   5.440   2.986   6.146
 3079SOL    HW110136   5.408   2.945   6.061
 3079SOL    HW210137   5.387   3.069   6.165
 3080SOL     OW10138   6.078   6.765   2.336
 3080SOL    HW110139   6.107   6.784   2.242
 3080SOL    HW210140   6.111   6.675   2.364
 3081SOL     OW10141   0.945   4.534   5.993
 3081SOL    HW110142   0.974   4.572   5.905
 3081SOL    HW210143   0.969   4.438   5.998
 3082SOL     OW10144   3.782   0.009   2.692
 3082SOL    HW110145   3.831   6.988   2.615
 3082SOL    HW210146   3.692   6.984   2.699
 3083SOL     OW10147   3.861   6.704   2.703
 3083SOL    HW110148   3.761   6.693   2.700
 3083SOL    HW210149   3.899   6.687   2.612
 3084SOL     OW10150   4.683   6.644   4.068
 3084SOL    HW110151   4.630   6.592   4.001
 3084SOL    HW210152   4.760   6.589   4.099
 3085SOL     OW10153   1.234   5.029   2.439
 3085SOL    HW110154   1.279   4.995   2.357
 3085SOL    HW210155   1.141   5.058   2.417
 3086SOL     OW10156   6.335   1.446   4.624
 3086SOL    HW110157   6.310   1.539   4.649
 3086SOL    HW210158   6.294   1.424   4.535
 3087SOL     OW10159   5.687   3.629   1.483
 3087SOL    HW110160   5.771   3.681   1.498
 3087SOL    HW210161   5.613   3.668   1.538
 3088SOL     OW10162   3.075   3.696   6.332
 3088SOL    HW110163   3.124   3.781   6.349
 3088SOL    HW210164   3.093   3.632   6.406
 3089SOL     OW10165   3.486   2.060   1.637
 3089SOL    HW110166   3.508   2.033   1.730
 3089SOL    HW210167   3.505   1.984   1.574
 3090SOL     OW10168   6.000   1.591   1.011
 3090SOL    HW110169   6.015   1.674   1.065
 3090SOL    HW210170   6.003   1.511   1.072
 3091SOL     OW10171   2.148   5.890   6.608
 3091SOL    HW110172   2.177   5.845   6.524
 3091SOL    HW210173   2.094   5.826   6.663
 3092SOL     OW10174   4.273   5.267   0.566
 3092SOL    HW110175   4.197   5.252   0.502
 3092SOL    HW210176   4.276   5.193   0.633
 3093SOL     OW10177   4.775   6.796   3.168
 3093SOL    HW110178   4.801   6.823   3.261
 3093SOL    HW210179   4.677   6.778   3.165
 3094SOL     OW10180   3.630   5.439   4.614
 3094SOL    HW110181   3.586   5.428   4.525
 3094SOL    HW210182   3.589   5.375   4.680
 3095SOL     OW10183   1.923   5.282   4.907
 3095SOL    HW110184   1.987   5.265   4.982
 3095SOL    HW210185   1.832   5.250   4.932
 3096SOL     OW10186   0.855   1.605   5.481
 3096SOL    HW110187   0.926   1.565   5.424
 3096SOL    HW210188   0.896   1.672   5.543
 3097SOL     OW10189   1.643   0.845   6.980
 3097SOL    HW110190   1.708   0.918   6.958
 3097SOL    HW210191   1.683   0.757   6.955
 3098SOL     OW10192   3.967   2.632   0.688
 3098SOL    HW110193   3.901   2.595   0.622
 3098SOL    HW210194   4.059   2.603   0.662
 3099SOL     OW10195   1.272   5.771   5.745
 3099SOL    HW110196   1.291   5.859   5.788
 3099SOL    HW210197   1.344   5.750   5.678
 3100SOL     OW10198   6.409   0.161   6.040
 3100SOL    HW110199   6.339   0.108   6.089
 3100SOL    HW210200   6.420   0.250   6.085
 3101SOL     OW10201   3.433   0.386   1.141
 3101SOL    HW110202   3.374   0.356   1.067
 3101SOL    HW210203   3.396   0.470   1.182
 3102SOL     OW10204   1.429   5.891   0.306
 3102SOL    HW110205   1.480   5.893   0.392
 3102SOL    HW210206   1.355   5.958   0.308
 3103SOL     OW10207   4.333   4.421   1.659
 3103SOL    HW110208   4.369   4.332   1.688
 3103SOL    HW210209   4.357   4.490   1.727
 3104SOL     OW10210   5.595   5.774   4.009
 3104SOL    HW110211   5.565   5.862   3.972
 3104SOL    HW210212   5.644   5.723   3.938
 3105SOL     OW10213   6.237   5.976   4.265
 3105SOL    HW110214   6.208   5.953   4.358
 3105SOL    HW210215   6.330   5.942   4.249
 3106SOL     OW10216   6.738   3.499   4.582
 3106SOL    HW110217   6.723   3.562   4.658
 3106SOL    HW210218   6.831   3.512   4.546
 3107SOL     OW10219   2.596   0.021   3.903
 3107SOL    HW110220   2.549   0.077   3.972
 3107SOL    HW210221   2.688   0.057   3.887
 3108SOL     OW10222   2.214   6.951   2.879
 3108SOL    HW110223   2.307   6.983   2.898
 3108SOL    HW210224   2.212   6.851   2.881
 3109SOL     OW10225   4.763   5.801   3.255
 3109SOL    HW110226   4.855   5.813   3.217
 3109SOL    HW210227   4.765   5.810   3.354
 3110SOL     OW10228   0.495   2.569   1.618
 3110SOL    HW110229   0.574   2.556   1.679
 3110SOL    HW210230   0.518   2.537   1.527
 3111SOL     OW10231   0.541   4.871   2.115
 3111SOL    HW110232   0.596   4.914   2.187
 3111SOL    HW210233   0.456   4.835   2.155
 3112SOL     OW10234   3.359   3.437   5.650
 3112SOL    HW110235   3.317   3.444   5.559
 3112SOL    HW210236   3.316   3.363   5.701
 3113SOL     OW10237   4.132   6.681   4.150
 3113SOL    HW110238   4.080   6.597   4.164
 3113SOL    HW210239   4.165   6.685   4.056
 3114SOL     OW10240   5.088   5.713   0.629
 3114SOL    HW110241   5.014   5.743   0.689
 3114SOL    HW210242   5.051   5.691   0.539
 3115SOL     OW10243   3.542   2.936   2.453
 3115SOL    HW110244   3.476   2.950   2.380
 3115SOL    HW210245   3.631   2.913   2.414
 3116SOL     OW10246   6.902   1.420   6.671
 3116SOL    HW110247   6.875   1.473   6.591
 3116SOL    HW210248   6.964   1.475   6.728
 3117SOL     OW10249   3.114   4.187   6.192
 3117SOL    HW110250   3.196   4.139   6.222
 3117SOL    HW210251   3.037   4.162   6.251
 3118SOL     OW10252   6.120   5.096   0.095
 3118SOL    HW110253   6.141   5.066   0.002
 3118SOL    HW210254   6.143   5.192   0.106
 3119SOL     OW10255   2.177   4.247   6.555
 3119SOL    HW110256   2.111   4.207   6.620
 3119SOL    HW210257   2.269   4.238   6.592
 3120SOL     OW10258   2.580   5.347   6.955
 3120SOL    HW110259   2.509   5.399   7.003
 3120SOL    HW210260   2.611   5.272   7.013
 3121SOL     OW10261   0.133   5.643   3.837
 3121SOL    HW110262   0.046   5.639   3.886
 3121SOL    HW210263   0.146   5.559   3.783
 3122SOL     OW10264   3.239   6.080   1.417
 3122SOL    HW110265   3.293   6.080   1.501
 3122SOL    HW210266   3.142   6.084   1.440
 3123SOL     OW10267   3.383   7.002   4.104
 3123SOL    HW110268   3.443   0.045   4.157
 3123SOL    HW210269   3.379   0.016   4.009
 3124SOL     OW10270   3.765   6.939   5.882
 3124SOL    HW110271   3.689   6.997   5.853
 3124SOL    HW210272   3.739   6.887   5.963
 3125SOL     OW10273   6.897   1.745   5.948
 3125SOL    HW110274   6.906   1.842   5.973
 3125SOL    HW210275   6.956   1.690   6.007
 3126SOL     OW10276   3.776   6.165   6.617
 3126SOL    HW110277   3.701   6.131   6.674
 3126SOL    HW210278   3.815   6.247   6.659
 3127SOL     OW10279   1.089   1.037   4.485
 3127SOL    HW110280   1.162   1.041   4.417
 3127SOL    HW210281   1.048   1.128   4.496
 3128SOL     OW10282   1.449   1.023   0.939
 3128SOL    HW110283   1.370   0.962   0.931
 3128SOL    HW210284   1.519   0.996   0.872
 3129SOL     OW10285   1.169   3.156   2.953
 3129SOL    HW110286   1.110   3.075   2.952
 3129SOL    HW210287   1.257   3.133   2.994
 3130SOL     OW10288   2.198   5.515   2.943
 3130SOL    HW110289   2.297   5.504   2.938
 3130SOL    HW210290   2.172   5.535   3.038
 3131SOL     OW10291   0.785   3.010   4.046
 3131SOL    HW110292   0.809   3.060   4.129
 3131SOL    HW210293   0.692   2.975   4.053
 3132SOL     OW10294   5.026   3.565   5.856
 3132SOL    HW110295   4.971   3.532   5.780
 3132SOL    HW210296   5.101   3.501   5.872
 3133SOL     OW10297   2.366   1.821   3.771
 3133SOL    HW110298   2.419   1.891   3.818
 3133SOL    HW210299   2.428   1.759   3.723
 3134SOL     OW10300   6.141   2.650   2.172
 3134SOL    HW110301   6.222   2.663   2.228
 3134SOL    HW210302   6.167   2.609   2.085
 3135SOL     OW10303   1.114   2.242   2.998
 3135SOL    HW110304   1.156   2.321   2.955
 3135SOL    HW210305   1.024   2.225   2.957
 3136SOL     OW10306   6.234   0.909   4.780
 3136SOL    HW110307   6.163   0.950   4.838
 3136SOL    HW210308   6.243   0.963   4.696
 3137SOL     OW10309   0.611   1.737   4.567
 3137SOL    HW110310   0.541   1.780   4.623
 3137SOL    HW210311   0.615   1.640   4.587
 3138SOL     OW10312   6.330   2.162   4.350
 3138SOL    HW110313   6.289   2.253   4.362
 3138SOL    HW210314   6.276   2.109   4.285
 3139SOL     OW10315   4.984   5.661   5.280
 3139SOL    HW110316   4.887   5.646   5.301
 3139SOL    HW210317   4.993   5.738   5.217
 3140SOL     OW10318   5.909   5.838   5.457
 3140SOL    HW110319   5.957   5.771   5.514
 3140SOL    HW210320   5.826   5.795   5.420
 3141SOL     OW10321   0.793   0.265   1.934
 3141SOL    HW110322   0.793   0.193   1.864
 3141SOL    HW210323   0.879   0.316   1.929
 3142SOL     OW10324   3.382   7.006   0.658
 3142SOL    HW110325   3.368   6.923   0.711
 3142SOL    HW210326   3.301   0.047   0.667
 3143SOL     OW10327   0.187   1.720   0.335
 3143SOL    HW110328   0.285   1.727   0.318
 3143SOL    HW210329   0.155   1.803   0.380
 3144SOL     OW10330   2.949   2.928   0.185
 3144SOL    HW110331   2.996   2.954   0.269
 3144SOL    HW210332   3.013   2.930   0.109
 3145SOL     OW10333   2.378   5.201   2.764
 3145SOL    HW110334   2.328   5.274   2.717
 3145SOL    HW210335   2.409   5.234   2.853
 3146SOL     OW10336   2.113   0.010   4.075
 3146SOL    HW110337   2.132   6.979   4.160
 3146SOL    HW210338   2.155   6.979   3.998
 3147SOL     OW10339   3.906   4.270   1.013
 3147SOL    HW110340   3.867   4.178   1.001
 3147SOL    HW210341   4.005   4.266   1.004
 3148SOL     OW10342   2.701   5.806   4.626
 3148SOL    HW110343   2.757   5.733   4.664
 3148SOL    HW210344   2.759   5.872   4.579
 3149SOL     OW10345   2.172   6.262   5.667
 3149SOL    HW110346   2.098   6.321   5.636
 3149SOL    HW210347   2.150   6.167   5.646
 3150SOL     OW10348   6.442   0.452   4.525
 3150SOL    HW110349   6.402   0.477   4.437
 3150SOL    HW210350   6.421   0.523   4.592
 3151SOL     OW10351   3.582   6.752   1.787
 3151SOL    HW110352   3.534   6.695   1.855
 3151SOL    HW210353   3.667   6.786   1.826
 3152SOL     OW10354   1.460   4.939   6.396
 3152SOL    HW110355   1.546   4.942   6.344
 3152SOL    HW210356   1.447   4.847   6.432
 3153SOL     OW10357   6.941   3.929   3.613
 3153SOL    HW110358   6.995   3.999   3.564
 3153SOL    HW210359   6.988   3.904   3.697
 3154SOL     OW10360   5.941   2.748   6.105
 3154SOL    HW110361   5.843   2.766   6.116
 3154SOL    HW210362   5.990   2.775   6.188
 3155SOL     OW10363   4.259   5.868   0.054
 3155SOL    HW110364   4.357   5.887   0.063
 3155SOL    HW210365   4.230   5.807   0.128
 3156SOL     OW10366   3.516   3.841   3.591
 3156SOL    HW110367   3.599   3.802   3.549
 3156SOL    HW210368   3.542   3.898   3.668
 3157SOL     OW10369   2.171   2.313   4.901
 3157SOL    HW110370   2.127   2.237   4.853
 3157SOL    HW210371   2.157   2.398   4.848
 3158SOL     OW10372   4.574   0.063   1.738
 3158SOL    HW110373   4.475   0.077   1.750
 3158SOL    HW210374   4.616   0.149   1.712
 3159SOL     OW10375   5.471   4.776   0.670
 3159SOL    HW110376   5.532   4.749   0.744
 3159SOL    HW210377   5.500   4.865   0.633
 3160SOL     OW10378   6.254   4.557   0.534
 3160SOL    HW110379   6.284   4.554   0.629
 3160SOL    HW210380   6.174   4.499   0.522
 3161SOL     OW10381   0.664   1.539   4.240
 3161SOL    HW110382   0.656   1.630   4.279
 3161SOL    HW210383   0.755   1.502   4.261
 3162SOL     OW10384   0.369   0.397   6.203
 3162SOL    HW110385   0.389   0.454   6.283
 3162SOL    HW210386   0.270   0.387   6.194
 3163SOL     OW10387   1.571   4.746   5.340
 3163SOL    HW110388   1.491   4.688   5.355
 3163SOL    HW210389   1.584   4.760   5.242
 3164SOL     OW10390   6.311   5.114   5.440
 3164SOL    HW110391   6.357   5.086   5.524
 3164SOL    HW210392   6.215   5.084   5.443
 3165SOL     OW10393   6.912   2.812   1.213
 3165SOL    HW110394   7.004   2.774   1.220
 3165SOL    HW210395   6.896   2.874   1.291
 3166SOL     OW10396   3.571   3.195   6.399
 3166SOL    HW110397   3.560   3.294   6.391
 3166SOL    HW210398   3.486   3.155   6.433
 3167SOL     OW10399   0.136   5.073   2.431
 3167SOL    HW110400   0.078   5.142   2.389
 3167SOL    HW210401   0.132   4.988   2.377
 3168SOL     OW10402   6.395   2.832   0.831
 3168SOL    HW110403   6.391   2.732   0.824
 3168SOL    HW210404   6.489   2.863   0.815
 3169SOL     OW10405   3.346   2.569   5.692
 3169SOL    HW110406   3.417   2.571   5.622
 3169SOL    HW210407   3.260   2.536   5.652
 3170SOL     OW10408   3.278   0.367   4.838
 3170SOL    HW110409   3.282   0.274   4.874
 3170SOL    HW210410   3.211   0.420   4.890
 3171SOL     OW10411   6.230   5.566   2.817
 3171SOL    HW110412   6.191   5.615   2.895
 3171SOL    HW210413   6.241   5.469   2.839
 3172SOL     OW10414   5.388   6.465   5.400
 3172SOL    HW110415   5.364   6.446   5.495
 3172SOL    HW210416   5.481   6.434   5.383
 3173SOL     OW10417   1.716   1.117   1.773
 3173SOL    HW110418   1.781   1.152   1.706
 3173SOL    HW210419   1.632   1.171   1.769
 3174SOL     OW10420   2.545   3.085   7.007
 3174SOL    HW110421   2.486   3.102   6.928
 3174SOL    HW210422   2.555   3.169   0.042
 3175SOL     OW10423   6.902   6.028   0.242
 3175SOL    HW110424   6.853   6.004   0.158
 3175SOL    HW210425   6.836   6.046   0.315
 3176SOL     OW10426   0.544   5.530   0.066
 3176SOL    HW110427   0.445   5.532   0.079
 3176SOL    HW210428   0.578   5.439   0.090
 3177SOL     OW10429   0.954   0.225   3.746
 3177SOL    HW110430   0.931   0.311   3.791
 3177SOL    HW210431   1.029   0.181   3.796
 3178SOL     OW10432   3.834   3.345   0.127
 3178SOL    HW110433   3.753   3.300   0.090
 3178SOL    HW210434   3.848   3.315   0.222
 3179SOL     OW10435   1.337   2.667   4.410
 3179SOL    HW110436   1.309   2.657   4.505
 3179SOL    HW210437   1.259   2.651   4.350
 3180SOL     OW10438   6.458   1.139   0.021
 3180SOL    HW110439   6.434   1.158   6.943
 3180SOL    HW210440   6.500   1.049   0.027
 3181SOL     OW10441   0.268   1.400   2.127
 3181SOL    HW110442   0.303   1.312   2.161
 3181SOL    HW210443   0.332   1.473   2.152
 3182SOL     OW10444   2.002   5.523   5.885
 3182SOL    HW110445   1.949   5.567   5.813
 3182SOL    HW210446   1.949   5.522   5.970
 3183SOL     OW10447   4.984   3.898   1.252
 3183SOL    HW110448   4.901   3.861   1.209
 3183SOL    HW210449   5.057   3.830   1.248
 3184SOL     OW10450   0.161   2.091   2.782
 3184SOL    HW110451   0.155   2.001   2.738
 3184SOL    HW210452   0.258   2.117   2.790
 3185SOL     OW10453   0.663   6.117   0.055
 3185SOL    HW110454   0.681   6.069   6.987
 3185SOL    HW210455   0.676   6.215   0.042
 3186SOL     OW10456   3.547   0.241   1.525
 3186SOL    HW110457   3.569   0.181   1.601
 3186SOL    HW210458   3.531   0.334   1.560
 3187SOL     OW10459   3.612   4.350   0.426
 3187SOL    HW110460   3.668   4.428   0.451
 3187SOL    HW210461   3.583   4.358   0.331
 3188SOL     OW10462   3.898   0.004   3.991
 3188SOL    HW110463   3.952   7.014   4.075
 3188SOL    HW210464   3.802   0.012   4.014
 3189SOL     OW10465   6.226   6.173   2.096
 3189SOL    HW110466   6.268   6.253   2.138
 3189SOL    HW210467   6.263   6.160   2.004
 3190SOL     OW10468   1.013   0.269   2.205
 3190SOL    HW110469   1.017   0.368   2.219
 3190SOL    HW210470   1.006   0.249   2.108
 3191SOL     OW10471   3.194   1.468   1.007
 3191SOL    HW110472   3.248   1.385   0.998
 3191SOL    HW210473   3.238   1.531   1.070
 3192SOL     OW10474   5.483   2.982   4.369
 3192SOL    HW110475   5.486   3.042   4.449
 3192SOL    HW210476   5.576   2.955   4.345
 3193SOL     OW10477   5.411   4.573   1.787
 3193SOL    HW110478   5.423   4.644   1.718
 3193SOL    HW210479   5.352   4.501   1.750
 3194SOL     OW10480   3.016   5.826   4.661
 3194SOL    HW110481   3.058   5.749   4.707
 3194SOL    HW210482   3.001   5.900   4.726
 3195SOL     OW10483   6.187   4.408   4.227
 3195SOL    HW110484   6.180   4.319   4.273
 3195SOL    HW210485   6.109   4.465   4.254
 3196SOL     OW10486   6.827   6.300   6.359
 3196SOL    HW110487   6.826   6.388   6.312
 3196SOL    HW210488   6.735   6.261   6.358
 3197SOL     OW10489   0.418   4.521   5.827
 3197SOL    HW110490   0.484   4.446   5.834
 3197SOL    HW210491   0.451   4.599   5.879
 3198SOL     OW10492   5.972   0.070   0.986
 3198SOL    HW110493   6.028   0.069   1.068
 3198SOL    HW210494   5.927   6.999   0.976
 3199SOL     OW10495   3.043   1.600   3.366
 3199SOL    HW110496   3.111   1.528   3.383
 3199SOL    HW210497   3.000   1.584   3.277
 3200SOL     OW10498   6.620   1.995   0.212
 3200SOL    HW110499   6.706   1.964   0.171
 3200SOL    HW210500   6.583   2.071   0.159
 3201SOL     OW10501   4.079   4.859   2.717
 3201SOL    HW110502   4.117   4.788   2.657
 3201SOL    HW210503   3.980   4.848   2.723
 3202SOL     OW10504   1.294   5.045   2.079
 3202SOL    HW110505   1.325   4.963   2.031
 3202SOL    HW210506   1.309   5.125   2.021
 3203SOL     OW10507   4.519   6.927   0.861
 3203SOL    HW110508   4.517   0.008   0.847
 3203SOL    HW210509   4.427   6.895   0.879
 3204SOL     OW10510   6.724   6.639   2.137
 3204SOL    HW110511   6.783   6.563   2.109
 3204SOL    HW210512   6.682   6.679   2.056
 3205SOL     OW10513   1.273   4.068   4.103
 3205SOL    HW110514   1.249   3.994   4.166
 3205SOL    HW210515   1.207   4.142   4.111
 3206SOL     OW10516   2.190   6.236   0.619
 3206SOL    HW110517   2.259   6.235   0.691
 3206SOL    HW210518   2.125   6.161   0.633
 3207SOL     OW10519   1.867   0.930   3.106
 3207SOL    HW110520   1.809   0.856   3.070
 3207SOL    HW210521   1.821   0.973   3.184
 3208SOL     OW10522   5.891   6.496   5.729
 3208SOL    HW110523   5.833   6.568   5.691
 3208SOL    HW210524   5.984   6.530   5.740
 3209SOL     OW10525   1.181   6.968   3.536
 3209SOL    HW110526   1.157   6.952   3.632
 3209SOL    HW210527   1.274   7.005   3.531
 3210SOL     OW10528   0.434   6.237   2.026
 3210SOL    HW110529   0.404   6.333   2.022
 3210SOL    HW210530   0.469   6.218   2.118
 3211SOL     OW10531   0.299   4.484   3.798
 3211SOL    HW110532   0.296   4.568   3.743
 3211SOL    HW210533   0.233   4.491   3.872
 3212SOL     OW10534   4.412   2.384   4.999
 3212SOL    HW110535   4.342   2.426   5.057
 3212SOL    HW210536   4.459   2.312   5.050
 3213SOL     OW10537   5.063   0.262   1.955
 3213SOL    HW110538   5.006   0.335   1.993
 3213SOL    HW210539   5.063   0.268   1.855
 3214SOL     OW10540   4.859   3.784   0.363
 3214SOL    HW110541   4.863   3.756   0.267
 3214SOL    HW210542   4.860   3.884   0.368
 3215SOL     OW10543   6.460   1.328   0.209
 3215SOL    HW110544   6.388   1.391   0.181
 3215SOL    HW210545   6.468   1.255   0.140
 3216SOL     OW10546   5.221   6.510   5.806
 3216SOL    HW110547   5.314   6.544   5.801
 3216SOL    HW210548   5.161   6.566   5.748
 3217SOL     OW10549   0.254   4.462   6.447
 3217SOL    HW110550   0.251   4.465   6.347
 3217SOL    HW210551   0.348   4.476   6.478
 3218SOL     OW10552   3.903   2.645   1.690
 3218SOL    HW110553   3.805   2.639   1.675
 3218SOL    HW210554   3.938   2.557   1.724
 3219SOL     OW10555   0.985   1.825   3.553
 3219SOL    HW110556   0.935   1.828   3.639
 3219SOL    HW210557   1.008   1.918   3.525
 3220SOL     OW10558   6.566   2.971   6.631
 3220SOL    HW110559   6.488   3.014   6.675
 3220SOL    HW210560   6.626   3.041   6.593
 3221SOL     OW10561   3.882   0.336   1.666
 3221SOL    HW110562   3.981   0.332   1.659
 3221SOL    HW210563   3.856   0.352   1.762
 3222SOL     OW10564   6.361   3.636   2.188
 3222SOL    HW110565   6.438   3.592   2.143
 3222SOL    HW210566   6.276   3.605   2.146
 3223SOL     OW10567   0.999   4.343   5.058
 3223SOL    HW110568   1.005   4.243   5.056
 3223SOL    HW210569   1.052   4.379   5.135
 3224SOL     OW10570   2.827   6.205   1.000
 3224SOL    HW110571   2.898   6.150   0.957
 3224SOL    HW210572   2.744   6.151   1.011
 3225SOL     OW10573   1.650   1.767   0.693
 3225SOL    HW110574   1.552   1.764   0.671
 3225SOL    HW210575   1.689   1.676   0.680
 3226SOL     OW10576   6.880   1.424   3.785
 3226SOL    HW110577   6.939   1.473   3.721
 3226SOL    HW210578   6.801   1.388   3.737
 3227SOL     OW10579   2.671   1.516   4.762
 3227SOL    HW110580   2.620   1.435   4.731
 3227SOL    HW210581   2.628   1.598   4.725
 3228SOL     OW10582   4.962   3.135   4.807
 3228SOL    HW110583   5.052   3.090   4.810
 3228SOL    HW210584   4.890   3.066   4.799
 3229SOL     OW10585   4.566   1.630   4.634
 3229SOL    HW110586   4.517   1.543   4.624
 3229SOL    HW210587   4.547   1.688   4.555
 3230SOL     OW10588   1.704   0.042   4.437
 3230SOL    HW110589   1.606   0.030   4.420
 3230SOL    HW210590   1.748   0.080   4.356
 3231SOL     OW10591   4.212   4.423   0.520
 3231SOL    HW110592   4.129   4.417   0.575
 3231SOL    HW210593   4.244   4.330   0.498
 3232SOL     OW10594   0.851   3.947   3.409
 3232SOL    HW110595   0.947   3.970   3.396
 3232SOL    HW210596   0.841   3.886   3.488
 3233SOL     OW10597   2.474   3.947   0.239
 3233SOL    HW110598   2.443   3.884   0.310
 3233SOL    HW210599   2.571   3.967   0.250
 3234SOL     OW10600   7.014   1.550   4.150
 3234SOL    HW110601   6.979   1.640   4.124
 3234SOL    HW210602   0.024   1.500   4.068
 3235SOL     OW10603   6.357   1.009   2.349
 3235SOL    HW110604   6.402   1.003   2.439
 3235SOL    HW210605   6.347   0.918   2.311
 3236SOL     OW10606   6.601   1.676   1.515
 3236SOL    HW110607   6.572   1.750   1.575
 3236SOL    HW210608   6.619   1.593   1.570
 3237SOL     OW10609   2.834   6.221   4.724
 3237SOL    HW110610   2.754   6.251   4.776
 3237SOL    HW210611   2.842   6.121   4.731
 3238SOL     OW10612   6.543   6.508   6.269
 3238SOL    HW110613   6.628   6.535   6.224
 3238SOL    HW210614   6.559   6.497   6.367
 3239SOL     OW10615   2.173   6.272   6.336
 3239SOL    HW110616   2.239   6.224   6.279
 3239SOL    HW210617   2.218   6.307   6.418
 3240SOL     OW10618   1.249   2.639   4.672
 3240SOL    HW110619   1.160   2.643   4.717
 3240SOL    HW210620   1.280   2.544   4.666
 3241SOL     OW10621   3.724   6.198   5.325
 3241SOL    HW110622   3.684   6.181   5.415
 3241SOL    HW210623   3.696   6.126   5.261
 3242SOL     OW10624   2.613   0.904   1.029
 3242SOL    HW110625   2.609   0.964   0.950
 3242SOL    HW210626   2.522   0.864   1.045
 3243SOL     OW10627   3.597   6.037   2.237
 3243SOL    HW110628   3.644   6.123   2.255
 3243SOL    HW210629   3.556   6.004   2.322
 3244SOL     OW10630   1.344   0.025   5.246
 3244SOL    HW110631   1.350   0.125   5.239
 3244SOL    HW210632   1.427   7.007   5.289
 3245SOL     OW10633   3.002   2.214   5.832
 3245SOL    HW110634   2.989   2.299   5.884
 3245SOL    HW210635   2.972   2.229   5.737
 3246SOL     OW10636   5.980   6.548   2.535
 3246SOL    HW110637   6.055   6.499   2.580
 3246SOL    HW210638   5.987   6.646   2.554
 3247SOL     OW10639   5.883   2.932   4.753
 3247SOL    HW110640   5.835   2.848   4.729
 3247SOL    HW210641   5.905   2.931   4.851
 3248SOL     OW10642   5.271   4.514   3.219
 3248SOL    HW110643   5.277   4.522   3.120
 3248SOL    HW210644   5.208   4.440   3.243
 3249SOL     OW10645   3.521   5.063   6.010
 3249SOL    HW110646   3.607   5.029   5.972
 3249SOL    HW210647   3.540   5.134   6.078
 3250SOL     OW10648   4.737   4.769   0.686
 3250SOL    HW110649   4.718   4.671   0.686
 3250SOL    HW210650   4.691   4.812   0.608
 3251SOL     OW10651   2.259   1.448   3.355
 3251SOL    HW110652   2.178   1.415   3.306
 3251SOL    HW210653   2.234   1.469   3.450
 3252SOL     OW10654   3.119   2.190   3.101
 3252SOL    HW110655   3.125   2.158   3.007
 3252SOL    HW210656   3.210   2.210   3.136
 3253SOL     OW10657   4.869   4.280   1.993
 3253SOL    HW110658   4.821   4.324   2.069
 3253SOL    HW210659   4.965   4.269   2.016
 3254SOL     OW10660   6.067   3.693   3.082
 3254SOL    HW110661   6.075   3.662   3.176
 3254SOL    HW210662   5.980   3.661   3.044
 3255SOL     OW10663   3.218   4.773   0.830
 3255SOL    HW110664   3.221   4.769   0.930
 3255SOL    HW210665   3.125   4.753   0.799
 3256SOL     OW10666   6.391   0.432   5.331
 3256SOL    HW110667   6.405   0.404   5.426
 3256SOL    HW210668   6.422   0.359   5.270
 3257SOL     OW10669   2.584   1.109   1.793
 3257SOL    HW110670   2.650   1.050   1.840
 3257SOL    HW210671   2.511   1.053   1.755
 3258SOL     OW10672   4.582   6.855   2.760
 3258SOL    HW110673   4.541   6.800   2.688
 3258SOL    HW210674   4.681   6.839   2.762
 3259SOL     OW10675   6.064   5.308   3.157
 3259SOL    HW110676   6.032   5.320   3.063
 3259SOL    HW210677   5.997   5.346   3.220
 3260SOL     OW10678   2.146   1.463   1.300
 3260SOL    HW110679   2.182   1.446   1.208
 3260SOL    HW210680   2.139   1.377   1.350
 3261SOL     OW10681   4.963   6.788   4.146
 3261SOL    HW110682   4.878   6.798   4.199
 3261SOL    HW210683   5.034   6.845   4.187
 3262SOL     OW10684   4.899   2.292   3.604
 3262SOL    HW110685   4.820   2.303   3.665
 3262SOL    HW210686   4.894   2.360   3.531
 3263SOL     OW10687   3.110   4.886   3.220
 3263SOL    HW110688   3.076   4.898   3.126
 3263SOL    HW210689   3.173   4.961   3.243
 3264SOL     OW10690   5.322   4.181   6.358
 3264SOL    HW110691   5.368   4.239   6.290
 3264SOL    HW210692   5.251   4.127   6.314
 3265SOL     OW10693   5.116   6.635   5.589
 3265SOL    HW110694   5.143   6.657   5.496
 3265SOL    HW210695   5.018   6.656   5.601
 3266SOL     OW10696   0.976   2.481   5.992
 3266SOL    HW110697   1.024   2.567   5.979
 3266SOL    HW210698   0.897   2.477   5.930
 3267SOL     OW10699   5.776   4.177   1.197
 3267SOL    HW110700   5.806   4.108   1.263
 3267SOL    HW210701   5.822   4.162   1.110
 3268SOL     OW10702   1.997   5.409   0.468
 3268SOL    HW110703   1.983   5.495   0.418
 3268SOL    HW210704   1.955   5.334   0.417
 3269SOL     OW10705   4.386   2.800   1.198
 3269SOL    HW110706   4.428   2.763   1.114
 3269SOL    HW210707   4.289   2.777   1.199
 3270SOL     OW10708   6.499   5.536   2.938
 3270SOL    HW110709   6.464   5.496   3.023
 3270SOL    HW210710   6.425   5.542   2.871
 3271SOL     OW10711   4.809   6.847   0.800
 3271SOL    HW110712   4.758   6.906   0.862
 3271SOL    HW210713   4.824   6.894   0.713
 3272SOL     OW10714   4.386   5.934   5.800
 3272SOL    HW110715   4.339   5.854   5.834
 3272SOL    HW210716   4.456   5.906   5.734
 3273SOL     OW10717   0.143   6.985   3.204
 3273SOL    HW110718   0.085   6.981   3.123
 3273SOL    HW210719   0.238   6.969   3.179
 3274SOL     OW10720   3.090   0.685   1.409
 3274SOL    HW110721   3.063   0.743   1.485
 3274SOL    HW210722   3.124   0.597   1.444
 3275SOL     OW10723   4.432   0.586   6.285
 3275SOL    HW110724   4.334   0.578   6.265
 3275SOL    HW210725   4.472   0.495   6.295
 3276SOL     OW10726   1.426   5.482   1.308
 3276SOL    HW110727   1.446   5.516   1.216
 3276SOL    HW210728   1.327   5.478   1.321
 3277SOL     OW10729   0.322   6.053   6.639
 3277SOL    HW110730   0.340   5.989   6.714
 3277SOL    HW210731   0.310   6.145   6.676
 3278SOL     OW10732   1.007   6.910   0.409
 3278SOL    HW110733   1.065   6.830   0.397
 3278SOL    HW210734   0.938   6.913   0.336
 3279SOL     OW10735   2.073   6.474   1.571
 3279SOL    HW110736   2.025   6.502   1.487
 3279SOL    HW210737   2.165   6.442   1.547
 3280SOL     OW10738   3.030   5.543   3.455
 3280SOL    HW110739   3.090   5.463   3.459
 3280SOL    HW210740   3.011   5.565   3.359
 3281SOL     OW10741   1.305   6.923   1.150
 3281SOL    HW110742   1.293   6.856   1.077
 3281SOL    HW210743   1.287   6.880   1.238
 3282SOL     OW10744   1.601   4.609   2.012
 3282SOL    HW110745   1.562   4.528   2.056
 3282SOL    HW210746   1.653   4.661   2.080
 3283SOL     OW10747   1.405   0.464   3.027
 3283SOL    HW110748   1.340   0.537   3.003
 3283SOL    HW210749   1.412   0.458   3.127
 3284SOL     OW10750   1.934   6.030   5.615
 3284SOL    HW110751   2.021   5.992   5.648
 3284SOL    HW210752   1.892   6.083   5.689
 3285SOL     OW10753   0.547   3.439   4.174
 3285SOL    HW110754   0.601   3.451   4.257
 3285SOL    HW210755   0.607   3.443   4.094
 3286SOL     OW10756   4.924   4.763   6.587
 3286SOL    HW110757   4.902   4.665   6.590
 3286SOL    HW210758   4.850   4.815   6.629
 3287SOL     OW10759   0.528   2.419   0.980
 3287SOL    HW110760   0.556   2.351   0.912
 3287SOL    HW210761   0.459   2.479   0.940
 3288SOL     OW10762   0.624   0.176   0.484
 3288SOL    HW110763   0.558   0.179   0.409
 3288SOL    HW210764   0.636   0.081   0.514
 3289SOL     OW10765   1.486   0.184   3.645
 3289SOL    HW110766   1.415   0.243   3.684
 3289SOL    HW210767   1.576   0.221   3.668
 3290SOL     OW10768   6.815   4.771   4.327
 3290SOL    HW110769   6.731   4.791   4.277
 3290SOL    HW210770   6.813   4.818   4.415
 3291SOL     OW10771   1.117   1.539   1.874
 3291SOL    HW110772   1.067   1.474   1.817
 3291SOL    HW210773   1.215   1.521   1.868
 3292SOL     OW10774   1.298   6.890   4.604
 3292SOL    HW110775   1.312   6.797   4.638
 3292SOL    HW210776   1.386   6.932   4.583
 3293SOL     OW10777   5.966   0.479   2.846
 3293SOL    HW110778   5.917   0.550   2.796
 3293SOL    HW210779   5.904   0.435   2.911
 3294SOL     OW10780   6.845   6.550   1.484
 3294SOL    HW110781   6.841   6.500   1.570
 3294SOL    HW210782   6.775   6.621   1.483
 3295SOL     OW10783   2.992   3.317   6.194
 3295SOL    HW110784   3.068   3.347   6.135
 3295SOL    HW210785   2.911   3.372   6.174
 3296SOL     OW10786   0.873   6.580   1.636
 3296SOL    HW110787   0.880   6.617   1.543
 3296SOL    HW210788   0.949   6.518   1.653
 3297SOL     OW10789   3.348   0.566   5.613
 3297SOL    HW110790   3.398   0.632   5.670
 3297SOL    HW210791   3.410   0.493   5.584
 3298SOL     OW10792   0.170   5.459   3.222
 3298SOL    HW110793   0.143   5.491   3.131
 3298SOL    HW210794   0.089   5.456   3.281
 3299SOL     OW10795   1.938   1.319   4.439
 3299SOL    HW110796   1.912   1.389   4.507
 3299SOL    HW210797   1.856   1.275   4.404
 3300SOL     OW10798   0.422   0.169   4.954
 3300SOL    HW110799   0.342   0.164   4.894
 3300SOL    HW210800   0.496   0.218   4.907
 3301SOL     OW10801   6.550   4.112   2.356
 3301SOL    HW110802   6.489   4.034   2.342
 3301SOL    HW210803   6.497   4.189   2.393
 3302SOL     OW10804   1.585   5.657   5.813
 3302SOL    HW110805   1.541   5.669   5.902
 3302SOL    HW210806   1.540   5.715   5.745
 3303SOL     OW10807   3.463   3.545   5.318
 3303SOL    HW110808   3.413   3.600   5.385
 3303SOL    HW210809   3.550   3.590   5.296
 3304SOL     OW10810   1.886   0.623   4.003
 3304SOL    HW110811   1.963   0.610   3.941
 3304SOL    HW210812   1.895   0.561   4.081
 3305SOL     OW10813   0.995   2.338   0.319
 3305SOL    HW110814   0.918   2.293   0.365
 3305SOL    HW210815   1.081   2.294   0.346
 3306SOL     OW10816   1.180   1.473   1.081
 3306SOL    HW110817   1.207   1.528   1.160
 3306SOL    HW210818   1.261   1.429   1.042
 3307SOL     OW10819   0.367   6.494   0.078
 3307SOL    HW110820   0.360   6.592   0.058
 3307SOL    HW210821   0.395   6.482   0.174
 3308SOL     OW10822   5.635   6.383   0.177
 3308SOL    HW110823   5.730   6.377   0.146
 3308SOL    HW210824   5.583   6.441   0.114
 3309SOL     OW10825   0.603   4.685   1.923
 3309SOL    HW110826   0.526   4.621   1.922
 3309SOL    HW210827   0.590   4.752   1.996
 3310SOL     OW10828   2.106   6.310   2.259
 3310SOL    HW110829   2.043   6.326   2.334
 3310SOL    HW210830   2.063   6.339   2.173
 3311SOL     OW10831   4.343   5.661   0.688
 3311SOL    HW110832   4.275   5.628   0.622
 3311SOL    HW210833   4.327   5.618   0.777
 3312SOL     OW10834   1.743   2.853   5.944
 3312SOL    HW110835   1.746   2.832   6.041
 3312SOL    HW210836   1.813   2.800   5.896
 3313SOL     OW10837   5.422   6.675   5.142
 3313SOL    HW110838   5.424   6.749   5.074
 3313SOL    HW210839   5.504   6.618   5.131
 3314SOL     OW10840   0.980   3.731   6.276
 3314SOL    HW110841   1.021   3.703   6.189
 3314SOL    HW210842   0.890   3.771   6.259
 3315SOL     OW10843   6.357   3.157   3.469
 3315SOL    HW110844   6.376   3.133   3.564
 3315SOL    HW210845   6.417   3.232   3.441
 3316SOL     OW10846   3.606   0.547   6.554
 3316SOL    HW110847   3.561   0.631   6.524
 3316SOL    HW210848   3.663   0.512   6.480
 3317SOL     OW10849   5.942   2.962   1.255
 3317SOL    HW110850   5.892   3.038   1.297
 3317SOL    HW210851   5.930   2.880   1.311
 3318SOL     OW10852   2.641   4.949   6.647
 3318SOL    HW110853   2.573   4.919   6.579
 3318SOL    HW210854   2.613   5.038   6.684
 3319SOL     OW10855   0.898   5.874   6.213
 3319SOL    HW110856   0.830   5.933   6.257
 3319SOL    HW210857   0.961   5.838   6.282
 3320SOL     OW10858   0.997   0.804   1.056
 3320SOL    HW110859   1.004   0.704   1.055
 3320SOL    HW210860   0.921   0.833   0.997
 3321SOL     OW10861   3.513   3.893   4.182
 3321SOL    HW110862   3.552   3.984   4.174
 3321SOL    HW210863   3.494   3.855   4.091
 3322SOL     OW10864   5.183   3.667   2.556
 3322SOL    HW110865   5.119   3.679   2.632
 3322SOL    HW210866   5.146   3.711   2.474
 3323SOL     OW10867   1.618   4.368   0.705
 3323SOL    HW110868   1.650   4.442   0.763
 3323SOL    HW210869   1.680   4.357   0.627
 3324SOL     OW10870   6.387   3.324   1.731
 3324SOL    HW110871   6.470   3.269   1.720
 3324SOL    HW210872   6.307   3.269   1.708
 3325SOL     OW10873   1.373   4.958   5.652
 3325SOL    HW110874   1.432   4.990   5.726
 3325SOL    HW210875   1.400   5.002   5.567
 3326SOL     OW10876   4.505   6.800   2.343
 3326SOL    HW110877   4.436   6.857   2.299
 3326SOL    HW210878   4.494   6.806   2.443
 3327SOL     OW10879   5.159   6.003   1.764
 3327SOL    HW110880   5.120   6.080   1.714
 3327SOL    HW210881   5.145   6.016   1.862
 3328SOL     OW10882   6.323   6.237   3.520
 3328SOL    HW110883   6.359   6.180   3.446
 3328SOL    HW210884   6.320   6.184   3.605
 3329SOL     OW10885   5.586   0.340   6.073
 3329SOL    HW110886   5.525   0.364   5.997
 3329SOL    HW210887   5.608   0.422   6.125
 3330SOL     OW10888   5.812   0.366   3.345
 3330SOL    HW110889   5.810   0.278   3.393
 3330SOL    HW210890   5.906   0.398   3.340
 3331SOL     OW10891   0.313   3.021   2.063
 3331SOL    HW110892   0.232   2.974   2.099
 3331SOL    HW210893   0.395   2.982   2.104
 3332SOL     OW10894   4.688   5.124   1.252
 3332SOL    HW110895   4.770   5.115   1.310
 3332SOL    HW210896   4.626   5.048   1.270
 3333SOL     OW10897   2.319   3.849   0.814
 3333SOL    HW110898   2.406   3.834   0.860
 3333SOL    HW210899   2.299   3.947   0.811
 3334SOL     OW10900   2.169   2.805   1.992
 3334SOL    HW110901   2.223   2.822   1.910
 3334SOL    HW210902   2.131   2.891   2.025
 3335SOL     OW10903   4.577   4.082   6.712
 3335SOL    HW110904   4.641   4.005   6.718
 3335SOL    HW210905   4.485   4.048   6.693
 3336SOL     OW10906   3.707   5.618   5.966
 3336SOL    HW110907   3.738   5.679   5.893
 3336SOL    HW210908   3.630   5.659   6.014
 3337SOL     OW10909   3.016   3.910   3.983
 3337SOL    HW110910   2.943   3.884   4.046
 3337SOL    HW210911   3.044   4.004   4.001
 3338SOL     OW10912   3.276   3.022   1.716
 3338SOL    HW110913   3.177   3.036   1.716
 3338SOL    HW210914   3.317   3.072   1.792
 3339SOL     OW10915   0.703   7.012   6.226
 3339SOL    HW110916   0.661   0.084   6.241
 3339SOL    HW210917   0.631   6.942   6.220
 3340SOL     OW10918   4.915   1.926   6.755
 3340SOL    HW110919   4.886   2.018   6.729
 3340SOL    HW210920   5.011   1.912   6.730
 3341SOL     OW10921   1.264   3.457   1.773
 3341SOL    HW110922   1.308   3.396   1.707
 3341SOL    HW210923   1.165   3.452   1.763
 3342SOL     OW10924   5.893   0.266   2.991
 3342SOL    HW110925   5.925   0.172   3.001
 3342SOL    HW210926   5.793   0.267   2.999
 3343SOL     OW10927   3.492   4.733   0.377
 3343SOL    HW110928   3.477   4.684   0.463
 3343SOL    HW210929   3.561   4.684   0.323
 3344SOL     OW10930   1.732   3.527   0.811
 3344SOL    HW110931   1.726   3.453   0.878
 3344SOL    HW210932   1.650   3.527   0.754
 3345SOL     OW10933   4.634   4.716   0.982
 3345SOL    HW110934   4.613   4.743   0.888
 3345SOL    HW210935   4.574   4.641   1.010
 3346SOL     OW10936   0.634   0.678   0.424
 3346SOL    HW110937   0.646   0.588   0.466
 3346SOL    HW210938   0.703   0.691   0.353
 3347SOL     OW10939   0.840   3.212   5.975
 3347SOL    HW110940   0.892   3.285   6.021
 3347SOL    HW210941   0.901   3.163   5.912
 3348SOL     OW10942   3.157   4.349   5.621
 3348SOL    HW110943   3.245   4.371   5.578
 3348SOL    HW210944   3.124   4.428   5.673
 3349SOL     OW10945   2.462   5.233   1.671
 3349SOL    HW110946   2.529   5.169   1.708
 3349SOL    HW210947   2.396   5.256   1.743
 3350SOL     OW10948   3.178   5.475   4.128
 3350SOL    HW110949   3.195   5.478   4.029
 3350SOL    HW210950   3.249   5.526   4.176
 3351SOL     OW10951   4.659   0.053   2.055
 3351SOL    HW110952   4.681   6.994   1.995
 3351SOL    HW210953   4.684   0.139   2.010
 3352SOL     OW10954   6.036   1.080   0.706
 3352SOL    HW110955   5.956   1.022   0.693
 3352SOL    HW210956   6.104   1.031   0.760
 3353SOL     OW10957   4.510   0.658   5.909
 3353SOL    HW110958   4.477   0.565   5.927
 3353SOL    HW210959   4.605   0.654   5.878
 3354SOL     OW10960   3.553   1.822   0.451
 3354SOL    HW110961   3.568   1.897   0.516
 3354SOL    HW210962   3.456   1.799   0.449
 3355SOL     OW10963   0.990   2.314   5.649
 3355SOL    HW110964   0.941   2.385   5.700
 3355SOL    HW210965   1.086   2.341   5.637
 3356SOL     OW10966   2.624   0.231   5.429
 3356SOL    HW110967   2.699   0.244   5.494
 3356SOL    HW210968   2.660   0.235   5.335
 3357SOL     OW10969   2.901   3.644   4.184
 3357SOL    HW110970   2.919   3.570   4.249
 3357SOL    HW210971   2.930   3.731   4.223
 3358SOL     OW10972   6.548   1.847   1.697
 3358SOL    HW110973   6.548   1.797   1.783
 3358SOL    HW210974   6.614   1.922   1.702
 3359SOL     OW10975   0.708   6.595   3.400
 3359SOL    HW110976   0.756   6.649   3.469
 3359SOL    HW210977   0.751   6.505   3.392
 3360SOL     OW10978   1.408   5.608   4.931
 3360SOL    HW110979   1.381   5.528   4.877
 3360SOL    HW210980   1.330   5.641   4.983
 3361SOL     OW10981   0.576   0.190   4.539
 3361SOL    HW110982   0.644   0.136   4.588
 3361SOL    HW210983   0.580   0.168   4.441
 3362SOL     OW10984   2.824   0.676   5.501
 3362SOL    HW110985   2.781   0.662   5.590
 3362SOL    HW210986   2.918   0.643   5.504
 3363SOL     OW10987   5.188   3.415   0.643
 3363SOL    HW110988   5.118   3.366   0.696
 3363SOL    HW210989   5.145   3.487   0.589
 3364SOL     OW10990   2.152   3.004   0.938
 3364SOL    HW110991   2.101   2.922   0.914
 3364SOL    HW210992   2.092   3.084   0.934
 3365SOL     OW10993   0.539   2.844   2.597
 3365SOL    HW110994   0.439   2.831   2.600
 3365SOL    HW210995   0.565   2.917   2.659
 3366SOL     OW10996   5.991   3.382   3.241
 3366SOL    HW110997   6.005   3.455   3.308
 3366SOL    HW210998   6.079   3.357   3.201
 3367SOL     OW10999   3.456   3.446   3.626
 3367SOL    HW111000   3.420   3.539   3.641
 3367SOL    HW211001   3.415   3.383   3.692
 3368SOL     OW11002   1.540   1.048   3.561
 3368SOL    HW111003   1.582   1.131   3.523
 3368SOL    HW211004   1.573   1.034   3.654
 3369SOL     OW11005   6.158   2.565   0.696
 3369SOL    HW111006   6.099   2.487   0.675
 3369SOL    HW211007   6.161   2.626   0.616
 3370SOL     OW11008   0.414   5.850   3.614
 3370SOL    HW111009   0.455   5.941   3.603
 3370SOL    HW211010   0.315   5.859   3.617
 3371SOL     OW11011   2.981   2.950   1.725
 3371SOL    HW111012   2.911   2.936   1.655
 3371SOL    HW211013   3.010   2.861   1.761
 3372SOL     OW11014   5.433   2.862   3.846
 3372SOL    HW111015   5.339   2.836   3.826
 3372SOL    HW211016   5.493   2.783   3.835
 3373SOL     OW11017   0.813   4.675   0.934
 3373SOL    HW111018   0.760   4.710   0.857
 3373SOL    HW211019   0.908   4.660   0.907
 3374SOL     OW11020   1.186   5.410   4.010
 3374SOL    HW111021   1.122   5.424   3.934
 3374SOL    HW211022   1.260   5.351   3.981
 3375SOL     OW11023   6.485   6.881   5.601
 3375SOL    HW111024   6.562   6.943   5.610
 3375SOL    HW211025   6.404   6.932   5.571
 3376SOL     OW11026   3.573   3.912   5.144
 3376SOL    HW111027   3.587   3.918   5.045
 3376SOL    HW211028   3.646   3.960   5.192
 3377SOL     OW11029   6.178   5.572   4.732
 3377SOL    HW111030   6.106   5.567   4.802
 3377SOL    HW211031   6.181   5.486   4.682
 3378SOL     OW11032   1.204   6.059   0.307
 3378SOL    HW111033   1.205   6.092   0.401
 3378SOL    HW211034   1.133   5.990   0.297
 3379SOL     OW11035   5.556   4.980   3.913
 3379SOL    HW111036   5.469   5.004   3.870
 3379SOL    HW211037   5.550   4.996   4.012
 3380SOL     OW11038   1.260   4.563   2.140
 3380SOL    HW111039   1.173   4.611   2.135
 3380SOL    HW211040   1.259   4.485   2.077
 3381SOL     OW11041   3.425   4.537   6.817
 3381SOL    HW111042   3.520   4.558   6.841
 3381SOL    HW211043   3.404   4.576   6.728
 3382SOL     OW11044   0.505   3.993   6.732
 3382SOL    HW111045   0.450   3.918   6.695
 3382SOL    HW211046   0.551   3.963   6.816
 3383SOL     OW11047   3.528   6.026   0.303
 3383SOL    HW111048   3.462   6.078   0.356
 3383SOL    HW211049   3.620   6.042   0.339
 3384SOL     OW11050   3.520   2.549   6.683
 3384SOL    HW111051   3.612   2.548   6.722
 3384SOL    HW211052   3.458   2.597   6.745
 3385SOL     OW11053   5.915   1.979   4.441
 3385SOL    HW111054   5.938   2.061   4.494
 3385SOL    HW211055   5.999   1.941   4.402
 3386SOL     OW11056   6.906   4.840   5.204
 3386SOL    HW111057   6.904   4.935   5.233
 3386SOL    HW211058   6.823   4.794   5.235
 3387SOL     OW11059   6.362   0.513   3.118
 3387SOL    HW111060   6.300   0.548   3.048
 3387SOL    HW211061   6.388   0.586   3.180
 3388SOL     OW11062   1.016   4.099   0.950
 3388SOL    HW111063   1.087   4.098   1.020
 3388SOL    HW211064   1.050   4.148   0.869
 3389SOL     OW11065   6.139   4.998   5.721
 3389SOL    HW111066   6.073   5.051   5.774
 3389SOL    HW211067   6.129   4.901   5.743
 3390SOL     OW11068   2.868   4.479   0.963
 3390SOL    HW111069   2.937   4.461   0.892
 3390SOL    HW211070   2.779   4.449   0.931
 3391SOL     OW11071   5.296   4.224   5.534
 3391SOL    HW111072   5.258   4.242   5.625
 3391SOL    HW211073   5.240   4.270   5.465
 3392SOL     OW11074   4.951   5.418   5.719
 3392SOL    HW111075   5.023   5.358   5.753
 3392SOL    HW211076   4.990   5.482   5.652
 3393SOL     OW11077   3.284   1.012   0.833
 3393SOL    HW111078   3.273   1.047   0.740
 3393SOL    HW211079   3.202   0.962   0.860
 3394SOL     OW11080   3.123   5.809   1.742
 3394SOL    HW111081   3.105   5.907   1.735
 3394SOL    HW211082   3.066   5.760   1.677
 3395SOL     OW11083   1.240   5.792   2.953
 3395SOL    HW111084   1.260   5.759   3.045
 3395SOL    HW211085   1.162   5.854   2.956
 3396SOL     OW11086   3.534   0.114   4.296
 3396SOL    HW111087   3.480   0.085   4.375
 3396SOL    HW211088   3.624   0.072   4.300
 3397SOL     OW11089   3.152   6.111   2.172
 3397SOL    HW111090   3.130   6.095   2.268
 3397SOL    HW211091   3.249   6.133   2.163
 3398SOL     OW11092   6.485   0.146   1.083
 3398SOL    HW111093   6.453   0.151   1.178
 3398SOL    HW211094   6.560   0.210   1.070
 3399SOL     OW11095   6.467   6.504   2.179
 3399SOL    HW111096   6.506   6.593   2.154
 3399SOL    HW211097   6.523   6.431   2.138
 3400SOL     OW11098   3.591   3.180   5.624
 3400SOL    HW111099   3.520   3.180   5.695
 3400SOL    HW211100   3.549   3.202   5.536
 3401SOL     OW11101   6.436   3.595   3.824
 3401SOL    HW111102   6.412   3.681   3.868
 3401SOL    HW211103   6.379   3.521   3.860
 3402SOL     OW11104   6.509   3.876   0.108
 3402SOL    HW111105   6.496   3.798   0.047
 3402SOL    HW211106   6.597   3.869   0.154
 3403SOL     OW11107   5.601   0.171   3.963
 3403SOL    HW111108   5.564   0.261   3.985
 3403SOL    HW211109   5.700   0.170   3.977
 3404SOL     OW11110   5.248   4.730   2.716
 3404SOL    HW111111   5.291   4.646   2.683
 3404SOL    HW211112   5.173   4.755   2.654
 3405SOL     OW11113   4.741   7.013   0.484
 3405SOL    HW111114   4.762   0.050   0.403
 3405SOL    HW211115   4.735   0.054   0.564
 3406SOL     OW11116   4.768   4.714   1.370
 3406SOL    HW111117   4.814   4.650   1.432
 3406SOL    HW211118   4.783   4.807   1.403
 3407SOL     OW11119   2.254   1.591   0.847
 3407SOL    HW111120   2.338   1.584   0.793
 3407SOL    HW211121   2.257   1.672   0.905
 3408SOL     OW11122   2.578   6.752   4.535
 3408SOL    HW111123   2.599   6.734   4.439
 3408SOL    HW211124   2.649   6.711   4.592
 3409SOL     OW11125   4.548   1.904   0.263
 3409SOL    HW111126   4.490   1.951   0.196
 3409SOL    HW211127   4.541   1.805   0.250
 3410SOL     OW11128   6.168   1.809   2.237
 3410SOL    HW111129   6.137   1.736   2.176
 3410SOL    HW211130   6.194   1.889   2.184
 3411SOL     OW11131   5.645   3.419   6.427
 3411SOL    HW111132   5.560   3.463   6.457
 3411SOL    HW211133   5.693   3.479   6.363
 3412SOL     OW11134   5.057   3.667   2.798
 3412SOL    HW111135   5.153   3.689   2.818
 3412SOL    HW211136   5.004   3.675   2.883
 3413SOL     OW11137   1.355   2.902   0.727
 3413SOL    HW111138   1.272   2.877   0.778
 3413SOL    HW211139   1.423   2.829   0.736
 3414SOL     OW11140   3.451   3.503   1.904
 3414SOL    HW111141   3.399   3.558   1.839
 3414SOL    HW211142   3.548   3.528   1.899
 3415SOL     OW11143   2.765   0.921   0.016
 3415SOL    HW111144   2.710   0.932   0.099
 3415SOL    HW211145   2.802   0.829   0.012
 3416SOL     OW11146   5.133   6.228   6.299
 3416SOL    HW111147   5.133   6.202   6.202
 3416SOL    HW211148   5.207   6.180   6.346
 3417SOL     OW11149   6.102   0.500   2.551
 3417SOL    HW111150   6.168   0.574   2.565
 3417SOL    HW211151   6.019   0.520   2.604
 3418SOL     OW11152   4.485   5.778   1.109
 3418SOL    HW111153   4.508   5.796   1.204
 3418SOL    HW211154   4.405   5.718   1.105
 3419SOL     OW11155   2.776   4.734   5.323
 3419SOL    HW111156   2.798   4.663   5.257
 3419SOL    HW211157   2.757   4.820   5.275
 3420SOL     OW11158   5.168   0.519   2.508
 3420SOL    HW111159   5.200   0.614   2.513
 3420SOL    HW211160   5.165   0.490   2.413
 3421SOL     OW11161   0.402   1.544   4.392
 3421SOL    HW111162   0.475   1.550   4.324
 3421SOL    HW211163   0.381   1.635   4.427
 3422SOL     OW11164   3.151   5.206   1.348
 3422SOL    HW111165   3.100   5.124   1.373
 3422SOL    HW211166   3.109   5.248   1.267
 3423SOL     OW11167   1.471   5.725   5.580
 3423SOL    HW111168   1.534   5.793   5.544
 3423SOL    HW211169   1.464   5.649   5.514
 3424SOL     OW11170   5.907   5.597   2.572
 3424SOL    HW111171   5.962   5.680   2.580
 3424SOL    HW211172   5.816   5.613   2.609
 3425SOL     OW11173   5.705   2.997   6.463
 3425SOL    HW111174   5.672   2.962   6.376
 3425SOL    HW211175   5.780   2.940   6.496
 3426SOL     OW11176   6.334   5.433   5.828
 3426SOL    HW111177   6.417   5.376   5.833
 3426SOL    HW211178   6.307   5.460   5.920
 3427SOL     OW11179   1.455   0.990   6.894
 3427SOL    HW111180   1.407   0.948   6.817
 3427SOL    HW211181   1.533   0.933   6.919
 3428SOL     OW11182   3.978   0.897   4.002
 3428SOL    HW111183   3.960   0.961   4.077
 3428SOL    HW211184   3.891   0.870   3.960
 3429SOL     OW11185   5.204   5.234   0.090
 3429SOL    HW111186   5.151   5.194   0.015
 3429SOL    HW211187   5.209   5.333   0.077
 3430SOL     OW11188   2.992   4.280   6.776
 3430SOL    HW111189   2.947   4.196   6.805
 3430SOL    HW211190   2.945   4.359   6.816
 3431SOL     OW11191   1.339   3.723   1.709
 3431SOL    HW111192   1.288   3.795   1.662
 3431SOL    HW211193   1.274   3.660   1.753
 3432SOL     OW11194   6.684   5.578   6.357
 3432SOL    HW111195   6.779   5.558   6.380
 3432SOL    HW211196   6.627   5.563   6.438
 3433SOL     OW11197   0.591   1.324   0.199
 3433SOL    HW111198   0.561   1.280   0.284
 3433SOL    HW211199   0.661   1.267   0.156
 3434SOL     OW11200   4.142   2.808   1.668
 3434SOL    HW111201   4.097   2.846   1.587
 3434SOL    HW211202   4.074   2.761   1.724
 3435SOL     OW11203   2.985   2.544   1.287
 3435SOL    HW111204   2.973   2.514   1.381
 3435SOL    HW211205   3.039   2.628   1.285
 3436SOL     OW11206   4.412   5.499   5.037
 3436SOL    HW111207   4.405   5.448   4.952
 3436SOL    HW211208   4.321   5.511   5.077
 3437SOL     OW11209   2.726   5.633   0.673
 3437SOL    HW111210   2.746   5.551   0.726
 3437SOL    HW211211   2.705   5.708   0.735
 3438SOL     OW11212   2.410   4.137   0.588
 3438SOL    HW111213   2.338   4.072   0.563
 3438SOL    HW211214   2.369   4.224   0.615
 3439SOL     OW11215   2.810   5.721   1.136
 3439SOL    HW111216   2.873   5.734   1.059
 3439SOL    HW211217   2.822   5.629   1.173
 3440SOL     OW11218   4.150   5.033   5.692
 3440SOL    HW111219   4.249   5.030   5.704
 3440SOL    HW211220   4.107   4.959   5.744
 3441SOL     OW11221   0.110   5.542   5.767
 3441SOL    HW111222   0.018   5.557   5.731
 3441SOL    HW211223   0.174   5.530   5.691
 3442SOL     OW11224   2.022   1.870   0.684
 3442SOL    HW111225   1.991   1.947   0.740
 3442SOL    HW211226   2.120   1.878   0.667
 3443SOL     OW11227   6.798   5.486   2.171
 3443SOL    HW111228   6.793   5.487   2.271
 3443SOL    HW211229   6.793   5.579   2.137
 3444SOL     OW11230   1.413   3.522   5.601
 3444SOL    HW111231   1.495   3.565   5.563
 3444SOL    HW211232   1.425   3.423   5.601
 3445SOL     OW11233   5.862   4.808   4.405
 3445SOL    HW111234   5.838   4.884   4.346
 3445SOL    HW211235   5.955   4.821   4.440
 3446SOL     OW11236   5.370   1.410   6.972
 3446SOL    HW111237   5.443   1.377   0.015
 3446SOL    HW211238   5.318   1.482   0.001
 3447SOL     OW11239   5.202   1.835   6.210
 3447SOL    HW111240   5.151   1.751   6.193
 3447SOL    HW211241   5.298   1.814   6.223
 3448SOL     OW11242   0.832   5.297   4.612
 3448SOL    HW111243   0.804   5.298   4.708
 3448SOL    HW211244   0.760   5.336   4.555
 3449SOL     OW11245   1.239   4.553   4.569
 3449SOL    HW111246   1.242   4.629   4.634
 3449SOL    HW211247   1.228   4.588   4.476
 3450SOL     OW11248   1.927   6.099   3.100
 3450SOL    HW111249   1.919   6.183   3.153
 3450SOL    HW211250   1.887   6.112   3.010
 3451SOL     OW11251   2.494   1.798   1.570
 3451SOL    HW111252   2.560   1.807   1.495
 3451SOL    HW211253   2.520   1.719   1.627
 3452SOL     OW11254   4.363   1.060   5.311
 3452SOL    HW111255   4.310   0.978   5.333
 3452SOL    HW211256   4.436   1.071   5.379
 3453SOL     OW11257   4.361   6.559   5.487
 3453SOL    HW111258   4.311   6.505   5.420
 3453SOL    HW211259   4.378   6.651   5.450
 3454SOL     OW11260   1.179   3.455   3.774
 3454SOL    HW111261   1.161   3.367   3.730
 3454SOL    HW211262   1.277   3.462   3.797
 3455SOL     OW11263   1.546   3.751   5.993
 3455SOL    HW111264   1.600   3.802   6.060
 3455SOL    HW211265   1.573   3.655   5.995
 3456SOL     OW11266   4.834   5.210   2.895
 3456SOL    HW111267   4.793   5.140   2.836
 3456SOL    HW211268   4.933   5.201   2.892
 3457SOL     OW11269   3.985   3.931   0.214
 3457SOL    HW111270   3.999   4.009   0.276
 3457SOL    HW211271   3.929   3.862   0.259
 3458SOL     OW11272   4.166   1.677   1.229
 3458SOL    HW111273   4.076   1.720   1.236
 3458SOL    HW211274   4.224   1.706   1.305
 3459SOL     OW11275   6.455   0.927   2.851
 3459SOL    HW111276   6.452   0.878   2.939
 3459SOL    HW211277   6.470   1.024   2.868
 3460SOL     OW11278   4.857   1.684   5.199
 3460SOL    HW111279   4.895   1.595   5.174
 3460SOL    HW211280   4.760   1.688   5.172
 3461SOL     OW11281   4.709   4.324   4.570
 3461SOL    HW111282   4.631   4.352   4.514
 3461SOL    HW211283   4.794   4.355   4.528
 3462SOL     OW11284   1.303   3.953   6.829
 3462SOL    HW111285   1.267   3.882   6.889
 3462SOL    HW211286   1.325   3.914   6.740
 3463SOL     OW11287   6.521   3.379   6.668
 3463SOL    HW111288   6.424   3.377   6.643
 3463SOL    HW211289   6.532   3.342   6.760
 3464SOL     OW11290   0.353   5.149   4.601
 3464SOL    HW111291   0.304   5.192   4.677
 3464SOL    HW211292   0.308   5.063   4.576
 3465SOL     OW11293   1.002   2.864   1.077
 3465SOL    HW111294   1.049   2.937   1.126
 3465SOL    HW211295   0.904   2.882   1.077
 3466SOL     OW11296   5.130   4.078   3.184
 3466SOL    HW111297   5.121   4.164   3.234
 3466SOL    HW211298   5.227   4.051   3.181
 3467SOL     OW11299   2.188   1.572   6.179
 3467SOL    HW111300   2.128   1.642   6.217
 3467SOL    HW211301   2.149   1.537   6.094
 3468SOL     OW11302   5.799   4.851   1.704
 3468SOL    HW111303   5.792   4.839   1.803
 3468SOL    HW211304   5.729   4.915   1.673
 3469SOL     OW11305   5.362   3.533   0.841
 3469SOL    HW111306   5.298   3.497   0.773
 3469SOL    HW211307   5.445   3.479   0.841
 3470SOL     OW11308   6.273   6.071   6.695
 3470SOL    HW111309   6.294   6.004   6.624
 3470SOL    HW211310   6.328   6.052   6.777
 3471SOL     OW11311   3.825   6.812   4.264
 3471SOL    HW111312   3.870   6.727   4.290
 3471SOL    HW211313   3.887   6.889   4.279
 3472SOL     OW11314   3.550   0.755   4.086
 3472SOL    HW111315   3.570   0.759   3.988
 3472SOL    HW211316   3.633   0.726   4.135
 3473SOL     OW11317   5.145   6.703   3.569
 3473SOL    HW111318   5.098   6.645   3.501
 3473SOL    HW211319   5.158   6.795   3.531
 3474SOL     OW11320   5.727   5.236   0.491
 3474SOL    HW111321   5.822   5.215   0.468
 3474SOL    HW211322   5.724   5.319   0.546
 3475SOL     OW11323   1.725   5.851   4.871
 3475SOL    HW111324   1.753   5.785   4.941
 3475SOL    HW211325   1.634   5.826   4.837
 3476SOL     OW11326   2.711   1.957   3.236
 3476SOL    HW111327   2.811   1.959   3.239
 3476SOL    HW211328   2.677   1.888   3.300
 3477SOL     OW11329   4.844   5.291   2.181
 3477SOL    HW111330   4.869   5.235   2.102
 3477SOL    HW211331   4.917   5.356   2.202
 3478SOL     OW11332   3.507   4.968   0.132
 3478SOL    HW111333   3.543   5.040   0.072
 3478SOL    HW211334   3.512   4.997   0.227
 3479SOL     OW11335   1.908   0.847   0.426
 3479SOL    HW111336   1.941   0.763   0.469
 3479SOL    HW211337   1.900   0.919   0.495
 3480SOL     OW11338   1.697   6.473   4.343
 3480SOL    HW111339   1.619   6.521   4.304
 3480SOL    HW211340   1.693   6.479   4.443
 3481SOL     OW11341   1.906   4.283   0.624
 3481SOL    HW111342   1.848   4.202   0.630
 3481SOL    HW211343   1.945   4.303   0.714
 3482SOL     OW11344   6.794   1.989   1.391
 3482SOL    HW111345   6.803   1.889   1.392
 3482SOL    HW211346   6.804   2.025   1.484
 3483SOL     OW11347   4.264   1.779   1.007
 3483SOL    HW111348   4.241   1.736   1.095
 3483SOL    HW211349   4.226   1.871   1.005
 3484SOL     OW11350   3.373   4.112   3.756
 3484SOL    HW111351   3.465   4.139   3.728
 3484SOL    HW211352   3.319   4.087   3.676
 3485SOL     OW11353   6.175   2.550   3.870
 3485SOL    HW111354   6.252   2.570   3.810
 3485SOL    HW211355   6.131   2.636   3.897
 3486SOL     OW11356   6.326   1.811   2.482
 3486SOL    HW111357   6.268   1.803   2.401
 3486SOL    HW211358   6.422   1.796   2.456
 3487SOL     OW11359   1.429   6.441   1.253
 3487SOL    HW111360   1.407   6.532   1.217
 3487SOL    HW211361   1.405   6.372   1.186
 3488SOL     OW11362   6.392   3.354   5.262
 3488SOL    HW111363   6.489   3.337   5.279
 3488SOL    HW211364   6.368   3.320   5.171
 3489SOL     OW11365   2.315   5.658   6.862
 3489SOL    HW111366   2.357   5.633   6.949
 3489SOL    HW211367   2.340   5.752   6.839
 3490SOL     OW11368   5.617   3.750   0.093
 3490SOL    HW111369   5.557   3.682   0.051
 3490SOL    HW211370   5.707   3.747   0.050
 3491SOL     OW11371   5.965   2.647   5.064
 3491SOL    HW111372   5.892   2.714   5.051
 3491SOL    HW211373   6.038   2.687   5.119
 3492SOL     OW11374   0.768   4.207   6.451
 3492SOL    HW111375   0.825   4.203   6.533
 3492SOL    HW211376   0.672   4.207   6.477
 3493SOL     OW11377   0.062   5.090   1.028
 3493SOL    HW111378   0.063   5.175   1.081
 3493SOL    HW211379   7.003   5.091   0.965
 3494SOL     OW11380   3.121   0.040   1.396
 3494SOL    HW111381   3.033   0.046   1.444
 3494SOL    HW211382   3.187   0.101   1.439
 3495SOL     OW11383   5.706   3.789   6.104
 3495SOL    HW111384   5.722   3.869   6.162
 3495SOL    HW211385   5.786   3.730   6.107
 3496SOL     OW11386   0.510   6.591   1.425
 3496SOL    HW111387   0.483   6.495   1.438
 3496SOL    HW211388   0.541   6.629   1.512
 3497SOL     OW11389   3.150   0.141   4.971
 3497SOL    HW111390   3.093   0.164   4.892
 3497SOL    HW211391   3.100   0.160   5.055
 3498SOL     OW11392   1.553   1.964   0.394
 3498SOL    HW111393   1.628   1.913   0.351
 3498SOL    HW211394   1.564   1.963   0.493
 3499SOL     OW11395   6.705   3.868   3.093
 3499SOL    HW111396   6.679   3.775   3.068
 3499SOL    HW211397   6.804   3.879   3.084
 3500SOL     OW11398   6.677   2.130   0.527
 3500SOL    HW111399   6.733   2.198   0.480
 3500SOL    HW211400   6.667   2.049   0.469
 3501SOL     OW11401   6.890   5.437   3.142
 3501SOL    HW111402   6.924   5.378   3.068
 3501SOL    HW211403   6.839   5.381   3.208
 3502SOL     OW11404   1.000   6.556   1.301
 3502SOL    HW111405   1.015   6.457   1.296
 3502SOL    HW211406   0.904   6.576   1.281
 3503SOL     OW11407   2.850   1.253   3.568
 3503SOL    HW111408   2.901   1.176   3.605
 3503SOL    HW211409   2.893   1.339   3.596
 3504SOL     OW11410   2.036   2.753   2.610
 3504SOL    HW111411   1.996   2.661   2.615
 3504SOL    HW211412   2.100   2.758   2.534
 3505SOL     OW11413   4.449   6.966   4.695
 3505SOL    HW111414   4.548   6.961   4.710
 3505SOL    HW211415   4.419   6.885   4.643
 3506SOL     OW11416   6.887   3.079   2.745
 3506SOL    HW111417   6.841   3.137   2.812
 3506SOL    HW211418   6.882   3.120   2.654
 3507SOL     OW11419   0.080   0.178   5.583
 3507SOL    HW111420   0.147   0.105   5.592
 3507SOL    HW211421   7.015   0.142   5.540
 3508SOL     OW11422   0.440   4.539   6.991
 3508SOL    HW111423   0.534   4.574   6.995
 3508SOL    HW211424   0.413   4.508   0.065
 3509SOL     OW11425   3.916   6.661   6.716
 3509SOL    HW111426   3.818   6.645   6.717
 3509SOL    HW211427   3.950   6.666   6.810
 3510SOL     OW11428   1.992   1.804   2.834
 3510SOL    HW111429   2.088   1.789   2.857
 3510SOL    HW211430   1.978   1.900   2.810
 3511SOL     OW11431   1.104   1.137   3.947
 3511SOL    HW111432   1.179   1.176   4.001
 3511SOL    HW211433   1.052   1.073   4.002
 3512SOL     OW11434   3.077   3.073   2.140
 3512SOL    HW111435   3.169   3.102   2.113
 3512SOL    HW211436   3.065   2.976   2.118
 3513SOL     OW11437   6.796   5.060   0.391
 3513SOL    HW111438   6.863   4.988   0.404
 3513SOL    HW211439   6.704   5.020   0.386
 3514SOL     OW11440   3.594   5.643   3.259
 3514SOL    HW111441   3.622   5.731   3.296
 3514SOL    HW211442   3.654   5.617   3.183
 3515SOL     OW11443   3.733   5.605   4.259
 3515SOL    HW111444   3.740   5.512   4.225
 3515SOL    HW211445   3.694   5.664   4.189
 3516SOL     OW11446   1.509   1.377   0.733
 3516SOL    HW111447   1.575   1.442   0.696
 3516SOL    HW211448   1.456   1.337   0.658
 3517SOL     OW11449   0.259   0.900   6.482
 3517SOL    HW111450   0.171   0.946   6.473
 3517SOL    HW211451   0.245   0.801   6.488
 3518SOL     OW11452   4.173   4.028   6.231
 3518SOL    HW111453   4.239   4.027   6.156
 3518SOL    HW211454   4.168   3.938   6.273
 3519SOL     OW11455   4.053   0.114   6.385
 3519SOL    HW111456   4.070   0.040   6.450
 3519SOL    HW211457   4.013   0.077   6.302
 3520SOL     OW11458   4.603   4.990   0.814
 3520SOL    HW111459   4.702   4.979   0.808
 3520SOL    HW211460   4.581   5.057   0.885
 3521SOL     OW11461   0.459   1.957   5.686
 3521SOL    HW111462   0.448   1.928   5.591
 3521SOL    HW211463   0.534   2.022   5.692
 3522SOL     OW11464   2.279   0.543   1.038
 3522SOL    HW111465   2.374   0.556   1.066
 3522SOL    HW211466   2.225   0.515   1.117
 3523SOL     OW11467   2.393   4.312   4.086
 3523SOL    HW111468   2.470   4.347   4.033
 3523SOL    HW211469   2.382   4.366   4.169
 3524SOL     OW11470   2.669   1.724   3.363
 3524SOL    HW111471   2.744   1.752   3.423
 3524SOL    HW211472   2.696   1.642   3.312
 3525SOL     OW11473   2.073   3.487   4.245
 3525SOL    HW111474   2.099   3.488   4.342
 3525SOL    HW211475   2.065   3.393   4.214
 3526SOL     OW11476   3.638   5.864   3.810
 3526SOL    HW111477   3.708   5.930   3.784
 3526SOL    HW211478   3.593   5.828   3.728
 3527SOL     OW11479   0.045   3.805   6.114
 3527SOL    HW111480   7.012   3.728   6.152
 3527SOL    HW211481   0.016   3.890   6.159
 3528SOL     OW11482   1.168   6.625   3.815
 3528SOL    HW111483   1.229   6.653   3.742
 3528SOL    HW211484   1.212   6.641   3.904
 3529SOL     OW11485   3.637   6.688   0.523
 3529SOL    HW111486   3.650   6.784   0.500
 3529SOL    HW211487   3.572   6.647   0.459
 3530SOL     OW11488   1.483   5.701   2.363
 3530SOL    HW111489   1.520   5.746   2.282
 3530SOL    HW211490   1.524   5.741   2.445
 3531SOL     OW11491   5.249   4.041   6.848
 3531SOL    HW111492   5.270   4.052   6.751
 3531SOL    HW211493   5.332   4.017   6.898
 3532SOL     OW11494   2.752   6.723   6.459
 3532SOL    HW111495   2.700   6.780   6.394
 3532SOL    HW211496   2.817   6.666   6.409
 3533SOL     OW11497   1.559   1.630   2.808
 3533SOL    HW111498   1.501   1.691   2.863
 3533SOL    HW211499   1.547   1.536   2.838
 3534SOL     OW11500   4.793   6.632   4.468
 3534SOL    HW111501   4.704   6.598   4.435
 3534SOL    HW211502   4.837   6.561   4.523
 3535SOL     OW11503   4.278   4.456   0.112
 3535SOL    HW111504   4.281   4.363   0.151
 3535SOL    HW211505   4.241   4.519   0.179
 3536SOL     OW11506   2.159   3.018   2.352
 3536SOL    HW111507   2.100   2.937   2.351
 3536SOL    HW211508   2.131   3.081   2.280
 3537SOL     OW11509   3.214   5.127   1.633
 3537SOL    HW111510   3.145   5.165   1.571
 3537SOL    HW211511   3.193   5.030   1.650
 3538SOL     OW11512   2.585   0.421   3.757
 3538SOL    HW111513   2.614   0.516   3.749
 3538SOL    HW211514   2.636   0.364   3.692
 3539SOL     OW11515   5.036   5.469   6.018
 3539SOL    HW111516   4.946   5.456   6.060
 3539SOL    HW211517   5.066   5.384   5.976
 3540SOL     OW11518   5.092   4.273   0.476
 3540SOL    HW111519   5.033   4.352   0.462
 3540SOL    HW211520   5.161   4.271   0.403
 3541SOL     OW11521   0.128   2.812   2.153
 3541SOL    HW111522   0.060   2.826   2.081
 3541SOL    HW211523   0.099   2.738   2.213
 3542SOL     OW11524   5.949   1.071   6.900
 3542SOL    HW111525   5.923   1.007   6.828
 3542SOL    HW211526   6.036   1.041   6.941
 3543SOL     OW11527   0.006   2.888   4.950
 3543SOL    HW111528   0.075   2.868   5.020
 3543SOL    HW211529   0.046   2.874   4.859
 3544SOL     OW11530   3.957   4.840   5.760
 3544SOL    HW111531   3.908   4.871   5.841
 3544SOL    HW211532   3.981   4.743   5.770
 3545SOL     OW11533   2.666   6.220   1.625
 3545SOL    HW111534   2.603   6.187   1.695
 3545SOL    HW211535   2.679   6.319   1.635
 3546SOL     OW11536   0.179   4.463   0.806
 3546SOL    HW111537   0.252   4.519   0.847
 3546SOL    HW211538   0.120   4.522   0.751
 3547SOL     OW11539   1.906   3.952   4.280
 3547SOL    HW111540   1.889   4.012   4.201
 3547SOL    HW211541   1.868   3.994   4.362
 3548SOL     OW11542   5.968   0.242   5.266
 3548SOL    HW111543   5.990   0.339   5.252
 3548SOL    HW211544   5.974   0.220   5.363
 3549SOL     OW11545   1.795   0.027   6.532
 3549SOL    HW111546   1.834   0.118   6.543
 3549SOL    HW211547   1.735   0.006   6.610
 3550SOL     OW11548   6.461   2.540   4.862
 3550SOL    HW111549   6.474   2.563   4.766
 3550SOL    HW211550   6.550   2.527   4.905
 3551SOL     OW11551   6.444   1.270   5.486
 3551SOL    HW111552   6.420   1.286   5.581
 3551SOL    HW211553   6.521   1.329   5.460
 3552SOL     OW11554   6.421   0.749   3.880
 3552SOL    HW111555   6.325   0.735   3.854
 3552SOL    HW211556   6.477   0.678   3.838
 3553SOL     OW11557   5.668   6.155   6.425
 3553SOL    HW111558   5.660   6.107   6.513
 3553SOL    HW211559   5.749   6.213   6.426
 3554SOL     OW11560   6.298   3.493   6.902
 3554SOL    HW111561   6.269   3.588   6.888
 3554SOL    HW211562   6.220   3.438   6.932
 3555SOL     OW11563   3.136   1.158   5.165
 3555SOL    HW111564   3.226   1.131   5.199
 3555SOL    HW211565   3.068   1.092   5.196
 3556SOL     OW11566   5.391   1.222   0.603
 3556SOL    HW111567   5.291   1.228   0.606
 3556SOL    HW211568   5.425   1.191   0.692
 3557SOL     OW11569   4.666   0.243   0.972
 3557SOL    HW111570   4.658   0.188   0.888
 3557SOL    HW211571   4.726   0.197   1.037
 3558SOL     OW11572   4.598   5.866   3.063
 3558SOL    HW111573   4.637   5.857   3.154
 3558SOL    HW211574   4.509   5.822   3.060
 3559SOL     OW11575   4.809   6.266   6.491
 3559SOL    HW111576   4.719   6.311   6.486
 3559SOL    HW211577   4.813   6.210   6.574
 3560SOL     OW11578   1.785   5.606   4.690
 3560SOL    HW111579   1.872   5.606   4.738
 3560SOL    HW211580   1.740   5.695   4.703
 3561SOL     OW11581   4.483   3.205   6.436
 3561SOL    HW111582   4.451   3.188   6.529
 3561SOL    HW211583   4.448   3.294   6.405
 3562SOL     OW11584   2.481   1.114   0.550
 3562SOL    HW111585   2.443   1.041   0.494
 3562SOL    HW211586   2.527   1.181   0.491
 3563SOL     OW11587   6.035   1.863   6.155
 3563SOL    HW111588   6.017   1.792   6.224
 3563SOL    HW211589   6.066   1.819   6.070
 3564SOL     OW11590   5.756   2.507   3.074
 3564SOL    HW111591   5.695   2.493   3.152
 3564SOL    HW211592   5.837   2.450   3.084
 3565SOL     OW11593   4.705   6.012   5.367
 3565SOL    HW111594   4.801   5.990   5.387
 3565SOL    HW211595   4.695   6.032   5.269
 3566SOL     OW11596   0.665   0.949   4.910
 3566SOL    HW111597   0.705   0.976   4.998
 3566SOL    HW211598   0.735   0.905   4.854
 3567SOL     OW11599   1.140   4.453   6.861
 3567SOL    HW111600   1.088   4.536   6.884
 3567SOL    HW211601   1.215   4.477   6.799
 3568SOL     OW11602   1.663   3.945   5.413
 3568SOL    HW111603   1.569   3.910   5.406
 3568SOL    HW211604   1.699   3.926   5.505
 3569SOL     OW11605   0.636   0.267   3.833
 3569SOL    HW111606   0.658   0.170   3.833
 3569SOL    HW211607   0.720   0.321   3.834
 3570SOL     OW11608   0.564   1.746   4.880
 3570SOL    HW111609   0.639   1.808   4.854
 3570SOL    HW211610   0.477   1.788   4.857
 3571SOL     OW11611   6.814   5.583   5.066
 3571SOL    HW111612   6.818   5.540   4.976
 3571SOL    HW211613   6.813   5.682   5.055
 3572SOL     OW11614   5.482   6.753   5.549
 3572SOL    HW111615   5.520   6.671   5.592
 3572SOL    HW211616   5.520   6.835   5.593
 3573SOL     OW11617   0.112   2.845   1.724
 3573SOL    HW111618   0.096   2.931   1.772
 3573SOL    HW211619   0.120   2.771   1.791
 3574SOL     OW11620   0.445   3.712   0.471
 3574SOL    HW111621   0.358   3.759   0.485
 3574SOL    HW211622   0.502   3.766   0.408
 3575SOL     OW11623   6.723   0.538   2.560
 3575SOL    HW111624   6.745   0.597   2.637
 3575SOL    HW211625   6.768   0.450   2.572
 3576SOL     OW11626   0.417   1.326   1.012
 3576SOL    HW111627   0.449   1.291   1.100
 3576SOL    HW211628   0.495   1.338   0.951
 3577SOL     OW11629   2.394   4.458   0.347
 3577SOL    HW111630   2.373   4.398   0.424
 3577SOL    HW211631   2.377   4.553   0.374
 3578SOL     OW11632   3.440   4.636   1.626
 3578SOL    HW111633   3.491   4.665   1.707
 3578SOL    HW211634   3.502   4.629   1.548
 3579SOL     OW11635   2.590   3.101   6.497
 3579SOL    HW111636   2.553   3.037   6.428
 3579SOL    HW211637   2.643   3.049   6.564
 3580SOL     OW11638   5.526   1.267   2.102
 3580SOL    HW111639   5.543   1.283   2.199
 3580SOL    HW211640   5.443   1.315   2.074
 3581SOL     OW11641   6.948   1.625   2.675
 3581SOL    HW111642   6.915   1.532   2.694
 3581SOL    HW211643   6.881   1.691   2.706
 3582SOL     OW11644   0.943   0.692   5.830
 3582SOL    HW111645   0.917   0.597   5.845
 3582SOL    HW211646   0.961   0.736   5.918
 3583SOL     OW11647   1.297   6.807   2.392
 3583SOL    HW111648   1.361   6.733   2.370
 3583SOL    HW211649   1.296   6.873   2.317
 3584SOL     OW11650   5.102   0.535   4.873
 3584SOL    HW111651   5.156   0.498   4.798
 3584SOL    HW211652   5.039   0.465   4.906
 3585SOL     OW11653   2.290   4.909   2.925
 3585SOL    HW111654   2.270   4.984   2.862
 3585SOL    HW211655   2.208   4.852   2.936
 3586SOL     OW11656   1.299   1.304   0.191
 3586SOL    HW111657   1.287   1.355   0.106
 3586SOL    HW211658   1.314   1.368   0.267
 3587SOL     OW11659   3.793   6.286   5.890
 3587SOL    HW111660   3.776   6.384   5.892
 3587SOL    HW211661   3.886   6.270   5.857
 3588SOL     OW11662   2.554   2.810   5.609
 3588SOL    HW111663   2.599   2.725   5.582
 3588SOL    HW211664   2.492   2.839   5.536
 3589SOL     OW11665   2.866   6.134   4.436
 3589SOL    HW111666   2.865   6.174   4.527
 3589SOL    HW211667   2.773   6.113   4.407
 3590SOL     OW11668   1.395   5.899   6.876
 3590SOL    HW111669   1.439   5.952   6.950
 3590SOL    HW211670   1.399   5.802   6.898
 3591SOL     OW11671   4.808   2.016   4.684
 3591SOL    HW111672   4.806   1.918   4.702
 3591SOL    HW211673   4.836   2.064   4.767
 3592SOL     OW11674   5.568   1.199   2.396
 3592SOL    HW111675   5.555   1.283   2.448
 3592SOL    HW211676   5.511   1.127   2.434
 3593SOL     OW11677   0.710   4.874   4.595
 3593SOL    HW111678   0.639   4.805   4.610
 3593SOL    HW211679   0.685   4.959   4.641
 3594SOL     OW11680   4.451   1.367   4.656
 3594SOL    HW111681   4.456   1.328   4.747
 3594SOL    HW211682   4.355   1.381   4.631
 3595SOL     OW11683   2.213   6.726   6.855
 3595SOL    HW111684   2.152   6.766   6.924
 3595SOL    HW211685   2.273   6.660   6.899
 3596SOL     OW11686   6.192   3.425   2.838
 3596SOL    HW111687   6.141   3.507   2.862
 3596SOL    HW211688   6.134   3.364   2.784
 3597SOL     OW11689   4.205   0.505   3.974
 3597SOL    HW111690   4.297   0.531   3.947
 3597SOL    HW211691   4.153   0.479   3.892
 3598SOL     OW11692   2.386   6.883   0.075
 3598SOL    HW111693   2.408   6.787   0.058
 3598SOL    HW211694   2.449   6.921   0.142
 3599SOL     OW11695   0.390   2.133   4.088
 3599SOL    HW111696   0.337   2.052   4.113
 3599SOL    HW211697   0.383   2.201   4.160
 3600SOL     OW11698   6.545   6.610   0.966
 3600SOL    HW111699   6.471   6.553   1.002
 3600SOL    HW211700   6.576   6.672   1.038
 3601SOL     OW11701   6.758   3.729   5.877
 3601SOL    HW111702   6.845   3.681   5.866
 3601SOL    HW211703   6.748   3.759   5.972
 3602SOL     OW11704   3.403   2.578   0.904
 3602SOL    HW111705   3.444   2.637   0.834
 3602SOL    HW211706   3.443   2.486   0.898
 3603SOL     OW11707   3.665   5.345   5.188
 3603SOL    HW111708   3.718   5.397   5.256
 3603SOL    HW211709   3.685   5.247   5.198
 3604SOL     OW11710   5.684   4.320   3.280
 3604SOL    HW111711   5.730   4.244   3.328
 3604SOL    HW211712   5.605   4.350   3.333
 3605SOL     OW11713   5.775   1.436   6.583
 3605SOL    HW111714   5.717   1.465   6.658
 3605SOL    HW211715   5.719   1.413   6.504
 3606SOL     OW11716   1.749   3.625   2.710
 3606SOL    HW111717   1.750   3.577   2.798
 3606SOL    HW211718   1.655   3.643   2.682
 3607SOL     OW11719   4.393   6.590   5.149
 3607SOL    HW111720   4.469   6.526   5.158
 3607SOL    HW211721   4.309   6.541   5.124
 3608SOL     OW11722   6.605   3.279   2.636
 3608SOL    HW111723   6.644   3.266   2.544
 3608SOL    HW211724   6.561   3.369   2.640
 3609SOL     OW11725   0.960   0.935   4.067
 3609SOL    HW111726   0.947   0.910   4.163
 3609SOL    HW211727   0.885   0.993   4.037
 3610SOL     OW11728   1.322   4.710   5.700
 3610SOL    HW111729   1.330   4.809   5.686
 3610SOL    HW211730   1.339   4.663   5.614
 3611SOL     OW11731   4.610   4.550   6.705
 3611SOL    HW111732   4.654   4.481   6.647
 3611SOL    HW211733   4.544   4.602   6.650
 3612SOL     OW11734   2.428   5.577   1.076
 3612SOL    HW111735   2.470   5.668   1.076
 3612SOL    HW211736   2.499   5.507   1.070
 3613SOL     OW11737   5.518   4.598   6.127
 3613SOL    HW111738   5.434   4.633   6.085
 3613SOL    HW211739   5.531   4.641   6.216
 3614SOL     OW11740   3.705   3.283   4.997
 3614SOL    HW111741   3.778   3.228   4.956
 3614SOL    HW211742   3.627   3.224   5.020
 3615SOL     OW11743   5.967   0.020   6.545
 3615SOL    HW111744   5.888   0.056   6.495
 3615SOL    HW211745   6.036   7.006   6.479
 3616SOL     OW11746   6.950   1.203   3.953
 3616SOL    HW111747   6.920   1.271   3.885
 3616SOL    HW211748   6.912   1.227   4.042
 3617SOL     OW11749   0.308   0.491   1.224
 3617SOL    HW111750   0.283   0.588   1.218
 3617SOL    HW211751   0.242   0.444   1.283
 3618SOL     OW11752   3.900   5.633   6.372
 3618SOL    HW111753   3.952   5.636   6.287
 3618SOL    HW211754   3.872   5.539   6.390
 3619SOL     OW11755   4.976   3.540   3.756
 3619SOL    HW111756   5.037   3.596   3.811
 3619SOL    HW211757   5.012   3.447   3.750
 3620SOL     OW11758   5.611   2.019   5.298
 3620SOL    HW111759   5.524   2.046   5.258
 3620SOL    HW211760   5.667   2.101   5.312
 3621SOL     OW11761   2.106   2.588   6.546
 3621SOL    HW111762   2.048   2.625   6.619
 3621SOL    HW211763   2.160   2.661   6.505
 3622SOL     OW11764   1.537   4.120   0.798
 3622SOL    HW111765   1.591   4.202   0.777
 3622SOL    HW211766   1.522   4.116   0.897
 3623SOL     OW11767   6.437   5.227   4.691
 3623SOL    HW111768   6.430   5.155   4.760
 3623SOL    HW211769   6.375   5.205   4.615
 3624SOL     OW11770   1.813   0.455   1.795
 3624SOL    HW111771   1.804   0.362   1.759
 3624SOL    HW211772   1.838   0.451   1.892
 3625SOL     OW11773   1.571   1.907   5.237
 3625SOL    HW111774   1.561   1.935   5.142
 3625SOL    HW211775   1.556   1.986   5.297
 3626SOL     OW11776   1.607   3.275   5.347
 3626SOL    HW111777   1.686   3.335   5.333
 3626SOL    HW211778   1.527   3.330   5.370
 3627SOL     OW11779   3.900   3.546   4.458
 3627SOL    HW111780   3.823   3.485   4.444
 3627SOL    HW211781   3.867   3.639   4.474
 3628SOL     OW11782   3.012   5.365   3.892
 3628SOL    HW111783   3.011   5.434   3.820
 3628SOL    HW211784   2.946   5.390   3.963
 3629SOL     OW11785   6.246   3.802   4.822
 3629SOL    HW111786   6.332   3.751   4.830
 3629SOL    HW211787   6.261   3.897   4.849
 3630SOL     OW11788   6.284   1.861   4.454
 3630SOL    HW111789   6.302   1.827   4.361
 3630SOL    HW211790   6.320   1.954   4.463
 3631SOL     OW11791   2.165   0.637   4.170
 3631SOL    HW111792   2.148   0.712   4.106
 3631SOL    HW211793   2.230   0.572   4.129
 3632SOL     OW11794   4.771   6.752   6.236
 3632SOL    HW111795   4.868   6.766   6.257
 3632SOL    HW211796   4.743   6.813   6.162
 3633SOL     OW11797   0.782   2.949   5.560
 3633SOL    HW111798   0.860   2.920   5.505
 3633SOL    HW211799   0.749   2.872   5.614
 3634SOL     OW11800   2.495   4.757   6.473
 3634SOL    HW111801   2.527   4.666   6.448
 3634SOL    HW211802   2.430   4.791   6.404
 3635SOL     OW11803   1.704   1.848   4.450
 3635SOL    HW111804   1.788   1.851   4.396
 3635SOL    HW211805   1.726   1.841   4.547
 3636SOL     OW11806   0.415   6.893   1.295
 3636SOL    HW111807   0.507   6.880   1.331
 3636SOL    HW211808   0.419   6.898   1.195
 3637SOL     OW11809   4.832   1.450   2.611
 3637SOL    HW111810   4.927   1.422   2.595
 3637SOL    HW211811   4.829   1.548   2.633
 3638SOL     OW11812   6.952   4.919   3.308
 3638SOL    HW111813   6.920   4.878   3.393
 3638SOL    HW211814   6.884   4.985   3.275
 3639SOL     OW11815   2.647   5.826   6.632
 3639SOL    HW111816   2.606   5.815   6.542
 3639SOL    HW211817   2.719   5.757   6.645
 3640SOL     OW11818   2.207   6.518   3.009
 3640SOL    HW111819   2.161   6.473   2.933
 3640SOL    HW211820   2.153   6.507   3.092
 3641SOL     OW11821   2.060   0.905   5.042
 3641SOL    HW111822   2.044   0.965   4.963
 3641SOL    HW211823   2.156   0.877   5.043
 3642SOL     OW11824   6.309   0.060   3.084
 3642SOL    HW111825   6.296   6.979   3.097
 3642SOL    HW211826   6.401   0.086   3.113
 3643SOL     OW11827   4.048   6.973   4.197
 3643SOL    HW111828   4.137   7.009   4.168
 3643SOL    HW211829   4.044   6.875   4.177
 3644SOL     OW11830   6.079   0.562   1.830
 3644SOL    HW111831   6.056   0.635   1.894
 3644SOL    HW211832   6.053   0.589   1.738
 3645SOL     OW11833   4.780   5.639   3.848
 3645SOL    HW111834   4.728   5.723   3.860
 3645SOL    HW211835   4.717   5.563   3.833
 3646SOL     OW11836   0.546   5.420   5.280
 3646SOL    HW111837   0.591   5.509   5.275
 3646SOL    HW211838   0.454   5.427   5.241
 3647SOL     OW11839   3.833   3.124   0.940
 3647SOL    HW111840   3.814   3.056   1.011
 3647SOL    HW211841   3.876   3.079   0.862
 3648SOL     OW11842   2.561   6.557   3.814
 3648SOL    HW111843   2.472   6.513   3.830
 3648SOL    HW211844   2.547   6.655   3.802
 3649SOL     OW11845   4.104   3.376   3.293
 3649SOL    HW111846   4.139   3.330   3.212
 3649SOL    HW211847   4.115   3.317   3.373
 3650SOL     OW11848   5.685   6.203   1.796
 3650SOL    HW111849   5.593   6.178   1.766
 3650SOL    HW211850   5.678   6.270   1.871
 3651SOL     OW11851   1.879   5.288   1.862
 3651SOL    HW111852   1.949   5.224   1.895
 3651SOL    HW211853   1.792   5.240   1.852
 3652SOL     OW11854   4.206   6.291   4.028
 3652SOL    HW111855   4.155   6.276   4.113
 3652SOL    HW211856   4.150   6.346   3.966
 3653SOL     OW11857   0.342   3.328   3.297
 3653SOL    HW111858   0.379   3.407   3.345
 3653SOL    HW211859   0.287   3.359   3.220
 3654SOL     OW11860   2.251   6.903   1.936
 3654SOL    HW111861   2.320   6.880   1.867
 3654SOL    HW211862   2.161   6.908   1.894
 3655SOL     OW11863   6.369   1.121   3.652
 3655SOL    HW111864   6.377   1.204   3.597
 3655SOL    HW211865   6.288   1.126   3.710
 3656SOL     OW11866   1.707   1.854   2.839
 3656SOL    HW111867   1.806   1.844   2.841
 3656SOL    HW211868   1.665   1.766   2.815
 3657SOL     OW11869   5.813   5.215   0.962
 3657SOL    HW111870   5.724   5.254   0.939
 3657SOL    HW211871   5.805   5.115   0.969
 3658SOL     OW11872   2.627   4.448   5.574
 3658SOL    HW111873   2.620   4.465   5.475
 3658SOL    HW211874   2.716   4.408   5.595
 3659SOL     OW11875   1.673   3.532   6.470
 3659SOL    HW111876   1.695   3.603   6.537
 3659SOL    HW211877   1.731   3.452   6.485
 3660SOL     OW11878   5.048   4.133   0.854
 3660SOL    HW111879   5.075   4.069   0.926
 3660SOL    HW211880   5.119   4.137   0.784
 3661SOL     OW11881   5.324   0.876   1.958
 3661SOL    HW111882   5.361   0.906   1.870
 3661SOL    HW211883   5.386   0.906   2.031
 3662SOL     OW11884   1.599   6.229   4.319
 3662SOL    HW111885   1.636   6.322   4.323
 3662SOL    HW211886   1.674   6.164   4.334
 3663SOL     OW11887   2.567   2.743   5.855
 3663SOL    HW111888   2.548   2.764   5.760
 3663SOL    HW211889   2.508   2.668   5.885
 3664SOL     OW11890   3.813   6.979   2.152
 3664SOL    HW111891   3.745   6.982   2.225
 3664SOL    HW211892   3.899   0.002   2.183
 3665SOL     OW11893   2.686   1.793   5.233
 3665SOL    HW111894   2.757   1.741   5.186
 3665SOL    HW211895   2.714   1.810   5.327
 3666SOL     OW11896   0.840   4.774   3.095
 3666SOL    HW111897   0.820   4.685   3.137
 3666SOL    HW211898   0.864   4.760   2.998
 3667SOL     OW11899   0.111   0.713   0.041
 3667SOL    HW111900   0.077   0.770   0.116
 3667SOL    HW211901   0.033   0.680   7.005
 3668SOL     OW11902   2.185   7.015   1.456
 3668SOL    HW111903   2.233   6.929   1.436
 3668SOL    HW211904   2.086   6.999   1.454
 3669SOL     OW11905   5.158   1.553   4.526
 3669SOL    HW111906   5.130   1.649   4.531
 3669SOL    HW211907   5.188   1.532   4.433
 3670SOL     OW11908   3.263   4.987   5.914
 3670SOL    HW111909   3.345   4.998   5.971
 3670SOL    HW211910   3.225   5.077   5.892
 3671SOL     OW11911   1.836   1.560   3.323
 3671SOL    HW111912   1.811   1.607   3.239
 3671SOL    HW211913   1.796   1.608   3.401
 3672SOL     OW11914   6.117   6.009   0.057
 3672SOL    HW111915   6.165   5.987   0.142
 3672SOL    HW211916   6.062   5.931   0.029
 3673SOL     OW11917   4.061   6.732   6.174
 3673SOL    HW111918   4.071   6.651   6.117
 3673SOL    HW211919   3.964   6.743   6.199
 3674SOL     OW11920   1.068   6.409   0.929
 3674SOL    HW111921   1.009   6.489   0.922
 3674SOL    HW211922   1.122   6.414   1.013
 3675SOL     OW11923   2.254   2.197   4.185
 3675SOL    HW111924   2.255   2.180   4.283
 3675SOL    HW211925   2.195   2.130   4.140
 3676SOL     OW11926   0.888   4.767   2.616
 3676SOL    HW111927   0.932   4.733   2.533
 3676SOL    HW211928   0.956   4.779   2.688
 3677SOL     OW11929   6.404   0.743   3.310
 3677SOL    HW111930   6.304   0.741   3.315
 3677SOL    HW211931   6.440   0.776   3.397
 3678SOL     OW11932   0.794   2.740   4.260
 3678SOL    HW111933   0.766   2.646   4.281
 3678SOL    HW211934   0.714   2.795   4.235
 3679SOL     OW11935   6.146   1.284   1.759
 3679SOL    HW111936   6.223   1.317   1.813
 3679SOL    HW211937   6.171   1.197   1.717
 3680SOL     OW11938   6.253   4.621   4.946
 3680SOL    HW111939   6.188   4.685   4.986
 3680SOL    HW211940   6.214   4.582   4.863
 3681SOL     OW11941   5.425   0.598   4.979
 3681SOL    HW111942   5.358   0.530   4.948
 3681SOL    HW211943   5.386   0.690   4.972
 3682SOL     OW11944   0.309   2.024   0.040
 3682SOL    HW111945   0.328   1.933   0.004
 3682SOL    HW211946   0.329   2.092   6.987
 3683SOL     OW11947   4.980   6.117   3.887
 3683SOL    HW111948   4.884   6.094   3.870
 3683SOL    HW211949   5.009   6.074   3.973
 3684SOL     OW11950   2.360   3.934   1.852
 3684SOL    HW111951   2.321   4.019   1.889
 3684SOL    HW211952   2.305   3.857   1.882
 3685SOL     OW11953   5.753   5.534   5.741
 3685SOL    HW111954   5.695   5.560   5.817
 3685SOL    HW211955   5.842   5.579   5.750
 3686SOL     OW11956   0.643   4.175   0.383
 3686SOL    HW111957   0.715   4.167   0.452
 3686SOL    HW211958   0.664   4.249   0.319
 3687SOL     OW11959   3.950   0.690   0.602
 3687SOL    HW111960   4.018   0.649   0.541
 3687SOL    HW211961   3.992   0.708   0.691
 3688SOL     OW11962   0.069   2.631   6.748
 3688SOL    HW111963   0.150   2.618   6.805
 3688SOL    HW211964   0.041   2.542   6.709
 3689SOL     OW11965   1.546   6.205   3.722
 3689SOL    HW111966   1.629   6.176   3.675
 3689SOL    HW211967   1.570   6.253   3.806
 3690SOL     OW11968   4.942   4.687   5.860
 3690SOL    HW111969   4.925   4.785   5.871
 3690SOL    HW211970   4.941   4.643   5.950
 3691SOL     OW11971   3.259   3.301   6.337
 3691SOL    HW111972   3.303   3.311   6.248
 3691SOL    HW211973   3.160   3.314   6.326
 3692SOL     OW11974   6.707   0.408   5.249
 3692SOL    HW111975   6.671   0.337   5.190
 3692SOL    HW211976   6.690   0.383   5.345
 3693SOL     OW11977   1.666   1.295   3.485
 3693SOL    HW111978   1.682   1.312   3.582
 3693SOL    HW211979   1.609   1.369   3.447
 3694SOL     OW11980   1.770   4.899   3.799
 3694SOL    HW111981   1.852   4.907   3.742
 3694SOL    HW211982   1.737   4.990   3.823
 3695SOL     OW11983   2.289   2.619   0.940
 3695SOL    HW111984   2.340   2.555   0.883
 3695SOL    HW211985   2.331   2.710   0.935
 3696SOL     OW11986   3.002   5.913   5.566
 3696SOL    HW111987   3.021   5.964   5.650
 3696SOL    HW211988   3.028   5.817   5.579
 3697SOL     OW11989   5.299   1.044   3.450
 3697SOL    HW111990   5.395   1.057   3.425
 3697SOL    HW211991   5.243   1.035   3.368
 3698SOL     OW11992   3.353   6.837   6.092
 3698SOL    HW111993   3.295   6.819   6.012
 3698SOL    HW211994   3.432   6.774   6.090
 3699SOL     OW11995   0.813   5.390   2.042
 3699SOL    HW111996   0.892   5.375   2.101
 3699SOL    HW211997   0.761   5.306   2.033
 3700SOL     OW11998   6.147   0.504   3.956
 3700SOL    HW111999   6.182   0.576   3.896
 3700SOL    HW212000   6.220   0.440   3.979
 3701SOL     OW12001   4.353   1.310   3.529
 3701SOL    HW112002   4.260   1.322   3.563
 3701SOL    HW212003   4.373   1.379   3.459
 3702SOL     OW12004   4.500   1.355   6.691
 3702SOL    HW112005   4.507   1.440   6.743
 3702SOL    HW212006   4.450   1.287   6.744
 3703SOL     OW12007   3.470   5.020   0.744
 3703SOL    HW112008   3.443   4.968   0.662
 3703SOL    HW212009   3.542   4.970   0.792
 3704SOL     OW12010   3.413   6.572   1.003
 3704SOL    HW112011   3.429   6.619   1.090
 3704SOL    HW212012   3.486   6.506   0.987
 3705SOL     OW12013   0.323   1.000   4.026
 3705SOL    HW112014   0.402   0.955   3.983
 3705SOL    HW212015   0.353   1.084   4.072
 3706SOL     OW12016   2.604   2.165   3.051
 3706SOL    HW112017   2.653   2.251   3.037
 3706SOL    HW212018   2.661   2.102   3.103
 3707SOL     OW12019   4.323   2.409   5.384
 3707SOL    HW112020   4.401   2.464   5.354
 3707SOL    HW212021   4.352   2.346   5.456
 3708SOL     OW12022   6.268   6.837   0.792
 3708SOL    HW112023   6.244   6.849   0.695
 3708SOL    HW212024   6.356   6.789   0.798
 3709SOL     OW12025   0.518   6.531   6.398
 3709SOL    HW112026   0.534   6.528   6.299
 3709SOL    HW212027   0.558   6.450   6.440
 3710SOL     OW12028   0.749   5.171   6.628
 3710SOL    HW112029   0.813   5.201   6.558
 3710SOL    HW212030   0.664   5.224   6.620
 3711SOL     OW12031   6.671   5.117   2.190
 3711SOL    HW112032   6.614   5.049   2.143
 3711SOL    HW212033   6.612   5.187   2.230
 3712SOL     OW12034   1.465   6.659   5.930
 3712SOL    HW112035   1.496   6.598   5.857
 3712SOL    HW212036   1.497   6.625   6.018
 3713SOL     OW12037   3.334   4.949   6.212
 3713SOL    HW112038   3.273   5.025   6.237
 3713SOL    HW212039   3.422   4.986   6.181
 3714SOL     OW12040   4.689   2.095   4.964
 3714SOL    HW112041   4.609   2.092   5.024
 3714SOL    HW212042   4.761   2.038   5.003
 3715SOL     OW12043   4.688   4.264   3.325
 3715SOL    HW112044   4.649   4.203   3.255
 3715SOL    HW212045   4.735   4.209   3.394
 3716SOL     OW12046   1.409   1.015   4.602
 3716SOL    HW112047   1.403   0.986   4.506
 3716SOL    HW212048   1.456   0.944   4.655
 3717SOL     OW12049   6.041   0.347   6.806
 3717SOL    HW112050   6.109   0.337   6.879
 3717SOL    HW212051   5.981   0.267   6.805
 3718SOL     OW12052   0.880   6.394   6.250
 3718SOL    HW112053   0.801   6.354   6.204
 3718SOL    HW212054   0.959   6.332   6.241
 3719SOL     OW12055   3.697   4.104   0.517
 3719SOL    HW112056   3.636   4.039   0.472
 3719SOL    HW212057   3.677   4.197   0.486
 3720SOL     OW12058   0.052   1.319   6.412
 3720SOL    HW112059   0.113   1.387   6.371
 3720SOL    HW212060   6.980   1.359   6.427
 3721SOL     OW12061   5.492   3.057   0.243
 3721SOL    HW112062   5.438   2.976   0.217
 3721SOL    HW212063   5.490   3.067   0.342
 3722SOL     OW12064   4.324   6.026   0.511
 3722SOL    HW112065   4.389   5.973   0.457
 3722SOL    HW212066   4.373   6.089   0.570
 3723SOL     OW12067   4.304   1.333   0.605
 3723SOL    HW112068   4.380   1.389   0.571
 3723SOL    HW212069   4.281   1.362   0.698
 3724SOL     OW12070   1.137   4.086   6.438
 3724SOL    HW112071   1.142   3.988   6.456
 3724SOL    HW212072   1.147   4.136   6.525
 3725SOL     OW12073   5.071   6.196   1.583
 3725SOL    HW112074   5.000   6.258   1.615
 3725SOL    HW212075   5.125   6.241   1.512
 3726SOL     OW12076   6.235   2.912   1.668
 3726SOL    HW112077   6.224   2.990   1.607
 3726SOL    HW212078   6.180   2.835   1.635
 3727SOL     OW12079   2.983   2.779   5.733
 3727SOL    HW112080   2.934   2.733   5.808
 3727SOL    HW212081   2.917   2.815   5.668
 3728SOL     OW12082   0.776   3.809   6.630
 3728SOL    HW112083   0.811   3.899   6.655
 3728SOL    HW212084   0.724   3.815   6.545
 3729SOL     OW12085   1.112   3.628   3.500
 3729SOL    HW112086   1.186   3.648   3.564
 3729SOL    HW212087   1.025   3.659   3.539
 3730SOL     OW12088   1.905   6.822   1.364
 3730SOL    HW112089   1.819   6.836   1.413
 3730SOL    HW212090   1.888   6.824   1.265
 3731SOL     OW12091   2.923   6.137   0.134
 3731SOL    HW112092   2.975   6.117   0.051
 3731SOL    HW212093   2.890   6.051   0.174
 3732SOL     OW12094   1.821   3.706   4.356
 3732SOL    HW112095   1.766   3.674   4.279
 3732SOL    HW212096   1.866   3.792   4.332
 3733SOL     OW12097   3.428   2.999   2.209
 3733SOL    HW112098   3.380   2.928   2.157
 3733SOL    HW212099   3.394   3.089   2.181
 3734SOL     OW12100   4.499   1.710   3.211
 3734SOL    HW112101   4.474   1.672   3.122
 3734SOL    HW212102   4.525   1.806   3.201
 3735SOL     OW12103   3.961   2.378   1.740
 3735SOL    HW112104   3.990   2.282   1.745
 3735SOL    HW212105   3.870   2.387   1.780
 3736SOL     OW12106   5.146   0.863   6.236
 3736SOL    HW112107   5.054   0.876   6.275
 3736SOL    HW212108   5.139   0.860   6.137
 3737SOL     OW12109   2.859   0.144   3.843
 3737SOL    HW112110   2.896   0.072   3.785
 3737SOL    HW212111   2.842   0.226   3.787
 3738SOL     OW12112   0.611   0.686   4.160
 3738SOL    HW112113   0.535   0.620   4.170
 3738SOL    HW212114   0.617   0.742   4.242
 3739SOL     OW12115   0.142   3.523   0.820
 3739SOL    HW112116   0.080   3.506   0.896
 3739SOL    HW212117   0.122   3.458   0.746
 3740SOL     OW12118   5.749   6.852   0.327
 3740SOL    HW112119   5.716   6.868   0.233
 3740SOL    HW212120   5.848   6.865   0.330
 3741SOL     OW12121   3.662   0.603   0.244
 3741SOL    HW112122   3.670   0.627   0.341
 3741SOL    HW212123   3.651   0.504   0.235
 3742SOL     OW12124   3.598   3.476   6.274
 3742SOL    HW112125   3.544   3.540   6.220
 3742SOL    HW212126   3.692   3.474   6.239
 3743SOL     OW12127   0.862   6.206   5.949
 3743SOL    HW112128   0.800   6.217   6.027
 3743SOL    HW212129   0.913   6.120   5.960
 3744SOL     OW12130   6.201   4.703   3.394
 3744SOL    HW112131   6.143   4.783   3.408
 3744SOL    HW212132   6.171   4.655   3.311
 3745SOL     OW12133   5.234   4.835   1.276
 3745SOL    HW112134   5.189   4.815   1.363
 3745SOL    HW212135   5.293   4.915   1.286
 3746SOL     OW12136   4.000   1.281   1.190
 3746SOL    HW112137   3.948   1.270   1.275
 3746SOL    HW212138   3.960   1.355   1.135
 3747SOL     OW12139   3.098   6.631   1.700
 3747SOL    HW112140   3.112   6.553   1.639
 3747SOL    HW212141   3.165   6.702   1.680
 3748SOL     OW12142   5.692   0.488   1.892
 3748SOL    HW112143   5.625   0.494   1.819
 3748SOL    HW212144   5.773   0.439   1.859
 3749SOL     OW12145   1.321   0.597   4.011
 3749SOL    HW112146   1.342   0.617   3.915
 3749SOL    HW212147   1.396   0.628   4.068
 3750SOL     OW12148   0.721   3.961   6.912
 3750SOL    HW112149   0.665   3.949   6.994
 3750SOL    HW212150   0.817   3.944   6.934
 3751SOL     OW12151   2.232   4.996   1.763
 3751SOL    HW112152   2.231   5.032   1.856
 3751SOL    HW212153   2.140   4.972   1.735
 3752SOL     OW12154   5.494   5.114   6.528
 3752SOL    HW112155   5.506   5.097   6.626
 3752SOL    HW212156   5.449   5.035   6.486
 3753SOL     OW12157   0.406   1.521   3.627
 3753SOL    HW112158   0.462   1.455   3.678
 3753SOL    HW212159   0.324   1.542   3.681
 3754SOL     OW12160   3.823   1.562   1.513
 3754SOL    HW112161   3.862   1.648   1.481
 3754SOL    HW212162   3.747   1.582   1.576
 3755SOL     OW12163   2.802   6.265   4.031
 3755SOL    HW112164   2.836   6.173   4.053
 3755SOL    HW212165   2.746   6.299   4.107
 3756SOL     OW12166   1.365   6.516   0.807
 3756SOL    HW112167   1.436   6.478   0.748
 3756SOL    HW212168   1.275   6.484   0.776
 3757SOL     OW12169   0.655   5.280   0.122
 3757SOL    HW112170   0.739   5.254   0.073
 3757SOL    HW212171   0.622   5.202   0.175
 3758SOL     OW12172   0.731   6.075   4.091
 3758SOL    HW112173   0.735   6.051   4.188
 3758SOL    HW212174   0.783   6.009   4.037
 3759SOL     OW12175   4.713   0.730   3.726
 3759SOL    HW112176   4.716   0.756   3.630
 3759SOL    HW212177   4.672   0.804   3.780
 3760SOL     OW12178   0.659   1.165   3.293
 3760SOL    HW112179   0.744   1.117   3.269
 3760SOL    HW212180   0.676   1.263   3.294
 3761SOL     OW12181   4.180   1.140   4.547
 3761SOL    HW112182   4.171   1.238   4.565
 3761SOL    HW212183   4.121   1.089   4.610
 3762SOL     OW12184   6.852   2.529   3.528
 3762SOL    HW112185   6.828   2.505   3.434
 3762SOL    HW212186   6.811   2.463   3.591
 3763SOL     OW12187   0.816   6.615   6.566
 3763SOL    HW112188   0.740   6.568   6.610
 3763SOL    HW212189   0.869   6.665   6.635
 3764SOL     OW12190   3.998   1.879   2.565
 3764SOL    HW112191   4.018   1.803   2.627
 3764SOL    HW212192   3.913   1.861   2.517
 3765SOL     OW12193   5.756   3.896   2.409
 3765SOL    HW112194   5.695   3.938   2.476
 3765SOL    HW212195   5.775   3.962   2.336
 3766SOL     OW12196   2.303   2.791   2.377
 3766SOL    HW112197   2.306   2.886   2.346
 3766SOL    HW212198   2.304   2.788   2.477
 3767SOL     OW12199   1.467   6.248   5.839
 3767SOL    HW112200   1.545   6.288   5.885
 3767SOL    HW212201   1.424   6.316   5.780
 3768SOL     OW12202   1.600   6.652   3.847
 3768SOL    HW112203   1.612   6.617   3.754
 3768SOL    HW212204   1.589   6.751   3.844
 3769SOL     OW12205   5.275   5.024   5.971
 3769SOL    HW112206   5.340   5.001   5.899
 3769SOL    HW212207   5.324   5.054   6.053
 3770SOL     OW12208   2.668   0.005   0.867
 3770SOL    HW112209   2.639   0.099   0.853
 3770SOL    HW212210   2.687   6.980   0.779
 3771SOL     OW12211   6.490   6.299   5.807
 3771SOL    HW112212   6.557   6.372   5.824
 3771SOL    HW212213   6.452   6.268   5.894
 3772SOL     OW12214   3.419   5.518   1.546
 3772SOL    HW112215   3.369   5.480   1.624
 3772SOL    HW212216   3.433   5.616   1.560
 3773SOL     OW12217   5.055   4.082   0.062
 3773SOL    HW112218   5.108   4.060   6.997
 3773SOL    HW212219   5.048   4.181   0.071
 3774SOL     OW12220   0.140   4.214   0.679
 3774SOL    HW112221   0.129   4.128   0.728
 3774SOL    HW212222   0.155   4.288   0.744
 3775SOL     OW12223   5.491   6.833   4.924
 3775SOL    HW112224   5.527   6.894   4.994
 3775SOL    HW212225   5.544   6.842   4.840
 3776SOL     OW12226   4.108   2.683   6.570
 3776SOL    HW112227   4.117   2.752   6.499
 3776SOL    HW212228   4.148   2.717   6.655
 3777SOL     OW12229   3.019   5.152   3.400
 3777SOL    HW112230   3.114   5.124   3.402
 3777SOL    HW212231   2.989   5.177   3.492
 3778SOL     OW12232   2.863   5.626   6.637
 3778SOL    HW112233   2.938   5.692   6.625
 3778SOL    HW212234   2.883   5.543   6.584
 3779SOL     OW12235   6.794   4.866   6.250
 3779SOL    HW112236   6.710   4.872   6.304
 3779SOL    HW212237   6.837   4.956   6.244
 3780SOL     OW12238   5.927   2.342   1.798
 3780SOL    HW112239   5.829   2.323   1.806
 3780SOL    HW212240   5.974   2.260   1.765
 3781SOL     OW12241   1.440   6.770   6.653
 3781SOL    HW112242   1.504   6.797   6.725
 3781SOL    HW212243   1.483   6.782   6.564
 3782SOL     OW12244   3.274   5.304   0.198
 3782SOL    HW112245   3.216   5.237   0.151
 3782SOL    HW212246   3.325   5.358   0.130
 3783SOL     OW12247   4.794   5.286   5.381
 3783SOL    HW112248   4.743   5.315   5.300
 3783SOL    HW212249   4.875   5.344   5.391
 3784SOL     OW12250   5.397   3.592   5.018
 3784SOL    HW112251   5.302   3.621   5.031
 3784SOL    HW212252   5.441   3.651   4.949
 3785SOL     OW12253   0.800   3.314   2.294
 3785SOL    HW112254   0.893   3.296   2.327
 3785SOL    HW212255   0.741   3.236   2.316
 3786SOL     OW12256   2.872   3.118   6.089
 3786SOL    HW112257   2.781   3.154   6.106
 3786SOL    HW212258   2.935   3.155   6.157
 3787SOL     OW12259   5.429   6.038   5.471
 3787SOL    HW112260   5.459   6.128   5.503
 3787SOL    HW212261   5.490   5.968   5.506
 3788SOL     OW12262   5.790   3.198   6.218
 3788SOL    HW112263   5.710   3.172   6.272
 3788SOL    HW212264   5.771   3.181   6.121
 3789SOL     OW12265   1.903   4.317   1.433
 3789SOL    HW112266   1.997   4.297   1.461
 3789SOL    HW212267   1.901   4.404   1.383
 3790SOL     OW12268   2.606   0.081   1.795
 3790SOL    HW112269   2.557   7.017   1.763
 3790SOL    HW212270   2.544   0.159   1.793
 3791SOL     OW12271   4.943   0.834   3.933
 3791SOL    HW112272   4.980   0.893   3.861
 3791SOL    HW212273   4.844   0.826   3.921
 3792SOL     OW12274   6.032   0.512   3.458
 3792SOL    HW112275   5.973   0.546   3.531
 3792SOL    HW212276   6.122   0.490   3.496
 3793SOL     OW12277   5.112   3.124   6.834
 3793SOL    HW112278   5.191   3.119   6.774
 3793SOL    HW212279   5.030   3.095   6.785
 3794SOL     OW12280   1.560   5.439   5.548
 3794SOL    HW112281   1.574   5.398   5.638
 3794SOL    HW212282   1.468   5.416   5.514
 3795SOL     OW12283   3.138   6.123   0.325
 3795SOL    HW112284   3.127   6.026   0.300
 3795SOL    HW212285   3.051   6.170   0.316
 3796SOL     OW12286   5.484   1.062   0.410
 3796SOL    HW112287   5.455   1.114   0.490
 3796SOL    HW212288   5.419   1.076   0.336
 3797SOL     OW12289   6.824   1.904   0.995
 3797SOL    HW112290   6.906   1.925   1.048
 3797SOL    HW212291   6.827   1.954   0.908
 3798SOL     OW12292   6.804   3.959   4.202
 3798SOL    HW112293   6.832   4.055   4.204
 3798SOL    HW212294   6.720   3.950   4.150
 3799SOL     OW12295   6.712   2.111   2.688
 3799SOL    HW112296   6.774   2.180   2.725
 3799SOL    HW212297   6.747   2.077   2.601
 3800SOL     OW12298   5.598   3.612   1.901
 3800SOL    HW112299   5.512   3.596   1.853
 3800SOL    HW212300   5.651   3.527   1.903
 3801SOL     OW12301   5.621   1.559   0.590
 3801SOL    HW112302   5.681   1.481   0.603
 3801SOL    HW212303   5.656   1.616   0.515
 3802SOL     OW12304   6.155   3.735   3.759
 3802SOL    HW112305   6.109   3.646   3.768
 3802SOL    HW212306   6.208   3.737   3.674
 3803SOL     OW12307   3.971   4.095   5.998
 3803SOL    HW112308   3.972   4.013   5.941
 3803SOL    HW212309   4.019   4.076   6.084
 3804SOL     OW12310   3.325   6.179   2.997
 3804SOL    HW112311   3.337   6.204   2.901
 3804SOL    HW212312   3.339   6.081   3.008
 3805SOL     OW12313   2.836   1.905   0.045
 3805SOL    HW112314   2.756   1.946   0.001
 3805SOL    HW212315   2.888   1.976   0.092
 3806SOL     OW12316   1.729   3.520   1.918
 3806SOL    HW112317   1.736   3.614   1.954
 3806SOL    HW212318   1.633   3.499   1.900
 3807SOL     OW12319   0.038   4.186   3.899
 3807SOL    HW112320   0.027   4.090   3.874
 3807SOL    HW212321   6.972   4.236   3.878
 3808SOL     OW12322   2.588   6.553   5.652
 3808SOL    HW112323   2.628   6.547   5.560
 3808SOL    HW212324   2.489   6.537   5.646
 3809SOL     OW12325   5.522   1.974   1.283
 3809SOL    HW112326   5.481   2.005   1.369
 3809SOL    HW212327   5.519   1.874   1.279
 3810SOL     OW12328   4.606   1.763   3.774
 3810SOL    HW112329   4.619   1.827   3.699
 3810SOL    HW212330   4.583   1.673   3.738
 3811SOL     OW12331   0.193   6.048   5.603
 3811SOL    HW112332   0.200   5.986   5.681
 3811SOL    HW212333   0.165   5.997   5.522
 3812SOL     OW12334   4.177   5.659   6.806
 3812SOL    HW112335   4.172   5.703   6.896
 3812SOL    HW212336   4.090   5.672   6.758
 3813SOL     OW12337   0.112   3.037   6.533
 3813SOL    HW112338   0.082   3.038   6.438
 3813SOL    HW212339   0.042   2.992   6.589
 3814SOL     OW12340   6.908   0.590   4.881
 3814SOL    HW112341   6.881   0.658   4.950
 3814SOL    HW212342   6.828   0.536   4.855
 3815SOL     OW12343   4.932   2.197   5.399
 3815SOL    HW112344   5.002   2.132   5.426
 3815SOL    HW212345   4.940   2.279   5.456
 3816SOL     OW12346   6.594   6.771   1.920
 3816SOL    HW112347   6.552   6.699   1.865
 3816SOL    HW212348   6.591   6.857   1.869
 3817SOL     OW12349   3.509   3.863   2.934
 3817SOL    HW112350   3.410   3.851   2.940
 3817SOL    HW212351   3.530   3.960   2.920
 3818SOL     OW12352   4.701   5.486   2.040
 3818SOL    HW112353   4.740   5.397   2.016
 3818SOL    HW212354   4.657   5.480   2.129
 3819SOL     OW12355   6.052   2.751   2.869
 3819SOL    HW112356   5.987   2.803   2.813
 3819SOL    HW212357   6.121   2.813   2.907
 3820SOL     OW12358   3.064   6.302   5.958
 3820SOL    HW112359   3.073   6.301   5.858
 3820SOL    HW212360   3.020   6.387   5.987
 3821SOL     OW12361   2.070   6.767   1.573
 3821SOL    HW112362   2.020   6.779   1.487
 3821SOL    HW212363   2.104   6.673   1.578
 3822SOL     OW12364   5.622   6.731   1.726
 3822SOL    HW112365   5.614   6.759   1.630
 3822SOL    HW212366   5.658   6.807   1.780
 3823SOL     OW12367   5.833   6.129   4.216
 3823SOL    HW112368   5.927   6.131   4.182
 3823SOL    HW212369   5.812   6.217   4.260
 3824SOL     OW12370   2.021   2.530   0.701
 3824SOL    HW112371   2.065   2.496   0.618
 3824SOL    HW212372   2.036   2.629   0.708
 3825SOL     OW12373   0.093   4.247   5.468
 3825SOL    HW112374   0.186   4.248   5.504
 3825SOL    HW212375   0.054   4.156   5.480
 3826SOL     OW12376   4.866   3.980   3.770
 3826SOL    HW112377   4.958   4.011   3.792
 3826SOL    HW212378   4.800   4.031   3.824
 3827SOL     OW12379   0.438   1.305   6.974
 3827SOL    HW112380   0.482   1.291   0.045
 3827SOL    HW212381   0.339   1.314   6.987
 3828SOL     OW12382   3.506   3.259   5.370
 3828SOL    HW112383   3.504   3.357   5.349
 3828SOL    HW212384   3.415   3.220   5.357
 3829SOL     OW12385   6.778   2.930   1.452
 3829SOL    HW112386   6.681   2.949   1.467
 3829SOL    HW212387   6.829   3.016   1.449
 3830SOL     OW12388   5.756   6.588   3.622
 3830SOL    HW112389   5.657   6.578   3.613
 3830SOL    HW212390   5.802   6.540   3.548
 3831SOL     OW12391   5.460   2.269   3.937
 3831SOL    HW112392   5.469   2.170   3.955
 3831SOL    HW212393   5.378   2.285   3.883
 3832SOL     OW12394   6.641   1.324   3.690
 3832SOL    HW112395   6.592   1.381   3.756
 3832SOL    HW212396   6.588   1.241   3.673
 3833SOL     OW12397   2.448   2.963   5.987
 3833SOL    HW112398   2.508   2.892   5.950
 3833SOL    HW212399   2.353   2.931   5.984
 3834SOL     OW12400   5.036   4.309   1.195
 3834SOL    HW112401   5.023   4.394   1.144
 3834SOL    HW212402   4.960   4.297   1.259
 3835SOL     OW12403   4.693   5.367   4.248
 3835SOL    HW112404   4.748   5.443   4.284
 3835SOL    HW212405   4.736   5.280   4.273
 3836SOL     OW12406   0.325   0.008   5.165
 3836SOL    HW112407   0.261   0.085   5.169
 3836SOL    HW212408   0.403   0.033   5.109
 3837SOL     OW12409   4.993   4.254   5.505
 3837SOL    HW112410   4.906   4.213   5.530
 3837SOL    HW212411   4.994   4.350   5.534
 3838SOL     OW12412   0.525   1.741   3.839
 3838SOL    HW112413   0.452   1.679   3.811
 3838SOL    HW212414   0.604   1.688   3.870
 3839SOL     OW12415   4.307   1.767   3.649
 3839SOL    HW112416   4.362   1.691   3.683
 3839SOL    HW212417   4.212   1.737   3.640
 3840SOL     OW12418   3.759   1.478   6.104
 3840SOL    HW112419   3.667   1.464   6.142
 3840SOL    HW212420   3.803   1.389   6.093
 3841SOL     OW12421   5.273   4.005   2.854
 3841SOL    HW112422   5.362   3.961   2.840
 3841SOL    HW212423   5.218   3.950   2.917
 3842SOL     OW12424   1.605   4.180   4.917
 3842SOL    HW112425   1.509   4.155   4.900
 3842SOL    HW212426   1.609   4.248   4.990
 3843SOL     OW12427   5.868   2.105   6.722
 3843SOL    HW112428   5.909   2.029   6.671
 3843SOL    HW212429   5.770   2.088   6.733
 3844SOL     OW12430   6.176   6.572   0.830
 3844SOL    HW112431   6.206   6.644   0.767
 3844SOL    HW212432   6.154   6.612   0.919
 3845SOL     OW12433   2.228   5.508   0.274
 3845SOL    HW112434   2.291   5.582   0.301
 3845SOL    HW212435   2.204   5.454   0.355
 3846SOL     OW12436   6.880   3.207   2.500
 3846SOL    HW112437   6.798   3.204   2.443
 3846SOL    HW212438   6.948   3.144   2.464
 3847SOL     OW12439   0.749   1.128   0.068
 3847SOL    HW112440   0.674   1.062   0.061
 3847SOL    HW212441   0.837   1.081   0.055
 3848SOL     OW12442   5.882   4.620   2.511
 3848SOL    HW112443   5.841   4.542   2.559
 3848SOL    HW212444   5.811   4.671   2.464
 3849SOL     OW12445   0.266   2.879   5.652
 3849SOL    HW112446   0.298   2.785   5.663
 3849SOL    HW212447   0.190   2.881   5.588
 3850SOL     OW12448   3.681   2.841   1.389
 3850SOL    HW112449   3.627   2.846   1.472
 3850SOL    HW212450   3.627   2.875   1.312
 3851SOL     OW12451   0.202   5.665   2.421
 3851SOL    HW112452   0.253   5.586   2.386
 3851SOL    HW212453   0.154   5.710   2.345
 3852SOL     OW12454   2.584   0.769   5.408
 3852SOL    HW112455   2.654   0.708   5.446
 3852SOL    HW212456   2.582   0.854   5.460
 3853SOL     OW12457   2.164   0.982   2.824
 3853SOL    HW112458   2.172   0.944   2.732
 3853SOL    HW212459   2.249   1.029   2.848
 3854SOL     OW12460   0.444   1.619   1.617
 3854SOL    HW112461   0.440   1.699   1.557
 3854SOL    HW212462   0.407   1.644   1.707
 3855SOL     OW12463   3.010   5.822   6.520
 3855SOL    HW112464   2.942   5.892   6.539
 3855SOL    HW212465   3.070   5.851   6.445
 3856SOL     OW12466   0.199   2.743   6.468
 3856SOL    HW112467   0.104   2.713   6.480
 3856SOL    HW212468   0.201   2.834   6.427
 3857SOL     OW12469   1.003   0.290   6.039
 3857SOL    HW112470   0.994   0.241   6.126
 3857SOL    HW212471   1.097   0.280   6.005
 3858SOL     OW12472   3.385   0.856   5.030
 3858SOL    HW112473   3.456   0.862   4.960
 3858SOL    HW212474   3.403   0.778   5.089
 3859SOL     OW12475   5.288   0.403   2.710
 3859SOL    HW112476   5.249   0.430   2.622
 3859SOL    HW212477   5.295   0.483   2.770
 3860SOL     OW12478   1.514   6.192   4.716
 3860SOL    HW112479   1.517   6.186   4.816
 3860SOL    HW212480   1.420   6.181   4.685
 3861SOL     OW12481   3.223   5.940   2.400
 3861SOL    HW112482   3.287   5.914   2.472
 3861SOL    HW212483   3.152   5.999   2.438
 3862SOL     OW12484   1.837   0.425   4.221
 3862SOL    HW112485   1.904   0.363   4.182
 3862SOL    HW212486   1.800   0.386   4.305
 3863SOL     OW12487   4.239   0.203   1.215
 3863SOL    HW112488   4.203   0.215   1.123
 3863SOL    HW212489   4.179   0.249   1.281
 3864SOL     OW12490   0.934   0.377   5.122
 3864SOL    HW112491   0.858   0.433   5.089
 3864SOL    HW212492   0.982   0.426   5.195
 3865SOL     OW12493   5.134   1.095   0.893
 3865SOL    HW112494   5.075   1.126   0.968
 3865SOL    HW212495   5.217   1.055   0.931
 3866SOL     OW12496   3.216   1.086   6.755
 3866SOL    HW112497   3.239   1.149   6.829
 3866SOL    HW212498   3.118   1.064   6.759
 3867SOL     OW12499   6.383   3.266   1.999
 3867SOL    HW112500   6.449   3.339   2.017
 3867SOL    HW212501   6.353   3.271   1.904
 3868SOL     OW12502   4.185   0.695   0.422
 3868SOL    HW112503   4.235   0.778   0.445
 3868SOL    HW212504   4.233   0.616   0.458
 3869SOL     OW12505   3.731   1.197   3.971
 3869SOL    HW112506   3.650   1.139   3.984
 3869SOL    HW212507   3.706   1.292   3.988
 3870SOL     OW12508   0.051   1.577   5.782
 3870SOL    HW112509   0.026   1.480   5.786
 3870SOL    HW212510   6.995   1.632   5.822
 3871SOL     OW12511   2.784   5.012   4.006
 3871SOL    HW112512   2.750   4.925   4.042
 3871SOL    HW212513   2.763   5.018   3.908
 3872SOL     OW12514   2.890   3.782   5.252
 3872SOL    HW112515   2.928   3.872   5.269
 3872SOL    HW212516   2.960   3.712   5.267
 3873SOL     OW12517   5.137   2.399   6.642
 3873SOL    HW112518   5.229   2.436   6.655
 3873SOL    HW212519   5.130   2.358   6.551
 3874SOL     OW12520   1.867   1.199   1.533
 3874SOL    HW112521   1.774   1.226   1.507
 3874SOL    HW212522   1.920   1.280   1.557
 3875SOL     OW12523   0.814   1.107   6.780
 3875SOL    HW112524   0.758   1.178   6.823
 3875SOL    HW212525   0.872   1.064   6.849
 3876SOL     OW12526   3.087   5.334   2.146
 3876SOL    HW112527   3.004   5.308   2.196
 3876SOL    HW212528   3.071   5.323   2.048
 3877SOL     OW12529   1.010   1.374   5.746
 3877SOL    HW112530   0.970   1.284   5.765
 3877SOL    HW212531   0.963   1.444   5.799
 3878SOL     OW12532   4.366   1.559   4.982
 3878SOL    HW112533   4.413   1.590   4.899
 3878SOL    HW212534   4.292   1.622   5.005
 3879SOL     OW12535   5.329   5.664   6.569
 3879SOL    HW112536   5.297   5.759   6.568
 3879SOL    HW212537   5.386   5.649   6.649
 3880SOL     OW12538   5.001   4.749   3.979
 3880SOL    HW112539   4.955   4.838   3.976
 3880SOL    HW212540   5.100   4.762   3.977
 3881SOL     OW12541   1.562   2.778   0.131
 3881SOL    HW112542   1.482   2.738   0.175
 3881SOL    HW212543   1.637   2.784   0.198
 3882SOL     OW12544   0.679   2.106   5.980
 3882SOL    HW112545   0.623   2.178   6.020
 3882SOL    HW212546   0.698   2.126   5.884
 3883SOL     OW12547   4.418   6.228   3.832
 3883SOL    HW112548   4.405   6.153   3.767
 3883SOL    HW212549   4.333   6.243   3.883
 3884SOL     OW12550   6.849   3.359   1.953
 3884SOL    HW112551   6.916   3.287   1.967
 3884SOL    HW212552   6.865   3.404   1.865
 3885SOL     OW12553   4.293   5.429   1.859
 3885SOL    HW112554   4.276   5.374   1.940
 3885SOL    HW212555   4.324   5.521   1.886
 3886SOL     OW12556   2.932   5.471   6.226
 3886SOL    HW112557   2.941   5.380   6.266
 3886SOL    HW212558   2.991   5.478   6.145
 3887SOL     OW12559   1.969   5.688   2.045
 3887SOL    HW112560   2.057   5.687   1.999
 3887SOL    HW212561   1.933   5.781   2.049
 3888SOL     OW12562   5.382   4.775   3.452
 3888SOL    HW112563   5.341   4.833   3.381
 3888SOL    HW212564   5.457   4.722   3.412
 3889SOL     OW12565   6.125   3.526   0.401
 3889SOL    HW112566   6.171   3.470   0.333
 3889SOL    HW212567   6.031   3.544   0.372
 3890SOL     OW12568   5.387   3.940   3.754
 3890SOL    HW112569   5.407   3.962   3.659
 3890SOL    HW212570   5.398   3.842   3.769
 3891SOL     OW12571   4.859   4.987   3.858
 3891SOL    HW112572   4.877   5.048   3.935
 3891SOL    HW212573   4.760   4.983   3.841
 3892SOL     OW12574   6.728   2.081   1.655
 3892SOL    HW112575   6.653   2.130   1.610
 3892SOL    HW212576   6.794   2.147   1.692
 3893SOL     OW12577   3.796   3.334   3.971
 3893SOL    HW112578   3.860   3.283   3.914
 3893SOL    HW212579   3.709   3.286   3.976
 3894SOL     OW12580   4.103   0.959   6.000
 3894SOL    HW112581   4.030   0.894   6.020
 3894SOL    HW212582   4.112   1.023   6.076
 3895SOL     OW12583   0.867   0.417   4.391
 3895SOL    HW112584   0.938   0.484   4.370
 3895SOL    HW212585   0.783   0.464   4.416
 3896SOL     OW12586   2.148   1.345   6.691
 3896SOL    HW112587   2.164   1.362   6.594
 3896SOL    HW212588   2.127   1.248   6.705
 3897SOL     OW12589   3.169   6.485   0.806
 3897SOL    HW112590   3.142   6.412   0.868
 3897SOL    HW212591   3.264   6.471   0.778
 3898SOL     OW12592   3.830   3.309   1.228
 3898SOL    HW112593   3.895   3.313   1.152
 3898SOL    HW212594   3.744   3.270   1.196
 3899SOL     OW12595   3.090   6.728   5.198
 3899SOL    HW112596   3.157   6.749   5.269
 3899SOL    HW212597   3.077   6.629   5.194
 3900SOL     OW12598   4.619   4.743   2.776
 3900SOL    HW112599   4.571   4.823   2.739
 3900SOL    HW212600   4.552   4.673   2.801
 3901SOL     OW12601   3.039   1.596   0.266
 3901SOL    HW112602   3.097   1.525   0.305
 3901SOL    HW212603   3.037   1.587   0.166
 3902SOL     OW12604   5.284   3.062   2.725
 3902SOL    HW112605   5.268   3.151   2.683
 3902SOL    HW212606   5.368   3.022   2.687
 3903SOL     OW12607   3.683   4.573   6.866
 3903SOL    HW112608   3.772   4.558   6.824
 3903SOL    HW212609   3.694   4.629   6.949
 3904SOL     OW12610   1.677   6.707   0.883
 3904SOL    HW112611   1.727   6.758   0.813
 3904SOL    HW212612   1.669   6.611   0.856
 3905SOL     OW12613   0.014   6.487   5.330
 3905SOL    HW112614   0.042   6.581   5.348
 3905SOL    HW212615   6.936   6.486   5.301
 3906SOL     OW12616   0.326   6.291   5.612
 3906SOL    HW112617   0.295   6.196   5.622
 3906SOL    HW212618   0.357   6.306   5.518
 3907SOL     OW12619   5.512   1.983   4.026
 3907SOL    HW112620   5.422   1.976   4.068
 3907SOL    HW212621   5.513   1.933   3.940
 3908SOL     OW12622   2.748   4.062   6.079
 3908SOL    HW112623   2.833   4.010   6.076
 3908SOL    HW212624   2.686   4.030   6.007
 3909SOL     OW12625   5.129   5.994   3.700
 3909SOL    HW112626   5.081   6.023   3.783
 3909SOL    HW212627   5.181   6.071   3.662
 3910SOL     OW12628   3.547   3.871   2.473
 3910SOL    HW112629   3.463   3.924   2.477
 3910SOL    HW212630   3.625   3.932   2.491
 3911SOL     OW12631   5.808   2.034   5.576
 3911SOL    HW112632   5.843   1.941   5.578
 3911SOL    HW212633   5.844   2.082   5.495
 3912SOL     OW12634   5.671   2.835   6.113
 3912SOL    HW112635   5.641   2.921   6.156
 3912SOL    HW212636   5.594   2.794   6.065
 3913SOL     OW12637   1.367   6.810   1.457
 3913SOL    HW112638   1.378   6.894   1.511
 3913SOL    HW212639   1.440   6.805   1.388
 3914SOL     OW12640   3.109   5.654   5.055
 3914SOL    HW112641   3.036   5.649   5.124
 3914SOL    HW212642   3.077   5.613   4.970
 3915SOL     OW12643   5.678   5.773   1.553
 3915SOL    HW112644   5.757   5.758   1.613
 3915SOL    HW212645   5.638   5.685   1.528
 3916SOL     OW12646   0.343   0.137   3.416
 3916SOL    HW112647   0.245   0.116   3.414
 3916SOL    HW212648   0.356   0.235   3.426
 3917SOL     OW12649   2.992   0.072   6.857
 3917SOL    HW112650   2.933   7.009   6.852
 3917SOL    HW212651   3.071   0.051   6.915
 3918SOL     OW12652   5.834   3.792   6.956
 3918SOL    HW112653   5.803   3.710   6.908
 3918SOL    HW212654   5.897   3.843   6.898
 3919SOL     OW12655   3.538   6.471   0.720
 3919SOL    HW112656   3.618   6.433   0.766
 3919SOL    HW212657   3.530   6.568   0.743
 3920SOL     OW12658   2.144   0.898   0.212
 3920SOL    HW112659   2.113   0.805   0.232
 3920SOL    HW212660   2.185   0.900   0.121
 3921SOL     OW12661   0.873   3.365   0.815
 3921SOL    HW112662   0.843   3.402   0.903
 3921SOL    HW212663   0.800   3.373   0.748
 3922SOL     OW12664   0.713   5.616   1.145
 3922SOL    HW112665   0.664   5.684   1.091
 3922SOL    HW212666   0.751   5.546   1.084
 3923SOL     OW12667   6.855   5.986   0.699
 3923SOL    HW112668   6.884   6.033   0.615
 3923SOL    HW212669   6.775   5.929   0.679
 3924SOL     OW12670   6.360   4.980   4.324
 3924SOL    HW112671   6.392   4.947   4.413
 3924SOL    HW212672   6.283   5.042   4.338
 3925SOL     OW12673   1.187   4.856   0.916
 3925SOL    HW112674   1.138   4.790   0.859
 3925SOL    HW212675   1.121   4.921   0.955
 3926SOL     OW12676   3.352   5.462   3.051
 3926SOL    HW112677   3.409   5.500   2.978
 3926SOL    HW212678   3.335   5.532   3.120
 3927SOL     OW12679   2.478   3.594   6.596
 3927SOL    HW112680   2.486   3.618   6.692
 3927SOL    HW212681   2.473   3.495   6.586
 3928SOL     OW12682   6.829   6.561   6.238
 3928SOL    HW112683   6.919   6.581   6.277
 3928SOL    HW212684   6.829   6.582   6.141
 3929SOL     OW12685   0.946   1.671   4.858
 3929SOL    HW112686   1.033   1.621   4.856
 3929SOL    HW212687   0.874   1.613   4.820
 3930SOL     OW12688   3.028   1.368   4.328
 3930SOL    HW112689   2.941   1.324   4.308
 3930SOL    HW212690   3.021   1.467   4.312
 3931SOL     OW12691   4.232   6.975   2.029
 3931SOL    HW112692   4.196   6.914   1.958
 3931SOL    HW212693   4.317   6.937   2.066
 3932SOL     OW12694   1.958   2.943   3.424
 3932SOL    HW112695   2.046   2.989   3.437
 3932SOL    HW212696   1.911   2.935   3.512
 3933SOL     OW12697   2.119   1.351   6.385
 3933SOL    HW112698   2.138   1.280   6.318
 3933SOL    HW212699   2.162   1.436   6.357
 3934SOL     OW12700   5.455   6.053   6.786
 3934SOL    HW112701   5.423   6.147   6.782
 3934SOL    HW212702   5.555   6.051   6.784
 3935SOL     OW12703   5.033   6.632   1.830
 3935SOL    HW112704   5.131   6.630   1.810
 3935SOL    HW212705   5.019   6.673   1.921
 3936SOL     OW12706   0.803   4.009   2.167
 3936SOL    HW112707   0.817   3.917   2.204
 3936SOL    HW212708   0.760   4.067   2.237
 3937SOL     OW12709   0.426   1.927   2.495
 3937SOL    HW112710   0.421   1.870   2.413
 3937SOL    HW212711   0.373   1.884   2.569
 3938SOL     OW12712   6.403   3.031   3.120
 3938SOL    HW112713   6.321   3.005   3.170
 3938SOL    HW212714   6.391   3.011   3.023
 3939SOL     OW12715   1.959   2.071   1.267
 3939SOL    HW112716   1.880   2.125   1.298
 3939SOL    HW212717   2.032   2.132   1.238
 3940SOL     OW12718   4.309   4.708   0.775
 3940SOL    HW112719   4.354   4.652   0.705
 3940SOL    HW212720   4.232   4.657   0.814
 3941SOL     OW12721   5.476   3.373   6.993
 3941SOL    HW112722   5.437   3.350   0.065
 3941SOL    HW212723   5.442   3.462   6.964
 3942SOL     OW12724   6.585   6.823   1.157
 3942SOL    HW112725   6.550   6.912   1.128
 3942SOL    HW212726   6.573   6.812   1.255
 3943SOL     OW12727   6.518   3.050   5.171
 3943SOL    HW112728   6.563   3.137   5.150
 3943SOL    HW212729   6.425   3.052   5.134
 3944SOL     OW12730   5.661   1.800   4.980
 3944SOL    HW112731   5.707   1.863   4.918
 3944SOL    HW212732   5.698   1.707   4.968
 3945SOL     OW12733   0.077   6.970   0.734
 3945SOL    HW112734   0.070   6.943   0.830
 3945SOL    HW212735   7.005   6.998   0.701
 3946SOL     OW12736   3.643   4.899   3.254
 3946SOL    HW112737   3.646   4.864   3.161
 3946SOL    HW212738   3.670   4.995   3.255
 3947SOL     OW12739   6.797   4.048   5.953
 3947SOL    HW112740   6.875   4.009   5.904
 3947SOL    HW212741   6.713   4.005   5.922
 3948SOL     OW12742   6.458   3.757   1.018
 3948SOL    HW112743   6.404   3.798   1.092
 3948SOL    HW212744   6.424   3.665   0.999
 3949SOL     OW12745   5.466   6.547   3.032
 3949SOL    HW112746   5.434   6.615   2.967
 3949SOL    HW212747   5.562   6.525   3.014
 3950SOL     OW12748   1.575   6.777   0.441
 3950SOL    HW112749   1.557   6.682   0.465
 3950SOL    HW212750   1.664   6.783   0.395
 3951SOL     OW12751   5.690   5.511   1.853
 3951SOL    HW112752   5.667   5.484   1.759
 3951SOL    HW212753   5.606   5.518   1.907
 3952SOL     OW12754   5.987   1.395   6.387
 3952SOL    HW112755   6.038   1.311   6.404
 3952SOL    HW212756   5.922   1.410   6.462
 3953SOL     OW12757   3.045   3.247   2.961
 3953SOL    HW112758   3.053   3.153   2.993
 3953SOL    HW212759   3.069   3.251   2.863
 3954SOL     OW12760   3.982   4.232   5.663
 3954SOL    HW112761   3.892   4.267   5.639
 3954SOL    HW212762   4.018   4.283   5.741
 3955SOL     OW12763   3.555   1.156   4.954
 3955SOL    HW112764   3.467   1.198   4.931
 3955SOL    HW212765   3.592   1.199   5.036
 3956SOL     OW12766   1.993   1.600   0.764
 3956SOL    HW112767   2.090   1.580   0.771
 3956SOL    HW212768   1.980   1.698   0.746
 3957SOL     OW12769   4.126   1.395   3.747
 3957SOL    HW112770   4.052   1.331   3.766
 3957SOL    HW212771   4.179   1.411   3.830
 3958SOL     OW12772   5.242   6.640   6.077
 3958SOL    HW112773   5.219   6.591   5.992
 3958SOL    HW212774   5.305   6.584   6.131
 3959SOL     OW12775   5.677   5.416   6.233
 3959SOL    HW112776   5.677   5.316   6.239
 3959SOL    HW212777   5.627   5.454   6.311
 3960SOL     OW12778   5.785   2.653   4.682
 3960SOL    HW112779   5.711   2.654   4.615
 3960SOL    HW212780   5.754   2.606   4.764
 3961SOL     OW12781   5.172   6.933   4.242
 3961SOL    HW112782   5.207   6.956   4.333
 3961SOL    HW212783   5.208   6.998   4.175
 3962SOL     OW12784   6.320   5.035   4.835
 3962SOL    HW112785   6.371   4.997   4.913
 3962SOL    HW212786   6.228   4.997   4.833
 3963SOL     OW12787   3.839   6.709   2.216
 3963SOL    HW112788   3.907   6.712   2.289
 3963SOL    HW212789   3.848   6.792   2.159
 3964SOL     OW12790   5.550   2.621   3.795
 3964SOL    HW112791   5.647   2.598   3.799
 3964SOL    HW212792   5.514   2.599   3.705
 3965SOL     OW12793   5.208   4.265   3.983
 3965SOL    HW112794   5.140   4.300   4.048
 3965SOL    HW212795   5.300   4.291   4.014
 3966SOL     OW12796   2.594   6.509   6.562
 3966SOL    HW112797   2.629   6.597   6.529
 3966SOL    HW212798   2.586   6.513   6.662
 3967SOL     OW12799   1.406   4.029   3.644
 3967SOL    HW112800   1.360   4.049   3.558
 3967SOL    HW212801   1.499   4.066   3.640
 3968SOL     OW12802   4.217   6.945   0.918
 3968SOL    HW112803   4.204   6.938   1.017
 3968SOL    HW212804   4.215   0.024   0.891
 3969SOL     OW12805   0.514   4.478   3.167
 3969SOL    HW112806   0.581   4.485   3.241
 3969SOL    HW212807   0.500   4.382   3.143
 3970SOL     OW12808   4.463   6.114   1.414
 3970SOL    HW112809   4.452   6.176   1.336
 3970SOL    HW212810   4.389   6.128   1.479
 3971SOL     OW12811   1.061   6.029   3.645
 3971SOL    HW112812   1.120   5.956   3.680
 3971SOL    HW212813   1.043   6.096   3.717
 3972SOL     OW12814   1.453   3.615   0.063
 3972SOL    HW112815   1.498   3.554   0.129
 3972SOL    HW212816   1.498   3.704   0.065
 3973SOL     OW12817   1.988   4.579   0.880
 3973SOL    HW112818   2.014   4.561   0.786
 3973SOL    HW212819   2.070   4.590   0.936
 3974SOL     OW12820   2.751   0.561   6.105
 3974SOL    HW112821   2.653   0.542   6.108
 3974SOL    HW212822   2.799   0.480   6.072
 3975SOL     OW12823   6.598   3.219   0.142
 3975SOL    HW112824   6.591   3.186   0.236
 3975SOL    HW212825   6.691   3.203   0.108
 3976SOL     OW12826   1.513   4.159   2.491
 3976SOL    HW112827   1.553   4.108   2.415
 3976SOL    HW212828   1.453   4.231   2.456
 3977SOL     OW12829   0.812   2.601   0.121
 3977SOL    HW112830   0.754   2.673   0.084
 3977SOL    HW212831   0.829   2.532   0.050
 3978SOL     OW12832   5.970   4.228   4.082
 3978SOL    HW112833   6.027   4.230   4.163
 3978SOL    HW212834   5.977   4.316   4.033
 3979SOL     OW12835   4.330   5.554   6.036
 3979SOL    HW112836   4.266   5.498   6.088
 3979SOL    HW212837   4.327   5.648   6.070
 3980SOL     OW12838   5.677   4.852   6.214
 3980SOL    HW112839   5.776   4.852   6.200
 3980SOL    HW212840   5.655   4.813   6.303
 3981SOL     OW12841   4.567   5.513   6.783
 3981SOL    HW112842   4.658   5.474   6.774
 3981SOL    HW212843   4.501   5.440   6.800
 3982SOL     OW12844   2.339   6.082   2.897
 3982SOL    HW112845   2.349   6.164   2.953
 3982SOL    HW212846   2.290   6.012   2.949
 3983SOL     OW12847   3.530   6.106   4.192
 3983SOL    HW112848   3.588   6.034   4.153
 3983SOL    HW212849   3.548   6.192   4.145
 3984SOL     OW12850   6.705   2.793   2.899
 3984SOL    HW112851   6.785   2.766   2.845
 3984SOL    HW212852   6.653   2.863   2.850
 3985SOL     OW12853   3.939   5.307   6.112
 3985SOL    HW112854   3.988   5.220   6.108
 3985SOL    HW212855   3.843   5.292   6.090
 3986SOL     OW12856   5.320   0.652   2.843
 3986SOL    HW112857   5.356   0.671   2.934
 3986SOL    HW212858   5.246   0.716   2.823
 3987SOL     OW12859   3.457   5.226   5.771
 3987SOL    HW112860   3.487   5.175   5.852
 3987SOL    HW212861   3.498   5.186   5.689
 3988SOL     OW12862   4.957   6.036   0.951
 3988SOL    HW112863   4.895   6.097   0.902
 3988SOL    HW212864   4.932   5.941   0.932
 3989SOL     OW12865   6.331   2.713   1.255
 3989SOL    HW112866   6.349   2.784   1.323
 3989SOL    HW212867   6.295   2.755   1.171
 3990SOL     OW12868   6.781   1.539   1.885
 3990SOL    HW112869   6.733   1.618   1.923
 3990SOL    HW212870   6.748   1.455   1.928
 3991SOL     OW12871   5.516   1.457   3.219
 3991SOL    HW112872   5.484   1.551   3.218
 3991SOL    HW212873   5.539   1.430   3.312
 3992SOL     OW12874   4.445   1.445   1.477
 3992SOL    HW112875   4.537   1.467   1.445
 3992SOL    HW212876   4.379   1.462   1.404
 3993SOL     OW12877   1.064   3.364   1.339
 3993SOL    HW112878   1.067   3.264   1.336
 3993SOL    HW212879   0.973   3.396   1.314
 3994SOL     OW12880   2.414   5.472   4.335
 3994SOL    HW112881   2.336   5.531   4.311
 3994SOL    HW212882   2.487   5.529   4.372
 3995SOL     OW12883   1.776   2.111   4.221
 3995SOL    HW112884   1.836   2.056   4.162
 3995SOL    HW212885   1.814   2.203   4.229
 3996SOL     OW12886   0.178   5.524   4.579
 3996SOL    HW112887   0.130   5.453   4.529
 3996SOL    HW212888   0.277   5.516   4.563
 3997SOL     OW12889   3.050   0.828   3.084
 3997SOL    HW112890   3.014   0.737   3.062
 3997SOL    HW212891   3.053   0.883   3.001
 3998SOL     OW12892   4.323   2.258   2.796
 3998SOL    HW112893   4.360   2.190   2.733
 3998SOL    HW212894   4.377   2.342   2.791
 3999SOL     OW12895   4.537   1.455   4.350
 3999SOL    HW112896   4.533   1.555   4.348
 3999SOL    HW212897   4.625   1.427   4.389
 4000SOL     OW12898   4.265   5.785   4.690
 4000SOL    HW112899   4.226   5.706   4.738
 4000SOL    HW212900   4.250   5.774   4.592
 4001SOL     OW12901   0.968   1.954   4.864
 4001SOL    HW112902   0.984   1.856   4.853
 4001SOL    HW212903   1.040   2.005   4.817
 4002SOL     OW12904   2.190   4.463   1.478
 4002SOL    HW112905   2.213   4.367   1.459
 4002SOL    HW212906   2.204   4.517   1.396
 4003SOL     OW12907   3.998   2.183   4.930
 4003SOL    HW112908   4.050   2.265   4.954
 4003SOL    HW212909   3.914   2.180   4.985
 4004SOL     OW12910   6.660   1.727   6.365
 4004SOL    HW112911   6.660   1.745   6.266
 4004SOL    HW212912   6.608   1.799   6.411
 4005SOL     OW12913   6.840   4.467   4.524
 4005SOL    HW112914   6.782   4.467   4.443
 4005SOL    HW212915   6.782   4.462   4.606
 4006SOL     OW12916   3.570   6.243   3.181
 4006SOL    HW112917   3.490   6.217   3.235
 4006SOL    HW212918   3.611   6.160   3.141
 4007SOL     OW12919   0.399   1.525   5.492
 4007SOL    HW112920   0.499   1.526   5.502
 4007SOL    HW212921   0.375   1.468   5.413
 4008SOL     OW12922   3.000   1.460   5.506
 4008SOL    HW112923   2.904   1.488   5.513
 4008SOL    HW212924   3.038   1.489   5.418
 4009SOL     OW12925   3.254   3.853   3.020
 4009SOL    HW112926   3.243   3.771   3.075
 4009SOL    HW212927   3.177   3.862   2.957
 4010SOL     OW12928   1.081   3.340   0.211
 4010SOL    HW112929   1.131   3.283   0.277
 4010SOL    HW212930   0.993   3.366   0.250
 4011SOL     OW12931   0.569   2.027   0.961
 4011SOL    HW112932   0.472   2.003   0.948
 4011SOL    HW212933   0.609   1.968   1.031
 4012SOL     OW12934   5.762   3.235   3.192
 4012SOL    HW112935   5.784   3.139   3.170
 4012SOL    HW212936   5.839   3.275   3.242
 4013SOL     OW12937   5.068   2.673   3.210
 4013SOL    HW112938   5.040   2.749   3.152
 4013SOL    HW212939   5.104   2.599   3.153
 4014SOL     OW12940   5.463   4.583   2.399
 4014SOL    HW112941   5.557   4.555   2.382
 4014SOL    HW212942   5.432   4.545   2.486
 4015SOL     OW12943   5.376   3.304   0.230
 4015SOL    HW112944   5.367   3.208   0.254
 4015SOL    HW212945   5.314   3.359   0.287
 4016SOL     OW12946   3.192   6.420   4.635
 4016SOL    HW112947   3.188   6.321   4.629
 4016SOL    HW212948   3.284   6.452   4.611
 4017SOL     OW12949   5.610   6.920   6.176
 4017SOL    HW112950   5.603   6.918   6.077
 4017SOL    HW212951   5.704   6.945   6.203
 4018SOL     OW12952   2.447   0.375   6.720
 4018SOL    HW112953   2.502   0.448   6.759
 4018SOL    HW212954   2.502   0.292   6.711
 4019SOL     OW12955   5.258   6.401   3.909
 4019SOL    HW112956   5.338   6.422   3.965
 4019SOL    HW212957   5.214   6.487   3.880
 4020SOL     OW12958   5.600   1.521   4.453
 4020SOL    HW112959   5.668   1.457   4.490
 4020SOL    HW212960   5.630   1.615   4.469
 4021SOL     OW12961   5.493   3.976   7.005
 4021SOL    HW112962   5.517   3.900   0.047
 4021SOL    HW212963   5.575   4.029   6.984
 4022SOL     OW12964   5.845   0.917   0.934
 4022SOL    HW112965   5.774   0.886   0.998
 4022SOL    HW212966   5.845   0.859   0.853
 4023SOL     OW12967   6.493   6.099   5.609
 4023SOL    HW112968   6.503   6.160   5.688
 4023SOL    HW212969   6.583   6.060   5.586
 4024SOL     OW12970   4.468   4.255   5.257
 4024SOL    HW112971   4.399   4.273   5.187
 4024SOL    HW212972   4.456   4.319   5.333
 4025SOL     OW12973   0.035   3.853   4.041
 4025SOL    HW112974   7.013   3.801   3.965
 4025SOL    HW212975   6.982   3.876   4.107
 4026SOL     OW12976   5.867   1.119   5.120
 4026SOL    HW112977   5.788   1.061   5.095
 4026SOL    HW212978   5.928   1.067   5.180
 4027SOL     OW12979   2.554   5.202   2.991
 4027SOL    HW112980   2.523   5.108   3.008
 4027SOL    HW212981   2.582   5.244   3.077
 4028SOL     OW12982   1.627   5.673   3.199
 4028SOL    HW112983   1.673   5.755   3.166
 4028SOL    HW212984   1.603   5.614   3.121
 4029SOL     OW12985   1.573   3.676   3.181
 4029SOL    HW112986   1.556   3.580   3.160
 4029SOL    HW212987   1.491   3.717   3.220
 4030SOL     OW12988   2.294   1.070   6.523
 4030SOL    HW112989   2.219   1.013   6.490
 4030SOL    HW212990   2.276   1.098   6.618
 4031SOL     OW12991   6.824   5.807   4.545
 4031SOL    HW112992   6.867   5.828   4.633
 4031SOL    HW212993   6.863   5.867   4.475
 4032SOL     OW12994   3.294   6.478   4.926
 4032SOL    HW112995   3.216   6.507   4.870
 4032SOL    HW212996   3.339   6.401   4.881
 4033SOL     OW12997   3.705   3.886   6.330
 4033SOL    HW112998   3.703   3.864   6.428
 4033SOL    HW212999   3.739   3.808   6.279
 4034SOL     OW13000   5.721   3.564   5.205
 4034SOL    HW113001   5.667   3.586   5.124
 4034SOL    HW213002   5.723   3.644   5.266
 4035SOL     OW13003   0.142   6.460   2.027
 4035SOL    HW113004   0.164   6.391   1.959
 4035SOL    HW213005   0.208   6.535   2.021
 4036SOL     OW13006   5.986   6.083   1.421
 4036SOL    HW113007   5.912   6.033   1.466
 4036SOL    HW213008   5.958   6.178   1.407
 4037SOL     OW13009   0.602   3.842   6.397
 4037SOL    HW113010   0.647   3.849   6.308
 4037SOL    HW213011   0.512   3.885   6.393
 4038SOL     OW13012   6.336   5.327   3.740
 4038SOL    HW113013   6.331   5.301   3.643
 4038SOL    HW213014   6.276   5.405   3.756
 4039SOL     OW13015   2.498   4.717   1.035
 4039SOL    HW113016   2.516   4.815   1.027
 4039SOL    HW213017   2.559   4.677   1.103
 4040SOL     OW13018   3.591   6.913   0.028
 4040SOL    HW113019   3.571   6.947   6.954
 4040SOL    HW213020   3.521   6.944   0.092
 4041SOL     OW13021   0.351   6.222   3.521
 4041SOL    HW113022   0.429   6.284   3.511
 4041SOL    HW213023   0.363   6.143   3.461
 4042SOL     OW13024   5.613   5.794   1.923
 4042SOL    HW113025   5.696   5.803   1.978
 4042SOL    HW213026   5.622   5.716   1.861
 4043SOL     OW13027   6.785   3.571   0.944
 4043SOL    HW113028   6.751   3.659   0.979
 4043SOL    HW213029   6.870   3.547   0.990
 4044SOL     OW13030   5.724   4.742   2.334
 4044SOL    HW113031   5.802   4.802   2.320
 4044SOL    HW213032   5.640   4.790   2.306
 4045SOL     OW13033   2.450   4.869   5.724
 4045SOL    HW113034   2.487   4.830   5.640
 4045SOL    HW213035   2.351   4.861   5.724
 4046SOL     OW13036   0.331   3.110   0.531
 4046SOL    HW113037   0.355   3.013   0.541
 4046SOL    HW213038   0.403   3.166   0.573
 4047SOL     OW13039   3.012   3.347   3.478
 4047SOL    HW113040   3.004   3.248   3.492
 4047SOL    HW213041   3.109   3.374   3.481
 4048SOL     OW13042   5.023   2.151   0.278
 4048SOL    HW113043   4.933   2.194   0.271
 4048SOL    HW213044   5.038   2.091   0.199
 4049SOL     OW13045   6.898   6.556   6.540
 4049SOL    HW113046   6.925   6.576   6.634
 4049SOL    HW213047   6.977   6.522   6.489
 4050SOL     OW13048   2.370   1.071   2.617
 4050SOL    HW113049   2.327   1.001   2.559
 4050SOL    HW213050   2.467   1.078   2.594
 4051SOL     OW13051   2.676   3.253   0.661
 4051SOL    HW113052   2.692   3.294   0.571
 4051SOL    HW213053   2.760   3.209   0.693
 4052SOL     OW13054   1.536   0.256   0.954
 4052SOL    HW113055   1.443   0.281   0.982
 4052SOL    HW213056   1.541   0.256   0.854
 4053SOL     OW13057   2.661   5.369   2.573
 4053SOL    HW113058   2.751   5.332   2.549
 4053SOL    HW213059   2.673   5.449   2.632
 4054SOL     OW13060   5.163   1.555   6.716
 4054SOL    HW113061   5.259   1.528   6.725
 4054SOL    HW213062   5.158   1.641   6.666
 4055SOL     OW13063   4.637   3.536   6.752
 4055SOL    HW113064   4.673   3.529   6.659
 4055SOL    HW213065   4.667   3.622   6.794
 4056SOL     OW13066   4.802   3.059   6.998
 4056SOL    HW113067   4.800   3.115   6.916
 4056SOL    HW213068   4.708   3.039   0.009
 4057SOL     OW13069   6.402   2.535   0.804
 4057SOL    HW113070   6.409   2.502   0.898
 4057SOL    HW213071   6.306   2.537   0.776
 4058SOL     OW13072   0.663   3.501   3.927
 4058SOL    HW113073   0.749   3.552   3.922
 4058SOL    HW213074   0.588   3.559   3.895
 4059SOL     OW13075   0.310   2.100   4.787
 4059SOL    HW113076   0.231   2.140   4.834
 4059SOL    HW213077   0.389   2.101   4.848
 4060SOL     OW13078   2.339   6.452   5.585
 4060SOL    HW113079   2.276   6.504   5.529
 4060SOL    HW213080   2.289   6.386   5.640
 4061SOL     OW13081   2.003   2.950   1.464
 4061SOL    HW113082   1.937   2.912   1.399
 4061SOL    HW213083   2.083   2.890   1.470
 4062SOL     OW13084   3.030   0.385   3.283
 4062SOL    HW113085   3.077   0.437   3.353
 4062SOL    HW213086   3.049   0.424   3.193
 4063SOL     OW13087   3.668   6.059   6.365
 4063SOL    HW113088   3.714   6.090   6.448
 4063SOL    HW213089   3.725   5.992   6.318
 4064SOL     OW13090   6.477   6.909   4.685
 4064SOL    HW113091   6.439   6.961   4.609
 4064SOL    HW213092   6.521   6.972   4.749
 4065SOL     OW13093   1.098   4.258   5.641
 4065SOL    HW113094   1.003   4.257   5.671
 4065SOL    HW213095   1.102   4.274   5.542
 4066SOL     OW13096   4.841   4.637   2.099
 4066SOL    HW113097   4.829   4.732   2.128
 4066SOL    HW213098   4.926   4.601   2.139
 4067SOL     OW13099   5.495   0.348   1.290
 4067SOL    HW113100   5.527   0.323   1.382
 4067SOL    HW213101   5.557   0.310   1.222
 4068SOL     OW13102   5.154   0.827   4.606
 4068SOL    HW113103   5.093   0.861   4.677
 4068SOL    HW213104   5.132   0.871   4.519
 4069SOL     OW13105   6.754   6.117   0.448
 4069SOL    HW113106   6.781   6.213   0.460
 4069SOL    HW213107   6.683   6.095   0.514
 4070SOL     OW13108   6.762   3.688   2.530
 4070SOL    HW113109   6.809   3.675   2.443
 4070SOL    HW213110   6.675   3.638   2.530
 4071SOL     OW13111   2.754   7.014   4.949
 4071SOL    HW113112   2.777   6.954   5.025
 4071SOL    HW213113   2.835   0.049   4.922
 4072SOL     OW13114   0.594   0.455   4.384
 4072SOL    HW113115   0.537   0.511   4.324
 4072SOL    HW213116   0.542   0.432   4.467
 4073SOL     OW13117   2.599   4.814   1.994
 4073SOL    HW113118   2.526   4.782   1.934
 4073SOL    HW213119   2.666   4.741   2.008
 4074SOL     OW13120   0.334   2.913   1.391
 4074SOL    HW113121   0.365   2.857   1.468
 4074SOL    HW213122   0.235   2.928   1.399
 4075SOL     OW13123   6.707   0.564   3.486
 4075SOL    HW113124   6.645   0.543   3.410
 4075SOL    HW213125   6.731   0.661   3.485
 4076SOL     OW13126   1.681   3.421   3.413
 4076SOL    HW113127   1.731   3.480   3.350
 4076SOL    HW213128   1.584   3.420   3.387
 4077SOL     OW13129   3.625   0.728   1.777
 4077SOL    HW113130   3.572   0.738   1.693
 4077SOL    HW213131   3.718   0.764   1.762
 4078SOL     OW13132   5.053   4.487   2.531
 4078SOL    HW113133   5.065   4.447   2.621
 4078SOL    HW213134   4.956   4.507   2.515
 4079SOL     OW13135   4.793   0.802   3.398
 4079SOL    HW113136   4.783   0.797   3.298
 4079SOL    HW213137   4.704   0.826   3.438
 4080SOL     OW13138   3.036   3.981   4.605
 4080SOL    HW113139   3.073   3.889   4.615
 4080SOL    HW213140   2.946   3.986   4.648
 4081SOL     OW13141   3.096   0.068   0.267
 4081SOL    HW113142   3.134   0.039   0.179
 4081SOL    HW213143   3.006   0.108   0.253
 4082SOL     OW13144   2.006   1.449   5.703
 4082SOL    HW113145   1.918   1.448   5.656
 4082SOL    HW213146   2.080   1.452   5.636
 4083SOL     OW13147   5.892   4.324   2.610
 4083SOL    HW113148   5.838   4.259   2.665
 4083SOL    HW213149   5.875   4.307   2.513
 4084SOL     OW13150   4.321   6.321   2.478
 4084SOL    HW113151   4.253   6.357   2.414
 4084SOL    HW213152   4.395   6.387   2.489
 4085SOL     OW13153   1.445   4.294   2.707
 4085SOL    HW113154   1.527   4.321   2.759
 4085SOL    HW213155   1.473   4.250   2.622
 4086SOL     OW13156   5.439   5.235   4.630
 4086SOL    HW113157   5.463   5.141   4.604
 4086SOL    HW213158   5.393   5.235   4.719
 4087SOL     OW13159   1.635   1.007   1.376
 4087SOL    HW113160   1.643   1.099   1.414
 4087SOL    HW213161   1.549   0.999   1.325
 4088SOL     OW13162   0.131   2.332   5.132
 4088SOL    HW113163   0.092   2.241   5.118
 4088SOL    HW213164   0.212   2.342   5.075
 4089SOL     OW13165   6.681   6.567   2.512
 4089SOL    HW113166   6.740   6.644   2.488
 4089SOL    HW213167   6.722   6.482   2.478
 4090SOL     OW13168   3.536   2.701   5.292
 4090SOL    HW113169   3.635   2.712   5.304
 4090SOL    HW213170   3.505   2.621   5.342
 4091SOL     OW13171   3.940   6.489   3.287
 4091SOL    HW113172   3.922   6.438   3.371
 4091SOL    HW213173   3.855   6.505   3.238
 4092SOL     OW13174   4.575   2.006   6.490
 4092SOL    HW113175   4.663   1.983   6.446
 4092SOL    HW213176   4.580   1.982   6.587
 4093SOL     OW13177   5.851   4.493   1.704
 4093SOL    HW113178   5.876   4.406   1.661
 4093SOL    HW213179   5.934   4.547   1.721
 4094SOL     OW13180   6.118   6.274   0.455
 4094SOL    HW113181   6.216   6.292   0.465
 4094SOL    HW213182   6.071   6.307   0.537
 4095SOL     OW13183   1.404   4.821   0.690
 4095SOL    HW113184   1.480   4.853   0.633
 4095SOL    HW213185   1.397   4.879   0.771
 4096SOL     OW13186   1.041   6.425   5.879
 4096SOL    HW113187   0.977   6.348   5.881
 4096SOL    HW213188   1.084   6.430   5.789
 4097SOL     OW13189   1.389   3.968   5.859
 4097SOL    HW113190   1.459   4.022   5.813
 4097SOL    HW213191   1.429   3.883   5.892
 4098SOL     OW13192   1.213   6.023   1.809
 4098SOL    HW113193   1.238   6.112   1.770
 4098SOL    HW213194   1.143   5.980   1.753
 4099SOL     OW13195   6.899   2.279   5.965
 4099SOL    HW113196   6.884   2.192   5.919
 4099SOL    HW213197   6.968   2.332   5.914
 4100SOL     OW13198   2.314   1.051   3.835
 4100SOL    HW113199   2.407   1.081   3.853
 4100SOL    HW213200   2.291   1.065   3.739
 4101SOL     OW13201   5.730   6.366   5.901
 4101SOL    HW113202   5.795   6.416   5.844
 4101SOL    HW213203   5.772   6.281   5.932
 4102SOL     OW13204   2.795   4.880   0.478
 4102SOL    HW113205   2.808   4.830   0.393
 4102SOL    HW213206   2.740   4.826   0.541
 4103SOL     OW13207   2.158   5.052   2.517
 4103SOL    HW113208   2.192   5.139   2.552
 4103SOL    HW213209   2.150   4.986   2.592
 4104SOL     OW13210   2.578   5.561   5.579
 4104SOL    HW113211   2.540   5.492   5.518
 4104SOL    HW213212   2.553   5.652   5.547
 4105SOL     OW13213   3.581   0.043   2.039
 4105SOL    HW113214   3.679   0.021   2.042
 4105SOL    HW213215   3.548   0.058   2.132
 4106SOL     OW13216   1.568   6.503   2.837
 4106SOL    HW113217   1.656   6.546   2.855
 4106SOL    HW213218   1.495   6.571   2.838
 4107SOL     OW13219   2.316   1.920   0.696
 4107SOL    HW113220   2.357   1.906   0.786
 4107SOL    HW213221   2.356   2.002   0.654
 4108SOL     OW13222   0.665   5.665   5.286
 4108SOL    HW113223   0.686   5.726   5.210
 4108SOL    HW213224   0.653   5.718   5.369
 4109SOL     OW13225   5.123   0.353   5.226
 4109SOL    HW113226   5.126   0.450   5.202
 4109SOL    HW213227   5.038   0.313   5.192
 4110SOL     OW13228   5.105   2.106   0.548
 4110SOL    HW113229   5.099   2.113   0.448
 4110SOL    HW213230   5.028   2.052   0.582
 4111SOL     OW13231   6.476   4.453   3.860
 4111SOL    HW113232   6.413   4.387   3.902
 4111SOL    HW213233   6.474   4.441   3.761
 4112SOL     OW13234   3.832   5.474   5.624
 4112SOL    HW113235   3.888   5.399   5.659
 4112SOL    HW213236   3.861   5.560   5.666
 4113SOL     OW13237   5.233   5.908   5.782
 4113SOL    HW113238   5.169   5.835   5.807
 4113SOL    HW213239   5.268   5.951   5.865
 4114SOL     OW13240   6.524   1.581   3.480
 4114SOL    HW113241   6.500   1.593   3.384
 4114SOL    HW213242   6.450   1.616   3.538
 4115SOL     OW13243   4.573   0.139   4.931
 4115SOL    HW113244   4.565   0.187   4.844
 4115SOL    HW213245   4.492   0.080   4.944
 4116SOL     OW13246   6.059   3.655   3.365
 4116SOL    HW113247   6.153   3.661   3.400
 4116SOL    HW213248   6.001   3.720   3.414
 4117SOL     OW13249   0.846   2.960   2.662
 4117SOL    HW113250   0.754   2.987   2.633
 4117SOL    HW213251   0.879   2.888   2.601
 4118SOL     OW13252   0.884   1.095   1.979
 4118SOL    HW113253   0.940   1.122   1.900
 4118SOL    HW213254   0.932   1.118   2.064
 4119SOL     OW13255   6.514   1.124   4.490
 4119SOL    HW113256   6.522   1.117   4.391
 4119SOL    HW213257   6.571   1.200   4.523
 4120SOL     OW13258   1.608   0.404   0.190
 4120SOL    HW113259   1.557   0.323   0.221
 4120SOL    HW213260   1.588   0.421   0.094
 4121SOL     OW13261   6.654   0.374   1.128
 4121SOL    HW113262   6.659   0.464   1.085
 4121SOL    HW213263   6.721   0.313   1.085
 4122SOL     OW13264   1.154   4.372   3.178
 4122SOL    HW113265   1.135   4.303   3.248
 4122SOL    HW213266   1.150   4.464   3.219
 4123SOL     OW13267   6.074   4.562   2.040
 4123SOL    HW113268   6.123   4.616   2.109
 4123SOL    HW213269   5.980   4.546   2.070
 4124SOL     OW13270   5.595   6.358   0.444
 4124SOL    HW113271   5.619   6.380   0.349
 4124SOL    HW213272   5.503   6.319   0.446
 4125SOL     OW13273   0.587   2.704   6.962
 4125SOL    HW113274   0.584   2.688   6.863
 4125SOL    HW213275   0.533   2.633   7.008
 4126SOL     OW13276   1.586   4.030   3.374
 4126SOL    HW113277   1.684   4.019   3.392
 4126SOL    HW213278   1.542   3.940   3.369
 4127SOL     OW13279   4.566   2.514   4.347
 4127SOL    HW113280   4.613   2.601   4.362
 4127SOL    HW213281   4.628   2.438   4.367
 4128SOL     OW13282   6.075   2.886   6.307
 4128SOL    HW113283   6.028   2.968   6.275
 4128SOL    HW213284   6.098   2.896   6.403
 4129SOL     OW13285   3.158   0.049   2.191
 4129SOL    HW113286   3.229   0.006   2.136
 4129SOL    HW213287   3.068   0.030   2.152
 4130SOL     OW13288   4.947   1.076   0.450
 4130SOL    HW113289   4.894   1.073   0.366
 4130SOL    HW213290   5.021   1.143   0.440
 4131SOL     OW13291   5.344   6.195   4.420
 4131SOL    HW113292   5.420   6.239   4.373
 4131SOL    HW213293   5.259   6.210   4.369
 4132SOL     OW13294   6.824   3.515   2.309
 4132SOL    HW113295   6.803   3.438   2.249
 4132SOL    HW213296   6.886   3.485   2.381
 4133SOL     OW13297   5.485   6.101   3.681
 4133SOL    HW113298   5.570   6.070   3.639
 4133SOL    HW213299   5.472   6.054   3.769
 4134SOL     OW13300   2.026   2.716   0.938
 4134SOL    HW113301   1.961   2.640   0.927
 4134SOL    HW213302   2.119   2.680   0.939
 4135SOL     OW13303   6.109   0.814   0.974
 4135SOL    HW113304   6.023   0.858   0.948
 4135SOL    HW213305   6.096   0.764   1.059
 4136SOL     OW13306   0.612   4.895   0.193
 4136SOL    HW113307   0.697   4.948   0.189
 4136SOL    HW213308   0.606   4.851   0.282
 4137SOL     OW13309   0.459   2.378   5.089
 4137SOL    HW113310   0.450   2.375   5.189
 4137SOL    HW213311   0.542   2.330   5.062
 4138SOL     OW13312   5.831   6.742   6.446
 4138SOL    HW113313   5.863   6.807   6.377
 4138SOL    HW213314   5.907   6.716   6.506
 4139SOL     OW13315   1.451   4.003   2.152
 4139SOL    HW113316   1.364   4.051   2.159
 4139SOL    HW213317   1.472   3.959   2.239
 4140SOL     OW13318   2.488   6.708   0.944
 4140SOL    HW113319   2.587   6.699   0.932
 4140SOL    HW213320   2.466   6.802   0.969
 4141SOL     OW13321   5.038   6.974   5.917
 4141SOL    HW113322   5.114   6.935   5.970
 4141SOL    HW213323   5.025   0.051   5.944
 4142SOL     OW13324   0.223   6.800   1.738
 4142SOL    HW113325   0.278   6.717   1.743
 4142SOL    HW213326   0.225   6.847   1.826
 4143SOL     OW13327   6.709   3.253   6.322
 4143SOL    HW113328   6.610   3.241   6.312
 4143SOL    HW213329   6.736   3.233   6.416
 4144SOL     OW13330   5.007   0.701   1.873
 4144SOL    HW113331   4.912   0.725   1.892
 4144SOL    HW213332   5.067   0.753   1.934
 4145SOL     OW13333   4.489   0.779   1.361
 4145SOL    HW113334   4.435   0.795   1.278
 4145SOL    HW213335   4.463   0.847   1.430
 4146SOL     OW13336   3.489   1.653   2.325
 4146SOL    HW113337   3.498   1.568   2.273
 4146SOL    HW213338   3.454   1.632   2.416
 4147SOL     OW13339   5.147   4.347   6.541
 4147SOL    HW113340   5.172   4.344   6.638
 4147SOL    HW213341   5.184   4.266   6.495
 4148SOL     OW13342   3.317   0.805   6.258
 4148SOL    HW113343   3.324   0.864   6.178
 4148SOL    HW213344   3.298   0.711   6.229
 4149SOL     OW13345   1.678   2.358   6.738
 4149SOL    HW113346   1.723   2.411   6.666
 4149SOL    HW213347   1.748   2.316   6.796
 4150SOL     OW13348   7.003   1.390   1.163
 4150SOL    HW113349   6.960   1.395   1.073
 4150SOL    HW213350   6.933   1.404   1.234
 4151SOL     OW13351   2.867   5.467   4.470
 4151SOL    HW113352   2.934   5.529   4.430
 4151SOL    HW213353   2.833   5.505   4.556
 4152SOL     OW13354   2.984   4.020   1.420
 4152SOL    HW113355   2.985   4.093   1.352
 4152SOL    HW213356   2.891   4.005   1.452
 4153SOL     OW13357   6.022   6.371   0.746
 4153SOL    HW113358   6.017   6.317   0.830
 4153SOL    HW213359   6.068   6.458   0.765
 4154SOL     OW13360   0.610   6.342   3.730
 4154SOL    HW113361   0.688   6.381   3.779
 4154SOL    HW213362   0.598   6.390   3.643
 4155SOL     OW13363   5.208   1.137   2.375
 4155SOL    HW113364   5.288   1.078   2.381
 4155SOL    HW213365   5.126   1.083   2.392
 4156SOL     OW13366   0.671   5.491   5.929
 4156SOL    HW113367   0.722   5.566   5.972
 4156SOL    HW213368   0.713   5.404   5.953
 4157SOL     OW13369   4.510   6.178   0.630
 4157SOL    HW113370   4.540   6.267   0.664
 4157SOL    HW213371   4.558   6.105   0.679
 4158SOL     OW13372   6.275   1.028   6.703
 4158SOL    HW113373   6.268   0.992   6.796
 4158SOL    HW213374   6.332   1.110   6.704
 4159SOL     OW13375   3.012   0.781   4.480
 4159SOL    HW113376   3.078   0.710   4.504
 4159SOL    HW213377   3.057   0.852   4.426
 4160SOL     OW13378   1.549   0.489   6.190
 4160SOL    HW113379   1.558   0.582   6.227
 4160SOL    HW213380   1.564   0.492   6.091
 4161SOL     OW13381   3.319   3.404   5.145
 4161SOL    HW113382   3.281   3.336   5.207
 4161SOL    HW213383   3.374   3.470   5.197
 4162SOL     OW13384   4.378   6.391   0.978
 4162SOL    HW113385   4.386   6.366   1.074
 4162SOL    HW213386   4.292   6.439   0.963
 4163SOL     OW13387   3.576   5.953   1.328
 4163SOL    HW113388   3.574   6.024   1.258
 4163SOL    HW213389   3.568   5.863   1.285
 4164SOL     OW13390   5.799   1.291   6.899
 4164SOL    HW113391   5.852   1.207   6.895
 4164SOL    HW213392   5.858   1.365   6.932
 4165SOL     OW13393   3.100   1.766   4.555
 4165SOL    HW113394   3.169   1.771   4.483
 4165SOL    HW213395   3.141   1.728   4.638
 4166SOL     OW13396   5.431   1.804   2.341
 4166SOL    HW113397   5.423   1.856   2.256
 4166SOL    HW213398   5.514   1.748   2.338
 4167SOL     OW13399   3.703   6.552   4.651
 4167SOL    HW113400   3.646   6.630   4.624
 4167SOL    HW213401   3.788   6.552   4.598
 4168SOL     OW13402   5.478   3.743   6.691
 4168SOL    HW113403   5.484   3.681   6.769
 4168SOL    HW213404   5.483   3.690   6.606
 4169SOL     OW13405   5.172   4.302   6.813
 4169SOL    HW113406   5.191   4.204   6.802
 4169SOL    HW213407   5.229   4.339   6.886
 4170SOL     OW13408   0.849   2.995   5.167
 4170SOL    HW113409   0.893   2.961   5.084
 4170SOL    HW213410   0.850   2.924   5.237
 4171SOL     OW13411   0.102   0.671   6.294
 4171SOL    HW113412   0.153   0.658   6.379
 4171SOL    HW213413   0.104   0.586   6.241
 4172SOL     OW13414   3.598   3.229   0.076
 4172SOL    HW113415   3.529   3.299   0.055
 4172SOL    HW213416   3.576   3.145   0.027
 4173SOL     OW13417   5.446   1.440   6.076
 4173SOL    HW113418   5.434   1.356   6.129
 4173SOL    HW213419   5.494   1.419   5.991
 4174SOL     OW13420   2.512   6.990   3.651
 4174SOL    HW113421   2.532   0.006   3.742
 4174SOL    HW213422   2.540   0.039   3.583
 4175SOL     OW13423   1.298   3.618   6.343
 4175SOL    HW113424   1.236   3.645   6.417
 4175SOL    HW213425   1.295   3.687   6.271
 4176SOL     OW13426   4.145   6.779   4.979
 4176SOL    HW113427   4.061   6.833   4.985
 4176SOL    HW213428   4.157   6.726   5.062
 4177SOL     OW13429   5.096   6.567   4.168
 4177SOL    HW113430   5.061   6.535   4.256
 4177SOL    HW213431   5.064   6.660   4.151
 4178SOL     OW13432   3.284   6.624   1.391
 4178SOL    HW113433   3.223   6.699   1.365
 4178SOL    HW213434   3.377   6.658   1.399
 4179SOL     OW13435   4.151   1.784   0.161
 4179SOL    HW113436   4.196   1.833   0.236
 4179SOL    HW213437   4.076   1.729   0.197
 4180SOL     OW13438   4.177   4.165   6.866
 4180SOL    HW113439   4.098   4.225   6.876
 4180SOL    HW213440   4.157   4.076   6.907
 4181SOL     OW13441   5.225   6.198   5.773
 4181SOL    HW113442   5.199   6.106   5.805
 4181SOL    HW213443   5.212   6.264   5.846
 4182SOL     OW13444   6.544   5.040   5.338
 4182SOL    HW113445   6.608   5.004   5.406
 4182SOL    HW213446   6.452   5.043   5.377
 4183SOL     OW13447   5.339   2.848   0.223
 4183SOL    HW113448   5.327   2.807   0.133
 4183SOL    HW213449   5.355   2.775   0.290
 4184SOL     OW13450   3.693   5.883   3.340
 4184SOL    HW113451   3.788   5.898   3.367
 4184SOL    HW213452   3.633   5.938   3.398
 4185SOL     OW13453   4.477   4.496   3.129
 4185SOL    HW113454   4.563   4.505   3.179
 4185SOL    HW213455   4.433   4.409   3.152
 4186SOL     OW13456   1.963   5.290   0.903
 4186SOL    HW113457   1.982   5.238   0.986
 4186SOL    HW213458   1.894   5.242   0.848
 4187SOL     OW13459   1.354   3.857   6.575
 4187SOL    HW113460   1.434   3.864   6.516
 4187SOL    HW213461   1.294   3.785   6.541
 4188SOL     OW13462   5.249   0.679   6.397
 4188SOL    HW113463   5.193   0.596   6.391
 4188SOL    HW213464   5.218   0.745   6.328
 4189SOL     OW13465   4.195   5.752   3.548
 4189SOL    HW113466   4.199   5.727   3.645
 4189SOL    HW213467   4.280   5.724   3.503
 4190SOL     OW13468   6.426   5.767   1.339
 4190SOL    HW113469   6.448   5.815   1.254
 4190SOL    HW213470   6.502   5.775   1.403
 4191SOL     OW13471   4.790   2.713   5.781
 4191SOL    HW113472   4.771   2.781   5.710
 4191SOL    HW213473   4.819   2.759   5.865
 4192SOL     OW13474   1.972   3.508   6.219
 4192SOL    HW113475   1.888   3.562   6.211
 4192SOL    HW213476   2.050   3.570   6.230
 4193SOL     OW13477   5.794   6.626   1.345
 4193SOL    HW113478   5.714   6.575   1.378
 4193SOL    HW213479   5.801   6.615   1.246
 4194SOL     OW13480   5.299   0.328   6.927
 4194SOL    HW113481   5.200   0.317   6.919
 4194SOL    HW213482   5.342   0.238   6.928
 4195SOL     OW13483   1.963   6.069   0.628
 4195SOL    HW113484   1.929   5.981   0.661
 4195SOL    HW213485   1.933   6.141   0.691
 4196SOL     OW13486   6.615   3.244   3.095
 4196SOL    HW113487   6.560   3.162   3.108
 4196SOL    HW213488   6.566   3.308   3.036
 4197SOL     OW13489   4.176   0.445   0.068
 4197SOL    HW113490   4.227   0.528   0.044
 4197SOL    HW213491   4.082   0.470   0.091
 4198SOL     OW13492   6.618   2.337   1.814
 4198SOL    HW113493   6.537   2.289   1.782
 4198SOL    HW213494   6.616   2.432   1.782
 4199SOL     OW13495   1.837   4.008   7.017
 4199SOL    HW113496   1.764   3.944   6.993
 4199SOL    HW213497   1.798   4.087   0.047
 4200SOL     OW13498   5.515   1.204   2.809
 4200SOL    HW113499   5.527   1.292   2.855
 4200SOL    HW213500   5.476   1.218   2.718
 4201SOL     OW13501   4.881   0.254   5.145
 4201SOL    HW113502   4.858   0.281   5.052
 4201SOL    HW213503   4.906   0.158   5.148
 4202SOL     OW13504   4.607   4.342   1.443
 4202SOL    HW113505   4.606   4.410   1.516
 4202SOL    HW213506   4.671   4.371   1.372
 4203SOL     OW13507   6.599   3.753   4.574
 4203SOL    HW113508   6.658   3.715   4.503
 4203SOL    HW213509   6.541   3.824   4.535
 4204SOL     OW13510   2.560   4.015   5.787
 4204SOL    HW113511   2.524   4.045   5.876
 4204SOL    HW213512   2.504   4.053   5.714
 4205SOL     OW13513   5.689   5.434   5.512
 4205SOL    HW113514   5.595   5.403   5.530
 4205SOL    HW213515   5.731   5.464   5.598
 4206SOL     OW13516   2.627   2.360   5.005
 4206SOL    HW113517   2.680   2.339   5.088
 4206SOL    HW213518   2.588   2.451   5.013
 4207SOL     OW13519   2.495   2.434   1.289
 4207SOL    HW113520   2.537   2.462   1.375
 4207SOL    HW213521   2.477   2.336   1.290
 4208SOL     OW13522   1.781   2.596   2.755
 4208SOL    HW113523   1.792   2.506   2.798
 4208SOL    HW213524   1.821   2.666   2.814
 4209SOL     OW13525   0.006   5.196   2.683
 4209SOL    HW113526   0.041   5.230   2.596
 4209SOL    HW213527   0.003   5.271   2.749
 4210SOL     OW13528   3.151   5.398   5.196
 4210SOL    HW113529   3.185   5.487   5.164
 4210SOL    HW213530   3.071   5.372   5.143
 4211SOL     OW13531   4.862   2.836   6.012
 4211SOL    HW113532   4.789   2.835   6.080
 4211SOL    HW213533   4.947   2.802   6.053
 4212SOL     OW13534   0.731   2.736   2.876
 4212SOL    HW113535   0.786   2.820   2.869
 4212SOL    HW213536   0.664   2.747   2.949
 4213SOL     OW13537   2.913   0.678   3.790
 4213SOL    HW113538   2.993   0.639   3.835
 4213SOL    HW213539   2.926   0.675   3.690
 4214SOL     OW13540   6.252   6.511   4.175
 4214SOL    HW113541   6.175   6.482   4.117
 4214SOL    HW213542   6.296   6.431   4.215
 4215SOL     OW13543   5.664   0.324   5.387
 4215SOL    HW113544   5.688   0.231   5.416
 4215SOL    HW213545   5.642   0.323   5.289
 4216SOL     OW13546   1.972   5.707   2.477
 4216SOL    HW113547   2.036   5.757   2.420
 4216SOL    HW213548   1.896   5.766   2.503
 4217SOL     OW13549   0.380   0.252   3.134
 4217SOL    HW113550   0.349   0.313   3.206
 4217SOL    HW213551   0.425   0.173   3.175
 4218SOL     OW13552   2.508   0.708   1.788
 4218SOL    HW113553   2.572   0.675   1.718
 4218SOL    HW213554   2.484   0.803   1.769
 4219SOL     OW13555   3.212   5.599   2.506
 4219SOL    HW113556   3.305   5.563   2.501
 4219SOL    HW213557   3.209   5.691   2.465
 4220SOL     OW13558   5.615   1.716   1.481
 4220SOL    HW113559   5.692   1.723   1.544
 4220SOL    HW213560   5.542   1.661   1.523
 4221SOL     OW13561   0.566   0.359   1.194
 4221SOL    HW113562   0.636   0.421   1.159
 4221SOL    HW213563   0.481   0.410   1.210
 4222SOL     OW13564   4.933   3.600   4.361
 4222SOL    HW113565   4.978   3.608   4.450
 4222SOL    HW213566   4.895   3.507   4.351
 4223SOL     OW13567   3.670   4.116   2.576
 4223SOL    HW113568   3.635   4.151   2.662
 4223SOL    HW213569   3.769   4.106   2.581
 4224SOL     OW13570   4.789   4.053   4.945
 4224SOL    HW113571   4.787   4.152   4.930
 4224SOL    HW213572   4.751   4.033   5.035
 4225SOL     OW13573   0.818   1.554   5.994
 4225SOL    HW113574   0.897   1.611   5.972
 4225SOL    HW213575   0.848   1.462   6.016
 4226SOL     OW13576   5.359   5.256   3.989
 4226SOL    HW113577   5.263   5.279   3.998
 4226SOL    HW213578   5.409   5.289   4.069
 4227SOL     OW13579   5.569   5.834   0.743
 4227SOL    HW113580   5.594   5.887   0.663
 4227SOL    HW213581   5.652   5.798   0.786
 4228SOL     OW13582   1.780   4.365   3.304
 4228SOL    HW113583   1.832   4.335   3.384
 4228SOL    HW213584   1.683   4.371   3.327
 4229SOL     OW13585   6.150   6.496   5.820
 4229SOL    HW113586   6.157   6.413   5.877
 4229SOL    HW213587   6.234   6.506   5.767
 4230SOL     OW13588   0.754   1.855   2.159
 4230SOL    HW113589   0.712   1.945   2.142
 4230SOL    HW213590   0.769   1.809   2.072
 4231SOL     OW13591   0.184   0.703   5.884
 4231SOL    HW113592   0.245   0.631   5.917
 4231SOL    HW213593   0.196   0.785   5.940
 4232SOL     OW13594   1.923   4.379   2.600
 4232SOL    HW113595   1.827   4.389   2.627
 4232SOL    HW213596   1.982   4.398   2.679
 4233SOL     OW13597   4.439   5.172   2.360
 4233SOL    HW113598   4.519   5.120   2.389
 4233SOL    HW213599   4.382   5.191   2.440
 4234SOL     OW13600   3.242   5.595   6.594
 4234SOL    HW113601   3.216   5.627   6.503
 4234SOL    HW213602   3.280   5.670   6.647
 4235SOL     OW13603   6.730   5.951   6.983
 4235SOL    HW113604   6.659   6.018   7.005
 4235SOL    HW213605   6.701   5.898   6.903
 4236SOL     OW13606   0.129   4.981   3.486
 4236SOL    HW113607   0.219   4.940   3.469
 4236SOL    HW213608   0.062   4.942   3.424
 4237SOL     OW13609   6.541   4.717   4.247
 4237SOL    HW113610   6.490   4.667   4.317
 4237SOL    HW213611   6.482   4.786   4.206
 4238SOL     OW13612   1.942   5.728   3.031
 4238SOL    HW113613   1.875   5.789   3.072
 4238SOL    HW213614   1.912   5.633   3.042
 4239SOL     OW13615   4.125   0.807   3.443
 4239SOL    HW113616   4.103   0.850   3.531
 4239SOL    HW213617   4.070   0.724   3.432
 4240SOL     OW13618   4.717   6.888   1.861
 4240SOL    HW113619   4.665   6.950   1.803
 4240SOL    HW213620   4.730   6.801   1.813
 4241SOL     OW13621   0.669   4.534   6.604
 4241SOL    HW113622   0.603   4.586   6.549
 4241SOL    HW213623   0.622   4.458   6.649
 4242SOL     OW13624   3.931   2.141   2.608
 4242SOL    HW113625   3.976   2.054   2.590
 4242SOL    HW213626   3.886   2.174   2.525
 4243SOL     OW13627   2.844   1.947   2.895
 4243SOL    HW113628   2.749   1.961   2.867
 4243SOL    HW213629   2.887   2.036   2.909
 4244SOL     OW13630   2.845   3.495   5.103
 4244SOL    HW113631   2.909   3.568   5.080
 4244SOL    HW213632   2.765   3.535   5.148
 4245SOL     OW13633   6.777   1.269   5.652
 4245SOL    HW113634   6.868   1.284   5.691
 4245SOL    HW213635   6.785   1.251   5.554
 4246SOL     OW13636   1.052   4.978   6.377
 4246SOL    HW113637   1.105   4.916   6.434
 4246SOL    HW213638   0.995   4.926   6.314
 4247SOL     OW13639   0.364   4.730   5.021
 4247SOL    HW113640   0.399   4.666   4.952
 4247SOL    HW213641   0.309   4.679   5.087
 4248SOL     OW13642   2.186   3.413   6.910
 4248SOL    HW113643   2.169   3.349   6.835
 4248SOL    HW213644   2.175   3.507   6.877
 4249SOL     OW13645   5.309   3.225   6.178
 4249SOL    HW113646   5.212   3.204   6.188
 4249SOL    HW213647   5.326   3.320   6.204
 4250SOL     OW13648   6.651   4.128   3.820
 4250SOL    HW113649   6.603   4.139   3.733
 4250SOL    HW213650   6.721   4.198   3.830
 4251SOL     OW13651   5.963   4.804   6.165
 4251SOL    HW113652   5.940   4.887   6.113
 4251SOL    HW213653   6.061   4.803   6.185
 4252SOL     OW13654   5.980   4.802   5.314
 4252SOL    HW113655   6.004   4.890   5.355
 4252SOL    HW213656   5.881   4.798   5.300
 4253SOL     OW13657   3.289   0.256   3.090
 4253SOL    HW113658   3.226   0.312   3.143
 4253SOL    HW213659   3.378   0.255   3.135
 4254SOL     OW13660   3.663   3.302   2.976
 4254SOL    HW113661   3.618   3.346   3.053
 4254SOL    HW213662   3.722   3.229   3.009
 4255SOL     OW13663   0.803   2.289   4.169
 4255SOL    HW113664   0.903   2.293   4.162
 4255SOL    HW213665   0.762   2.355   4.105
 4256SOL     OW13666   1.114   0.992   1.830
 4256SOL    HW113667   1.191   0.932   1.806
 4256SOL    HW213668   1.029   0.952   1.794
 4257SOL     OW13669   4.262   2.142   4.857
 4257SOL    HW113670   4.315   2.167   4.938
 4257SOL    HW213671   4.176   2.099   4.885
 4258SOL     OW13672   5.519   5.933   2.158
 4258SOL    HW113673   5.561   6.022   2.146
 4258SOL    HW213674   5.499   5.893   2.068
 4259SOL     OW13675   2.641   3.108   1.712
 4259SOL    HW113676   2.671   3.200   1.739
 4259SOL    HW213677   2.721   3.051   1.693
 4260SOL     OW13678   3.899   6.251   4.938
 4260SOL    HW113679   3.954   6.177   4.977
 4260SOL    HW213680   3.802   6.226   4.941
 4261SOL     OW13681   1.241   1.346   3.000
 4261SOL    HW113682   1.220   1.439   2.971
 4261SOL    HW213683   1.164   1.308   3.052
 4262SOL     OW13684   0.715   6.897   5.285
 4262SOL    HW113685   0.804   6.851   5.277
 4262SOL    HW213686   0.645   6.842   5.240
 4263SOL     OW13687   4.351   5.302   6.746
 4263SOL    HW113688   4.369   5.204   6.738
 4263SOL    HW213689   4.258   5.316   6.780
 4264SOL     OW13690   1.455   0.704   1.274
 4264SOL    HW113691   1.396   0.783   1.255
 4264SOL    HW213692   1.404   0.619   1.255
 4265SOL     OW13693   1.742   1.582   0.978
 4265SOL    HW113694   1.788   1.574   0.889
 4265SOL    HW213695   1.654   1.629   0.966
 4266SOL     OW13696   3.097   4.734   0.455
 4266SOL    HW113697   3.175   4.796   0.458
 4266SOL    HW213698   3.059   4.732   0.363
 4267SOL     OW13699   1.514   3.721   5.091
 4267SOL    HW113700   1.609   3.748   5.074
 4267SOL    HW213701   1.456   3.802   5.090
 4268SOL     OW13702   0.555   1.575   1.107
 4268SOL    HW113703   0.511   1.534   1.187
 4268SOL    HW213704   0.595   1.503   1.051
 4269SOL     OW13705   2.955   3.521   0.746
 4269SOL    HW113706   2.878   3.523   0.683
 4269SOL    HW213707   2.932   3.465   0.826
 4270SOL     OW13708   3.876   2.957   6.839
 4270SOL    HW113709   3.805   2.949   6.769
 4270SOL    HW213710   3.903   3.053   6.848
 4271SOL     OW13711   1.872   0.484   1.537
 4271SOL    HW113712   1.797   0.543   1.507
 4271SOL    HW213713   1.872   0.478   1.637
 4272SOL     OW13714   1.069   4.570   3.521
 4272SOL    HW113715   1.086   4.558   3.619
 4272SOL    HW213716   1.048   4.481   3.480
 4273SOL     OW13717   6.415   6.882   3.488
 4273SOL    HW113718   6.340   6.840   3.438
 4273SOL    HW213719   6.495   6.890   3.429
 4274SOL     OW13720   1.740   0.141   3.476
 4274SOL    HW113721   1.655   0.178   3.438
 4274SOL    HW213722   1.799   0.110   3.402
 4275SOL     OW13723   0.799   0.472   5.963
 4275SOL    HW113724   0.881   0.420   5.988
 4275SOL    HW213725   0.751   0.423   5.890
 4276SOL     OW13726   1.707   3.726   3.546
 4276SOL    HW113727   1.656   3.657   3.494
 4276SOL    HW213728   1.773   3.771   3.485
 4277SOL     OW13729   0.437   5.664   5.722
 4277SOL    HW113730   0.458   5.692   5.816
 4277SOL    HW213731   0.514   5.613   5.684
 4278SOL     OW13732   0.977   6.045   6.540
 4278SOL    HW113733   0.915   6.093   6.602
 4278SOL    HW213734   1.058   6.101   6.524
 4279SOL     OW13735   3.859   5.976   2.799
 4279SOL    HW113736   3.882   6.001   2.705
 4279SOL    HW213737   3.767   5.936   2.802
 4280SOL     OW13738   4.850   3.018   4.067
 4280SOL    HW113739   4.912   2.996   4.142
 4280SOL    HW213740   4.867   3.111   4.035
 4281SOL     OW13741   1.866   4.122   4.865
 4281SOL    HW113742   1.902   4.144   4.956
 4281SOL    HW213743   1.767   4.139   4.864
 4282SOL     OW13744   0.865   1.414   6.933
 4282SOL    HW113745   0.783   1.402   6.878
 4282SOL    HW213746   0.842   1.463   7.017
 4283SOL     OW13747   2.991   1.111   4.031
 4283SOL    HW113748   2.906   1.159   4.054
 4283SOL    HW213749   2.986   1.017   4.064
 4284SOL     OW13750   0.089   2.567   2.773
 4284SOL    HW113751   0.038   2.652   2.764
 4284SOL    HW213752   0.043   2.507   2.839
 4285SOL     OW13753   0.955   6.105   4.463
 4285SOL    HW113754   1.041   6.081   4.418
 4285SOL    HW213755   0.906   6.172   4.408
 4286SOL     OW13756   4.516   5.605   0.029
 4286SOL    HW113757   4.555   5.696   0.045
 4286SOL    HW213758   4.524   5.582   6.950
 4287SOL     OW13759   4.223   5.622   5.730
 4287SOL    HW113760   4.158   5.676   5.784
 4287SOL    HW213761   4.257   5.547   5.786
 4288SOL     OW13762   1.234   6.234   3.918
 4288SOL    HW113763   1.321   6.266   3.881
 4288SOL    HW213764   1.159   6.267   3.861
 4289SOL     OW13765   0.734   4.233   6.856
 4289SOL    HW113766   0.726   4.135   6.872
 4289SOL    HW213767   0.646   4.269   6.827
 4290SOL     OW13768   1.512   2.025   2.707
 4290SOL    HW113769   1.511   1.938   2.756
 4290SOL    HW213770   1.511   2.101   2.772
 4291SOL     OW13771   6.956   4.188   1.205
 4291SOL    HW113772   6.910   4.147   1.127
 4291SOL    HW213773   0.028   4.222   1.178
 4292SOL     OW13774   5.595   5.647   4.643
 4292SOL    HW113775   5.678   5.592   4.654
 4292SOL    HW213776   5.548   5.656   4.731
 4293SOL     OW13777   0.920   1.808   0.588
 4293SOL    HW113778   0.962   1.778   0.673
 4293SOL    HW213779   0.842   1.867   0.608
 4294SOL     OW13780   4.387   2.589   6.005
 4294SOL    HW113781   4.348   2.550   5.921
 4294SOL    HW213782   4.333   2.560   6.083
 4295SOL     OW13783   3.384   5.228   5.250
 4295SOL    HW113784   3.470   5.258   5.209
 4295SOL    HW213785   3.317   5.302   5.248
 4296SOL     OW13786   2.121   1.601   2.480
 4296SOL    HW113787   2.193   1.660   2.442
 4296SOL    HW213788   2.046   1.658   2.513
 4297SOL     OW13789   5.317   0.102   0.625
 4297SOL    HW113790   5.247   0.139   0.685
 4297SOL    HW213791   5.407   0.121   0.663
 4298SOL     OW13792   1.537   4.255   1.684
 4298SOL    HW113793   1.633   4.234   1.702
 4298SOL    HW213794   1.522   4.353   1.696
 4299SOL     OW13795   1.192   5.639   5.082
 4299SOL    HW113796   1.144   5.721   5.053
 4299SOL    HW213797   1.129   5.561   5.081
 4300SOL     OW13798   5.421   0.434   5.448
 4300SOL    HW113799   5.400   0.528   5.419
 4300SOL    HW213800   5.518   0.416   5.433
 4301SOL     OW13801   3.028   0.862   0.867
 4301SOL    HW113802   3.078   0.789   0.914
 4301SOL    HW213803   2.973   0.913   0.934
 4302SOL     OW13804   0.791   0.419   0.111
 4302SOL    HW113805   0.721   0.365   0.063
 4302SOL    HW213806   0.805   0.380   0.202
 4303SOL     OW13807   0.595   4.258   1.673
 4303SOL    HW113808   0.669   4.232   1.611
 4303SOL    HW213809   0.590   4.192   1.748
 4304SOL     OW13810   3.106   3.787   5.596
 4304SOL    HW113811   3.119   3.871   5.648
 4304SOL    HW213812   3.122   3.708   5.655
 4305SOL     OW13813   0.493   1.511   5.040
 4305SOL    HW113814   0.485   1.438   4.972
 4305SOL    HW213815   0.439   1.590   5.011
 4306SOL     OW13816   6.121   5.378   5.662
 4306SOL    HW113817   6.157   5.395   5.754
 4306SOL    HW213818   6.196   5.382   5.596
 4307SOL     OW13819   6.108   3.888   0.939
 4307SOL    HW113820   6.173   3.956   0.904
 4307SOL    HW213821   6.079   3.829   0.863
 4308SOL     OW13822   2.971   0.094   5.467
 4308SOL    HW113823   2.934   0.048   5.547
 4308SOL    HW213824   3.069   0.075   5.460
 4309SOL     OW13825   1.135   0.191   1.625
 4309SOL    HW113826   1.078   0.140   1.560
 4309SOL    HW213827   1.166   0.276   1.582
 4310SOL     OW13828   1.607   6.938   2.741
 4310SOL    HW113829   1.636   6.856   2.691
 4310SOL    HW213830   1.681   7.005   2.742
 4311SOL     OW13831   1.256   4.831   4.628
 4311SOL    HW113832   1.165   4.846   4.591
 4311SOL    HW213833   1.261   4.867   4.722
 4312SOL     OW13834   1.298   5.215   2.634
 4312SOL    HW113835   1.264   5.153   2.564
 4312SOL    HW213836   1.226   5.281   2.659
 4313SOL     OW13837   4.988   1.176   1.218
 4313SOL    HW113838   4.968   1.209   1.310
 4313SOL    HW213839   4.911   1.123   1.183
 4314SOL     OW13840   6.372   3.340   1.186
 4314SOL    HW113841   6.347   3.249   1.155
 4314SOL    HW213842   6.329   3.359   1.274
 4315SOL     OW13843   1.519   0.766   2.378
 4315SOL    HW113844   1.420   0.752   2.385
 4315SOL    HW213845   1.559   0.695   2.321
 4316SOL     OW13846   0.333   1.279   2.773
 4316SOL    HW113847   0.234   1.277   2.792
 4316SOL    HW213848   0.349   1.242   2.681
 4317SOL     OW13849   4.288   0.591   3.104
 4317SOL    HW113850   4.366   0.601   3.042
 4317SOL    HW213851   4.320   0.566   3.195
 4318SOL     OW13852   0.096   2.117   4.946
 4318SOL    HW113853   0.003   2.080   4.940
 4318SOL    HW213854   0.156   2.048   4.987
 4319SOL     OW13855   4.084   3.033   6.560
 4319SOL    HW113856   4.061   3.128   6.538
 4319SOL    HW213857   4.110   2.985   6.477
 4320SOL     OW13858   6.753   6.369   3.461
 4320SOL    HW113859   6.824   6.302   3.437
 4320SOL    HW213860   6.698   6.332   3.536
 4321SOL     OW13861   0.379   0.901   4.502
 4321SOL    HW113862   0.340   0.839   4.570
 4321SOL    HW213863   0.342   0.878   4.412
 4322SOL     OW13864   6.336   0.951   0.696
 4322SOL    HW113865   6.334   1.049   0.679
 4322SOL    HW213866   6.387   0.933   0.781
 4323SOL     OW13867   0.231   2.269   3.891
 4323SOL    HW113868   0.154   2.205   3.885
 4323SOL    HW213869   0.305   2.228   3.943
 4324SOL     OW13870   5.742   2.460   5.870
 4324SOL    HW113871   5.782   2.393   5.933
 4324SOL    HW213872   5.708   2.413   5.789
 4325SOL     OW13873   1.763   2.524   6.531
 4325SOL    HW113874   1.764   2.622   6.551
 4325SOL    HW213875   1.793   2.509   6.436
 4326SOL     OW13876   6.663   2.467   5.070
 4326SOL    HW113877   6.726   2.540   5.097
 4326SOL    HW213878   6.714   2.395   5.023
 4327SOL     OW13879   5.029   0.709   3.264
 4327SOL    HW113880   5.114   0.687   3.312
 4327SOL    HW213881   4.968   0.759   3.325
 4328SOL     OW13882   6.527   4.913   0.392
 4328SOL    HW113883   6.501   4.823   0.358
 4328SOL    HW213884   6.475   4.934   0.474
 4329SOL     OW13885   4.895   1.805   6.431
 4329SOL    HW113886   4.815   1.745   6.439
 4329SOL    HW213887   4.866   1.894   6.396
 4330SOL     OW13888   1.060   1.070   5.909
 4330SOL    HW113889   1.105   1.040   5.825
 4330SOL    HW213890   1.017   0.992   5.954
 4331SOL     OW13891   5.100   2.763   6.353
 4331SOL    HW113892   5.183   2.709   6.369
 4331SOL    HW213893   5.022   2.702   6.342
 4332SOL     OW13894   6.289   4.760   2.192
 4332SOL    HW113895   6.345   4.686   2.153
 4332SOL    HW213896   6.245   4.728   2.276
 4333SOL     OW13897   6.326   1.518   4.962
 4333SOL    HW113898   6.282   1.561   4.884
 4333SOL    HW213899   6.400   1.577   4.995
 4334SOL     OW13900   4.364   0.277   1.949
 4334SOL    HW113901   4.274   0.245   1.922
 4334SOL    HW213902   4.434   0.224   1.901
 4335SOL     OW13903   3.730   4.638   6.201
 4335SOL    HW113904   3.748   4.584   6.283
 4335SOL    HW213905   3.632   4.660   6.196
 4336SOL     OW13906   1.532   0.247   6.296
 4336SOL    HW113907   1.550   0.333   6.250
 4336SOL    HW213908   1.524   0.263   6.395
 4337SOL     OW13909   0.789   5.416   6.256
 4337SOL    HW113910   0.813   5.391   6.162
 4337SOL    HW213911   0.851   5.369   6.319
 4338SOL     OW13912   5.572   6.872   3.295
 4338SOL    HW113913   5.619   6.875   3.207
 4338SOL    HW213914   5.485   6.921   3.288
 4339SOL     OW13915   6.616   0.732   0.209
 4339SOL    HW113916   6.535   0.680   0.235
 4339SOL    HW213917   6.608   0.826   0.244
 4340SOL     OW13918   4.583   3.433   1.573
 4340SOL    HW113919   4.530   3.505   1.617
 4340SOL    HW213920   4.632   3.470   1.494
 4341SOL     OW13921   0.956   3.628   0.386
 4341SOL    HW113922   0.917   3.542   0.353
 4341SOL    HW213923   0.923   3.703   0.328
 4342SOL     OW13924   0.637   2.654   2.329
 4342SOL    HW113925   0.539   2.666   2.337
 4342SOL    HW213926   0.680   2.670   2.419
 4343SOL     OW13927   3.385   2.988   1.203
 4343SOL    HW113928   3.287   2.986   1.184
 4343SOL    HW213929   3.400   3.020   1.297
 4344SOL     OW13930   2.375   3.248   1.596
 4344SOL    HW113931   2.470   3.225   1.615
 4344SOL    HW213932   2.339   3.190   1.524
 4345SOL     OW13933   2.938   0.819   6.106
 4345SOL    HW113934   2.854   0.765   6.114
 4345SOL    HW213935   2.942   0.861   6.016
 4346SOL     OW13936   0.400   4.097   1.128
 4346SOL    HW113937   0.378   4.181   1.177
 4346SOL    HW213938   0.415   4.118   1.031
 4347SOL     OW13939   5.017   5.982   2.568
 4347SOL    HW113940   4.995   5.905   2.509
 4347SOL    HW213941   4.966   6.063   2.538
 4348SOL     OW13942   1.239   3.666   0.427
 4348SOL    HW113943   1.268   3.758   0.401
 4348SOL    HW213944   1.140   3.658   0.417
 4349SOL     OW13945   6.351   1.199   1.183
 4349SOL    HW113946   6.401   1.178   1.267
 4349SOL    HW213947   6.374   1.132   1.113
 4350SOL     OW13948   3.681   0.378   3.003
 4350SOL    HW113949   3.617   0.312   3.042
 4350SOL    HW213950   3.654   0.400   2.909
 4351SOL     OW13951   3.587   6.984   0.460
 4351SOL    HW113952   3.649   0.043   0.477
 4351SOL    HW213953   3.526   6.972   0.538
 4352SOL     OW13954   6.003   2.092   1.678
 4352SOL    HW113955   6.044   2.141   1.601
 4352SOL    HW213956   5.990   1.996   1.654
 4353SOL     OW13957   3.320   5.755   0.817
 4353SOL    HW113958   3.401   5.724   0.867
 4353SOL    HW213959   3.264   5.676   0.792
 4354SOL     OW13960   2.791   0.922   1.470
 4354SOL    HW113961   2.695   0.929   1.494
 4354SOL    HW213962   2.801   0.877   1.381
 4355SOL     OW13963   4.403   6.798   6.716
 4355SOL    HW113964   4.451   6.846   6.790
 4355SOL    HW213965   4.323   6.751   6.754
 4356SOL     OW13966   3.409   3.972   1.175
 4356SOL    HW113967   3.459   4.019   1.249
 4356SOL    HW213968   3.469   3.904   1.133
 4357SOL     OW13969   5.669   0.295   0.872
 4357SOL    HW113970   5.681   0.366   0.803
 4357SOL    HW213971   5.711   0.323   0.958
 4358SOL     OW13972   6.541   0.746   1.039
 4358SOL    HW113973   6.463   0.686   1.021
 4358SOL    HW213974   6.590   0.763   0.954
 4359SOL     OW13975   0.100   3.982   4.336
 4359SOL    HW113976   0.060   4.071   4.315
 4359SOL    HW213977   0.115   3.932   4.251
 4360SOL     OW13978   2.363   3.481   0.900
 4360SOL    HW113979   2.288   3.531   0.857
 4360SOL    HW213980   2.339   3.384   0.906
 4361SOL     OW13981   5.117   1.787   2.503
 4361SOL    HW113982   5.113   1.839   2.418
 4361SOL    HW213983   5.187   1.826   2.563
 4362SOL     OW13984   4.732   4.141   2.413
 4362SOL    HW113985   4.688   4.093   2.489
 4362SOL    HW213986   4.828   4.158   2.434
 4363SOL     OW13987   4.928   0.520   6.671
 4363SOL    HW113988   4.829   0.505   6.674
 4363SOL    HW213989   4.961   0.505   6.577
 4364SOL     OW13990   4.321   3.648   5.485
 4364SOL    HW113991   4.385   3.581   5.450
 4364SOL    HW213992   4.284   3.702   5.409
 4365SOL     OW13993   5.045   2.609   0.162
 4365SOL    HW113994   5.081   2.520   0.132
 4365SOL    HW213995   5.011   2.659   0.083
 4366SOL     OW13996   4.700   5.374   0.804
 4366SOL    HW113997   4.725   5.334   0.716
 4366SOL    HW213998   4.782   5.380   0.862
 4367SOL     OW13999   6.308   6.320   0.945
 4367SOL    HW114000   6.228   6.379   0.945
 4367SOL    HW214001   6.361   6.335   1.028
 4368SOL     OW14002   4.522   5.543   2.255
 4368SOL    HW114003   4.562   5.550   2.346
 4368SOL    HW214004   4.435   5.494   2.260
 4369SOL     OW14005   3.207   5.531   1.769
 4369SOL    HW114006   3.147   5.508   1.692
 4369SOL    HW214007   3.160   5.594   1.831
 4370SOL     OW14008   5.233   4.375   1.688
 4370SOL    HW114009   5.169   4.336   1.622
 4370SOL    HW214010   5.322   4.331   1.677
 4371SOL     OW14011   0.995   1.750   2.556
 4371SOL    HW114012   0.952   1.693   2.487
 4371SOL    HW214013   1.031   1.833   2.513
 4372SOL     OW14014   5.310   6.894   3.941
 4372SOL    HW114015   5.311   6.842   4.026
 4372SOL    HW214016   5.304   6.991   3.960
 4373SOL     OW14017   0.655   1.833   5.441
 4373SOL    HW114018   0.643   1.794   5.349
 4373SOL    HW214019   0.721   1.778   5.492
 4374SOL     OW14020   3.607   1.265   0.308
 4374SOL    HW114021   3.642   1.283   0.400
 4374SOL    HW214022   3.659   1.190   0.266
 4375SOL     OW14023   3.430   5.376   4.440
 4375SOL    HW114024   3.379   5.458   4.412
 4375SOL    HW214025   3.383   5.332   4.516
 4376SOL     OW14026   0.220   2.869   3.434
 4376SOL    HW114027   0.135   2.817   3.442
 4376SOL    HW214028   0.200   2.962   3.405
 4377SOL     OW14029   6.921   4.373   6.250
 4377SOL    HW114030   6.931   4.274   6.249
 4377SOL    HW214031   6.981   4.414   6.180
 4378SOL     OW14032   3.202   2.077   4.251
 4378SOL    HW114033   3.144   2.132   4.191
 4378SOL    HW214034   3.208   2.119   4.341
 4379SOL     OW14035   3.421   1.725   6.255
 4379SOL    HW114036   3.395   1.768   6.168
 4379SOL    HW214037   3.512   1.756   6.281
 4380SOL     OW14038   0.104   2.308   2.972
 4380SOL    HW114039   0.124   2.251   2.892
 4380SOL    HW214040   0.007   2.298   2.996
 4381SOL     OW14041   1.217   4.842   6.989
 4381SOL    HW114042   1.164   4.911   0.021
 4381SOL    HW214043   1.155   4.770   6.956
 4382SOL     OW14044   1.520   4.790   4.604
 4382SOL    HW114045   1.540   4.814   4.508
 4382SOL    HW214046   1.422   4.792   4.619
 4383SOL     OW14047   0.667   4.759   0.457
 4383SOL    HW114048   0.617   4.699   0.520
 4383SOL    HW214049   0.721   4.824   0.510
 4384SOL     OW14050   4.935   6.424   3.904
 4384SOL    HW114051   4.936   6.328   3.933
 4384SOL    HW214052   4.993   6.478   3.964
 4385SOL     OW14053   4.139   0.267   5.616
 4385SOL    HW114054   4.051   0.222   5.636
 4385SOL    HW214055   4.213   0.201   5.629
 4386SOL     OW14056   2.165   3.438   4.520
 4386SOL    HW114057   2.066   3.431   4.529
 4386SOL    HW214058   2.206   3.450   4.611
 4387SOL     OW14059   4.978   2.002   1.025
 4387SOL    HW114060   5.066   2.046   1.008
 4387SOL    HW214061   4.957   1.938   0.951
 4388SOL     OW14062   6.011   3.387   0.595
 4388SOL    HW114063   6.043   3.297   0.565
 4388SOL    HW214064   6.046   3.457   0.533
 4389SOL     OW14065   2.394   1.341   6.839
 4389SOL    HW114066   2.458   1.277   6.797
 4389SOL    HW214067   2.307   1.338   6.791
 4390SOL     OW14068   7.008   1.225   0.788
 4390SOL    HW114069   0.056   1.166   0.834
 4390SOL    HW214070   7.010   1.316   0.830
 4391SOL     OW14071   0.112   6.174   1.373
 4391SOL    HW114072   0.129   6.083   1.411
 4391SOL    HW214073   0.050   6.166   1.295
 4392SOL     OW14074   1.460   2.909   5.977
 4392SOL    HW114075   1.556   2.932   5.987
 4392SOL    HW214076   1.443   2.873   5.885
 4393SOL     OW14077   6.420   0.378   1.931
 4393SOL    HW114078   6.350   0.380   2.003
 4393SOL    HW214079   6.505   0.341   1.968
 4394SOL     OW14080   6.797   1.079   2.612
 4394SOL    HW114081   6.764   1.011   2.547
 4394SOL    HW214082   6.835   1.032   2.692
 4395SOL     OW14083   1.287   3.513   1.313
 4395SOL    HW114084   1.198   3.477   1.339
 4395SOL    HW214085   1.294   3.609   1.341
 4396SOL     OW14086   2.635   1.841   2.534
 4396SOL    HW114087   2.551   1.788   2.544
 4396SOL    HW214088   2.687   1.807   2.457
 4397SOL     OW14089   3.505   0.524   4.810
 4397SOL    HW114090   3.415   0.481   4.804
 4397SOL    HW214091   3.499   0.619   4.779
 4398SOL     OW14092   1.653   3.250   6.060
 4398SOL    HW114093   1.637   3.206   6.148
 4398SOL    HW214094   1.744   3.225   6.026
 4399SOL     OW14095   2.726   5.840   1.755
 4399SOL    HW114096   2.641   5.880   1.720
 4399SOL    HW214097   2.794   5.836   1.681
 4400SOL     OW14098   1.272   6.149   5.565
 4400SOL    HW114099   1.326   6.065   5.559
 4400SOL    HW214100   1.315   6.220   5.510
 4401SOL     OW14101   3.184   0.187   6.509
 4401SOL    HW114102   3.225   0.127   6.440
 4401SOL    HW214103   3.235   0.273   6.513
 4402SOL     OW14104   1.165   0.508   2.749
 4402SOL    HW114105   1.138   0.435   2.686
 4402SOL    HW214106   1.223   0.470   2.821
 4403SOL     OW14107   6.498   6.374   3.015
 4403SOL    HW114108   6.556   6.342   3.089
 4403SOL    HW214109   6.546   6.363   2.928
 4404SOL     OW14110   0.743   6.421   5.248
 4404SOL    HW114111   0.822   6.483   5.241
 4404SOL    HW214112   0.713   6.417   5.343
 4405SOL     OW14113   1.214   4.948   2.982
 4405SOL    HW114114   1.120   4.980   2.990
 4405SOL    HW214115   1.254   4.938   3.073
 4406SOL     OW14116   6.300   4.435   2.477
 4406SOL    HW114117   6.247   4.416   2.560
 4406SOL    HW214118   6.297   4.354   2.418
 4407SOL     OW14119   5.168   0.109   1.439
 4407SOL    HW114120   5.232   0.042   1.403
 4407SOL    HW214121   5.075   0.071   1.439
 4408SOL     OW14122   4.979   0.668   1.020
 4408SOL    HW114123   5.008   0.577   1.049
 4408SOL    HW214124   4.880   0.675   1.027
 4409SOL     OW14125   4.034   1.005   3.629
 4409SOL    HW114126   4.062   1.057   3.549
 4409SOL    HW214127   3.977   1.062   3.689
 4410SOL     OW14128   1.675   0.528   1.131
 4410SOL    HW114129   1.619   0.599   1.089
 4410SOL    HW214130   1.679   0.449   1.071
 4411SOL     OW14131   4.510   4.481   4.355
 4411SOL    HW114132   4.512   4.580   4.336
 4411SOL    HW214133   4.419   4.446   4.337
 4412SOL     OW14134   4.363   6.274   1.242
 4412SOL    HW114135   4.342   6.341   1.313
 4412SOL    HW214136   4.282   6.220   1.221
 4413SOL     OW14137   5.363   6.519   4.304
 4413SOL    HW114138   5.354   6.537   4.403
 4413SOL    HW214139   5.274   6.534   4.260
 4414SOL     OW14140   6.214   4.220   1.253
 4414SOL    HW114141   6.192   4.276   1.334
 4414SOL    HW214142   6.140   4.154   1.238
 4415SOL     OW14143   1.488   4.152   1.444
 4415SOL    HW114144   1.442   4.218   1.384
 4415SOL    HW214145   1.487   4.186   1.538
 4416SOL     OW14146   4.745   2.707   4.384
 4416SOL    HW114147   4.733   2.804   4.404
 4416SOL    HW214148   4.842   2.682   4.394
 4417SOL     OW14149   0.398   4.246   2.017
 4417SOL    HW114150   0.321   4.182   2.028
 4417SOL    HW214151   0.471   4.201   1.966
 4418SOL     OW14152   6.525   2.006   5.429
 4418SOL    HW114153   6.479   1.962   5.506
 4418SOL    HW214154   6.615   2.039   5.459
 4419SOL     OW14155   6.286   6.357   6.654
 4419SOL    HW114156   6.268   6.269   6.697
 4419SOL    HW214157   6.234   6.428   6.700
 4420SOL     OW14158   3.410   0.871   1.156
 4420SOL    HW114159   3.443   0.864   1.062
 4420SOL    HW214160   3.339   0.802   1.172
 4421SOL     OW14161   2.825   2.678   0.294
 4421SOL    HW114162   2.735   2.639   0.271
 4421SOL    HW214163   2.828   2.773   0.262
 4422SOL     OW14164   0.825   3.214   6.750
 4422SOL    HW114165   0.764   3.285   6.715
 4422SOL    HW214166   0.855   3.238   6.842
 4423SOL     OW14167   5.459   4.594   4.520
 4423SOL    HW114168   5.403   4.641   4.587
 4423SOL    HW214169   5.401   4.536   4.462
 4424SOL     OW14170   4.206   5.456   2.400
 4424SOL    HW114171   4.168   5.547   2.414
 4424SOL    HW214172   4.151   5.407   2.333
 4425SOL     OW14173   0.590   5.869   1.103
 4425SOL    HW114174   0.647   5.889   1.182
 4425SOL    HW214175   0.496   5.854   1.133
 4426SOL     OW14176   0.938   0.864   4.326
 4426SOL    HW114177   0.842   0.883   4.343
 4426SOL    HW214178   0.994   0.914   4.392
 4427SOL     OW14179   3.353   6.255   1.259
 4427SOL    HW114180   3.396   6.229   1.173
 4427SOL    HW214181   3.331   6.172   1.311
 4428SOL     OW14182   6.396   6.512   3.433
 4428SOL    HW114183   6.385   6.423   3.477
 4428SOL    HW214184   6.312   6.565   3.444
 4429SOL     OW14185   2.495   5.890   2.755
 4429SOL    HW114186   2.448   5.949   2.820
 4429SOL    HW214187   2.493   5.931   2.664
 4430SOL     OW14188   5.877   4.416   4.457
 4430SOL    HW114189   5.962   4.369   4.478
 4430SOL    HW214190   5.809   4.395   4.527
 4431SOL     OW14191   4.375   6.987   4.975
 4431SOL    HW114192   4.372   6.963   4.878
 4431SOL    HW214193   4.333   6.913   5.028
 4432SOL     OW14194   1.861   3.346   6.417
 4432SOL    HW114195   1.940   3.315   6.470
 4432SOL    HW214196   1.893   3.402   6.340
 4433SOL     OW14197   0.591   0.525   4.748
 4433SOL    HW114198   0.519   0.476   4.699
 4433SOL    HW214199   0.667   0.544   4.686
 4434SOL     OW14200   6.477   1.025   2.616
 4434SOL    HW114201   6.502   1.121   2.616
 4434SOL    HW214202   6.508   0.982   2.701
 4435SOL     OW14203   1.774   4.487   1.615
 4435SOL    HW114204   1.799   4.422   1.544
 4435SOL    HW214205   1.689   4.458   1.659
 4436SOL     OW14206   5.056   2.383   1.594
 4436SOL    HW114207   5.068   2.477   1.625
 4436SOL    HW214208   4.975   2.343   1.638
 4437SOL     OW14209   6.554   5.520   6.578
 4437SOL    HW114210   6.630   5.540   6.639
 4437SOL    HW214211   6.504   5.440   6.612
 4438SOL     OW14212   3.906   1.550   5.095
 4438SOL    HW114213   3.910   1.596   5.006
 4438SOL    HW214214   3.838   1.477   5.092
 4439SOL     OW14215   2.926   4.904   1.748
 4439SOL    HW114216   3.020   4.915   1.779
 4439SOL    HW214217   2.916   4.816   1.703
 4440SOL     OW14218   2.112   5.405   5.329
 4440SOL    HW114219   2.112   5.399   5.429
 4440SOL    HW214220   2.018   5.404   5.296
 4441SOL     OW14221   6.386   1.218   0.694
 4441SOL    HW114222   6.353   1.299   0.645
 4441SOL    HW214223   6.482   1.230   0.718
 4442SOL     OW14224   1.641   4.580   1.293
 4442SOL    HW114225   1.623   4.674   1.323
 4442SOL    HW214226   1.601   4.565   1.202
 4443SOL     OW14227   1.266   6.029   5.014
 4443SOL    HW114228   1.352   5.978   5.011
 4443SOL    HW214229   1.191   5.968   5.038
 4444SOL     OW14230   4.837   6.352   6.971
 4444SOL    HW114231   4.888   6.295   6.907
 4444SOL    HW214232   4.739   6.340   6.956
 4445SOL     OW14233   2.182   3.418   0.513
 4445SOL    HW114234   2.207   3.488   0.580
 4445SOL    HW214235   2.113   3.357   0.553
 4446SOL     OW14236   5.527   2.493   1.416
 4446SOL    HW114237   5.477   2.407   1.405
 4446SOL    HW214238   5.558   2.525   1.327
 4447SOL     OW14239   5.116   5.636   5.596
 4447SOL    HW114240   5.138   5.675   5.506
 4447SOL    HW214241   5.029   5.673   5.627
 4448SOL     OW14242   3.010   6.098   2.431
 4448SOL    HW114243   2.913   6.085   2.454
 4448SOL    HW214244   3.047   6.173   2.486
 4449SOL     OW14245   3.832   2.112   5.485
 4449SOL    HW114246   3.797   2.035   5.433
 4449SOL    HW214247   3.801   2.106   5.580
 4450SOL     OW14248   2.169   6.034   0.920
 4450SOL    HW114249   2.085   6.075   0.956
 4450SOL    HW214250   2.159   5.935   0.916
 4451SOL     OW14251   4.959   6.137   3.386
 4451SOL    HW114252   4.974   6.209   3.454
 4451SOL    HW214253   5.025   6.147   3.312
 4452SOL     OW14254   5.183   4.796   3.202
 4452SOL    HW114255   5.207   4.702   3.226
 4452SOL    HW214256   5.084   4.804   3.191
 4453SOL     OW14257   0.171   5.811   1.243
 4453SOL    HW114258   0.239   5.808   1.170
 4453SOL    HW214259   0.119   5.726   1.243
 4454SOL     OW14260   6.977   0.853   0.197
 4454SOL    HW114261   6.913   0.786   0.236
 4454SOL    HW214262   6.931   0.905   0.125
 4455SOL     OW14263   0.876   0.448   3.841
 4455SOL    HW114264   0.849   0.475   3.934
 4455SOL    HW214265   0.900   0.529   3.788
 4456SOL     OW14266   1.755   5.645   4.012
 4456SOL    HW114267   1.659   5.616   4.003
 4456SOL    HW214268   1.773   5.721   3.949
 4457SOL     OW14269   1.388   1.985   4.702
 4457SOL    HW114270   1.384   1.915   4.631
 4457SOL    HW214271   1.454   2.055   4.677
 4458SOL     OW14272   2.431   2.381   5.713
 4458SOL    HW114273   2.499   2.314   5.742
 4458SOL    HW214274   2.378   2.345   5.637
 4459SOL     OW14275   0.934   4.079   3.032
 4459SOL    HW114276   0.941   4.071   3.132
 4459SOL    HW214277   0.987   4.006   2.989
 4460SOL     OW14278   0.299   2.996   5.190
 4460SOL    HW114279   0.264   2.934   5.261
 4460SOL    HW214280   0.380   3.043   5.225
 4461SOL     OW14281   2.324   0.375   0.819
 4461SOL    HW114282   2.316   0.439   0.894
 4461SOL    HW214283   2.235   0.359   0.777
 4462SOL     OW14284   0.420   4.415   2.416
 4462SOL    HW114285   0.371   4.408   2.329
 4462SOL    HW214286   0.519   4.414   2.399
 4463SOL     OW14287   5.778   1.825   6.961
 4463SOL    HW114288   5.871   1.833   6.998
 4463SOL    HW214289   5.715   1.802   0.017
 4464SOL     OW14290   0.705   3.430   1.026
 4464SOL    HW114291   0.616   3.389   1.007
 4464SOL    HW214292   0.708   3.461   1.121
 4465SOL     OW14293   4.531   4.879   1.233
 4465SOL    HW114294   4.599   4.813   1.266
 4465SOL    HW214295   4.482   4.840   1.155
 4466SOL     OW14296   1.176   2.748   2.773
 4466SOL    HW114297   1.151   2.747   2.870
 4466SOL    HW214298   1.146   2.834   2.732
 4467SOL     OW14299   5.472   4.924   1.425
 4467SOL    HW114300   5.456   4.831   1.456
 4467SOL    HW214301   5.526   4.973   1.493
 4468SOL     OW14302   2.061   3.633   0.236
 4468SOL    HW114303   2.035   3.725   0.205
 4468SOL    HW214304   2.038   3.567   0.165
 4469SOL     OW14305   1.555   5.775   2.120
 4469SOL    HW114306   1.534   5.833   2.041
 4469SOL    HW214307   1.631   5.714   2.098
 4470SOL     OW14308   0.923   6.947   3.481
 4470SOL    HW114309   0.884   0.020   3.467
 4470SOL    HW214310   1.018   6.957   3.512
 4471SOL     OW14311   1.281   0.874   6.730
 4471SOL    HW114312   1.185   0.899   6.714
 4471SOL    HW214313   1.320   0.838   6.645
 4472SOL     OW14314   1.906   2.929   0.783
 4472SOL    HW114315   1.838   3.003   0.786
 4472SOL    HW214316   1.871   2.850   0.835
 4473SOL     OW14317   0.678   3.070   4.826
 4473SOL    HW114318   0.623   3.106   4.901
 4473SOL    HW214319   0.700   3.144   4.762
 4474SOL     OW14320   2.110   6.626   1.132
 4474SOL    HW114321   2.131   6.716   1.093
 4474SOL    HW214322   2.181   6.602   1.198
 4475SOL     OW14323   0.683   3.420   0.616
 4475SOL    HW114324   0.665   3.516   0.638
 4475SOL    HW214325   0.596   3.372   0.605
 4476SOL     OW14326   5.001   0.872   3.639
 4476SOL    HW114327   4.985   0.777   3.615
 4476SOL    HW214328   5.098   0.886   3.658
 4477SOL     OW14329   6.957   1.470   4.616
 4477SOL    HW114330   0.016   1.437   4.671
 4477SOL    HW214331   6.892   1.519   4.675
 4478SOL     OW14332   1.019   0.317   2.577
 4478SOL    HW114333   1.037   0.220   2.590
 4478SOL    HW214334   0.921   0.333   2.568
 4479SOL     OW14335   2.963   3.291   0.084
 4479SOL    HW114336   2.958   3.196   0.054
 4479SOL    HW214337   2.886   3.343   0.046
 4480SOL     OW14338   6.642   0.473   3.215
 4480SOL    HW114339   6.710   0.411   3.176
 4480SOL    HW214340   6.558   0.469   3.161
 4481SOL     OW14341   2.097   3.968   5.981
 4481SOL    HW114342   2.164   3.895   5.994
 4481SOL    HW214343   2.116   4.017   5.897
 4482SOL     OW14344   2.747   6.906   1.309
 4482SOL    HW114345   2.726   6.941   1.400
 4482SOL    HW214346   2.709   6.814   1.298
 4483SOL     OW14347   1.049   2.998   0.658
 4483SOL    HW114348   1.066   3.073   0.593
 4483SOL    HW214349   1.020   3.036   0.746
 4484SOL     OW14350   4.207   6.938   1.190
 4484SOL    HW114351   4.214   0.018   1.211
 4484SOL    HW214352   4.284   6.890   1.232
 4485SOL     OW14353   0.474   2.776   5.283
 4485SOL    HW114354   0.496   2.869   5.312
 4485SOL    HW214355   0.375   2.765   5.277
 4486SOL     OW14356   5.201   4.691   3.657
 4486SOL    HW114357   5.260   4.719   3.581
 4486SOL    HW214358   5.128   4.759   3.669
 4487SOL     OW14359   0.509   2.773   6.457
 4487SOL    HW114360   0.484   2.850   6.515
 4487SOL    HW214361   0.427   2.739   6.410
 4488SOL     OW14362   5.641   4.630   3.474
 4488SOL    HW114363   5.617   4.695   3.546
 4488SOL    HW214364   5.736   4.601   3.485
 4489SOL     OW14365   3.464   6.196   6.060
 4489SOL    HW114366   3.378   6.147   6.075
 4489SOL    HW214367   3.503   6.222   6.149
 4490SOL     OW14368   5.316   1.889   1.953
 4490SOL    HW114369   5.357   1.937   2.030
 4490SOL    HW214370   5.389   1.852   1.895
 4491SOL     OW14371   0.267   3.711   2.876
 4491SOL    HW114372   0.217   3.777   2.820
 4491SOL    HW214373   0.203   3.659   2.931
 4492SOL     OW14374   6.723   1.287   1.986
 4492SOL    HW114375   6.809   1.270   2.033
 4492SOL    HW214376   6.647   1.254   2.042
 4493SOL     OW14377   5.104   1.469   6.427
 4493SOL    HW114378   5.126   1.504   6.518
 4493SOL    HW214379   5.145   1.378   6.416
 4494SOL     OW14380   1.350   1.649   2.362
 4494SOL    HW114381   1.306   1.566   2.397
 4494SOL    HW214382   1.344   1.722   2.429
 4495SOL     OW14383   3.747   6.067   1.583
 4495SOL    HW114384   3.769   6.156   1.543
 4495SOL    HW214385   3.667   6.029   1.537
 4496SOL     OW14386   2.139   5.106   5.338
 4496SOL    HW114387   2.105   5.059   5.419
 4496SOL    HW214388   2.062   5.134   5.281
 4497SOL     OW14389   5.317   6.218   5.269
 4497SOL    HW114390   5.380   6.147   5.301
 4497SOL    HW214391   5.335   6.304   5.317
 4498SOL     OW14392   1.571   5.019   4.068
 4498SOL    HW114393   1.591   5.117   4.068
 4498SOL    HW214394   1.657   4.968   4.067
 4499SOL     OW14395   5.285   1.671   2.113
 4499SOL    HW114396   5.192   1.654   2.147
 4499SOL    HW214397   5.289   1.762   2.071
 4500SOL     OW14398   2.994   6.581   0.187
 4500SOL    HW114399   3.002   6.658   0.250
 4500SOL    HW214400   2.996   6.615   0.092
 4501SOL     OW14401   5.297   0.703   3.338
 4501SOL    HW114402   5.344   0.621   3.307
 4501SOL    HW214403   5.312   0.777   3.272
 4502SOL     OW14404   0.979   4.341   0.300
 4502SOL    HW114405   1.047   4.414   0.304
 4502SOL    HW214406   0.927   4.348   0.215
 4503SOL     OW14407   3.430   1.689   3.121
 4503SOL    HW114408   3.377   1.606   3.141
 4503SOL    HW214409   3.501   1.668   3.054
 4504SOL     OW14410   1.116   2.901   3.842
 4504SOL    HW114411   1.086   2.806   3.855
 4504SOL    HW214412   1.112   2.949   3.930
 4505SOL     OW14413   6.545   3.628   3.582
 4505SOL    HW114414   6.502   3.619   3.672
 4505SOL    HW214415   6.593   3.715   3.576
 4506SOL     OW14416   4.423   3.743   6.826
 4506SOL    HW114417   4.404   3.786   6.914
 4506SOL    HW214418   4.352   3.767   6.760
 4507SOL     OW14419   5.655   2.279   2.747
 4507SOL    HW114420   5.567   2.294   2.791
 4507SOL    HW214421   5.711   2.218   2.803
 4508SOL     OW14422   6.203   4.172   0.342
 4508SOL    HW114423   6.211   4.265   0.304
 4508SOL    HW214424   6.282   4.153   0.400
 4509SOL     OW14425   4.437   1.714   2.783
 4509SOL    HW114426   4.475   1.678   2.868
 4509SOL    HW214427   4.377   1.646   2.742
 4510SOL     OW14428   5.019   1.406   3.654
 4510SOL    HW114429   4.944   1.354   3.696
 4510SOL    HW214430   5.078   1.344   3.603
 4511SOL     OW14431   1.216   4.151   6.683
 4511SOL    HW114432   1.246   4.085   6.753
 4511SOL    HW214433   1.276   4.231   6.684
 4512SOL     OW14434   2.805   3.851   6.280
 4512SOL    HW114435   2.737   3.806   6.222
 4512SOL    HW214436   2.894   3.807   6.268
 4513SOL     OW14437   0.360   1.710   0.982
 4513SOL    HW114438   0.439   1.660   1.019
 4513SOL    HW214439   0.388   1.761   0.901
 4514SOL     OW14440   3.946   5.123   6.625
 4514SOL    HW114441   4.019   5.108   6.558
 4514SOL    HW214442   3.942   5.045   6.687
 4515SOL     OW14443   4.221   7.004   5.675
 4515SOL    HW114444   4.219   6.976   5.579
 4515SOL    HW214445   4.288   6.948   5.725
 4516SOL     OW14446   3.303   1.515   5.204
 4516SOL    HW114447   3.208   1.484   5.206
 4516SOL    HW214448   3.306   1.610   5.174
 4517SOL     OW14449   3.413   0.361   4.260
 4517SOL    HW114450   3.411   0.401   4.351
 4517SOL    HW214451   3.453   0.269   4.266
 4518SOL     OW14452   6.440   6.339   0.724
 4518SOL    HW114453   6.411   6.399   0.650
 4518SOL    HW214454   6.370   6.339   0.796
 4519SOL     OW14455   5.184   6.583   6.468
 4519SOL    HW114456   5.271   6.556   6.510
 4519SOL    HW214457   5.184   6.681   6.452
 4520SOL     OW14458   4.400   5.383   4.786
 4520SOL    HW114459   4.393   5.288   4.819
 4520SOL    HW214460   4.481   5.392   4.729
 4521SOL     OW14461   4.644   2.627   4.069
 4521SOL    HW114462   4.732   2.579   4.079
 4521SOL    HW214463   4.601   2.636   4.158
 4522SOL     OW14464   5.360   4.244   3.540
 4522SOL    HW114465   5.425   4.222   3.613
 4522SOL    HW214466   5.402   4.309   3.477
 4523SOL     OW14467   0.690   2.943   0.089
 4523SOL    HW114468   0.636   2.881   0.032
 4523SOL    HW214469   0.782   2.951   0.050
 4524SOL     OW14470   2.003   3.554   1.824
 4524SOL    HW114471   1.912   3.533   1.860
 4524SOL    HW214472   2.072   3.506   1.879
 4525SOL     OW14473   3.393   1.814   5.972
 4525SOL    HW114474   3.472   1.761   5.941
 4525SOL    HW214475   3.424   1.905   5.999
 4526SOL     OW14476   0.756   6.992   5.545
 4526SOL    HW114477   0.779   0.066   5.510
 4526SOL    HW214478   0.741   6.930   5.468
 4527SOL     OW14479   1.027   2.773   2.433
 4527SOL    HW114480   0.992   2.683   2.408
 4527SOL    HW214481   1.125   2.777   2.413
 4528SOL     OW14482   5.162   2.161   4.489
 4528SOL    HW114483   5.195   2.178   4.396
 4528SOL    HW214484   5.232   2.189   4.555
 4529SOL     OW14485   1.613   2.790   3.341
 4529SOL    HW114486   1.609   2.751   3.249
 4529SOL    HW214487   1.612   2.890   3.335
 4530SOL     OW14488   4.071   4.342   5.906
 4530SOL    HW114489   4.051   4.254   5.949
 4530SOL    HW214490   4.129   4.396   5.966
 4531SOL     OW14491   1.342   6.579   5.342
 4531SOL    HW114492   1.377   6.606   5.253
 4531SOL    HW214493   1.346   6.657   5.405
 4532SOL     OW14494   5.988   0.858   1.900
 4532SOL    HW114495   6.065   0.905   1.943
 4532SOL    HW214496   5.947   0.795   1.966
 4533SOL     OW14497   2.796   5.478   1.259
 4533SOL    HW114498   2.736   5.481   1.339
 4533SOL    HW214499   2.798   5.384   1.223
 4534SOL     OW14500   5.809   1.590   4.862
 4534SOL    HW114501   5.853   1.500   4.864
 4534SOL    HW214502   5.870   1.656   4.818
 4535SOL     OW14503   2.141   6.874   0.246
 4535SOL    HW114504   2.105   6.832   0.163
 4535SOL    HW214505   2.218   6.934   0.222
 4536SOL     OW14506   3.656   0.622   5.816
 4536SOL    HW114507   3.577   0.629   5.877
 4536SOL    HW214508   3.725   0.563   5.857
 4537SOL     OW14509   3.222   3.701   3.388
 4537SOL    HW114510   3.173   3.782   3.355
 4537SOL    HW214511   3.229   3.704   3.488
 4538SOL     OW14512   1.346   2.631   0.229
 4538SOL    HW114513   1.251   2.615   0.202
 4538SOL    HW214514   1.349   2.652   0.326
 4539SOL     OW14515   1.065   4.727   5.324
 4539SOL    HW114516   1.090   4.773   5.409
 4539SOL    HW214517   0.968   4.744   5.303
 4540SOL     OW14518   1.692   1.489   0.333
 4540SOL    HW114519   1.762   1.559   0.347
 4540SOL    HW214520   1.621   1.524   0.272
 4541SOL     OW14521   4.530   3.030   0.050
 4541SOL    HW114522   4.494   2.996   0.137
 4541SOL    HW214523   4.511   2.963   6.996
 4542SOL     OW14524   6.962   1.831   0.470
 4542SOL    HW114525   6.864   1.810   0.468
 4542SOL    HW214526   7.002   1.798   0.555
 4543SOL     OW14527   4.227   1.117   1.200
 4543SOL    HW114528   4.240   1.094   1.296
 4543SOL    HW214529   4.153   1.183   1.190
 4544SOL     OW14530   5.030   6.186   0.343
 4544SOL    HW114531   5.064   6.186   0.437
 4544SOL    HW214532   4.976   6.269   0.328
 4545SOL     OW14533   2.854   3.430   5.745
 4545SOL    HW114534   2.844   3.339   5.786
 4545SOL    HW214535   2.861   3.421   5.646
 4546SOL     OW14536   5.141   6.279   5.514
 4546SOL    HW114537   5.192   6.198   5.484
 4546SOL    HW214538   5.182   6.314   5.598
 4547SOL     OW14539   0.205   0.632   0.754
 4547SOL    HW114540   0.190   0.548   0.702
 4547SOL    HW214541   0.194   0.711   0.694
 4548SOL     OW14542   3.245   1.317   1.811
 4548SOL    HW114543   3.219   1.404   1.770
 4548SOL    HW214544   3.189   1.300   1.892
 4549SOL     OW14545   0.040   4.937   3.872
 4549SOL    HW114546   0.011   4.877   3.947
 4549SOL    HW214547   0.104   4.889   3.813
 4550SOL     OW14548   2.194   5.417   6.847
 4550SOL    HW114549   2.231   5.505   6.879
 4550SOL    HW214550   2.244   5.387   6.766
 4551SOL     OW14551   3.439   3.223   6.131
 4551SOL    HW114552   3.404   3.135   6.162
 4551SOL    HW214553   3.513   3.253   6.192
 4552SOL     OW14554   5.239   0.178   6.456
 4552SOL    HW114555   5.327   0.179   6.409
 4552SOL    HW214556   5.168   0.146   6.393
 4553SOL     OW14557   6.865   0.015   0.636
 4553SOL    HW114558   6.862   0.096   0.577
 4553SOL    HW214559   6.780   0.009   0.688
 4554SOL     OW14560   5.760   6.532   3.012
 4554SOL    HW114561   5.769   6.575   3.101
 4554SOL    HW214562   5.778   6.434   3.020
 4555SOL     OW14563   0.577   7.015   3.408
 4555SOL    HW114564   0.486   0.037   3.416
 4555SOL    HW214565   0.646   0.069   3.418
 4556SOL     OW14566   4.877   4.754   4.896
 4556SOL    HW114567   4.972   4.764   4.865
 4556SOL    HW214568   4.841   4.666   4.867
 4557SOL     OW14569   0.068   5.678   5.044
 4557SOL    HW114570   7.014   5.728   4.997
 4557SOL    HW214571   0.027   5.607   5.101
 4558SOL     OW14572   0.578   4.346   3.468
 4558SOL    HW114573   0.585   4.307   3.560
 4558SOL    HW214574   0.485   4.337   3.434
 4559SOL     OW14575   6.905   3.205   4.456
 4559SOL    HW114576   6.921   3.295   4.416
 4559SOL    HW214577   6.964   3.138   4.411
 4560SOL     OW14578   6.412   3.445   4.393
 4560SOL    HW114579   6.403   3.491   4.481
 4560SOL    HW214580   6.493   3.385   4.394
 4561SOL     OW14581   5.598   3.535   4.491
 4561SOL    HW114582   5.661   3.520   4.416
 4561SOL    HW214583   5.621   3.475   4.567
 4562SOL     OW14584   4.616   1.250   1.273
 4562SOL    HW114585   4.535   1.299   1.240
 4562SOL    HW214586   4.665   1.309   1.337
 4563SOL     OW14587   0.913   3.544   2.498
 4563SOL    HW114588   0.933   3.641   2.480
 4563SOL    HW214589   0.973   3.487   2.443
 4564SOL     OW14590   2.047   3.557   2.193
 4564SOL    HW114591   2.099   3.507   2.263
 4564SOL    HW214592   2.092   3.546   2.104
 4565SOL     OW14593   2.074   6.365   5.022
 4565SOL    HW114594   2.021   6.448   5.005
 4565SOL    HW214595   2.124   6.340   4.940
 4566SOL     OW14596   6.797   5.110   2.944
 4566SOL    HW114597   6.887   5.154   2.952
 4566SOL    HW214598   6.807   5.021   2.901
 4567SOL     OW14599   1.216   0.432   0.027
 4567SOL    HW114600   1.221   0.531   0.009
 4567SOL    HW214601   1.239   0.415   0.123
 4568SOL     OW14602   0.023   4.634   3.695
 4568SOL    HW114603   0.099   4.695   3.672
 4568SOL    HW214604   7.002   4.661   3.784
 4569SOL     OW14605   6.990   2.745   3.462
 4569SOL    HW114606   6.987   2.760   3.363
 4569SOL    HW214607   6.917   2.681   3.488
 4570SOL     OW14608   4.953   5.733   1.769
 4570SOL    HW114609   4.867   5.712   1.815
 4570SOL    HW214610   5.010   5.788   1.830
 4571SOL     OW14611   2.266   2.385   5.180
 4571SOL    HW114612   2.189   2.437   5.218
 4571SOL    HW214613   2.232   2.323   5.109
 4572SOL     OW14614   4.993   3.395   1.618
 4572SOL    HW114615   4.922   3.355   1.676
 4572SOL    HW214616   4.960   3.403   1.525
 4573SOL     OW14617   2.102   4.850   0.947
 4573SOL    HW114618   2.079   4.824   1.040
 4573SOL    HW214619   2.164   4.929   0.948
 4574SOL     OW14620   4.691   0.452   2.176
 4574SOL    HW114621   4.734   0.448   2.266
 4574SOL    HW214622   4.601   0.494   2.183
 4575SOL     OW14623   0.191   1.709   5.136
 4575SOL    HW114624   0.165   1.657   5.217
 4575SOL    HW214625   0.140   1.675   5.057
 4576SOL     OW14626   2.956   3.815   6.832
 4576SOL    HW114627   2.878   3.751   6.836
 4576SOL    HW214628   2.922   3.907   6.812
 4577SOL     OW14629   0.435   1.788   1.872
 4577SOL    HW114630   0.396   1.769   1.962
 4577SOL    HW214631   0.527   1.825   1.882
 4578SOL     OW14632   2.016   0.595   2.755
 4578SOL    HW114633   1.938   0.653   2.731
 4578SOL    HW214634   1.993   0.539   2.834
 4579SOL     OW14635   3.755   0.965   2.687
 4579SOL    HW114636   3.737   0.871   2.716
 4579SOL    HW214637   3.765   1.023   2.768
 4580SOL     OW14638   0.810   0.237   1.485
 4580SOL    HW114639   0.835   0.273   1.575
 4580SOL    HW214640   0.854   0.148   1.471
 4581SOL     OW14641   3.469   0.708   1.541
 4581SOL    HW114642   3.388   0.648   1.546
 4581SOL    HW214643   3.534   0.670   1.474
 4582SOL     OW14644   5.781   1.325   4.558
 4582SOL    HW114645   5.741   1.234   4.554
 4582SOL    HW214646   5.880   1.318   4.569
 4583SOL     OW14647   1.964   5.744   6.739
 4583SOL    HW114648   1.868   5.766   6.754
 4583SOL    HW214649   2.018   5.771   6.819
 4584SOL     OW14650   6.584   0.821   4.595
 4584SOL    HW114651   6.675   0.781   4.583
 4584SOL    HW214652   6.593   0.920   4.608
 4585SOL     OW14653   1.454   2.998   2.457
 4585SOL    HW114654   1.434   3.085   2.503
 4585SOL    HW214655   1.550   2.996   2.430
 4586SOL     OW14656   0.060   4.447   6.020
 4586SOL    HW114657   0.139   4.508   6.013
 4586SOL    HW214658   7.000   4.487   5.972
 4587SOL     OW14659   4.276   3.169   6.237
 4587SOL    HW114660   4.183   3.139   6.259
 4587SOL    HW214661   4.334   3.161   6.318
 4588SOL     OW14662   2.203   4.790   6.396
 4588SOL    HW114663   2.217   4.701   6.440
 4588SOL    HW214664   2.237   4.786   6.302
 4589SOL     OW14665   4.885   5.671   2.115
 4589SOL    HW114666   4.926   5.595   2.167
 4589SOL    HW214667   4.813   5.636   2.056
 4590SOL     OW14668   2.396   4.800   1.639
 4590SOL    HW114669   2.371   4.880   1.692
 4590SOL    HW214670   2.491   4.808   1.608
 4591SOL     OW14671   2.468   1.713   4.971
 4591SOL    HW114672   2.471   1.795   4.915
 4591SOL    HW214673   2.528   1.724   5.050
 4592SOL     OW14674   2.738   2.403   2.902
 4592SOL    HW114675   2.752   2.363   2.811
 4592SOL    HW214676   2.794   2.354   2.968
 4593SOL     OW14677   1.545   5.456   4.638
 4593SOL    HW114678   1.637   5.493   4.649
 4593SOL    HW214679   1.544   5.360   4.666
 4594SOL     OW14680   0.816   6.426   3.888
 4594SOL    HW114681   0.819   6.388   3.980
 4594SOL    HW214682   0.854   6.519   3.889
 4595SOL     OW14683   5.424   1.491   6.718
 4595SOL    HW114684   5.494   1.558   6.742
 4595SOL    HW214685   5.398   1.438   6.799
 4596SOL     OW14686   0.641   1.537   2.322
 4596SOL    HW114687   0.591   1.464   2.369
 4596SOL    HW214688   0.684   1.501   2.240
 4597SOL     OW14689   1.694   5.178   0.609
 4597SOL    HW114690   1.599   5.203   0.590
 4597SOL    HW214691   1.748   5.261   0.622
 4598SOL     OW14692   0.367   2.409   0.294
 4598SOL    HW114693   0.441   2.342   0.300
 4598SOL    HW214694   0.352   2.451   0.384
 4599SOL     OW14695   3.032   6.497   3.244
 4599SOL    HW114696   3.000   6.591   3.232
 4599SOL    HW214697   3.116   6.483   3.191
 4600SOL     OW14698   0.281   7.009   5.599
 4600SOL    HW114699   0.232   6.987   5.684
 4600SOL    HW214700   0.375   6.976   5.606
 4601SOL     OW14701   1.769   1.216   5.031
 4601SOL    HW114702   1.833   1.235   4.957
 4601SOL    HW214703   1.757   1.117   5.040
 4602SOL     OW14704   4.493   0.156   5.790
 4602SOL    HW114705   4.570   0.183   5.732
 4602SOL    HW214706   4.482   0.057   5.786
 4603SOL     OW14707   4.672   6.700   0.491
 4603SOL    HW114708   4.670   6.796   0.517
 4603SOL    HW214709   4.766   6.666   0.493
 4604SOL     OW14710   0.510   6.476   3.524
 4604SOL    HW114711   0.443   6.538   3.565
 4604SOL    HW214712   0.555   6.521   3.447
 4605SOL     OW14713   4.177   1.262   1.940
 4605SOL    HW114714   4.223   1.351   1.940
 4605SOL    HW214715   4.088   1.271   1.984
 4606SOL     OW14716   0.036   0.026   4.447
 4606SOL    HW114717   6.962   0.035   4.484
 4606SOL    HW214718   0.100   0.002   4.520
 4607SOL     OW14719   2.579   1.672   0.923
 4607SOL    HW114720   2.602   1.619   1.004
 4607SOL    HW214721   2.661   1.722   0.892
 4608SOL     OW14722   0.468   2.300   5.947
 4608SOL    HW114723   0.519   2.346   6.020
 4608SOL    HW214724   0.515   2.314   5.860
 4609SOL     OW14725   5.709   5.133   6.208
 4609SOL    HW114726   5.734   5.150   6.113
 4609SOL    HW214727   5.686   5.036   6.220
 4610SOL     OW14728   4.963   3.905   6.524
 4610SOL    HW114729   4.949   3.848   6.444
 4610SOL    HW214730   5.006   3.852   6.596
 4611SOL     OW14731   0.509   0.558   6.377
 4611SOL    HW114732   0.569   0.536   6.300
 4611SOL    HW214733   0.550   0.632   6.431
 4612SOL     OW14734   1.297   0.231   2.236
 4612SOL    HW114735   1.199   0.225   2.257
 4612SOL    HW214736   1.309   0.256   2.140
 4613SOL     OW14737   1.432   4.944   3.752
 4613SOL    HW114738   1.486   5.028   3.752
 4613SOL    HW214739   1.454   4.891   3.834
 4614SOL     OW14740   6.631   4.843   2.624
 4614SOL    HW114741   6.622   4.767   2.688
 4614SOL    HW214742   6.716   4.893   2.644
 4615SOL     OW14743   0.678   4.683   0.007
 4615SOL    HW114744   0.670   4.746   0.084
 4615SOL    HW214745   0.773   4.651   7.017
 4616SOL     OW14746   1.957   4.749   5.947
 4616SOL    HW114747   1.941   4.815   6.020
 4616SOL    HW214748   2.051   4.758   5.913
 4617SOL     OW14749   0.936   4.582   4.325
 4617SOL    HW114750   0.872   4.516   4.287
 4617SOL    HW214751   0.936   4.576   4.425
 4618SOL     OW14752   2.287   4.307   5.137
 4618SOL    HW114753   2.230   4.361   5.075
 4618SOL    HW214754   2.279   4.210   5.113
 4619SOL     OW14755   4.959   5.939   0.055
 4619SOL    HW114756   5.001   6.019   0.013
 4619SOL    HW214757   5.024   5.894   0.116
 4620SOL     OW14758   0.986   4.469   1.802
 4620SOL    HW114759   0.887   4.482   1.805
 4620SOL    HW214760   1.019   4.490   1.710
 4621SOL     OW14761   2.813   0.269   2.758
 4621SOL    HW114762   2.827   0.311   2.669
 4621SOL    HW214763   2.797   0.340   2.826
 4622SOL     OW14764   6.187   6.863   1.044
 4622SOL    HW114765   6.178   6.949   1.093
 4622SOL    HW214766   6.205   6.881   0.947
 4623SOL     OW14767   2.803   4.796   2.725
 4623SOL    HW114768   2.774   4.724   2.662
 4623SOL    HW214769   2.723   4.850   2.752
 4624SOL     OW14770   5.675   1.962   0.667
 4624SOL    HW114771   5.603   2.023   0.634
 4624SOL    HW214772   5.635   1.892   0.726
 4625SOL     OW14773   0.625   6.695   1.639
 4625SOL    HW114774   0.716   6.655   1.630
 4625SOL    HW214775   0.584   6.665   1.725
 4626SOL     OW14776   4.222   4.094   1.677
 4626SOL    HW114777   4.164   4.020   1.710
 4626SOL    HW214778   4.294   4.112   1.745
 4627SOL     OW14779   5.423   6.520   4.896
 4627SOL    HW114780   5.481   6.596   4.927
 4627SOL    HW214781   5.335   6.524   4.944
 4628SOL     OW14782   6.878   3.559   2.811
 4628SOL    HW114783   6.864   3.461   2.826
 4628SOL    HW214784   6.828   3.588   2.730
 4629SOL     OW14785   1.284   5.360   1.078
 4629SOL    HW114786   1.324   5.272   1.104
 4629SOL    HW214787   1.213   5.385   1.143
 4630SOL     OW14788   1.853   3.620   1.601
 4630SOL    HW114789   1.755   3.603   1.592
 4630SOL    HW214790   1.883   3.588   1.691
 4631SOL     OW14791   5.873   1.445   1.754
 4631SOL    HW114792   5.806   1.378   1.784
 4631SOL    HW214793   5.956   1.399   1.723
 4632SOL     OW14794   2.847   4.738   3.674
 4632SOL    HW114795   2.875   4.780   3.588
 4632SOL    HW214796   2.908   4.768   3.747
 4633SOL     OW14797   5.377   3.126   3.773
 4633SOL    HW114798   5.375   3.029   3.799
 4633SOL    HW214799   5.328   3.138   3.686
 4634SOL     OW14800   3.894   3.010   5.071
 4634SOL    HW114801   3.822   3.024   5.140
 4634SOL    HW214802   3.957   3.087   5.073
 4635SOL     OW14803   4.258   0.268   2.406
 4635SOL    HW114804   4.325   0.219   2.349
 4635SOL    HW214805   4.301   0.348   2.446
 4636SOL     OW14806   1.710   5.812   6.781
 4636SOL    HW114807   1.713   5.757   6.864
 4636SOL    HW214808   1.637   5.881   6.788
 4637SOL     OW14809   2.087   2.629   2.954
 4637SOL    HW114810   2.177   2.668   2.939
 4637SOL    HW214811   2.017   2.699   2.942
 4638SOL     OW14812   4.292   4.065   6.635
 4638SOL    HW114813   4.228   4.102   6.569
 4638SOL    HW214814   4.253   4.071   6.727
 4639SOL     OW14815   3.782   2.905   1.756
 4639SOL    HW114816   3.691   2.863   1.746
 4639SOL    HW214817   3.852   2.834   1.757
 4640SOL     OW14818   0.112   2.058   0.732
 4640SOL    HW114819   0.204   2.021   0.743
 4640SOL    HW214820   0.098   2.084   0.636
 4641SOL     OW14821   1.038   5.839   4.939
 4641SOL    HW114822   0.956   5.787   4.912
 4641SOL    HW214823   1.078   5.881   4.857
 4642SOL     OW14824   5.694   1.085   6.371
 4642SOL    HW114825   5.669   1.098   6.467
 4642SOL    HW214826   5.695   1.174   6.325
 4643SOL     OW14827   0.739   1.959   0.222
 4643SOL    HW114828   0.734   1.961   0.122
 4643SOL    HW214829   0.788   1.877   0.252
 4644SOL     OW14830   1.307   1.897   1.094
 4644SOL    HW114831   1.299   1.981   1.040
 4644SOL    HW214832   1.234   1.834   1.069
 4645SOL     OW14833   5.520   2.619   5.940
 4645SOL    HW114834   5.502   2.610   6.038
 4645SOL    HW214835   5.599   2.563   5.915
 4646SOL     OW14836   1.152   3.698   2.207
 4646SOL    HW114837   1.181   3.625   2.268
 4646SOL    HW214838   1.233   3.745   2.170
 4647SOL     OW14839   1.801   5.952   2.472
 4647SOL    HW114840   1.759   5.971   2.560
 4647SOL    HW214841   1.744   5.990   2.399
 4648SOL     OW14842   2.739   1.285   4.247
 4648SOL    HW114843   2.736   1.294   4.346
 4648SOL    HW214844   2.705   1.194   4.220
 4649SOL     OW14845   4.450   3.205   1.428
 4649SOL    HW114846   4.501   3.268   1.486
 4649SOL    HW214847   4.352   3.219   1.440
 4650SOL     OW14848   3.785   4.958   0.627
 4650SOL    HW114849   3.786   5.028   0.698
 4650SOL    HW214850   3.741   4.994   0.545
 4651SOL     OW14851   1.271   3.358   0.018
 4651SOL    HW114852   1.198   3.350   0.086
 4651SOL    HW214853   1.358   3.374   0.065
 4652SOL     OW14854   6.877   0.332   5.671
 4652SOL    HW114855   6.876   0.260   5.741
 4652SOL    HW214856   6.958   0.321   5.613
 4653SOL     OW14857   0.909   6.651   0.912
 4653SOL    HW114858   0.871   6.646   0.819
 4653SOL    HW214859   0.951   6.741   0.925
 4654SOL     OW14860   1.209   1.008   5.327
 4654SOL    HW114861   1.250   1.071   5.261
 4654SOL    HW214862   1.190   1.058   5.412
 4655SOL     OW14863   5.730   4.984   3.062
 4655SOL    HW114864   5.694   4.970   2.970
 4655SOL    HW214865   5.723   4.899   3.115
 4656SOL     OW14866   6.539   0.689   1.417
 4656SOL    HW114867   6.499   0.769   1.373
 4656SOL    HW214868   6.615   0.654   1.361
 4657SOL     OW14869   3.496   2.106   2.470
 4657SOL    HW114870   3.543   2.129   2.384
 4657SOL    HW214871   3.398   2.099   2.452
 4658SOL     OW14872   1.745   1.504   0.613
 4658SOL    HW114873   1.838   1.510   0.649
 4658SOL    HW214874   1.747   1.466   0.521
 4659SOL     OW14875   2.035   4.801   1.225
 4659SOL    HW114876   2.126   4.785   1.264
 4659SOL    HW214877   1.992   4.879   1.270
 4660SOL     OW14878   0.155   4.925   4.601
 4660SOL    HW114879   0.103   4.840   4.609
 4660SOL    HW214880   0.138   4.966   4.511
 4661SOL     OW14881   0.801   1.063   5.463
 4661SOL    HW114882   0.849   0.975   5.455
 4661SOL    HW214883   0.866   1.135   5.486
 4662SOL     OW14884   2.952   0.039   6.486
 4662SOL    HW114885   3.039   0.081   6.513
 4662SOL    HW214886   2.887   0.111   6.462
 4663SOL     OW14887   0.636   0.768   1.241
 4663SOL    HW114888   0.572   0.843   1.225
 4663SOL    HW214889   0.613   0.723   1.327
 4664SOL     OW14890   6.317   6.515   5.115
 4664SOL    HW114891   6.281   6.487   5.204
 4664SOL    HW214892   6.289   6.448   5.046
 4665SOL     OW14893   0.531   1.164   2.924
 4665SOL    HW114894   0.549   1.229   2.998
 4665SOL    HW214895   0.452   1.195   2.871
 4666SOL     OW14896   1.589   2.637   5.834
 4666SOL    HW114897   1.644   2.705   5.882
 4666SOL    HW214898   1.648   2.565   5.798
 4667SOL     OW14899   6.490   2.221   1.122
 4667SOL    HW114900   6.548   2.292   1.082
 4667SOL    HW214901   6.474   2.242   1.218
 4668SOL     OW14902   4.618   1.694   5.065
 4668SOL    HW114903   4.565   1.621   5.109
 4668SOL    HW214904   4.566   1.730   4.988
 4669SOL     OW14905   5.439   6.499   6.552
 4669SOL    HW114906   5.456   6.412   6.597
 4669SOL    HW214907   5.502   6.568   6.588
 4670SOL     OW14908   0.497   2.894   0.612
 4670SOL    HW114909   0.469   2.834   0.536
 4670SOL    HW214910   0.575   2.949   0.584
 4671SOL     OW14911   6.982   1.717   1.599
 4671SOL    HW114912   7.017   1.807   1.575
 4671SOL    HW214913   6.993   1.655   1.520
 4672SOL     OW14914   4.000   3.332   1.003
 4672SOL    HW114915   4.090   3.289   1.003
 4672SOL    HW214916   3.935   3.271   0.958
 4673SOL     OW14917   4.527   1.392   0.798
 4673SOL    HW114918   4.564   1.485   0.801
 4673SOL    HW214919   4.596   1.329   0.762
 4674SOL     OW14920   0.814   3.398   0.374
 4674SOL    HW114921   0.782   3.311   0.335
 4674SOL    HW214922   0.775   3.410   0.465
 4675SOL     OW14923   2.066   6.342   0.385
 4675SOL    HW114924   2.139   6.285   0.421
 4675SOL    HW214925   2.102   6.433   0.364
 4676SOL     OW14926   0.792   5.373   4.875
 4676SOL    HW114927   0.705   5.379   4.924
 4676SOL    HW214928   0.845   5.296   4.911
 4677SOL     OW14929   4.827   0.013   6.941
 4677SOL    HW114930   4.813   0.097   6.889
 4677SOL    HW214931   4.889   6.970   6.891
 4678SOL     OW14932   2.617   4.657   0.346
 4678SOL    HW114933   2.609   4.569   0.298
 4678SOL    HW214934   2.528   4.681   0.386
 4679SOL     OW14935   2.194   6.740   5.281
 4679SOL    HW114936   2.136   6.710   5.205
 4679SOL    HW214937   2.158   6.705   5.367
 4680SOL     OW14938   1.112   5.534   6.047
 4680SOL    HW114939   1.055   5.558   5.968
 4680SOL    HW214940   1.097   5.438   6.071
 4681SOL     OW14941   6.587   6.470   5.081
 4681SOL    HW114942   6.498   6.514   5.090
 4681SOL    HW214943   6.623   6.447   5.171
 4682SOL     OW14944   3.303   0.233   0.875
 4682SOL    HW114945   3.267   0.143   0.900
 4682SOL    HW214946   3.394   0.223   0.834
 4683SOL     OW14947   0.667   4.788   3.805
 4683SOL    HW114948   0.665   4.807   3.903
 4683SOL    HW214949   0.639   4.693   3.790
 4684SOL     OW14950   2.400   1.170   5.093
 4684SOL    HW114951   2.302   1.164   5.112
 4684SOL    HW214952   2.446   1.088   5.128
 4685SOL     OW14953   5.291   4.813   3.942
 4685SOL    HW114954   5.304   4.734   3.882
 4685SOL    HW214955   5.296   4.898   3.888
 4686SOL     OW14956   4.779   5.443   6.066
 4686SOL    HW114957   4.767   5.496   5.982
 4686SOL    HW214958   4.727   5.486   6.140
 4687SOL     OW14959   4.271   0.574   5.066
 4687SOL    HW114960   4.245   0.666   5.098
 4687SOL    HW214961   4.354   0.545   5.115
 4688SOL     OW14962   7.013   0.867   0.922
 4688SOL    HW114963   0.036   0.845   0.833
 4688SOL    HW214964   6.914   0.869   0.913
 4689SOL     OW14965   2.362   5.343   4.091
 4689SOL    HW114966   2.369   5.337   4.191
 4689SOL    HW214967   2.426   5.412   4.057
 4690SOL     OW14968   2.700   1.819   0.492
 4690SOL    HW114969   2.632   1.886   0.463
 4690SOL    HW214970   2.705   1.745   0.425
 4691SOL     OW14971   3.271   4.826   6.901
 4691SOL    HW114972   3.294   4.764   6.976
 4691SOL    HW214973   3.355   4.864   6.862
 4692SOL     OW14974   1.036   4.936   3.257
 4692SOL    HW114975   0.994   5.027   3.252
 4692SOL    HW214976   0.975   4.869   3.215
 4693SOL     OW14977   0.638   2.111   2.106
 4693SOL    HW114978   0.539   2.119   2.099
 4693SOL    HW214979   0.678   2.200   2.130
 4694SOL     OW14980   1.718   0.969   4.986
 4694SOL    HW114981   1.728   0.884   5.038
 4694SOL    HW214982   1.727   0.950   4.889
 4695SOL     OW14983   2.894   3.678   3.095
 4695SOL    HW114984   2.900   3.578   3.098
 4695SOL    HW214985   2.890   3.715   3.188
 4696SOL     OW14986   0.297   2.641   6.886
 4696SOL    HW114987   0.291   2.727   6.937
 4696SOL    HW214988   0.338   2.571   6.945
 4697SOL     OW14989   0.481   5.340   6.563
 4697SOL    HW114990   0.483   5.266   6.630
 4697SOL    HW214991   0.432   5.419   6.601
 4698SOL     OW14992   5.460   2.908   2.554
 4698SOL    HW114993   5.538   2.950   2.599
 4698SOL    HW214994   5.491   2.852   2.477
 4699SOL     OW14995   0.023   0.577   3.400
 4699SOL    HW114996   6.959   0.625   3.368
 4699SOL    HW214997   0.036   0.595   3.498
 4700SOL     OW14998   5.091   7.004   5.474
 4700SOL    HW114999   5.143   0.061   5.432
 4700SOL    HW215000   5.152   6.947   5.529
 4701SOL     OW15001   2.110   0.902   6.433
 4701SOL    HW115002   2.139   0.817   6.390
 4701SOL    HW215003   2.021   0.889   6.477
 4702SOL     OW15004   3.380   2.751   1.489
 4702SOL    HW115005   3.303   2.794   1.442
 4702SOL    HW215006   3.434   2.698   1.424
 4703SOL     OW15007   0.804   6.365   2.213
 4703SOL    HW115008   0.811   6.462   2.190
 4703SOL    HW215009   0.799   6.311   2.130
 4704SOL     OW15010   4.424   6.737   6.103
 4704SOL    HW115011   4.375   6.811   6.149
 4704SOL    HW215012   4.453   6.669   6.170
 4705SOL     OW15013   3.746   2.945   4.845
 4705SOL    HW115014   3.668   2.904   4.891
 4705SOL    HW215015   3.826   2.941   4.904
 4706SOL     OW15016   5.811   3.557   6.804
 4706SOL    HW115017   5.877   3.538   6.732
 4706SOL    HW215018   5.738   3.489   6.802
 4707SOL     OW15019   2.925   4.387   0.275
 4707SOL    HW115020   2.838   4.339   0.263
 4707SOL    HW215021   2.941   4.404   0.372
 4708SOL     OW15022   1.998   3.013   2.122
 4708SOL    HW115023   1.951   2.988   2.037
 4708SOL    HW215024   2.008   3.112   2.126
 4709SOL     OW15025   3.262   4.156   0.311
 4709SOL    HW115026   3.286   4.095   0.386
 4709SOL    HW215027   3.251   4.249   0.346
 4710SOL     OW15028   4.845   2.856   1.286
 4710SOL    HW115029   4.856   2.847   1.385
 4710SOL    HW215030   4.933   2.843   1.241
 4711SOL     OW15031   2.993   0.152   3.409
 4711SOL    HW115032   3.057   0.086   3.370
 4711SOL    HW215033   3.007   0.241   3.366
 4712SOL     OW15034   1.648   3.896   6.867
 4712SOL    HW115035   1.621   3.979   6.818
 4712SOL    HW215036   1.609   3.816   6.822
 4713SOL     OW15037   0.775   5.915   1.305
 4713SOL    HW115038   0.808   6.004   1.336
 4713SOL    HW215039   0.851   5.850   1.304
 4714SOL     OW15040   3.992   2.185   1.193
 4714SOL    HW115041   3.925   2.204   1.265
 4714SOL    HW215042   4.077   2.234   1.213
 4715SOL     OW15043   4.979   3.535   4.773
 4715SOL    HW115044   4.976   3.480   4.690
 4715SOL    HW215045   4.886   3.554   4.804
 4716SOL     OW15046   2.073   5.568   6.414
 4716SOL    HW115047   2.004   5.640   6.424
 4716SOL    HW215048   2.063   5.502   6.489
 4717SOL     OW15049   2.477   5.044   4.584
 4717SOL    HW115050   2.523   5.115   4.638
 4717SOL    HW215051   2.508   4.954   4.613
 4718SOL     OW15052   5.028   6.915   0.260
 4718SOL    HW115053   5.067   6.910   0.352
 4718SOL    HW215054   4.970   6.996   0.254
 4719SOL     OW15055   4.408   3.435   1.197
 4719SOL    HW115056   4.417   3.345   1.239
 4719SOL    HW215057   4.444   3.432   1.104
 4720SOL     OW15058   2.209   1.986   3.091
 4720SOL    HW115059   2.258   1.989   3.179
 4720SOL    HW215060   2.247   1.913   3.035
 4721SOL     OW15061   2.040   1.405   1.638
 4721SOL    HW115062   2.109   1.453   1.583
 4721SOL    HW215063   2.056   1.423   1.735
 4722SOL     OW15064   2.730   1.004   2.871
 4722SOL    HW115065   2.646   0.961   2.903
 4722SOL    HW215066   2.713   1.101   2.853
 4723SOL     OW15067   2.818   0.324   5.599
 4723SOL    HW115068   2.873   0.268   5.661
 4723SOL    HW215069   2.807   0.416   5.639
 4724SOL     OW15070   4.916   5.420   0.992
 4724SOL    HW115071   4.968   5.365   1.058
 4724SOL    HW215072   4.945   5.516   0.999
 4725SOL     OW15073   5.949   5.117   2.522
 4725SOL    HW115074   5.898   5.041   2.484
 4725SOL    HW215075   5.887   5.179   2.570
 4726SOL     OW15076   0.028   6.365   4.329
 4726SOL    HW115077   7.016   6.272   4.308
 4726SOL    HW215078   0.066   6.406   4.246
 4727SOL     OW15079   5.247   6.632   2.059
 4727SOL    HW115080   5.344   6.648   2.042
 4727SOL    HW215081   5.236   6.547   2.111
 4728SOL     OW15082   6.546   6.741   6.673
 4728SOL    HW115083   6.597   6.688   6.741
 4728SOL    HW215084   6.605   6.760   6.595
 4729SOL     OW15085   3.235   0.640   1.181
 4729SOL    HW115086   3.169   0.567   1.164
 4729SOL    HW215087   3.203   0.698   1.256
 4730SOL     OW15088   1.860   0.493   6.276
 4730SOL    HW115089   1.887   0.550   6.198
 4730SOL    HW215090   1.763   0.507   6.295
 4731SOL     OW15091   4.479   1.275   5.929
 4731SOL    HW115092   4.489   1.242   5.835
 4731SOL    HW215093   4.427   1.360   5.929
 4732SOL     OW15094   0.633   6.515   6.731
 4732SOL    HW115095   0.618   6.596   6.787
 4732SOL    HW215096   0.649   6.436   6.791
 4733SOL     OW15097   5.651   3.839   3.137
 4733SOL    HW115098   5.703   3.917   3.102
 4733SOL    HW215099   5.637   3.848   3.235
 4734SOL     OW15100   6.429   3.405   5.907
 4734SOL    HW115101   6.332   3.392   5.929
 4734SOL    HW215102   6.478   3.438   5.988
 4735SOL     OW15103   0.415   4.049   3.617
 4735SOL    HW115104   0.483   3.976   3.607
 4735SOL    HW215105   0.356   4.030   3.694
 4736SOL     OW15106   1.738   6.790   2.273
 4736SOL    HW115107   1.649   6.745   2.264
 4736SOL    HW215108   1.802   6.728   2.320
 4737SOL     OW15109   3.230   4.929   2.240
 4737SOL    HW115110   3.255   4.886   2.153
 4737SOL    HW215111   3.233   5.028   2.230
 4738SOL     OW15112   1.071   6.935   3.153
 4738SOL    HW115113   1.019   6.925   3.238
 4738SOL    HW215114   1.137   7.008   3.163
 4739SOL     OW15115   3.895   0.010   1.691
 4739SOL    HW115116   3.845   0.096   1.683
 4739SOL    HW215117   3.868   6.966   1.617
 4740SOL     OW15118   0.918   1.703   4.575
 4740SOL    HW115119   0.946   1.674   4.666
 4740SOL    HW215120   0.818   1.706   4.570
 4741SOL     OW15121   3.770   4.055   3.002
 4741SOL    HW115122   3.807   3.987   2.939
 4741SOL    HW215123   3.797   4.033   3.095
 4742SOL     OW15124   4.838   1.164   2.730
 4742SOL    HW115125   4.810   1.257   2.755
 4742SOL    HW215126   4.937   1.161   2.720
 4743SOL     OW15127   0.672   5.365   0.710
 4743SOL    HW115128   0.601   5.323   0.768
 4743SOL    HW215129   0.742   5.297   0.689
 4744SOL     OW15130   1.699   5.096   1.833
 4744SOL    HW115131   1.691   5.054   1.923
 4744SOL    HW215132   1.630   5.057   1.772
 4745SOL     OW15133   1.546   3.274   0.149
 4745SOL    HW115134   1.506   3.185   0.126
 4745SOL    HW215135   1.626   3.260   0.209
 4746SOL     OW15136   5.923   5.900   4.319
 4746SOL    HW115137   5.900   5.994   4.294
 4746SOL    HW215138   5.868   5.872   4.398
 4747SOL     OW15139   3.984   0.635   1.320
 4747SOL    HW115140   3.888   0.629   1.346
 4747SOL    HW215141   4.028   0.546   1.333
 4748SOL     OW15142   1.945   6.732   3.121
 4748SOL    HW115143   1.865   6.688   3.161
 4748SOL    HW215144   1.922   6.825   3.093
 4749SOL     OW15145   2.483   1.132   1.280
 4749SOL    HW115146   2.545   1.156   1.206
 4749SOL    HW215147   2.388   1.134   1.247
 4750SOL     OW15148   5.266   3.410   6.642
 4750SOL    HW115149   5.311   3.332   6.685
 4750SOL    HW215150   5.205   3.377   6.570
 4751SOL     OW15151   4.001   1.676   2.749
 4751SOL    HW115152   3.925   1.721   2.796
 4751SOL    HW215153   4.071   1.652   2.815
 4752SOL     OW15154   5.648   6.878   6.868
 4752SOL    HW115155   5.743   6.874   6.838
 4752SOL    HW215156   5.590   6.910   6.792
 4753SOL     OW15157   2.988   5.229   5.033
 4753SOL    HW115158   2.915   5.273   5.085
 4753SOL    HW215159   2.962   5.134   5.014
 4754SOL     OW15160   5.565   4.583   0.500
 4754SOL    HW115161   5.548   4.658   0.564
 4754SOL    HW215162   5.494   4.513   0.511
 4755SOL     OW15163   0.170   1.256   1.325
 4755SOL    HW115164   0.218   1.310   1.395
 4755SOL    HW215165   0.115   1.318   1.269
 4756SOL     OW15166   6.725   3.963   5.107
 4756SOL    HW115167   6.695   3.943   5.201
 4756SOL    HW215168   6.770   4.053   5.106
 4757SOL     OW15169   2.384   3.130   1.021
 4757SOL    HW115170   2.302   3.074   1.009
 4757SOL    HW215171   2.395   3.152   1.118
 4758SOL     OW15172   2.095   5.117   1.969
 4758SOL    HW115173   2.108   5.166   2.056
 4758SOL    HW215174   2.045   5.032   1.987
 4759SOL     OW15175   0.662   6.811   2.734
 4759SOL    HW115176   0.677   6.732   2.793
 4759SOL    HW215177   0.653   6.894   2.790
 4760SOL     OW15178   0.698   6.796   1.944
 4760SOL    HW115179   0.640   6.877   1.955
 4760SOL    HW215180   0.767   6.815   1.874
 4761SOL     OW15181   4.257   6.175   2.149
 4761SOL    HW115182   4.322   6.229   2.095
 4761SOL    HW215183   4.278   6.186   2.246
 4762SOL     OW15184   0.880   0.968   2.325
 4762SOL    HW115185   0.931   1.035   2.379
 4762SOL    HW215186   0.790   1.006   2.302
 4763SOL     OW15187   5.234   4.950   1.590
 4763SOL    HW115188   5.316   4.975   1.539
 4763SOL    HW215189   5.202   4.860   1.561
 4764SOL     OW15190   5.110   2.772   6.802
 4764SOL    HW115191   5.061   2.721   6.731
 4764SOL    HW215192   5.044   2.807   6.868
 4765SOL     OW15193   3.633   1.437   5.515
 4765SOL    HW115194   3.583   1.506   5.463
 4765SOL    HW215195   3.576   1.404   5.589
 4766SOL     OW15196   1.204   0.649   3.440
 4766SOL    HW115197   1.131   0.678   3.502
 4766SOL    HW215198   1.271   0.722   3.432
 4767SOL     OW15199   2.512   4.700   3.225
 4767SOL    HW115200   2.500   4.673   3.130
 4767SOL    HW215201   2.425   4.730   3.263
 4768SOL     OW15202   4.892   2.278   6.237
 4768SOL    HW115203   4.941   2.295   6.151
 4768SOL    HW215204   4.811   2.336   6.242
 4769SOL     OW15205   3.019   3.191   0.565
 4769SOL    HW115206   2.970   3.144   0.638
 4769SOL    HW215207   3.101   3.235   0.603
 4770SOL     OW15208   0.130   1.924   3.904
 4770SOL    HW115209   0.152   1.890   3.995
 4770SOL    HW215210   0.215   1.945   3.855
 4771SOL     OW15211   3.130   0.932   4.290
 4771SOL    HW115212   3.201   0.876   4.247
 4771SOL    HW215213   3.141   1.027   4.261
 4772SOL     OW15214   2.515   4.795   2.766
 4772SOL    HW115215   2.548   4.762   2.855
 4772SOL    HW215216   2.431   4.846   2.779
 4773SOL     OW15217   2.891   5.641   4.155
 4773SOL    HW115218   2.955   5.640   4.232
 4773SOL    HW215219   2.820   5.572   4.169
 4774SOL     OW15220   0.955   4.746   0.263
 4774SOL    HW115221   1.022   4.811   0.299
 4774SOL    HW215222   0.886   4.728   0.333
 4775SOL     OW15223   5.568   5.082   4.193
 4775SOL    HW115224   5.499   5.146   4.227
 4775SOL    HW215225   5.568   5.000   4.249
 4776SOL     OW15226   6.942   1.806   4.706
 4776SOL    HW115227   6.881   1.727   4.710
 4776SOL    HW215228   6.948   1.838   4.611
 4777SOL     OW15229   1.058   6.480   3.604
 4777SOL    HW115230   1.117   6.511   3.679
 4777SOL    HW215231   0.986   6.548   3.588
 4778SOL     OW15232   1.741   0.098   0.580
 4778SOL    HW115233   1.701   0.094   0.488
 4778SOL    HW215234   1.841   0.089   0.572
 4779SOL     OW15235   4.794   1.749   4.140
 4779SOL    HW115236   4.817   1.790   4.051
 4779SOL    HW215237   4.803   1.650   4.134
 4780SOL     OW15238   4.773   2.862   5.002
 4780SOL    HW115239   4.736   2.900   4.917
 4780SOL    HW215240   4.823   2.933   5.051
 4781SOL     OW15241   2.663   5.181   1.923
 4781SOL    HW115242   2.690   5.147   1.833
 4781SOL    HW215243   2.707   5.126   1.994
 4782SOL     OW15244   1.255   6.744   3.316
 4782SOL    HW115245   1.266   6.769   3.412
 4782SOL    HW215246   1.204   6.816   3.269
 4783SOL     OW15247   0.931   4.189   6.678
 4783SOL    HW115248   0.879   4.193   6.763
 4783SOL    HW215249   1.028   4.200   6.698
 4784SOL     OW15250   6.129   2.700   6.915
 4784SOL    HW115251   6.048   2.644   6.934
 4784SOL    HW215252   6.160   2.743   6.999
 4785SOL     OW15253   6.875   1.297   4.221
 4785SOL    HW115254   6.944   1.253   4.278
 4785SOL    HW215255   6.907   1.388   4.194
 4786SOL     OW15256   1.863   6.353   0.142
 4786SOL    HW115257   1.773   6.333   0.182
 4786SOL    HW215258   1.934   6.335   0.210
 4787SOL     OW15259   4.505   1.104   5.078
 4787SOL    HW115260   4.482   1.009   5.055
 4787SOL    HW215261   4.496   1.117   5.177
 4788SOL     OW15262   6.570   6.001   1.074
 4788SOL    HW115263   6.600   5.906   1.085
 4788SOL    HW215264   6.620   6.042   0.999
 4789SOL     OW15265   6.221   1.213   2.153
 4789SOL    HW115266   6.278   1.171   2.223
 4789SOL    HW215267   6.197   1.145   2.084
 4790SOL     OW15268   0.392   2.718   6.083
 4790SOL    HW115269   0.350   2.633   6.115
 4790SOL    HW215270   0.486   2.700   6.056
 4791SOL     OW15271   1.029   0.565   6.691
 4791SOL    HW115272   0.984   0.579   6.603
 4791SOL    HW215273   0.999   0.636   6.755
 4792SOL     OW15274   0.447   3.860   1.659
 4792SOL    HW115275   0.400   3.948   1.664
 4792SOL    HW215276   0.492   3.841   1.746
 4793SOL     OW15277   0.709   3.234   5.181
 4793SOL    HW115278   0.766   3.316   5.190
 4793SOL    HW215279   0.768   3.154   5.177
 4794SOL     OW15280   5.622   1.377   6.336
 4794SOL    HW115281   5.526   1.349   6.342
 4794SOL    HW215282   5.643   1.404   6.242
 4795SOL     OW15283   6.957   6.622   6.805
 4795SOL    HW115284   6.902   6.702   6.831
 4795SOL    HW215285   6.961   6.558   6.881
 4796SOL     OW15286   5.665   1.393   5.867
 4796SOL    HW115287   5.699   1.410   5.774
 4796SOL    HW215288   5.743   1.377   5.928
 4797SOL     OW15289   3.109   4.843   5.421
 4797SOL    HW115290   3.053   4.774   5.466
 4797SOL    HW215291   3.206   4.824   5.437
 4798SOL     OW15292   3.053   5.865   0.234
 4798SOL    HW115293   3.004   5.783   0.203
 4798SOL    HW215294   3.076   5.922   0.156
 4799SOL     OW15295   4.454   3.915   1.094
 4799SOL    HW115296   4.506   3.918   1.008
 4799SOL    HW215297   4.468   3.826   1.138
 4800SOL     OW15298   1.171   4.787   0.524
 4800SOL    HW115299   1.166   4.884   0.500
 4800SOL    HW215300   1.247   4.772   0.587
 4801SOL     OW15301   4.979   3.451   3.467
 4801SOL    HW115302   4.955   3.476   3.561
 4801SOL    HW215303   4.972   3.532   3.409
 4802SOL     OW15304   6.800   0.704   5.108
 4802SOL    HW115305   6.809   0.796   5.146
 4802SOL    HW215306   6.775   0.641   5.181
 4803SOL     OW15307   5.425   3.417   5.701
 4803SOL    HW115308   5.453   3.499   5.651
 4803SOL    HW215309   5.367   3.361   5.643
 4804SOL     OW15310   5.364   2.747   1.022
 4804SOL    HW115311   5.365   2.843   1.049
 4804SOL    HW215312   5.415   2.736   0.937
 4805SOL     OW15313   5.924   0.584   6.289
 4805SOL    HW115314   5.936   0.649   6.364
 4805SOL    HW215315   6.012   0.563   6.249
 4806SOL     OW15316   1.835   2.890   3.653
 4806SOL    HW115317   1.887   2.905   3.737
 4806SOL    HW215318   1.793   2.799   3.655
 4807SOL     OW15319   1.307   3.663   0.686
 4807SOL    HW115320   1.382   3.728   0.676
 4807SOL    HW215321   1.254   3.660   0.601
 4808SOL     OW15322   3.167   6.782   3.042
 4808SOL    HW115323   3.183   6.880   3.030
 4808SOL    HW215324   3.087   6.768   3.101
 4809SOL     OW15325   2.849   3.997   0.139
 4809SOL    HW115326   2.909   3.919   0.125
 4809SOL    HW215327   2.902   4.074   0.176
 4810SOL     OW15328   2.029   5.217   4.653
 4810SOL    HW115329   1.981   5.242   4.737
 4810SOL    HW215330   2.005   5.123   4.628
 4811SOL     OW15331   3.303   3.317   4.884
 4811SOL    HW115332   3.228   3.373   4.850
 4811SOL    HW215333   3.315   3.334   4.982
 4812SOL     OW15334   2.376   6.576   1.215
 4812SOL    HW115335   2.396   6.527   1.130
 4812SOL    HW215336   2.394   6.515   1.293
 4813SOL     OW15337   1.007   2.653   4.774
 4813SOL    HW115338   0.962   2.735   4.809
 4813SOL    HW215339   0.937   2.587   4.743
 4814SOL     OW15340   4.541   1.310   0.345
 4814SOL    HW115341   4.590   1.310   0.258
 4814SOL    HW215342   4.510   1.217   0.367
 4815SOL     OW15343   6.457   3.982   3.202
 4815SOL    HW115344   6.552   3.968   3.172
 4815SOL    HW215345   6.454   3.981   3.302
 4816SOL     OW15346   2.288   0.633   2.864
 4816SOL    HW115347   2.353   0.636   2.788
 4816SOL    HW215348   2.197   0.655   2.831
 4817SOL     OW15349   4.495   3.357   0.105
 4817SOL    HW115350   4.506   3.377   0.203
 4817SOL    HW215351   4.476   3.260   0.093
 4818SOL     OW15352   4.625   6.331   5.453
 4818SOL    HW115353   4.686   6.263   5.494
 4818SOL    HW215354   4.555   6.357   5.520
 4819SOL     OW15355   3.206   1.000   0.510
 4819SOL    HW115356   3.187   0.941   0.431
 4819SOL    HW215357   3.130   1.064   0.523
 4820SOL     OW15358   0.826   5.138   1.385
 4820SOL    HW115359   0.739   5.113   1.428
 4820SOL    HW215360   0.851   5.232   1.410
 4821SOL     OW15361   6.604   5.898   1.506
 4821SOL    HW115362   6.568   5.833   1.573
 4821SOL    HW215363   6.666   5.962   1.551
 4822SOL     OW15364   0.292   3.562   2.028
 4822SOL    HW115365   0.233   3.529   1.954
 4822SOL    HW215366   0.240   3.566   2.113
 4823SOL     OW15367   0.185   1.809   2.679
 4823SOL    HW115368   0.216   1.778   2.769
 4823SOL    HW215369   0.132   1.736   2.635
 4824SOL     OW15370   5.004   2.000   3.006
 4824SOL    HW115371   4.936   1.978   3.076
 4824SOL    HW215372   5.020   2.099   3.004
 4825SOL     OW15373   2.156   3.850   4.314
 4825SOL    HW115374   2.074   3.865   4.259
 4825SOL    HW215375   2.173   3.752   4.323
 4826SOL     OW15376   0.613   6.076   0.490
 4826SOL    HW115377   0.585   6.123   0.406
 4826SOL    HW215378   0.550   6.099   0.563
 4827SOL     OW15379   5.225   0.833   0.174
 4827SOL    HW115380   5.234   0.930   0.154
 4827SOL    HW215381   5.216   0.782   0.088
 4828SOL     OW15382   6.488   2.765   6.812
 4828SOL    HW115383   6.529   2.835   6.754
 4828SOL    HW215384   6.424   2.711   6.758
 4829SOL     OW15385   2.509   0.724   5.833
 4829SOL    HW115386   2.439   0.655   5.851
 4829SOL    HW215387   2.473   0.815   5.852
 4830SOL     OW15388   4.964   4.463   4.512
 4830SOL    HW115389   5.061   4.459   4.538
 4830SOL    HW215390   4.944   4.553   4.475
 4831SOL     OW15391   6.528   1.934   6.485
 4831SOL    HW115392   6.556   2.029   6.491
 4831SOL    HW215393   6.459   1.915   6.554
 4832SOL     OW15394   1.266   2.755   6.378
 4832SOL    HW115395   1.347   2.710   6.340
 4832SOL    HW215396   1.275   2.763   6.477
 4833SOL     OW15397   6.454   2.981   2.451
 4833SOL    HW115398   6.527   3.048   2.463
 4833SOL    HW215399   6.411   2.994   2.361
 4834SOL     OW15400   5.632   0.293   3.072
 4834SOL    HW115401   5.623   0.299   3.172
 4834SOL    HW215402   5.541   0.287   3.031
 4835SOL     OW15403   2.188   1.978   6.041
 4835SOL    HW115404   2.123   2.049   6.014
 4835SOL    HW215405   2.281   2.011   6.025
 4836SOL     OW15406   5.982   4.440   3.343
 4836SOL    HW115407   5.917   4.364   3.346
 4836SOL    HW215408   5.998   4.467   3.248
 4837SOL     OW15409   0.244   5.015   1.841
 4837SOL    HW115410   0.181   4.972   1.906
 4837SOL    HW215411   0.205   5.101   1.810
 4838SOL     OW15412   2.748   6.342   2.438
 4838SOL    HW115413   2.743   6.255   2.487
 4838SOL    HW215414   2.714   6.329   2.345
 4839SOL     OW15415   0.631   6.876   6.504
 4839SOL    HW115416   0.691   6.801   6.529
 4839SOL    HW215417   0.680   6.963   6.515
 4840SOL     OW15418   6.539   5.267   5.842
 4840SOL    HW115419   6.508   5.191   5.785
 4840SOL    HW215420   6.633   5.290   5.819
 4841SOL     OW15421   1.524   5.312   1.865
 4841SOL    HW115422   1.539   5.346   1.958
 4841SOL    HW215423   1.558   5.218   1.858
 4842SOL     OW15424   3.339   6.784   0.807
 4842SOL    HW115425   3.275   6.734   0.749
 4842SOL    HW215426   3.386   6.721   0.869
 4843SOL     OW15427   1.966   4.290   0.874
 4843SOL    HW115428   1.945   4.250   0.963
 4843SOL    HW215429   1.981   4.388   0.885
 4844SOL     OW15430   0.352   1.154   5.371
 4844SOL    HW115431   0.436   1.159   5.425
 4844SOL    HW215432   0.345   1.235   5.313
 4845SOL     OW15433   5.871   0.113   3.478
 4845SOL    HW115434   5.955   0.096   3.427
 4845SOL    HW215435   5.806   0.039   3.461
 4846SOL     OW15436   6.720   4.418   5.608
 4846SOL    HW115437   6.786   4.492   5.595
 4846SOL    HW215438   6.704   4.372   5.521
 4847SOL     OW15439   5.146   3.268   4.553
 4847SOL    HW115440   5.171   3.174   4.530
 4847SOL    HW215441   5.222   3.329   4.532
 4848SOL     OW15442   3.171   4.083   1.113
 4848SOL    HW115443   3.255   4.030   1.123
 4848SOL    HW215444   3.162   4.115   1.018
 4849SOL     OW15445   2.263   6.308   6.591
 4849SOL    HW115446   2.297   6.231   6.644
 4849SOL    HW215447   2.183   6.347   6.636
 4850SOL     OW15448   3.504   6.632   2.807
 4850SOL    HW115449   3.477   6.650   2.902
 4850SOL    HW215450   3.501   6.534   2.789
 4851SOL     OW15451   4.728   1.537   5.608
 4851SOL    HW115452   4.680   1.528   5.696
 4851SOL    HW215453   4.823   1.508   5.619
 4852SOL     OW15454   1.248   1.911   1.788
 4852SOL    HW115455   1.297   1.911   1.875
 4852SOL    HW215456   1.288   1.980   1.727
 4853SOL     OW15457   3.428   0.961   1.536
 4853SOL    HW115458   3.510   0.997   1.493
 4853SOL    HW215459   3.435   0.862   1.544
 4854SOL     OW15460   4.041   6.977   5.873
 4854SOL    HW115461   4.091   6.976   5.787
 4854SOL    HW215462   3.945   6.953   5.856
 4855SOL     OW15463   0.750   2.964   2.386
 4855SOL    HW115464   0.826   2.931   2.330
 4855SOL    HW215465   0.710   2.887   2.435
 4856SOL     OW15466   0.302   4.817   2.925
 4856SOL    HW115467   0.227   4.777   2.976
 4856SOL    HW215468   0.268   4.853   2.838
 4857SOL     OW15469   6.954   1.026   5.823
 4857SOL    HW115470   0.022   1.022   5.771
 4857SOL    HW215471   6.941   0.940   5.872
 4858SOL     OW15472   1.269   0.300   3.766
 4858SOL    HW115473   1.240   0.375   3.825
 4858SOL    HW215474   1.209   0.221   3.781
 4859SOL     OW15475   3.337   6.440   6.010
 4859SOL    HW115476   3.409   6.371   6.002
 4859SOL    HW215477   3.253   6.396   6.043
 4860SOL     OW15478   3.316   5.304   0.458
 4860SOL    HW115479   3.294   5.212   0.488
 4860SOL    HW215480   3.316   5.307   0.358
 4861SOL     OW15481   4.108   4.186   6.449
 4861SOL    HW115482   4.141   4.278   6.428
 4861SOL    HW215483   4.115   4.129   6.367
 4862SOL     OW15484   2.004   0.105   0.431
 4862SOL    HW115485   2.015   0.179   0.365
 4862SOL    HW215486   2.067   0.031   0.409
 4863SOL     OW15487   5.298   3.843   6.032
 4863SOL    HW115488   5.335   3.920   5.979
 4863SOL    HW215489   5.367   3.772   6.038
 4864SOL     OW15490   3.271   1.079   3.856
 4864SOL    HW115491   3.254   1.168   3.813
 4864SOL    HW215492   3.193   1.055   3.914
 4865SOL     OW15493   1.326   5.970   5.323
 4865SOL    HW115494   1.413   5.978   5.273
 4865SOL    HW215495   1.266   6.045   5.297
 4866SOL     OW15496   6.861   4.019   5.438
 4866SOL    HW115497   6.938   3.976   5.392
 4866SOL    HW215498   6.861   3.993   5.535
 4867SOL     OW15499   3.864   1.011   3.317
 4867SOL    HW115500   3.944   1.061   3.349
 4867SOL    HW215501   3.891   0.948   3.244
 4868SOL     OW15502   0.326   5.854   1.680
 4868SOL    HW115503   0.373   5.875   1.595
 4868SOL    HW215504   0.375   5.782   1.729
 4869SOL     OW15505   0.219   1.071   0.758
 4869SOL    HW115506   0.267   1.087   0.844
 4869SOL    HW215507   0.276   1.100   0.682
 4870SOL     OW15508   1.010   0.231   0.986
 4870SOL    HW115509   0.958   0.156   1.025
 4870SOL    HW215510   0.974   0.254   0.896
 4871SOL     OW15511   0.634   2.101   4.241
 4871SOL    HW115512   0.696   2.179   4.232
 4871SOL    HW215513   0.577   2.093   4.159
 4872SOL     OW15514   5.418   0.468   3.520
 4872SOL    HW115515   5.416   0.411   3.602
 4872SOL    HW215516   5.396   0.563   3.544
 4873SOL     OW15517   0.020   5.823   4.076
 4873SOL    HW115518   6.950   5.819   4.029
 4873SOL    HW215519   0.090   5.857   4.014
 4874SOL     OW15520   6.138   4.644   2.386
 4874SOL    HW115521   6.045   4.640   2.422
 4874SOL    HW215522   6.186   4.559   2.409
 4875SOL     OW15523   6.763   6.778   4.340
 4875SOL    HW115524   6.838   6.742   4.396
 4875SOL    HW215525   6.736   6.709   4.274
 4876SOL     OW15526   6.379   1.453   2.351
 4876SOL    HW115527   6.286   1.418   2.336
 4876SOL    HW215528   6.388   1.483   2.446
 4877SOL     OW15529   0.454   1.762   0.303
 4877SOL    HW115530   0.514   1.770   0.382
 4877SOL    HW215531   0.507   1.727   0.225
 4878SOL     OW15532   5.471   4.592   3.800
 4878SOL    HW115533   5.470   4.598   3.700
 4878SOL    HW215534   5.563   4.612   3.834
 4879SOL     OW15535   6.198   0.615   2.915
 4879SOL    HW115536   6.117   0.563   2.886
 4879SOL    HW215537   6.173   0.711   2.926
 4880SOL     OW15538   0.253   3.165   6.213
 4880SOL    HW115539   0.205   3.082   6.240
 4880SOL    HW215540   0.342   3.141   6.175
 4881SOL     OW15541   6.834   3.747   1.842
 4881SOL    HW115542   6.789   3.829   1.879
 4881SOL    HW215543   6.806   3.735   1.747
 4882SOL     OW15544   5.061   2.309   4.717
 4882SOL    HW115545   5.084   2.246   4.643
 4882SOL    HW215546   4.965   2.297   4.743
 4883SOL     OW15547   0.036   4.138   6.241
 4883SOL    HW115548   0.131   4.161   6.217
 4883SOL    HW215549   0.029   4.124   6.340
 4884SOL     OW15550   1.641   2.338   1.533
 4884SOL    HW115551   1.669   2.275   1.461
 4884SOL    HW215552   1.634   2.290   1.620
 4885SOL     OW15553   1.003   5.787   6.656
 4885SOL    HW115554   1.026   5.789   6.753
 4885SOL    HW215555   0.995   5.881   6.622
 4886SOL     OW15556   3.391   1.126   2.303
 4886SOL    HW115557   3.452   1.152   2.228
 4886SOL    HW215558   3.435   1.055   2.358
 4887SOL     OW15559   4.973   5.319   0.440
 4887SOL    HW115560   4.963   5.267   0.525
 4887SOL    HW215561   4.909   5.285   0.372
 4888SOL     OW15562   4.224   6.941   2.675
 4888SOL    HW115563   4.316   6.976   2.689
 4888SOL    HW215564   4.229   6.845   2.645
 4889SOL     OW15565   5.328   3.425   3.730
 4889SOL    HW115566   5.298   3.371   3.809
 4889SOL    HW215567   5.364   3.513   3.761
 4890SOL     OW15568   6.479   2.285   4.543
 4890SOL    HW115569   6.425   2.249   4.467
 4890SOL    HW215570   6.544   2.353   4.509
 4891SOL     OW15571   2.484   5.562   0.072
 4891SOL    HW115572   2.572   5.585   0.030
 4891SOL    HW215573   2.489   5.578   0.170
 4892SOL     OW15574   4.992   4.768   1.831
 4892SOL    HW115575   4.896   4.795   1.838
 4892SOL    HW215576   4.999   4.668   1.837
 4893SOL     OW15577   2.645   2.827   0.888
 4893SOL    HW115578   2.636   2.811   0.790
 4893SOL    HW215579   2.554   2.829   0.930
 4894SOL     OW15580   5.121   6.379   0.019
 4894SOL    HW115581   5.142   6.281   0.027
 4894SOL    HW215582   5.023   6.391   0.012
 4895SOL     OW15583   6.302   3.595   5.141
 4895SOL    HW115584   6.344   3.514   5.182
 4895SOL    HW215585   6.233   3.631   5.204
 4896SOL     OW15586   2.753   5.043   4.864
 4896SOL    HW115587   2.691   5.097   4.921
 4896SOL    HW215588   2.775   5.094   4.781
 4897SOL     OW15589   2.588   2.145   5.735
 4897SOL    HW115590   2.615   2.123   5.641
 4897SOL    HW215591   2.642   2.090   5.799
 4898SOL     OW15592   4.412   2.429   3.520
 4898SOL    HW115593   4.336   2.377   3.559
 4898SOL    HW215594   4.448   2.493   3.588
 4899SOL     OW15595   6.237   6.045   1.522
 4899SOL    HW115596   6.282   6.083   1.441
 4899SOL    HW215597   6.138   6.047   1.509
 4900SOL     OW15598   3.529   5.249   6.213
 4900SOL    HW115599   3.484   5.336   6.229
 4900SOL    HW215600   3.546   5.204   6.301
 4901SOL     OW15601   2.229   0.844   6.996
 4901SOL    HW115602   2.244   0.748   7.017
 4901SOL    HW215603   2.310   0.881   6.950
 4902SOL     OW15604   2.088   0.141   5.605
 4902SOL    HW115605   2.123   0.064   5.659
 4902SOL    HW215606   2.058   0.108   5.516
 4903SOL     OW15607   4.963   3.704   2.310
 4903SOL    HW115608   4.920   3.722   2.222
 4903SOL    HW215609   4.929   3.770   2.378
 4904SOL     OW15610   2.342   0.646   2.236
 4904SOL    HW115611   2.300   0.735   2.221
 4904SOL    HW215612   2.381   0.613   2.150
 4905SOL     OW15613   2.733   1.765   1.776
 4905SOL    HW115614   2.670   1.692   1.750
 4905SOL    HW215615   2.692   1.854   1.756
 4906SOL     OW15616   5.258   3.112   4.790
 4906SOL    HW115617   5.230   3.176   4.719
 4906SOL    HW215618   5.357   3.114   4.799
 4907SOL     OW15619   3.994   2.967   0.767
 4907SOL    HW115620   4.088   2.994   0.786
 4907SOL    HW215621   3.988   2.868   0.760
 4908SOL     OW15622   2.925   6.364   6.442
 4908SOL    HW115623   2.985   6.292   6.407
 4908SOL    HW215624   2.837   6.324   6.470
 4909SOL     OW15625   4.795   6.366   4.985
 4909SOL    HW115626   4.847   6.316   5.054
 4909SOL    HW215627   4.709   6.319   4.968
 4910SOL     OW15628   4.861   2.170   6.690
 4910SOL    HW115629   4.804   2.222   6.626
 4910SOL    HW215630   4.837   2.194   6.784
 4911SOL     OW15631   6.617   4.236   3.571
 4911SOL    HW115632   6.717   4.232   3.560
 4911SOL    HW215633   6.583   4.323   3.536
 4912SOL     OW15634   5.840   2.900   4.290
 4912SOL    HW115635   5.807   2.810   4.321
 4912SOL    HW215636   5.879   2.950   4.367
 4913SOL     OW15637   1.079   3.992   5.966
 4913SOL    HW115638   1.027   3.932   5.906
 4913SOL    HW215639   1.174   3.998   5.934
 4914SOL     OW15640   2.753   6.694   4.026
 4914SOL    HW115641   2.668   6.698   3.973
 4914SOL    HW215642   2.804   6.779   4.015
 4915SOL     OW15643   4.564   6.318   5.196
 4915SOL    HW115644   4.608   6.234   5.164
 4915SOL    HW215645   4.572   6.324   5.295
 4916SOL     OW15646   5.726   2.939   3.647
 4916SOL    HW115647   5.704   2.914   3.742
 4916SOL    HW215648   5.733   3.038   3.640
 4917SOL     OW15649   5.057   6.526   6.692
 4917SOL    HW115650   5.094   6.544   6.601
 4917SOL    HW215651   4.963   6.560   6.698
 4918SOL     OW15652   5.038   6.033   4.150
 4918SOL    HW115653   5.010   6.065   4.240
 4918SOL    HW215654   5.032   5.934   4.146
 4919SOL     OW15655   4.548   3.900   1.712
 4919SOL    HW115656   4.643   3.869   1.713
 4919SOL    HW215657   4.545   3.999   1.726
 4920SOL     OW15658   5.986   1.009   5.318
 4920SOL    HW115659   6.029   0.933   5.268
 4920SOL    HW215660   6.056   1.077   5.340
 4921SOL     OW15661   6.377   0.289   2.270
 4921SOL    HW115662   6.381   0.250   2.362
 4921SOL    HW215663   6.465   0.273   2.224
 4922SOL     OW15664   4.036   0.667   6.432
 4922SOL    HW115665   3.965   0.597   6.417
 4922SOL    HW215666   4.105   0.660   6.360
 4923SOL     OW15667   3.938   1.339   2.086
 4923SOL    HW115668   3.879   1.373   2.013
 4923SOL    HW215669   3.911   1.381   2.173
 4924SOL     OW15670   3.017   1.415   5.179
 4924SOL    HW115671   2.921   1.404   5.153
 4924SOL    HW215672   3.051   1.330   5.219
 4925SOL     OW15673   5.439   0.251   3.744
 4925SOL    HW115674   5.505   0.230   3.673
 4925SOL    HW215675   5.460   0.196   3.826
 4926SOL     OW15676   4.823   2.780   2.348
 4926SOL    HW115677   4.916   2.743   2.344
 4926SOL    HW215678   4.824   2.876   2.319
 4927SOL     OW15679   2.367   1.728   0.491
 4927SOL    HW115680   2.344   1.779   0.574
 4927SOL    HW215681   2.423   1.648   0.515
 4928SOL     OW15682   0.908   1.945   1.104
 4928SOL    HW115683   0.979   1.891   1.150
 4928SOL    HW215684   0.818   1.919   1.140
 4929SOL     OW15685   6.328   0.482   4.891
 4929SOL    HW115686   6.342   0.570   4.846
 4929SOL    HW215687   6.300   0.496   4.986
 4930SOL     OW15688   4.948   5.788   2.368
 4930SOL    HW115689   4.910   5.775   2.276
 4930SOL    HW215690   5.029   5.731   2.379
 4931SOL     OW15691   4.616   0.387   1.487
 4931SOL    HW115692   4.585   0.360   1.396
 4931SOL    HW215693   4.710   0.356   1.501
 4932SOL     OW15694   3.068   3.965   3.349
 4932SOL    HW115695   3.075   4.029   3.273
 4932SOL    HW215696   2.972   3.941   3.365
 4933SOL     OW15697   1.646   0.686   5.423
 4933SOL    HW115698   1.632   0.785   5.435
 4933SOL    HW215699   1.720   0.656   5.483
 4934SOL     OW15700   2.494   6.925   2.950
 4934SOL    HW115701   2.530   6.932   3.043
 4934SOL    HW215702   2.530   7.001   2.895
 4935SOL     OW15703   6.080   0.369   4.816
 4935SOL    HW115704   6.023   0.451   4.814
 4935SOL    HW215705   6.170   0.392   4.852
 4936SOL     OW15706   4.968   3.254   0.707
 4936SOL    HW115707   4.873   3.287   0.710
 4936SOL    HW215708   4.973   3.172   0.650
 4937SOL     OW15709   3.784   2.697   5.400
 4937SOL    HW115710   3.854   2.746   5.348
 4937SOL    HW215711   3.807   2.702   5.497
 4938SOL     OW15712   2.844   4.492   6.876
 4938SOL    HW115713   2.922   4.529   6.927
 4938SOL    HW215714   2.804   4.563   6.820
 4939SOL     OW15715   5.118   3.266   6.460
 4939SOL    HW115716   5.105   3.270   6.360
 4939SOL    HW215717   5.109   3.171   6.491
 4940SOL     OW15718   1.232   5.834   3.736
 4940SOL    HW115719   1.227   5.829   3.835
 4940SOL    HW215720   1.325   5.813   3.706
 4941SOL     OW15721   6.469   0.255   0.564
 4941SOL    HW115722   6.444   0.225   0.657
 4941SOL    HW215723   6.549   0.314   0.569
 4942SOL     OW15724   5.238   2.912   5.958
 4942SOL    HW115725   5.275   2.828   5.919
 4942SOL    HW215726   5.228   2.981   5.886
 4943SOL     OW15727   6.035   3.474   1.155
 4943SOL    HW115728   6.054   3.572   1.157
 4943SOL    HW215729   6.120   3.423   1.167
 4944SOL     OW15730   1.733   3.177   1.578
 4944SOL    HW115731   1.755   3.265   1.621
 4944SOL    HW215732   1.817   3.136   1.542
 4945SOL     OW15733   7.002   5.385   4.024
 4945SOL    HW115734   0.042   5.309   3.992
 4945SOL    HW215735   0.005   5.405   4.119
 4946SOL     OW15736   0.009   4.709   2.065
 4946SOL    HW115737   0.011   4.666   2.156
 4946SOL    HW215738   0.051   4.646   1.999
 4947SOL     OW15739   5.706   0.433   0.591
 4947SOL    HW115740   5.666   0.460   0.503
 4947SOL    HW215741   5.701   0.510   0.655
 4948SOL     OW15742   2.893   1.438   1.908
 4948SOL    HW115743   2.913   1.533   1.932
 4948SOL    HW215744   2.958   1.378   1.955
 4949SOL     OW15745   5.185   2.558   6.054
 4949SOL    HW115746   5.225   2.541   5.964
 4949SOL    HW215747   5.258   2.580   6.119
 4950SOL     OW15748   3.615   5.403   4.056
 4950SOL    HW115749   3.661   5.358   3.979
 4950SOL    HW215750   3.579   5.334   4.119
 4951SOL     OW15751   4.711   2.842   3.926
 4951SOL    HW115752   4.679   2.763   3.977
 4951SOL    HW215753   4.734   2.916   3.989
 4952SOL     OW15754   6.557   5.147   4.145
 4952SOL    HW115755   6.491   5.107   4.208
 4952SOL    HW215756   6.619   5.076   4.112
 4953SOL     OW15757   0.815   4.795   1.716
 4953SOL    HW115758   0.895   4.787   1.774
 4953SOL    HW215759   0.734   4.764   1.766
 4954SOL     OW15760   0.252   6.691   6.112
 4954SOL    HW115761   0.204   6.640   6.041
 4954SOL    HW215762   0.344   6.714   6.080
 4955SOL     OW15763   1.351   0.296   1.955
 4955SOL    HW115764   1.358   0.378   1.900
 4955SOL    HW215765   1.412   0.226   1.919
 4956SOL     OW15766   5.868   6.716   3.207
 4956SOL    HW115767   5.893   6.687   3.300
 4956SOL    HW215768   5.900   6.809   3.192
 4957SOL     OW15769   1.091   5.391   4.564
 4957SOL    HW115770   1.085   5.395   4.464
 4957SOL    HW215771   1.014   5.337   4.600
 4958SOL     OW15772   0.152   6.448   6.922
 4958SOL    HW115773   0.216   6.482   6.991
 4958SOL    HW215774   0.082   6.393   6.966
 4959SOL     OW15775   1.541   1.644   0.128
 4959SOL    HW115776   1.533   1.559   0.074
 4959SOL    HW215777   1.620   1.696   0.096
 4960SOL     OW15778   3.521   6.860   5.484
 4960SOL    HW115779   3.551   6.947   5.523
 4960SOL    HW215780   3.492   6.874   5.390
 4961SOL     OW15781   5.388   0.198   5.058
 4961SOL    HW115782   5.442   0.270   5.100
 4961SOL    HW215783   5.294   0.200   5.093
 4962SOL     OW15784   6.446   2.239   2.652
 4962SOL    HW115785   6.415   2.237   2.748
 4962SOL    HW215786   6.533   2.191   2.644
 4963SOL     OW15787   0.991   4.208   1.459
 4963SOL    HW115788   1.006   4.302   1.491
 4963SOL    HW215789   1.077   4.170   1.425
 4964SOL     OW15790   3.613   1.165   3.260
 4964SOL    HW115791   3.621   1.210   3.171
 4964SOL    HW215792   3.705   1.146   3.296
 4965SOL     OW15793   0.252   5.410   5.526
 4965SOL    HW115794   0.229   5.363   5.441
 4965SOL    HW215795   0.303   5.494   5.506
 4966SOL     OW15796   5.267   5.844   5.173
 4966SOL    HW115797   5.189   5.807   5.123
 4966SOL    HW215798   5.332   5.885   5.109
 4967SOL     OW15799   5.454   0.712   0.261
 4967SOL    HW115800   5.514   0.767   0.204
 4967SOL    HW215801   5.360   0.745   0.253
 4968SOL     OW15802   5.414   3.582   6.489
 4968SOL    HW115803   5.366   3.524   6.554
 4968SOL    HW215804   5.362   3.586   6.403
 4969SOL     OW15805   1.118   1.051   1.233
 4969SOL    HW115806   1.069   0.994   1.299
 4969SOL    HW215807   1.129   1.143   1.270
 4970SOL     OW15808   2.041   2.182   6.471
 4970SOL    HW115809   2.088   2.104   6.429
 4970SOL    HW215810   1.974   2.149   6.537
 4971SOL     OW15811   6.519   5.612   3.841
 4971SOL    HW115812   6.597   5.560   3.877
 4971SOL    HW215813   6.457   5.551   3.793
 4972SOL     OW15814   1.845   2.186   4.596
 4972SOL    HW115815   1.767   2.151   4.544
 4972SOL    HW215816   1.854   2.284   4.582
 4973SOL     OW15817   4.852   5.775   2.954
 4973SOL    HW115818   4.951   5.790   2.966
 4973SOL    HW215819   4.802   5.847   3.002
 4974SOL     OW15820   3.981   6.428   6.284
 4974SOL    HW115821   3.992   6.463   6.191
 4974SOL    HW215822   4.064   6.380   6.312
 4975SOL     OW15823   4.015   6.012   6.620
 4975SOL    HW115824   3.941   6.078   6.607
 4975SOL    HW215825   4.061   6.032   6.706
 4976SOL     OW15826   2.505   1.208   4.846
 4976SOL    HW115827   2.439   1.169   4.782
 4976SOL    HW215828   2.467   1.210   4.938
 4977SOL     OW15829   3.798   3.453   1.755
 4977SOL    HW115830   3.768   3.369   1.710
 4977SOL    HW215831   3.888   3.479   1.719
 4978SOL     OW15832   5.968   3.798   6.254
 4978SOL    HW115833   6.064   3.816   6.273
 4978SOL    HW215834   5.960   3.724   6.188
 4979SOL     OW15835   1.305   1.981   3.505
 4979SOL    HW115836   1.245   2.051   3.466
 4979SOL    HW215837   1.319   1.908   3.437
 4980SOL     OW15838   2.168   4.603   2.750
 4980SOL    HW115839   2.145   4.506   2.745
 4980SOL    HW215840   2.257   4.614   2.795
 4981SOL     OW15841   5.346   5.684   5.368
 4981SOL    HW115842   5.310   5.735   5.290
 4981SOL    HW215843   5.361   5.746   5.445
 4982SOL     OW15844   2.712   1.406   6.473
 4982SOL    HW115845   2.749   1.499   6.476
 4982SOL    HW215846   2.627   1.403   6.525
 4983SOL     OW15847   6.837   1.788   4.037
 4983SOL    HW115848   6.849   1.825   3.944
 4983SOL    HW215849   6.746   1.746   4.044
 4984SOL     OW15850   5.176   5.204   3.590
 4984SOL    HW115851   5.170   5.268   3.666
 4984SOL    HW215852   5.110   5.229   3.520
 4985SOL     OW15853   5.799   3.851   1.273
 4985SOL    HW115854   5.740   3.915   1.223
 4985SOL    HW215855   5.745   3.801   1.341
 4986SOL     OW15856   4.070   5.137   3.546
 4986SOL    HW115857   4.070   5.236   3.531
 4986SOL    HW215858   4.001   5.095   3.487
 4987SOL     OW15859   1.072   2.600   0.233
 4987SOL    HW115860   1.045   2.534   0.303
 4987SOL    HW215861   0.991   2.638   0.188
 4988SOL     OW15862   2.422   1.944   4.776
 4988SOL    HW115863   2.433   2.035   4.816
 4988SOL    HW215864   2.328   1.912   4.793
 4989SOL     OW15865   0.106   0.756   1.401
 4989SOL    HW115866   0.014   0.796   1.396
 4989SOL    HW215867   0.101   0.667   1.447
 4990SOL     OW15868   1.998   2.078   6.865
 4990SOL    HW115869   2.012   2.170   6.829
 4990SOL    HW215870   1.978   2.016   6.789
 4991SOL     OW15871   2.514   1.829   5.851
 4991SOL    HW115872   2.526   1.890   5.929
 4991SOL    HW215873   2.524   1.734   5.881
 4992SOL     OW15874   3.799   0.171   4.587
 4992SOL    HW115875   3.835   0.256   4.626
 4992SOL    HW215876   3.815   0.170   4.489
 4993SOL     OW15877   1.253   6.450   5.009
 4993SOL    HW115878   1.352   6.449   5.024
 4993SOL    HW215879   1.224   6.542   4.985
 4994SOL     OW15880   0.064   5.575   3.483
 4994SOL    HW115881   0.127   5.618   3.548
 4994SOL    HW215882   0.010   5.505   3.530
 4995SOL     OW15883   5.427   2.572   5.243
 4995SOL    HW115884   5.373   2.488   5.252
 4995SOL    HW215885   5.366   2.651   5.247
 4996SOL     OW15886   0.429   2.616   4.086
 4996SOL    HW115887   0.388   2.569   4.164
 4996SOL    HW215888   0.357   2.651   4.026
 4997SOL     OW15889   0.445   2.280   3.667
 4997SOL    HW115890   0.491   2.221   3.601
 4997SOL    HW215891   0.471   2.375   3.650
 4998SOL     OW15892   1.035   5.622   5.808
 4998SOL    HW115893   0.976   5.678   5.750
 4998SOL    HW215894   1.129   5.656   5.802
 4999SOL     OW15895   6.040   5.205   0.761
 4999SOL    HW115896   5.981   5.283   0.739
 4999SOL    HW215897   5.995   5.148   0.830
 5000SOL     OW15898   6.188   5.546   3.791
 5000SOL    HW115899   6.227   5.568   3.880
 5000SOL    HW215900   6.090   5.534   3.799
 5001SOL     OW15901   4.677   3.607   5.523
 5001SOL    HW115902   4.614   3.562   5.459
 5001SOL    HW215903   4.754   3.546   5.542
 5002SOL     OW15904   1.355   2.092   1.584
 5002SOL    HW115905   1.451   2.064   1.573
 5002SOL    HW215906   1.314   2.102   1.493
 5003SOL     OW15907   5.949   5.777   4.593
 5003SOL    HW115908   5.920   5.683   4.575
 5003SOL    HW215909   5.913   5.807   4.681
 5004SOL     OW15910   2.174   4.844   5.688
 5004SOL    HW115911   2.181   4.744   5.691
 5004SOL    HW215912   2.116   4.871   5.611
 5005SOL     OW15913   5.539   2.065   0.075
 5005SOL    HW115914   5.556   2.023   0.164
 5005SOL    HW215915   5.445   2.047   0.047
 5006SOL     OW15916   4.289   5.207   1.651
 5006SOL    HW115917   4.297   5.255   1.564
 5006SOL    HW215918   4.268   5.273   1.724
 5007SOL     OW15919   3.614   0.913   4.495
 5007SOL    HW115920   3.572   0.922   4.405
 5007SOL    HW215921   3.652   1.001   4.524
 5008SOL     OW15922   6.169   2.064   4.155
 5008SOL    HW115923   6.103   2.139   4.154
 5008SOL    HW215924   6.211   2.055   4.065
 5009SOL     OW15925   2.681   6.863   2.221
 5009SOL    HW115926   2.605   6.797   2.221
 5009SOL    HW215927   2.723   6.865   2.312
 5010SOL     OW15928   3.315   3.994   5.945
 5010SOL    HW115929   3.312   4.090   5.971
 5010SOL    HW215930   3.272   3.982   5.855
 5011SOL     OW15931   1.178   1.515   4.777
 5011SOL    HW115932   1.189   1.435   4.719
 5011SOL    HW215933   1.267   1.556   4.796
 5012SOL     OW15934   6.506   2.407   6.875
 5012SOL    HW115935   6.466   2.462   6.801
 5012SOL    HW215936   6.605   2.401   6.861
 5013SOL     OW15937   4.548   1.408   5.433
 5013SOL    HW115938   4.625   1.461   5.471
 5013SOL    HW215939   4.491   1.469   5.377
 5014SOL     OW15940   0.647   4.492   6.271
 5014SOL    HW115941   0.620   4.554   6.198
 5014SOL    HW215942   0.611   4.524   6.358
 5015SOL     OW15943   4.672   2.241   3.787
 5015SOL    HW115944   4.582   2.206   3.811
 5015SOL    HW215945   4.730   2.243   3.868
 5016SOL     OW15946   2.195   5.684   1.633
 5016SOL    HW115947   2.284   5.640   1.630
 5016SOL    HW215948   2.128   5.621   1.673
 5017SOL     OW15949   7.004   2.090   1.254
 5017SOL    HW115950   6.980   2.180   1.219
 5017SOL    HW215951   6.930   2.055   1.310
 5018SOL     OW15952   6.259   5.407   4.423
 5018SOL    HW115953   6.335   5.452   4.471
 5018SOL    HW215954   6.242   5.455   4.337
 5019SOL     OW15955   2.747   5.572   4.750
 5019SOL    HW115956   2.780   5.578   4.844
 5019SOL    HW215957   2.693   5.488   4.739
 5020SOL     OW15958   4.301   5.416   0.203
 5020SOL    HW115959   4.335   5.503   0.167
 5020SOL    HW215960   4.366   5.343   0.183
 5021SOL     OW15961   2.594   4.738   5.534
 5021SOL    HW115962   2.652   4.758   5.455
 5021SOL    HW215963   2.629   4.657   5.582
 5022SOL     OW15964   1.742   2.759   6.203
 5022SOL    HW115965   1.709   2.837   6.255
 5022SOL    HW215966   1.841   2.748   6.218
 5023SOL     OW15967   6.199   3.179   3.805
 5023SOL    HW115968   6.163   3.166   3.897
 5023SOL    HW215969   6.298   3.161   3.805
 5024SOL     OW15970   4.929   3.844   4.873
 5024SOL    HW115971   4.895   3.756   4.907
 5024SOL    HW215972   4.865   3.916   4.898
 5025SOL     OW15973   5.538   6.999   5.126
 5025SOL    HW115974   5.631   0.017   5.119
 5025SOL    HW215975   5.473   0.051   5.097
 5026SOL     OW15976   0.986   5.567   2.399
 5026SOL    HW115977   0.954   5.539   2.490
 5026SOL    HW215978   1.033   5.656   2.407
 5027SOL     OW15979   1.101   5.659   3.466
 5027SOL    HW115980   1.035   5.724   3.504
 5027SOL    HW215981   1.163   5.629   3.538
 5028SOL     OW15982   0.895   6.629   2.534
 5028SOL    HW115983   0.941   6.673   2.457
 5028SOL    HW215984   0.797   6.627   2.518
 5029SOL     OW15985   5.596   0.394   4.383
 5029SOL    HW115986   5.672   0.454   4.359
 5029SOL    HW215987   5.580   0.397   4.482
 5030SOL     OW15988   1.519   5.922   0.585
 5030SOL    HW115989   1.557   5.969   0.665
 5030SOL    HW215990   1.430   5.884   0.608
 5031SOL     OW15991   5.154   0.490   0.165
 5031SOL    HW115992   5.247   0.482   0.129
 5031SOL    HW215993   5.090   0.507   0.090
 5032SOL     OW15994   1.859   5.454   2.758
 5032SOL    HW115995   1.935   5.503   2.715
 5032SOL    HW215996   1.841   5.369   2.708
 5033SOL     OW15997   0.882   4.469   4.605
 5033SOL    HW115998   0.944   4.393   4.585
 5033SOL    HW215999   0.789   4.433   4.615
 5034SOL     OW16000   0.628   2.648   6.019
 5034SOL    HW116001   0.717   2.680   6.051
 5034SOL    HW216002   0.616   2.672   5.923
 5035SOL     OW16003   6.676   5.229   0.822
 5035SOL    HW116004   6.699   5.247   0.917
 5035SOL    HW216005   6.680   5.130   0.805
 5036SOL     OW16006   1.143   1.589   2.935
 5036SOL    HW116007   1.155   1.685   2.961
 5036SOL    HW216008   1.050   1.560   2.957
 5037SOL     OW16009   5.178   3.708   1.214
 5037SOL    HW116010   5.265   3.749   1.188
 5037SOL    HW216011   5.194   3.621   1.260
 5038SOL     OW16012   3.114   5.682   5.631
 5038SOL    HW116013   3.214   5.686   5.640
 5038SOL    HW216014   3.089   5.605   5.573
 5039SOL     OW16015   0.880   3.112   3.728
 5039SOL    HW116016   0.867   3.019   3.761
 5039SOL    HW216017   0.805   3.170   3.761
 5040SOL     OW16018   2.371   3.137   6.817
 5040SOL    HW116019   2.401   3.188   6.736
 5040SOL    HW216020   2.271   3.129   6.816
 5041SOL     OW16021   0.609   5.809   0.070
 5041SOL    HW116022   0.621   5.829   0.167
 5041SOL    HW216023   0.612   5.710   0.056
 5042SOL     OW16024   5.870   0.862   6.371
 5042SOL    HW116025   5.944   0.906   6.421
 5042SOL    HW216026   5.796   0.928   6.356
 5043SOL     OW16027   5.472   6.439   4.071
 5043SOL    HW116028   5.415   6.439   4.153
 5043SOL    HW216029   5.543   6.509   4.079
 5044SOL     OW16030   6.509   4.147   2.081
 5044SOL    HW116031   6.442   4.077   2.055
 5044SOL    HW216032   6.559   4.117   2.162
 5045SOL     OW16033   5.136   2.879   5.543
 5045SOL    HW116034   5.108   2.799   5.595
 5045SOL    HW216035   5.061   2.910   5.485
 5046SOL     OW16036   4.013   2.897   5.990
 5046SOL    HW116037   4.055   2.810   6.014
 5046SOL    HW216038   3.919   2.899   6.022
 5047SOL     OW16039   0.545   1.998   1.685
 5047SOL    HW116040   0.455   1.955   1.687
 5047SOL    HW216041   0.614   1.931   1.714
 5048SOL     OW16042   5.345   4.408   0.501
 5048SOL    HW116043   5.367   4.338   0.569
 5048SOL    HW216044   5.291   4.480   0.543
 5049SOL     OW16045   1.241   0.856   0.918
 5049SOL    HW116046   1.161   0.850   0.978
 5049SOL    HW216047   1.243   0.778   0.856
 5050SOL     OW16048   1.853   3.806   0.784
 5050SOL    HW116049   1.933   3.798   0.844
 5050SOL    HW216050   1.808   3.718   0.775
 5051SOL     OW16051   2.210   4.130   6.195
 5051SOL    HW116052   2.141   4.100   6.129
 5051SOL    HW216053   2.242   4.221   6.170
 5052SOL     OW16054   6.296   3.092   1.099
 5052SOL    HW116055   6.340   3.017   1.049
 5052SOL    HW216056   6.206   3.110   1.059
 5053SOL     OW16057   1.076   3.670   1.480
 5053SOL    HW116058   1.158   3.725   1.462
 5053SOL    HW216059   1.015   3.675   1.401
 5054SOL     OW16060   3.972   5.946   5.005
 5054SOL    HW116061   3.942   5.864   4.956
 5054SOL    HW216062   4.072   5.946   5.013
 5055SOL     OW16063   0.997   0.615   4.248
 5055SOL    HW116064   0.961   0.708   4.242
 5055SOL    HW216065   0.976   0.566   4.164
 5056SOL     OW16066   2.856   1.532   6.208
 5056SOL    HW116067   2.924   1.593   6.248
 5056SOL    HW216068   2.900   1.466   6.148
 5057SOL     OW16069   0.429   3.301   2.323
 5057SOL    HW116070   0.480   3.354   2.256
 5057SOL    HW216071   0.492   3.261   2.389
 5058SOL     OW16072   4.012   2.117   0.145
 5058SOL    HW116073   4.023   2.027   0.103
 5058SOL    HW216074   4.043   2.113   0.240
 5059SOL     OW16075   5.751   2.560   2.340
 5059SOL    HW116076   5.738   2.604   2.429
 5059SOL    HW216077   5.846   2.530   2.331
 5060SOL     OW16078   0.088   2.540   5.556
 5060SOL    HW116079   0.036   2.484   5.492
 5060SOL    HW216080   0.028   2.568   5.632
 5061SOL     OW16081   4.472   3.064   6.080
 5061SOL    HW116082   4.401   3.115   6.128
 5061SOL    HW216083   4.463   2.967   6.100
 5062SOL     OW16084   5.774   1.260   3.111
 5062SOL    HW116085   5.794   1.208   3.194
 5062SOL    HW216086   5.679   1.291   3.114
 5063SOL     OW16087   0.505   1.056   0.325
 5063SOL    HW116088   0.484   0.967   0.365
 5063SOL    HW216089   0.579   1.100   0.377
 5064SOL     OW16090   6.411   5.259   0.490
 5064SOL    HW116091   6.392   5.162   0.507
 5064SOL    HW216092   6.373   5.314   0.565
 5065SOL     OW16093   0.896   2.283   2.679
 5065SOL    HW116094   0.961   2.358   2.672
 5065SOL    HW216095   0.879   2.245   2.588
 5066SOL     OW16096   1.102   4.987   4.030
 5066SOL    HW116097   1.024   5.049   4.037
 5066SOL    HW216098   1.175   5.019   4.090
 5067SOL     OW16099   4.232   3.211   0.989
 5067SOL    HW116100   4.264   3.243   0.900
 5067SOL    HW216101   4.309   3.179   1.043
 5068SOL     OW16102   1.564   6.783   1.303
 5068SOL    HW116103   1.626   6.811   1.230
 5068SOL    HW216104   1.592   6.692   1.337
 5069SOL     OW16105   4.196   4.720   6.155
 5069SOL    HW116106   4.192   4.629   6.113
 5069SOL    HW216107   4.105   4.743   6.190
 5070SOL     OW16108   0.591   3.624   6.727
 5070SOL    HW116109   0.652   3.701   6.709
 5070SOL    HW216110   0.497   3.657   6.732
 5071SOL     OW16111   1.576   6.298   2.665
 5071SOL    HW116112   1.594   6.356   2.744
 5071SOL    HW216113   1.480   6.270   2.665
 5072SOL     OW16114   0.494   2.202   2.516
 5072SOL    HW116115   0.586   2.241   2.530
 5072SOL    HW216116   0.501   2.102   2.509
 5073SOL     OW16117   1.884   1.788   4.227
 5073SOL    HW116118   1.980   1.766   4.247
 5073SOL    HW216119   1.878   1.831   4.137
 5074SOL     OW16120   3.850   1.969   1.399
 5074SOL    HW116121   3.916   1.907   1.442
 5074SOL    HW216122   3.816   2.033   1.468
 5075SOL     OW16123   6.330   2.029   6.663
 5075SOL    HW116124   6.288   2.048   6.752
 5075SOL    HW216125   6.263   2.045   6.590
 5076SOL     OW16126   0.019   1.549   6.062
 5076SOL    HW116127   0.069   1.568   5.977
 5076SOL    HW216128   0.016   1.451   6.078
 5077SOL     OW16129   0.618   4.920   4.357
 5077SOL    HW116130   0.608   5.019   4.344
 5077SOL    HW216131   0.652   4.902   4.449
 5078SOL     OW16132   6.187   1.485   2.841
 5078SOL    HW116133   6.113   1.417   2.846
 5078SOL    HW216134   6.151   1.575   2.864
 5079SOL     OW16135   1.662   3.508   5.993
 5079SOL    HW116136   1.660   3.413   6.025
 5079SOL    HW216137   1.728   3.517   5.919
 5080SOL     OW16138   6.366   5.985   6.943
 5080SOL    HW116139   6.414   6.041   7.010
 5080SOL    HW216140   6.273   5.968   6.974
 5081SOL     OW16141   3.353   4.595   5.649
 5081SOL    HW116142   3.425   4.650   5.691
 5081SOL    HW216143   3.280   4.579   5.716
 5082SOL     OW16144   5.575   0.056   2.820
 5082SOL    HW116145   5.508   0.115   2.865
 5082SOL    HW216146   5.563   0.060   2.721
 5083SOL     OW16147   0.354   0.422   3.334
 5083SOL    HW116148   0.297   0.466   3.403
 5083SOL    HW216149   0.445   0.464   3.334
 5084SOL     OW16150   3.697   5.349   6.009
 5084SOL    HW116151   3.719   5.445   5.995
 5084SOL    HW216152   3.612   5.342   6.062
 5085SOL     OW16153   0.959   3.654   6.742
 5085SOL    HW116154   0.875   3.702   6.714
 5085SOL    HW216155   0.943   3.608   6.830
 5086SOL     OW16156   0.989   4.698   2.100
 5086SOL    HW116157   0.944   4.763   2.162
 5086SOL    HW216158   0.936   4.614   2.098
 5087SOL     OW16159   6.500   5.395   1.531
 5087SOL    HW116160   6.543   5.311   1.496
 5087SOL    HW216161   6.455   5.443   1.457
 5088SOL     OW16162   4.071   4.978   2.341
 5088SOL    HW116163   4.063   5.013   2.248
 5088SOL    HW216164   4.025   4.889   2.347
 5089SOL     OW16165   5.121   5.719   5.969
 5089SOL    HW116166   5.088   5.625   5.966
 5089SOL    HW216167   5.124   5.752   6.063
 5090SOL     OW16168   2.345   6.628   4.347
 5090SOL    HW116169   2.399   6.684   4.411
 5090SOL    HW216170   2.367   6.532   4.360
 5091SOL     OW16171   6.405   5.711   5.134
 5091SOL    HW116172   6.470   5.638   5.154
 5091SOL    HW216173   6.312   5.673   5.128
 5092SOL     OW16174   3.803   3.071   4.600
 5092SOL    HW116175   3.787   3.007   4.525
 5092SOL    HW216176   3.793   3.022   4.687
 5093SOL     OW16177   3.237   2.078   3.653
 5093SOL    HW116178   3.315   2.073   3.716
 5093SOL    HW216179   3.270   2.071   3.559
 5094SOL     OW16180   2.446   4.811   4.792
 5094SOL    HW116181   2.520   4.787   4.854
 5094SOL    HW216182   2.385   4.733   4.780
 5095SOL     OW16183   5.851   1.875   3.067
 5095SOL    HW116184   5.835   1.861   3.164
 5095SOL    HW216185   5.855   1.973   3.047
 5096SOL     OW16186   5.838   2.833   5.332
 5096SOL    HW116187   5.841   2.789   5.243
 5096SOL    HW216188   5.902   2.788   5.394
 5097SOL     OW16189   0.957   0.110   6.259
 5097SOL    HW116190   0.887   0.040   6.246
 5097SOL    HW216191   1.035   0.071   6.307
 5098SOL     OW16192   2.930   2.037   0.871
 5098SOL    HW116193   3.009   1.983   0.902
 5098SOL    HW216194   2.959   2.098   0.797
 5099SOL     OW16195   1.709   5.574   2.006
 5099SOL    HW116196   1.700   5.476   2.025
 5099SOL    HW216197   1.805   5.601   2.015
 5100SOL     OW16198   6.513   3.529   1.339
 5100SOL    HW116199   6.612   3.523   1.349
 5100SOL    HW216200   6.485   3.488   1.253
 5101SOL     OW16201   4.355   2.174   6.025
 5101SOL    HW116202   4.316   2.082   6.019
 5101SOL    HW216203   4.331   2.226   5.943
 5102SOL     OW16204   5.268   4.432   5.333
 5102SOL    HW116205   5.283   4.407   5.237
 5102SOL    HW216206   5.356   4.429   5.382
 5103SOL     OW16207   0.480   0.258   5.470
 5103SOL    HW116208   0.445   0.218   5.555
 5103SOL    HW216209   0.460   0.356   5.469
 5104SOL     OW16210   3.577   3.160   3.588
 5104SOL    HW116211   3.503   3.217   3.623
 5104SOL    HW216212   3.602   3.190   3.496
 5105SOL     OW16213   4.467   2.845   6.860
 5105SOL    HW116214   4.437   2.754   6.833
 5105SOL    HW216215   4.391   2.910   6.849
 5106SOL     OW16216   4.056   0.700   1.782
 5106SOL    HW116217   4.133   0.763   1.787
 5106SOL    HW216218   3.978   0.747   1.740
 5107SOL     OW16219   6.203   4.525   6.494
 5107SOL    HW116220   6.120   4.483   6.458
 5107SOL    HW216221   6.207   4.512   6.593
 5108SOL     OW16222   4.307   4.147   1.185
 5108SOL    HW116223   4.374   4.075   1.164
 5108SOL    HW216224   4.336   4.196   1.268
 5109SOL     OW16225   1.758   2.363   1.937
 5109SOL    HW116226   1.687   2.326   1.997
 5109SOL    HW216227   1.731   2.454   1.905
 5110SOL     OW16228   3.280   6.039   4.908
 5110SOL    HW116229   3.332   6.123   4.892
 5110SOL    HW216230   3.325   5.962   4.863
 5111SOL     OW16231   2.542   6.078   6.272
 5111SOL    HW116232   2.464   6.049   6.216
 5111SOL    HW216233   2.529   6.172   6.302
 5112SOL     OW16234   1.011   3.815   2.542
 5112SOL    HW116235   1.084   3.865   2.495
 5112SOL    HW216236   0.956   3.878   2.596
 5113SOL     OW16237   2.660   4.530   1.229
 5113SOL    HW116238   2.743   4.485   1.199
 5113SOL    HW216239   2.630   4.490   1.316
 5114SOL     OW16240   4.749   4.480   1.242
 5114SOL    HW116241   4.803   4.470   1.158
 5114SOL    HW216242   4.762   4.572   1.278
 5115SOL     OW16243   1.682   3.980   0.354
 5115SOL    HW116244   1.710   4.016   0.443
 5115SOL    HW216245   1.668   4.056   0.290
 5116SOL     OW16246   0.009   6.688   5.645
 5116SOL    HW116247   0.062   6.640   5.714
 5116SOL    HW216248   0.005   6.785   5.669
 5117SOL     OW16249   6.970   3.482   4.380
 5117SOL    HW116250   6.996   3.567   4.427
 5117SOL    HW216251   6.966   3.499   4.281
 5118SOL     OW16252   4.750   5.202   6.956
 5118SOL    HW116253   4.843   5.168   6.967
 5118SOL    HW216254   4.747   5.300   6.978
 5119SOL     OW16255   5.350   1.365   0.364
 5119SOL    HW116256   5.417   1.349   0.291
 5119SOL    HW216257   5.380   1.317   0.447
 5120SOL     OW16258   5.598   6.727   6.586
 5120SOL    HW116259   5.566   6.819   6.609
 5120SOL    HW216260   5.677   6.733   6.525
 5121SOL     OW16261   2.588   3.725   0.011
 5121SOL    HW116262   2.503   3.754   0.054
 5121SOL    HW216263   2.651   3.692   0.081
 5122SOL     OW16264   5.502   5.522   3.410
 5122SOL    HW116265   5.569   5.493   3.479
 5122SOL    HW216266   5.458   5.607   3.441
 5123SOL     OW16267   4.230   1.947   1.462
 5123SOL    HW116268   4.330   1.953   1.461
 5123SOL    HW216269   4.192   2.018   1.404
 5124SOL     OW16270   0.655   5.736   4.592
 5124SOL    HW116271   0.573   5.698   4.634
 5124SOL    HW216272   0.662   5.834   4.614
 5125SOL     OW16273   4.912   2.551   4.092
 5125SOL    HW116274   4.971   2.626   4.062
 5125SOL    HW216275   4.922   2.538   4.190
 5126SOL     OW16276   2.636   0.780   2.381
 5126SOL    HW116277   2.656   0.872   2.415
 5126SOL    HW216278   2.601   0.786   2.287
 5127SOL     OW16279   2.143   6.422   0.970
 5127SOL    HW116280   2.099   6.480   1.038
 5127SOL    HW216281   2.191   6.478   0.903
 5128SOL     OW16282   4.245   0.399   2.149
 5128SOL    HW116283   4.259   0.330   2.220
 5128SOL    HW216284   4.284   0.366   2.063
 5129SOL     OW16285   6.092   5.376   0.116
 5129SOL    HW116286   6.052   5.378   0.208
 5129SOL    HW216287   6.174   5.433   0.115
 5130SOL     OW16288   6.142   4.981   2.243
 5130SOL    HW116289   6.178   4.894   2.210
 5130SOL    HW216290   6.197   5.012   2.320
 5131SOL     OW16291   2.442   2.028   1.908
 5131SOL    HW116292   2.528   2.071   1.937
 5131SOL    HW216293   2.385   2.011   1.988
 5132SOL     OW16294   2.524   5.851   5.495
 5132SOL    HW116295   2.443   5.889   5.451
 5132SOL    HW216296   2.604   5.904   5.468
 5133SOL     OW16297   3.963   6.037   4.603
 5133SOL    HW116298   4.011   5.951   4.584
 5133SOL    HW216299   3.913   6.066   4.522
 5134SOL     OW16300   1.086   2.550   6.752
 5134SOL    HW116301   1.104   2.487   6.828
 5134SOL    HW216302   1.013   2.614   6.779
 5135SOL     OW16303   6.281   1.389   3.201
 5135SOL    HW116304   6.263   1.379   3.103
 5135SOL    HW216305   6.227   1.322   3.252
 5136SOL     OW16306   3.667   2.044   6.550
 5136SOL    HW116307   3.756   2.011   6.519
 5136SOL    HW216308   3.677   2.135   6.589
 5137SOL     OW16309   4.371   3.431   6.828
 5137SOL    HW116310   4.362   3.435   6.928
 5137SOL    HW216311   4.448   3.488   6.799
 5138SOL     OW16312   2.532   3.108   5.699
 5138SOL    HW116313   2.517   3.010   5.685
 5138SOL    HW216314   2.494   3.135   5.788
 5139SOL     OW16315   0.761   6.659   4.414
 5139SOL    HW116316   0.825   6.690   4.484
 5139SOL    HW216317   0.811   6.608   4.344
 5140SOL     OW16318   3.486   3.260   2.426
 5140SOL    HW116319   3.510   3.163   2.428
 5140SOL    HW216320   3.388   3.270   2.406
 5141SOL     OW16321   1.234   3.355   5.274
 5141SOL    HW116322   1.172   3.428   5.302
 5141SOL    HW216323   1.199   3.267   5.306
 5142SOL     OW16324   5.324   3.563   1.821
 5142SOL    HW116325   5.263   3.641   1.837
 5142SOL    HW216326   5.284   3.481   1.862
 5143SOL     OW16327   0.123   5.146   6.002
 5143SOL    HW116328   0.107   5.244   6.008
 5143SOL    HW216329   0.219   5.126   6.021
 5144SOL     OW16330   2.121   1.255   5.093
 5144SOL    HW116331   2.083   1.199   5.167
 5144SOL    HW216332   2.121   1.351   5.121
 5145SOL     OW16333   3.377   5.182   6.859
 5145SOL    HW116334   3.288   5.147   6.833
 5145SOL    HW216335   3.366   5.270   6.906
 5146SOL     OW16336   3.692   5.331   1.367
 5146SOL    HW116337   3.716   5.427   1.353
 5146SOL    HW216338   3.594   5.323   1.383
 5147SOL     OW16339   0.836   5.268   6.010
 5147SOL    HW116340   0.821   5.176   5.974
 5147SOL    HW216341   0.927   5.273   6.051
 5148SOL     OW16342   0.102   0.412   1.407
 5148SOL    HW116343   0.151   0.450   1.486
 5148SOL    HW216344   0.005   0.431   1.417
 5149SOL     OW16345   6.651   0.720   5.355
 5149SOL    HW116346   6.749   0.739   5.344
 5149SOL    HW216347   6.639   0.640   5.412
 5150SOL     OW16348   2.762   5.312   5.631
 5150SOL    HW116349   2.778   5.408   5.652
 5150SOL    HW216350   2.670   5.286   5.661
 5151SOL     OW16351   4.904   0.714   5.860
 5151SOL    HW116352   4.875   0.807   5.834
 5151SOL    HW216353   4.883   0.651   5.785
 5152SOL     OW16354   6.625   4.560   6.434
 5152SOL    HW116355   6.638   4.549   6.336
 5152SOL    HW216356   6.683   4.634   6.467
 5153SOL     OW16357   3.262   3.326   1.130
 5153SOL    HW116358   3.255   3.423   1.156
 5153SOL    HW216359   3.250   3.268   1.210
 5154SOL     OW16360   0.591   4.188   5.489
 5154SOL    HW116361   0.687   4.181   5.460
 5154SOL    HW216362   0.580   4.142   5.577
 5155SOL     OW16363   4.046   0.592   2.161
 5155SOL    HW116364   4.122   0.528   2.167
 5155SOL    HW216365   3.970   0.559   2.216
 5156SOL     OW16366   5.499   3.582   5.515
 5156SOL    HW116367   5.462   3.558   5.425
 5156SOL    HW216368   5.502   3.681   5.524
 5157SOL     OW16369   6.515   2.303   3.870
 5157SOL    HW116370   6.444   2.255   3.819
 5157SOL    HW216371   6.474   2.353   3.946
 5158SOL     OW16372   3.896   0.522   1.921
 5158SOL    HW116373   3.958   0.584   1.873
 5158SOL    HW216374   3.861   0.566   2.003
 5159SOL     OW16375   1.753   3.863   5.020
 5159SOL    HW116376   1.756   3.951   4.972
 5159SOL    HW216377   1.767   3.789   4.954
 5160SOL     OW16378   2.591   2.511   3.625
 5160SOL    HW116379   2.559   2.535   3.717
 5160SOL    HW216380   2.687   2.483   3.630
 5161SOL     OW16381   1.744   3.174   7.004
 5161SOL    HW116382   1.838   3.208   7.008
 5161SOL    HW216383   1.688   3.226   0.050
 5162SOL     OW16384   6.612   5.850   4.968
 5162SOL    HW116385   6.671   5.889   5.039
 5162SOL    HW216386   6.532   5.808   5.010
 5163SOL     OW16387   6.244   4.129   0.871
 5163SOL    HW116388   6.286   4.089   0.790
 5163SOL    HW216389   6.163   4.182   0.843
 5164SOL     OW16390   6.968   6.544   4.818
 5164SOL    HW116391   0.028   6.527   4.880
 5164SOL    HW216392   7.000   6.595   4.738
 5165SOL     OW16393   5.211   4.535   5.616
 5165SOL    HW116394   5.153   4.614   5.594
 5165SOL    HW216395   5.281   4.525   5.545
 5166SOL     OW16396   0.381   6.907   3.084
 5166SOL    HW116397   0.421   6.838   3.145
 5166SOL    HW216398   0.451   6.939   3.020
 5167SOL     OW16399   1.955   0.088   5.342
 5167SOL    HW116400   1.951   0.035   5.257
 5167SOL    HW216401   1.940   0.184   5.321
 5168SOL     OW16402   3.236   2.033   2.287
 5168SOL    HW116403   3.219   2.110   2.225
 5168SOL    HW216404   3.148   1.993   2.314
 5169SOL     OW16405   3.778   5.233   6.808
 5169SOL    HW116406   3.854   5.211   6.747
 5169SOL    HW216407   3.692   5.219   6.759
 5170SOL     OW16408   4.514   5.428   4.047
 5170SOL    HW116409   4.560   5.412   3.959
 5170SOL    HW216410   4.575   5.404   4.122
 5171SOL     OW16411   2.675   4.389   5.294
 5171SOL    HW116412   2.766   4.409   5.257
 5171SOL    HW216413   2.606   4.435   5.238
 5172SOL     OW16414   1.722   3.645   6.229
 5172SOL    HW116415   1.706   3.599   6.317
 5172SOL    HW216416   1.683   3.590   6.155
 5173SOL     OW16417   0.722   2.110   4.531
 5173SOL    HW116418   0.688   2.117   4.438
 5173SOL    HW216419   0.821   2.118   4.531
 5174SOL     OW16420   3.180   5.491   6.829
 5174SOL    HW116421   3.216   5.523   6.741
 5174SOL    HW216422   3.108   5.424   6.813
 5175SOL     OW16423   0.949   5.693   0.083
 5175SOL    HW116424   0.948   5.633   0.004
 5175SOL    HW216425   0.884   5.658   0.152
 5176SOL     OW16426   5.955   3.209   6.688
 5176SOL    HW116427   5.859   3.184   6.700
 5176SOL    HW216428   5.961   3.297   6.641
 5177SOL     OW16429   4.409   5.021   6.750
 5177SOL    HW116430   4.348   4.942   6.759
 5177SOL    HW216431   4.491   5.006   6.805
 5178SOL     OW16432   3.874   4.502   0.451
 5178SOL    HW116433   3.879   4.506   0.351
 5178SOL    HW216434   3.904   4.589   0.489
 5179SOL     OW16435   2.663   6.269   5.394
 5179SOL    HW116436   2.566   6.278   5.418
 5179SOL    HW216437   2.720   6.307   5.467
 5180SOL     OW16438   4.957   1.387   6.694
 5180SOL    HW116439   5.020   1.462   6.716
 5180SOL    HW216440   4.997   1.329   6.623
 5181SOL     OW16441   3.274   6.147   2.719
 5181SOL    HW116442   3.219   6.066   2.735
 5181SOL    HW216443   3.214   6.224   2.694
 5182SOL     OW16444   4.920   4.364   0.735
 5182SOL    HW116445   4.909   4.359   0.636
 5182SOL    HW216446   4.958   4.279   0.769
 5183SOL     OW16447   3.328   0.904   3.663
 5183SOL    HW116448   3.352   0.946   3.575
 5183SOL    HW216449   3.328   0.974   3.734
 5184SOL     OW16450   1.151   1.894   2.848
 5184SOL    HW116451   1.081   1.960   2.819
 5184SOL    HW216452   1.233   1.944   2.876
 5185SOL     OW16453   3.974   0.245   1.969
 5185SOL    HW116454   3.966   0.344   1.980
 5185SOL    HW216455   3.992   0.203   2.058
 5186SOL     OW16456   5.723   4.113   6.956
 5186SOL    HW116457   5.783   4.085   6.882
 5186SOL    HW216458   5.774   4.116   0.024
 5187SOL     OW16459   5.142   3.991   4.066
 5187SOL    HW116460   5.173   4.084   4.089
 5187SOL    HW216461   5.117   3.943   4.150
 5188SOL     OW16462   0.749   1.085   3.675
 5188SOL    HW116463   0.728   1.013   3.609
 5188SOL    HW216464   0.815   1.149   3.635
 5189SOL     OW16465   4.766   4.875   5.634
 5189SOL    HW116466   4.798   4.837   5.548
 5189SOL    HW216467   4.747   4.972   5.623
 5190SOL     OW16468   1.940   2.261   2.466
 5190SOL    HW116469   2.027   2.306   2.448
 5190SOL    HW216470   1.952   2.162   2.468
 5191SOL     OW16471   4.831   1.212   2.304
 5191SOL    HW116472   4.899   1.285   2.296
 5191SOL    HW216473   4.875   1.124   2.288
 5192SOL     OW16474   6.779   4.359   1.351
 5192SOL    HW116475   6.745   4.296   1.421
 5192SOL    HW216476   6.853   4.315   1.300
 5193SOL     OW16477   3.770   5.351   3.098
 5193SOL    HW116478   3.806   5.258   3.094
 5193SOL    HW216479   3.752   5.376   3.194
 5194SOL     OW16480   4.996   0.761   0.373
 5194SOL    HW116481   5.070   0.732   0.313
 5194SOL    HW216482   5.009   0.856   0.399
 5195SOL     OW16483   0.488   4.991   5.402
 5195SOL    HW116484   0.553   4.977   5.328
 5195SOL    HW216485   0.507   5.078   5.448
 5196SOL     OW16486   1.437   3.186   3.502
 5196SOL    HW116487   1.475   3.179   3.594
 5196SOL    HW216488   1.369   3.260   3.499
 5197SOL     OW16489   3.735   5.963   5.174
 5197SOL    HW116490   3.740   5.871   5.214
 5197SOL    HW216491   3.824   5.988   5.137
 5198SOL     OW16492   4.374   0.933   6.061
 5198SOL    HW116493   4.279   0.944   6.032
 5198SOL    HW216494   4.399   0.836   6.054
 5199SOL     OW16495   0.418   6.218   2.577
 5199SOL    HW116496   0.420   6.119   2.565
 5199SOL    HW216497   0.340   6.257   2.528
 5200SOL     OW16498   5.925   6.569   5.367
 5200SOL    HW116499   5.880   6.487   5.333
 5200SOL    HW216500   5.904   6.646   5.307
 5201SOL     OW16501   6.635   3.891   5.367
 5201SOL    HW116502   6.630   3.802   5.412
 5201SOL    HW216503   6.702   3.948   5.413
 5202SOL     OW16504   3.890   2.363   6.013
 5202SOL    HW116505   3.827   2.338   6.086
 5202SOL    HW216506   3.951   2.286   5.994
 5203SOL     OW16507   0.583   0.634   5.940
 5203SOL    HW116508   0.668   0.584   5.959
 5203SOL    HW216509   0.505   0.579   5.967
 5204SOL     OW16510   2.155   0.331   2.321
 5204SOL    HW116511   2.224   0.290   2.261
 5204SOL    HW216512   2.064   0.298   2.295
 5205SOL     OW16513   6.408   0.024   1.958
 5205SOL    HW116514   6.454   0.009   2.046
 5205SOL    HW216515   6.476   0.048   1.889
 5206SOL     OW16516   0.839   5.088   5.424
 5206SOL    HW116517   0.917   5.089   5.486
 5206SOL    HW216518   0.870   5.078   5.330
 5207SOL     OW16519   4.812   1.707   4.751
 5207SOL    HW116520   4.727   1.694   4.700
 5207SOL    HW216521   4.827   1.628   4.811
 5208SOL     OW16522   6.795   1.793   0.155
 5208SOL    HW116523   6.717   1.731   0.167
 5208SOL    HW216524   6.879   1.740   0.143
 5209SOL     OW16525   5.304   5.963   2.531
 5209SOL    HW116526   5.207   5.984   2.542
 5209SOL    HW216527   5.352   6.042   2.494
 5210SOL     OW16528   6.574   4.280   1.571
 5210SOL    HW116529   6.502   4.221   1.607
 5210SOL    HW216530   6.663   4.242   1.597
 5211SOL     OW16531   4.836   3.057   4.536
 5211SOL    HW116532   4.864   3.044   4.441
 5211SOL    HW216533   4.895   3.125   4.580
 5212SOL     OW16534   6.641   3.707   6.827
 5212SOL    HW116535   6.589   3.660   6.899
 5212SOL    HW216536   6.589   3.785   6.794
 5213SOL     OW16537   3.541   3.175   4.308
 5213SOL    HW116538   3.598   3.223   4.375
 5213SOL    HW216539   3.446   3.206   4.318
 5214SOL     OW16540   5.968   2.646   5.502
 5214SOL    HW116541   6.035   2.717   5.482
 5214SOL    HW216542   6.011   2.575   5.558
 5215SOL     OW16543   0.849   4.957   4.953
 5215SOL    HW116544   0.779   4.886   4.943
 5215SOL    HW216545   0.880   4.987   4.863
 5216SOL     OW16546   6.967   4.295   0.351
 5216SOL    HW116547   6.918   4.239   0.283
 5216SOL    HW216548   6.940   4.267   0.443
 5217SOL     OW16549   3.207   0.787   2.407
 5217SOL    HW116550   3.290   0.843   2.401
 5217SOL    HW216551   3.129   0.846   2.427
 5218SOL     OW16552   6.153   0.203   0.805
 5218SOL    HW116553   6.144   0.287   0.751
 5218SOL    HW216554   6.065   0.181   0.846
 5219SOL     OW16555   4.223   1.821   4.784
 5219SOL    HW116556   4.219   1.854   4.690
 5219SOL    HW216557   4.318   1.810   4.812
 5220SOL     OW16558   2.043   4.409   4.473
 5220SOL    HW116559   1.949   4.422   4.505
 5220SOL    HW216560   2.045   4.341   4.401
 5221SOL     OW16561   4.082   6.380   0.489
 5221SOL    HW116562   3.985   6.388   0.514
 5221SOL    HW216563   4.139   6.391   0.570
 5222SOL     OW16564   5.657   2.829   2.314
 5222SOL    HW116565   5.580   2.805   2.255
 5222SOL    HW216566   5.743   2.803   2.269
 5223SOL     OW16567   6.830   2.045   0.773
 5223SOL    HW116568   6.925   2.068   0.748
 5223SOL    HW216569   6.770   2.065   0.696
 5224SOL     OW16570   1.865   1.552   4.535
 5224SOL    HW116571   1.806   1.579   4.610
 5224SOL    HW216572   1.886   1.632   4.478
 5225SOL     OW16573   6.706   2.574   5.790
 5225SOL    HW116574   6.666   2.532   5.709
 5225SOL    HW216575   6.646   2.560   5.868
 5226SOL     OW16576   0.152   0.148   4.217
 5226SOL    HW116577   0.154   0.084   4.294
 5226SOL    HW216578   0.071   0.131   4.161
 5227SOL     OW16579   2.581   2.661   6.463
 5227SOL    HW116580   2.492   2.700   6.438
 5227SOL    HW216581   2.569   2.567   6.493
 5228SOL     OW16582   0.753   2.153   5.686
 5228SOL    HW116583   0.835   2.202   5.657
 5228SOL    HW216584   0.680   2.168   5.619
 5229SOL     OW16585   3.603   1.236   0.781
 5229SOL    HW116586   3.646   1.152   0.815
 5229SOL    HW216587   3.525   1.259   0.839
 5230SOL     OW16588   6.331   0.764   2.223
 5230SOL    HW116589   6.268   0.687   2.215
 5230SOL    HW216590   6.425   0.732   2.212
 5231SOL     OW16591   6.720   3.974   1.961
 5231SOL    HW116592   6.789   4.047   1.962
 5231SOL    HW216593   6.633   4.011   1.995
 5232SOL     OW16594   1.751   1.767   6.204
 5232SOL    HW116595   1.667   1.810   6.236
 5232SOL    HW216596   1.742   1.744   6.107
 5233SOL     OW16597   2.160   6.625   3.524
 5233SOL    HW116598   2.250   6.661   3.548
 5233SOL    HW216599   2.092   6.698   3.533
 5234SOL     OW16600   3.846   2.454   6.312
 5234SOL    HW116601   3.873   2.550   6.322
 5234SOL    HW216602   3.786   2.428   6.387
 5235SOL     OW16603   2.464   2.988   1.542
 5235SOL    HW116604   2.459   2.895   1.506
 5235SOL    HW216605   2.533   2.992   1.615
 5236SOL     OW16606   3.036   5.094   1.974
 5236SOL    HW116607   3.009   5.170   1.916
 5236SOL    HW216608   2.959   5.031   1.984
 5237SOL     OW16609   1.623   1.292   1.472
 5237SOL    HW116610   1.584   1.316   1.561
 5237SOL    HW216611   1.558   1.316   1.400
 5238SOL     OW16612   6.303   1.119   3.283
 5238SOL    HW116613   6.229   1.141   3.347
 5238SOL    HW216614   6.391   1.139   3.325
 5239SOL     OW16615   2.829   4.048   6.725
 5239SOL    HW116616   2.746   3.998   6.748
 5239SOL    HW216617   2.837   4.054   6.625
 5240SOL     OW16618   1.337   3.928   5.083
 5240SOL    HW116619   1.360   4.020   5.051
 5240SOL    HW216620   1.307   3.932   5.178
 5241SOL     OW16621   2.380   5.138   3.299
 5241SOL    HW116622   2.406   5.068   3.232
 5241SOL    HW216623   2.318   5.204   3.256
 5242SOL     OW16624   4.072   6.277   5.812
 5242SOL    HW116625   4.103   6.364   5.775
 5242SOL    HW216626   4.098   6.203   5.749
 5243SOL     OW16627   2.027   5.550   3.804
 5243SOL    HW116628   2.094   5.536   3.731
 5243SOL    HW216629   2.062   5.510   3.889
 5244SOL     OW16630   5.424   0.064   6.934
 5244SOL    HW116631   5.365   0.010   6.994
 5244SOL    HW216632   5.412   0.033   6.839
 5245SOL     OW16633   3.145   3.609   1.234
 5245SOL    HW116634   3.130   3.540   1.306
 5245SOL    HW216635   3.151   3.699   1.276
 5246SOL     OW16636   6.430   2.396   5.705
 5246SOL    HW116637   6.492   2.320   5.725
 5246SOL    HW216638   6.426   2.457   5.784
 5247SOL     OW16639   4.886   1.121   5.433
 5247SOL    HW116640   4.864   1.024   5.425
 5247SOL    HW216641   4.984   1.135   5.425
 5248SOL     OW16642   3.911   0.801   2.417
 5248SOL    HW116643   3.852   0.873   2.380
 5248SOL    HW216644   3.874   0.712   2.391
 5249SOL     OW16645   0.299   5.908   2.240
 5249SOL    HW116646   0.350   5.886   2.158
 5249SOL    HW216647   0.209   5.864   2.237
 5250SOL     OW16648   1.350   5.306   0.091
 5250SOL    HW116649   1.359   5.401   0.061
 5250SOL    HW216650   1.412   5.249   0.038
 5251SOL     OW16651   1.647   4.043   6.108
 5251SOL    HW116652   1.547   4.039   6.098
 5251SOL    HW216653   1.676   4.137   6.121
 5252SOL     OW16654   3.969   6.150   3.463
 5252SOL    HW116655   4.012   6.178   3.549
 5252SOL    HW216656   4.021   6.187   3.386
 5253SOL     OW16657   0.471   6.436   5.063
 5253SOL    HW116658   0.538   6.424   4.990
 5253SOL    HW216659   0.508   6.402   5.149
 5254SOL     OW16660   4.533   6.169   1.835
 5254SOL    HW116661   4.461   6.099   1.833
 5254SOL    HW216662   4.568   6.183   1.742
 5255SOL     OW16663   0.416   1.468   6.295
 5255SOL    HW116664   0.328   1.515   6.285
 5255SOL    HW216665   0.490   1.531   6.270
 5256SOL     OW16666   4.410   1.979   2.664
 5256SOL    HW116667   4.493   2.005   2.614
 5256SOL    HW216668   4.405   1.879   2.670
 5257SOL     OW16669   5.931   0.897   0.135
 5257SOL    HW116670   5.862   0.884   0.064
 5257SOL    HW216671   5.959   0.993   0.137
 5258SOL     OW16672   5.854   1.941   5.158
 5258SOL    HW116673   5.807   1.907   5.076
 5258SOL    HW216674   5.793   1.999   5.210
 5259SOL     OW16675   4.288   6.324   4.430
 5259SOL    HW116676   4.228   6.368   4.363
 5259SOL    HW216677   4.234   6.289   4.506
 5260SOL     OW16678   1.095   6.593   2.040
 5260SOL    HW116679   1.102   6.661   1.966
 5260SOL    HW216680   1.146   6.511   2.015
 5261SOL     OW16681   6.515   4.251   6.882
 5261SOL    HW116682   6.529   4.169   6.826
 5261SOL    HW216683   6.531   4.332   6.825
 5262SOL     OW16684   1.926   2.263   2.110
 5262SOL    HW116685   1.872   2.297   2.033
 5262SOL    HW216686   1.885   2.178   2.144
 5263SOL     OW16687   0.177   6.166   2.211
 5263SOL    HW116688   0.206   6.183   2.117
 5263SOL    HW216689   0.241   6.102   2.255
 5264SOL     OW16690   6.298   2.633   2.430
 5264SOL    HW116691   6.275   2.552   2.484
 5264SOL    HW216692   6.397   2.650   2.437
 5265SOL     OW16693   1.071   6.005   5.984
 5265SOL    HW116694   1.101   6.034   6.075
 5265SOL    HW216695   1.041   5.910   5.988
 5266SOL     OW16696   0.691   0.148   6.535
 5266SOL    HW116697   0.763   0.217   6.522
 5266SOL    HW216698   0.628   0.151   6.458
 5267SOL     OW16699   6.329   1.705   4.693
 5267SOL    HW116700   6.286   1.780   4.643
 5267SOL    HW216701   6.422   1.730   4.718
 5268SOL     OW16702   5.135   0.610   5.992
 5268SOL    HW116703   5.191   0.692   5.979
 5268SOL    HW216704   5.054   0.616   5.935
 5269SOL     OW16705   1.314   0.365   4.175
 5269SOL    HW116706   1.287   0.444   4.121
 5269SOL    HW216707   1.413   0.355   4.174
 5270SOL     OW16708   1.743   1.735   6.896
 5270SOL    HW116709   1.712   1.641   6.878
 5270SOL    HW216710   1.838   1.734   6.927
 5271SOL     OW16711   1.576   6.150   6.597
 5271SOL    HW116712   1.667   6.192   6.599
 5271SOL    HW216713   1.529   6.170   6.683
 5272SOL     OW16714   4.250   0.092   6.040
 5272SOL    HW116715   4.337   0.065   5.997
 5272SOL    HW216716   4.174   0.066   5.981
 5273SOL     OW16717   1.960   1.838   3.515
 5273SOL    HW116718   1.952   1.856   3.417
 5273SOL    HW216719   2.027   1.900   3.555
 5274SOL     OW16720   6.362   4.992   0.637
 5274SOL    HW116721   6.274   4.943   0.634
 5274SOL    HW216722   6.368   5.045   0.722
 5275SOL     OW16723   5.538   0.491   6.917
 5275SOL    HW116724   5.447   0.451   6.930
 5275SOL    HW216725   5.605   0.438   6.969
 5276SOL     OW16726   2.981   6.178   1.243
 5276SOL    HW116727   2.946   6.247   1.179
 5276SOL    HW216728   3.080   6.186   1.249
 5277SOL     OW16729   1.557   3.441   1.268
 5277SOL    HW116730   1.600   3.500   1.199
 5277SOL    HW216731   1.463   3.471   1.283
 5278SOL     OW16732   3.789   4.089   4.483
 5278SOL    HW116733   3.828   3.998   4.469
 5278SOL    HW216734   3.696   4.091   4.449
 5279SOL     OW16735   1.462   6.928   3.108
 5279SOL    HW116736   1.499   7.003   3.054
 5279SOL    HW216737   1.390   6.962   3.168
 5280SOL     OW16738   3.677   0.205   3.957
 5280SOL    HW116739   3.636   0.271   4.021
 5280SOL    HW216740   3.677   0.245   3.865
 5281SOL     OW16741   6.783   2.964   3.510
 5281SOL    HW116742   6.714   2.969   3.437
 5281SOL    HW216743   6.860   2.908   3.478
 5282SOL     OW16744   5.082   2.433   1.128
 5282SOL    HW116745   5.128   2.397   1.209
 5282SOL    HW216746   4.983   2.429   1.141
 5283SOL     OW16747   4.964   5.236   4.856
 5283SOL    HW116748   4.991   5.280   4.771
 5283SOL    HW216749   4.927   5.304   4.919
 5284SOL     OW16750   5.536   2.490   4.096
 5284SOL    HW116751   5.620   2.474   4.148
 5284SOL    HW216752   5.517   2.409   4.039
 5285SOL     OW16753   4.397   5.382   2.563
 5285SOL    HW116754   4.356   5.347   2.647
 5285SOL    HW216755   4.326   5.394   2.494
 5286SOL     OW16756   1.731   4.726   2.209
 5286SOL    HW116757   1.816   4.736   2.260
 5286SOL    HW216758   1.661   4.686   2.268
 5287SOL     OW16759   0.288   0.702   3.017
 5287SOL    HW116760   0.349   0.769   2.975
 5287SOL    HW216761   0.335   0.613   3.023
 5288SOL     OW16762   3.847   0.482   0.885
 5288SOL    HW116763   3.876   0.407   0.945
 5288SOL    HW216764   3.751   0.505   0.904
 5289SOL     OW16765   1.768   0.055   1.792
 5289SOL    HW116766   1.767   0.104   1.704
 5289SOL    HW216767   1.681   0.070   1.839
 5290SOL     OW16768   5.282   0.041   6.690
 5290SOL    HW116769   5.194   0.003   6.720
 5290SOL    HW216770   5.265   0.117   6.627
 5291SOL     OW16771   1.402   5.613   6.961
 5291SOL    HW116772   1.423   5.615   0.041
 5291SOL    HW216773   1.485   5.593   6.909
 5292SOL     OW16774   5.420   1.511   1.571
 5292SOL    HW116775   5.463   1.435   1.620
 5292SOL    HW216776   5.350   1.552   1.629
 5293SOL     OW16777   2.138   1.712   4.174
 5293SOL    HW116778   2.207   1.776   4.140
 5293SOL    HW216779   2.165   1.618   4.150
 5294SOL     OW16780   3.656   1.939   6.905
 5294SOL    HW116781   3.649   1.890   6.992
 5294SOL    HW216782   3.593   2.017   6.906
 5295SOL     OW16783   0.134   2.231   3.397
 5295SOL    HW116784   0.045   2.191   3.378
 5295SOL    HW216785   0.165   2.204   3.488
 5296SOL     OW16786   0.226   3.428   6.235
 5296SOL    HW116787   0.219   3.328   6.239
 5296SOL    HW216788   0.316   3.456   6.267
 5297SOL     OW16789   1.049   2.253   2.200
 5297SOL    HW116790   1.114   2.229   2.128
 5297SOL    HW216791   0.961   2.276   2.159
 5298SOL     OW16792   0.948   3.475   2.106
 5298SOL    HW116793   0.915   3.406   2.170
 5298SOL    HW216794   0.879   3.493   2.036
 5299SOL     OW16795   3.915   0.522   0.091
 5299SOL    HW116796   3.878   0.538   0.183
 5299SOL    HW216797   3.845   0.541   0.023
 5300SOL     OW16798   6.424   4.883   4.578
 5300SOL    HW116799   6.441   4.910   4.673
 5300SOL    HW216800   6.338   4.833   4.573
 5301SOL     OW16801   5.446   6.793   6.364
 5301SOL    HW116802   5.514   6.820   6.296
 5301SOL    HW216803   5.492   6.751   6.442
 5302SOL     OW16804   0.219   3.458   2.714
 5302SOL    HW116805   0.194   3.420   2.803
 5302SOL    HW216806   0.278   3.538   2.728
 5303SOL     OW16807   2.219   4.551   2.198
 5303SOL    HW116808   2.266   4.639   2.197
 5303SOL    HW216809   2.177   4.535   2.109
 5304SOL     OW16810   5.114   2.103   6.093
 5304SOL    HW116811   5.077   2.045   6.021
 5304SOL    HW216812   5.148   2.046   6.168
 5305SOL     OW16813   4.146   1.396   4.699
 5305SOL    HW116814   4.061   1.440   4.669
 5305SOL    HW216815   4.141   1.376   4.797
 5306SOL     OW16816   2.776   6.849   3.621
 5306SOL    HW116817   2.690   6.898   3.614
 5306SOL    HW216818   2.852   6.913   3.616
 5307SOL     OW16819   5.118   6.289   6.618
 5307SOL    HW116820   5.084   6.272   6.525
 5307SOL    HW216821   5.092   6.382   6.645
 5308SOL     OW16822   6.199   1.651   1.232
 5308SOL    HW116823   6.251   1.727   1.271
 5308SOL    HW216824   6.175   1.587   1.305
 5309SOL     OW16825   3.370   4.192   6.489
 5309SOL    HW116826   3.393   4.140   6.407
 5309SOL    HW216827   3.381   4.290   6.470
 5310SOL     OW16828   5.393   2.386   0.282
 5310SOL    HW116829   5.421   2.379   0.378
 5310SOL    HW216830   5.448   2.323   0.226
 5311SOL     OW16831   6.806   5.548   6.738
 5311SOL    HW116832   6.780   5.583   6.828
 5311SOL    HW216833   6.860   5.464   6.748
 5312SOL     OW16834   0.472   3.793   1.919
 5312SOL    HW116835   0.557   3.767   1.964
 5312SOL    HW216836   0.396   3.743   1.959
 5313SOL     OW16837   0.526   5.958   6.452
 5313SOL    HW116838   0.497   5.878   6.399
 5313SOL    HW216839   0.446   6.002   6.493
 5314SOL     OW16840   4.183   4.325   1.029
 5314SOL    HW116841   4.248   4.313   0.954
 5314SOL    HW216842   4.198   4.254   1.098
 5315SOL     OW16843   5.420   0.969   2.421
 5315SOL    HW116844   5.450   0.942   2.329
 5315SOL    HW216845   5.450   0.901   2.487
 5316SOL     OW16846   5.086   5.401   4.674
 5316SOL    HW116847   5.142   5.433   4.597
 5316SOL    HW216848   5.013   5.467   4.691
 5317SOL     OW16849   0.339   5.203   1.303
 5317SOL    HW116850   0.350   5.192   1.402
 5317SOL    HW216851   0.246   5.234   1.283
 5318SOL     OW16852   6.333   2.643   3.668
 5318SOL    HW116853   6.387   2.629   3.585
 5318SOL    HW216854   6.299   2.737   3.670
 5319SOL     OW16855   2.774   6.107   2.558
 5319SOL    HW116856   2.818   6.100   2.647
 5319SOL    HW216857   2.680   6.072   2.564
 5320SOL     OW16858   6.521   2.194   0.036
 5320SOL    HW116859   6.464   2.269   0.003
 5320SOL    HW216860   6.545   2.133   6.977
 5321SOL     OW16861   3.062   5.156   0.111
 5321SOL    HW116862   3.015   5.162   0.198
 5321SOL    HW216863   3.072   5.059   0.086
 5322SOL     OW16864   3.199   6.384   0.130
 5322SOL    HW116865   3.115   6.438   0.142
 5322SOL    HW216866   3.191   6.298   0.181
 5323SOL     OW16867   6.760   3.363   0.391
 5323SOL    HW116868   6.677   3.307   0.394
 5323SOL    HW216869   6.821   3.328   0.319
 5324SOL     OW16870   3.763   3.697   2.310
 5324SOL    HW116871   3.696   3.737   2.373
 5324SOL    HW216872   3.719   3.624   2.258
 5325SOL     OW16873   2.881   6.924   5.828
 5325SOL    HW116874   2.838   6.837   5.853
 5325SOL    HW216875   2.811   6.989   5.801
 5326SOL     OW16876   6.194   1.258   4.404
 5326SOL    HW116877   6.110   1.215   4.369
 5326SOL    HW216878   6.236   1.198   4.472
 5327SOL     OW16879   6.621   7.000   4.161
 5327SOL    HW116880   6.657   6.907   4.170
 5327SOL    HW216881   6.682   0.047   4.206
 5328SOL     OW16882   2.682   5.173   5.967
 5328SOL    HW116883   2.717   5.261   5.998
 5328SOL    HW216884   2.699   5.163   5.869
 5329SOL     OW16885   0.516   6.808   6.255
 5329SOL    HW116886   0.567   6.776   6.335
 5329SOL    HW216887   0.418   6.794   6.269
 5330SOL     OW16888   4.884   4.053   0.274
 5330SOL    HW116889   4.816   4.090   0.211
 5330SOL    HW216890   4.975   4.059   0.233
 5331SOL     OW16891   6.106   0.671   0.056
 5331SOL    HW116892   6.029   0.723   0.095
 5331SOL    HW216893   6.079   0.630   6.987
 5332SOL     OW16894   0.305   3.296   0.117
 5332SOL    HW116895   0.399   3.285   0.150
 5332SOL    HW216896   0.306   3.341   0.028
 5333SOL     OW16897   0.287   6.761   4.403
 5333SOL    HW116898   0.377   6.750   4.361
 5333SOL    HW216899   0.296   6.815   4.487
 5334SOL     OW16900   3.042   5.776   1.011
 5334SOL    HW116901   3.089   5.688   1.006
 5334SOL    HW216902   3.081   5.839   0.944
 5335SOL     OW16903   6.621   5.351   1.988
 5335SOL    HW116904   6.599   5.259   2.020
 5335SOL    HW216905   6.690   5.391   2.047
 5336SOL     OW16906   1.228   3.020   5.209
 5336SOL    HW116907   1.154   3.064   5.260
 5336SOL    HW216908   1.309   3.014   5.268
 5337SOL     OW16909   6.408   2.528   1.071
 5337SOL    HW116910   6.505   2.510   1.087
 5337SOL    HW216911   6.378   2.602   1.131
 5338SOL     OW16912   6.581   2.582   1.681
 5338SOL    HW116913   6.557   2.618   1.591
 5338SOL    HW216914   6.587   2.657   1.746
 5339SOL     OW16915   4.815   3.865   2.494
 5339SOL    HW116916   4.794   3.880   2.591
 5339SOL    HW216917   4.735   3.887   2.439
 5340SOL     OW16918   5.517   3.664   1.023
 5340SOL    HW116919   5.477   3.753   1.045
 5340SOL    HW216920   5.467   3.622   0.947
 5341SOL     OW16921   4.926   5.254   3.199
 5341SOL    HW116922   4.865   5.176   3.206
 5341SOL    HW216923   4.883   5.325   3.142
 5342SOL     OW16924   5.653   5.144   4.514
 5342SOL    HW116925   5.591   5.214   4.551
 5342SOL    HW216926   5.742   5.185   4.496
 5343SOL     OW16927   3.514   3.507   0.343
 5343SOL    HW116928   3.476   3.415   0.355
 5343SOL    HW216929   3.550   3.516   0.251
 5344SOL     OW16930   6.407   1.807   6.854
 5344SOL    HW116931   6.495   1.855   6.852
 5344SOL    HW216932   6.354   1.831   6.773
 5345SOL     OW16933   3.518   0.799   6.428
 5345SOL    HW116934   3.432   0.783   6.380
 5345SOL    HW216935   3.499   0.831   6.521
 5346SOL     OW16936   2.598   5.650   3.088
 5346SOL    HW116937   2.541   5.683   3.164
 5346SOL    HW216938   2.678   5.604   3.125
 5347SOL     OW16939   5.686   2.510   5.296
 5347SOL    HW116940   5.589   2.524   5.276
 5347SOL    HW216941   5.709   2.556   5.382
 5348SOL     OW16942   5.281   2.796   5.311
 5348SOL    HW116943   5.225   2.826   5.388
 5348SOL    HW216944   5.377   2.819   5.328
 5349SOL     OW16945   1.300   4.199   0.205
 5349SOL    HW116946   1.350   4.220   0.290
 5349SOL    HW216947   1.212   4.246   0.206
 5350SOL     OW16948   1.466   0.294   6.590
 5350SOL    HW116949   1.419   0.347   6.661
 5350SOL    HW216950   1.501   0.209   6.629
 5351SOL     OW16951   0.552   5.804   3.257
 5351SOL    HW116952   0.496   5.873   3.303
 5351SOL    HW216953   0.611   5.849   3.190
 5352SOL     OW16954   0.257   2.402   6.141
 5352SOL    HW116955   0.299   2.370   6.056
 5352SOL    HW216956   0.282   2.341   6.216
 5353SOL     OW16957   2.058   6.384   2.786
 5353SOL    HW116958   1.972   6.357   2.830
 5353SOL    HW216959   2.042   6.466   2.731
 5354SOL     OW16960   2.555   6.069   1.420
 5354SOL    HW116961   2.588   6.147   1.472
 5354SOL    HW216962   2.631   6.027   1.371
 5355SOL     OW16963   4.862   3.929   5.741
 5355SOL    HW116964   4.942   3.881   5.777
 5355SOL    HW216965   4.891   3.990   5.666
 5356SOL     OW16966   7.001   6.759   1.917
 5356SOL    HW116967   6.929   6.691   1.927
 5356SOL    HW216968   0.035   6.741   1.833
 5357SOL     OW16969   6.402   3.325   2.355
 5357SOL    HW116970   6.349   3.240   2.355
 5357SOL    HW216971   6.346   3.400   2.391
 5358SOL     OW16972   5.026   6.785   6.216
 5358SOL    HW116973   5.081   6.823   6.290
 5358SOL    HW216974   5.080   6.717   6.165
 5359SOL     OW16975   3.200   2.061   6.863
 5359SOL    HW116976   3.115   2.065   6.810
 5359SOL    HW216977   3.209   1.971   6.906
 5360SOL     OW16978   5.620   5.782   3.177
 5360SOL    HW116979   5.643   5.837   3.097
 5360SOL    HW216980   5.641   5.686   3.158
 5361SOL     OW16981   1.406   4.355   2.326
 5361SOL    HW116982   1.383   4.428   2.390
 5361SOL    HW216983   1.432   4.395   2.238
 5362SOL     OW16984   5.684   1.598   3.929
 5362SOL    HW116985   5.714   1.692   3.945
 5362SOL    HW216986   5.763   1.537   3.930
 5363SOL     OW16987   6.289   4.522   6.028
 5363SOL    HW116988   6.328   4.450   5.971
 5363SOL    HW216989   6.344   4.533   6.111
 5364SOL     OW16990   5.109   2.646   1.667
 5364SOL    HW116991   5.176   2.615   1.734
 5364SOL    HW216992   5.125   2.742   1.645
 5365SOL     OW16993   3.239   3.372   6.039
 5365SOL    HW116994   3.260   3.468   6.020
 5365SOL    HW216995   3.324   3.323   6.059
 5366SOL     OW16996   6.838   4.383   3.870
 5366SOL    HW116997   6.882   4.450   3.930
 5366SOL    HW216998   6.854   4.408   3.775
 5367SOL     OW16999   6.133   5.596   0.870
 5367SOL    HW117000   6.109   5.604   0.967
 5367SOL    HW217001   6.176   5.507   0.854
 5368SOL     OW17002   0.316   5.477   5.159
 5368SOL    HW117003   0.321   5.577   5.149
 5368SOL    HW217004   0.229   5.444   5.121
 5369SOL     OW17005   3.436   0.491   2.478
 5369SOL    HW117006   3.486   0.570   2.512
 5369SOL    HW217007   3.486   0.449   2.402
 5370SOL     OW17008   2.467   2.350   0.189
 5370SOL    HW117009   2.424   2.281   0.130
 5370SOL    HW217010   2.518   2.305   0.262
 5371SOL     OW17011   6.396   5.079   3.514
 5371SOL    HW117012   6.486   5.109   3.543
 5371SOL    HW217013   6.367   5.131   3.433
 5372SOL     OW17014   0.643   1.025   4.205
 5372SOL    HW117015   0.617   1.104   4.262
 5372SOL    HW217016   0.681   1.058   4.118
 5373SOL     OW17017   3.897   7.009   0.735
 5373SOL    HW117018   3.976   6.950   0.720
 5373SOL    HW217019   3.881   0.048   0.654
 5374SOL     OW17020   1.718   3.681   1.091
 5374SOL    HW117021   1.777   3.624   1.034
 5374SOL    HW217022   1.766   3.702   1.177
 5375SOL     OW17023   3.225   4.982   4.985
 5375SOL    HW117024   3.154   4.931   5.034
 5375SOL    HW217025   3.226   4.955   4.889
 5376SOL     OW17026   6.779   6.803   2.365
 5376SOL    HW117027   6.694   6.855   2.353
 5376SOL    HW217028   6.778   6.724   2.303
 5377SOL     OW17029   0.728   2.659   1.007
 5377SOL    HW117030   0.738   2.757   1.022
 5377SOL    HW217031   0.660   2.622   1.070
 5378SOL     OW17032   4.392   0.273   4.364
 5378SOL    HW117033   4.351   0.298   4.277
 5378SOL    HW217034   4.347   0.324   4.438
 5379SOL     OW17035   3.472   2.104   4.588
 5379SOL    HW117036   3.547   2.131   4.528
 5379SOL    HW217037   3.506   2.090   4.681
 5380SOL     OW17038   4.656   0.031   1.399
 5380SOL    HW117039   4.591   0.107   1.402
 5380SOL    HW217040   4.654   7.000   1.487
 5381SOL     OW17041   2.590   1.957   2.765
 5381SOL    HW117042   2.608   2.055   2.754
 5381SOL    HW217043   2.603   1.911   2.677
 5382SOL     OW17044   4.272   0.254   2.852
 5382SOL    HW117045   4.206   0.219   2.785
 5382SOL    HW217046   4.232   0.253   2.943
 5383SOL     OW17047   2.328   4.435   5.414
 5383SOL    HW117048   2.263   4.391   5.353
 5383SOL    HW217049   2.404   4.373   5.433
 5384SOL     OW17050   5.477   6.269   6.027
 5384SOL    HW117051   5.567   6.277   5.983
 5384SOL    HW217052   5.468   6.337   6.099
 5385SOL     OW17053   3.403   4.054   0.793
 5385SOL    HW117054   3.482   4.113   0.779
 5385SOL    HW217055   3.336   4.101   0.850
 5386SOL     OW17056   3.674   5.097   2.453
 5386SOL    HW117057   3.641   5.109   2.547
 5386SOL    HW217058   3.622   5.026   2.408
 5387SOL     OW17059   0.672   2.611   5.190
 5387SOL    HW117060   0.586   2.661   5.203
 5387SOL    HW217061   0.749   2.672   5.208
 5388SOL     OW17062   6.838   6.635   3.365
 5388SOL    HW117063   6.883   6.701   3.426
 5388SOL    HW217064   6.805   6.558   3.419
 5389SOL     OW17065   6.594   1.782   4.731
 5389SOL    HW117066   6.661   1.709   4.725
 5389SOL    HW217067   6.601   1.840   4.650
 5390SOL     OW17068   5.515   2.441   3.274
 5390SOL    HW117069   5.450   2.517   3.272
 5390SOL    HW217070   5.505   2.385   3.192
 5391SOL     OW17071   4.550   3.502   0.972
 5391SOL    HW117072   4.562   3.403   0.965
 5391SOL    HW217073   4.624   3.547   0.923
 5392SOL     OW17074   5.325   1.078   3.927
 5392SOL    HW117075   5.400   1.115   3.981
 5392SOL    HW217076   5.243   1.071   3.984
 5393SOL     OW17077   5.005   3.038   2.708
 5393SOL    HW117078   5.104   3.022   2.706
 5393SOL    HW217079   4.979   3.092   2.627
 5394SOL     OW17080   0.600   3.008   3.510
 5394SOL    HW117081   0.618   2.980   3.605
 5394SOL    HW217082   0.670   2.969   3.450
 5395SOL     OW17083   0.806   0.714   1.532
 5395SOL    HW117084   0.751   0.630   1.528
 5395SOL    HW217085   0.759   0.786   1.482
 5396SOL     OW17086   3.982   2.168   0.429
 5396SOL    HW117087   3.976   2.071   0.455
 5396SOL    HW217088   3.892   2.201   0.402
 5397SOL     OW17089   0.852   6.618   3.110
 5397SOL    HW117090   0.935   6.599   3.163
 5397SOL    HW217091   0.857   6.711   3.072
 5398SOL     OW17092   5.612   2.230   3.413
 5398SOL    HW117093   5.578   2.310   3.363
 5398SOL    HW217094   5.548   2.154   3.402
 5399SOL     OW17095   2.787   2.487   0.008
 5399SOL    HW117096   2.731   2.407   7.003
 5399SOL    HW217097   2.771   2.513   0.103
 5400SOL     OW17098   4.390   3.079   1.182
 5400SOL    HW117099   4.372   2.980   1.179
 5400SOL    HW217100   4.390   3.109   1.278
 5401SOL     OW17101   5.046   4.290   1.531
 5401SOL    HW117102   4.991   4.369   1.502
 5401SOL    HW217103   4.998   4.206   1.504
 5402SOL     OW17104   1.909   5.327   1.542
 5402SOL    HW117105   1.967   5.261   1.591
 5402SOL    HW217106   1.814   5.314   1.570
 5403SOL     OW17107   6.324   2.778   4.931
 5403SOL    HW117108   6.311   2.811   4.837
 5403SOL    HW217109   6.343   2.679   4.928
 5404SOL     OW17110   4.572   6.517   0.171
 5404SOL    HW117111   4.579   6.611   0.202
 5404SOL    HW217112   4.552   6.458   0.249
 5405SOL     OW17113   6.070   5.265   6.031
 5405SOL    HW117114   6.005   5.337   6.007
 5405SOL    HW217115   6.039   5.178   5.991
 5406SOL     OW17116   2.352   1.403   5.382
 5406SOL    HW117117   2.315   1.495   5.396
 5406SOL    HW217118   2.424   1.407   5.313
 5407SOL     OW17119   1.691   1.956   2.445
 5407SOL    HW117120   1.655   2.044   2.476
 5407SOL    HW217121   1.618   1.904   2.402
 5408SOL     OW17122   2.405   2.724   4.415
 5408SOL    HW117123   2.488   2.704   4.364
 5408SOL    HW217124   2.328   2.735   4.351
 5409SOL     OW17125   0.281   4.729   3.685
 5409SOL    HW117126   0.317   4.797   3.749
 5409SOL    HW217127   0.310   4.751   3.592
 5410SOL     OW17128   6.151   1.384   0.195
 5410SOL    HW117129   6.150   1.405   0.097
 5410SOL    HW217130   6.081   1.315   0.216
 5411SOL     OW17131   2.779   6.342   2.011
 5411SOL    HW117132   2.786   6.440   2.031
 5411SOL    HW217133   2.870   6.306   1.990
 5412SOL     OW17134   2.223   2.578   5.765
 5412SOL    HW117135   2.298   2.515   5.747
 5412SOL    HW217136   2.233   2.617   5.857
 5413SOL     OW17137   6.773   5.255   5.671
 5413SOL    HW117138   6.827   5.171   5.664
 5413SOL    HW217139   6.790   5.312   5.591
 5414SOL     OW17140   6.060   5.706   5.672
 5414SOL    HW117141   6.147   5.735   5.710
 5414SOL    HW217142   6.063   5.609   5.651
 5415SOL     OW17143   2.366   0.380   0.395
 5415SOL    HW117144   2.418   0.447   0.341
 5415SOL    HW217145   2.400   0.378   0.489
 5416SOL     OW17146   4.263   4.911   5.979
 5416SOL    HW117147   4.248   4.850   6.057
 5416SOL    HW217148   4.325   4.868   5.914
 5417SOL     OW17149   5.180   0.445   2.252
 5417SOL    HW117150   5.252   0.398   2.202
 5417SOL    HW217151   5.107   0.471   2.188
 5418SOL     OW17152   0.071   2.606   6.090
 5418SOL    HW117153   7.013   2.602   6.155
 5418SOL    HW217154   0.139   2.537   6.114
 5419SOL     OW17155   4.247   2.304   5.823
 5419SOL    HW117156   4.198   2.391   5.813
 5419SOL    HW217157   4.185   2.228   5.804
 5420SOL     OW17158   1.618   1.936   1.513
 5420SOL    HW117159   1.706   1.895   1.488
 5420SOL    HW217160   1.544   1.885   1.469
 5421SOL     OW17161   3.807   5.558   0.917
 5421SOL    HW117162   3.795   5.603   1.006
 5421SOL    HW217163   3.735   5.489   0.905
 5422SOL     OW17164   2.372   6.419   3.277
 5422SOL    HW117165   2.382   6.422   3.376
 5422SOL    HW217166   2.283   6.457   3.251
 5423SOL     OW17167   4.398   6.696   2.612
 5423SOL    HW117168   4.426   6.619   2.555
 5423SOL    HW217169   4.356   6.661   2.696
 5424SOL     OW17170   4.241   3.402   6.078
 5424SOL    HW117171   4.260   3.314   6.120
 5424SOL    HW217172   4.162   3.393   6.017
 5425SOL     OW17173   1.898   5.406   4.485
 5425SOL    HW117174   1.864   5.474   4.551
 5425SOL    HW217175   1.961   5.344   4.532
 5426SOL     OW17176   2.072   4.065   6.875
 5426SOL    HW117177   1.981   4.044   6.910
 5426SOL    HW217178   2.070   4.155   6.831
 5427SOL     OW17179   4.620   1.239   0.092
 5427SOL    HW117180   4.677   1.186   0.029
 5427SOL    HW217181   4.532   1.192   0.105
 5428SOL     OW17182   5.071   5.428   2.334
 5428SOL    HW117183   5.016   5.449   2.415
 5428SOL    HW217184   5.122   5.510   2.307
 5429SOL     OW17185   2.599   6.130   3.203
 5429SOL    HW117186   2.543   6.120   3.121
 5429SOL    HW217187   2.648   6.217   3.200
 5430SOL     OW17188   0.764   3.795   5.213
 5430SOL    HW117189   0.740   3.835   5.125
 5430SOL    HW217190   0.807   3.864   5.271
 5431SOL     OW17191   5.374   4.387   1.089
 5431SOL    HW117192   5.311   4.406   1.015
 5431SOL    HW217193   5.420   4.300   1.072
 5432SOL     OW17194   1.908   5.206   5.643
 5432SOL    HW117195   1.876   5.188   5.736
 5432SOL    HW217196   1.900   5.123   5.588
 5433SOL     OW17197   3.170   6.953   1.914
 5433SOL    HW117198   3.192   6.982   1.821
 5433SOL    HW217199   3.252   6.913   1.956
 5434SOL     OW17200   5.675   6.262   4.007
 5434SOL    HW117201   5.599   6.309   4.053
 5434SOL    HW217202   5.706   6.185   4.064
 5435SOL     OW17203   0.764   3.133   0.292
 5435SOL    HW117204   0.767   3.079   0.375
 5435SOL    HW217205   0.736   3.075   0.215
 5436SOL     OW17206   1.298   4.471   0.932
 5436SOL    HW117207   1.287   4.424   1.019
 5436SOL    HW217208   1.213   4.465   0.880
 5437SOL     OW17209   2.983   6.590   6.037
 5437SOL    HW117210   2.981   6.593   6.137
 5437SOL    HW217211   2.897   6.626   6.001
 5438SOL     OW17212   4.798   6.615   3.796
 5438SOL    HW117213   4.874   6.551   3.804
 5438SOL    HW217214   4.741   6.610   3.878
 5439SOL     OW17215   1.476   3.440   1.951
 5439SOL    HW117216   1.480   3.347   1.986
 5439SOL    HW217217   1.414   3.444   1.873
 5440SOL     OW17218   5.033   6.480   3.135
 5440SOL    HW117219   5.118   6.446   3.095
 5440SOL    HW217220   5.039   6.476   3.235
 5441SOL     OW17221   5.785   0.116   5.083
 5441SOL    HW117222   5.793   0.179   5.006
 5441SOL    HW217223   5.860   0.132   5.147
 5442SOL     OW17224   2.478   5.910   6.835
 5442SOL    HW117225   2.542   5.904   6.913
 5442SOL    HW217226   2.529   5.897   6.750
 5443SOL     OW17227   5.941   1.426   2.951
 5443SOL    HW117228   5.896   1.498   2.898
 5443SOL    HW217229   5.874   1.380   3.008
 5444SOL     OW17230   2.171   1.693   6.707
 5444SOL    HW117231   2.212   1.635   6.637
 5444SOL    HW217232   2.083   1.655   6.734
 5445SOL     OW17233   6.199   6.510   5.361
 5445SOL    HW117234   6.104   6.515   5.330
 5445SOL    HW217235   6.203   6.532   5.459
 5446SOL     OW17236   2.383   4.120   7.000
 5446SOL    HW117237   2.479   4.132   0.006
 5446SOL    HW217238   2.363   4.022   6.990
 5447SOL     OW17239   5.451   2.747   1.962
 5447SOL    HW117240   5.404   2.833   1.945
 5447SOL    HW217241   5.543   2.750   1.921
 5448SOL     OW17242   6.092   5.624   1.148
 5448SOL    HW117243   6.052   5.533   1.135
 5448SOL    HW217244   6.022   5.686   1.183
 5449SOL     OW17245   1.933   6.883   2.537
 5449SOL    HW117246   1.964   6.886   2.442
 5449SOL    HW217247   1.988   6.946   2.592
 5450SOL     OW17248   4.368   4.623   1.841
 5450SOL    HW117249   4.371   4.697   1.774
 5450SOL    HW217250   4.460   4.608   1.878
 5451SOL     OW17251   0.586   5.559   3.360
 5451SOL    HW117252   0.686   5.550   3.351
 5451SOL    HW217253   0.559   5.652   3.335
 5452SOL     OW17254   2.189   3.728   3.355
 5452SOL    HW117255   2.246   3.701   3.278
 5452SOL    HW217256   2.188   3.654   3.423
 5453SOL     OW17257   5.924   5.505   4.543
 5453SOL    HW117258   5.922   5.424   4.485
 5453SOL    HW217259   5.884   5.483   4.632
 5454SOL     OW17260   6.365   3.956   1.961
 5454SOL    HW117261   6.348   3.873   1.908
 5454SOL    HW217262   6.297   3.964   2.034
 5455SOL     OW17263   1.950   2.052   2.774
 5455SOL    HW117264   1.987   2.132   2.822
 5455SOL    HW217265   1.864   2.078   2.729
 5456SOL     OW17266   5.706   3.185   0.123
 5456SOL    HW117267   5.763   3.119   0.073
 5456SOL    HW217268   5.618   3.143   0.144
 5457SOL     OW17269   5.862   0.785   0.704
 5457SOL    HW117270   5.839   0.811   0.611
 5457SOL    HW217271   5.798   0.715   0.736
 5458SOL     OW17272   6.015   4.409   6.013
 5458SOL    HW117273   6.073   4.480   5.973
 5458SOL    HW217274   5.941   4.452   6.066
 5459SOL     OW17275   1.636   3.630   5.510
 5459SOL    HW117276   1.691   3.568   5.454
 5459SOL    HW217277   1.697   3.684   5.568
 5460SOL     OW17278   6.698   1.301   1.169
 5460SOL    HW117279   6.615   1.357   1.164
 5460SOL    HW217280   6.747   1.321   1.254
 5461SOL     OW17281   5.659   0.582   6.222
 5461SOL    HW117282   5.757   0.602   6.231
 5461SOL    HW217283   5.614   0.656   6.174
 5462SOL     OW17284   5.832   4.634   0.423
 5462SOL    HW117285   5.737   4.661   0.433
 5462SOL    HW217286   5.887   4.679   0.493
 5463SOL     OW17287   3.326   4.665   0.115
 5463SOL    HW117288   3.399   4.706   0.169
 5463SOL    HW217289   3.302   4.576   0.153
 5464SOL     OW17290   2.396   5.837   4.085
 5464SOL    HW117291   2.485   5.808   4.049
 5464SOL    HW217292   2.400   5.933   4.112
 5465SOL     OW17293   0.714   1.554   4.777
 5465SOL    HW117294   0.646   1.594   4.839
 5465SOL    HW217295   0.717   1.455   4.790
 5466SOL     OW17296   5.209   2.124   4.979
 5466SOL    HW117297   5.137   2.168   5.034
 5466SOL    HW217298   5.185   2.028   4.964
 5467SOL     OW17299   4.849   4.819   3.132
 5467SOL    HW117300   4.815   4.898   3.183
 5467SOL    HW217301   4.861   4.843   3.036
 5468SOL     OW17302   0.336   2.451   1.326
 5468SOL    HW117303   0.429   2.485   1.309
 5468SOL    HW217304   0.328   2.358   1.291
 5469SOL     OW17305   4.588   0.857   3.162
 5469SOL    HW117306   4.562   0.807   3.079
 5469SOL    HW217307   4.512   0.857   3.226
 5470SOL     OW17308   2.578   4.537   3.454
 5470SOL    HW117309   2.558   4.587   3.370
 5470SOL    HW217310   2.673   4.506   3.452
 5471SOL     OW17311   5.615   0.649   3.910
 5471SOL    HW117312   5.639   0.718   3.842
 5471SOL    HW217313   5.554   0.691   3.978
 5472SOL     OW17314   2.660   4.092   0.426
 5472SOL    HW117315   2.671   4.171   0.365
 5472SOL    HW217316   2.566   4.089   0.459
 5473SOL     OW17317   2.975   4.781   2.097
 5473SOL    HW117318   2.911   4.709   2.071
 5473SOL    HW217319   3.067   4.742   2.105
 5474SOL     OW17320   0.572   5.544   1.980
 5474SOL    HW117321   0.503   5.475   2.004
 5474SOL    HW217322   0.660   5.518   2.021
 5475SOL     OW17323   0.415   0.980   5.652
 5475SOL    HW117324   0.457   0.890   5.658
 5475SOL    HW217325   0.482   1.045   5.614
 5476SOL     OW17326   3.227   1.206   4.282
 5476SOL    HW117327   3.155   1.264   4.319
 5476SOL    HW217328   3.285   1.259   4.220
 5477SOL     OW17329   1.927   4.223   3.080
 5477SOL    HW117330   2.027   4.223   3.089
 5477SOL    HW217331   1.888   4.288   3.145
 5478SOL     OW17332   6.277   3.016   5.436
 5478SOL    HW117333   6.220   3.096   5.450
 5478SOL    HW217334   6.344   3.009   5.511
 5479SOL     OW17335   5.218   4.110   4.551
 5479SOL    HW117336   5.256   4.129   4.642
 5479SOL    HW217337   5.154   4.033   4.558
 5480SOL     OW17338   2.158   2.497   6.234
 5480SOL    HW117339   2.216   2.416   6.246
 5480SOL    HW217340   2.067   2.479   6.270
 5481SOL     OW17341   3.486   0.844   0.878
 5481SOL    HW117342   3.407   0.902   0.860
 5481SOL    HW217343   3.554   0.857   0.806
 5482SOL     OW17344   5.313   4.509   2.170
 5482SOL    HW117345   5.341   4.536   2.262
 5482SOL    HW217346   5.324   4.587   2.107
 5483SOL     OW17347   5.731   1.605   0.968
 5483SOL    HW117348   5.827   1.633   0.960
 5483SOL    HW217349   5.673   1.671   0.920
 5484SOL     OW17350   6.093   0.186   5.716
 5484SOL    HW117351   6.093   0.217   5.621
 5484SOL    HW217352   6.147   0.251   5.771
 5485SOL     OW17353   2.955   1.443   3.806
 5485SOL    HW117354   2.870   1.428   3.855
 5485SOL    HW217355   2.969   1.540   3.790
 5486SOL     OW17356   0.230   0.946   3.674
 5486SOL    HW117357   0.294   1.022   3.684
 5486SOL    HW217358   0.232   0.889   3.756
 5487SOL     OW17359   4.131   5.764   1.154
 5487SOL    HW117360   4.130   5.664   1.149
 5487SOL    HW217361   4.177   5.793   1.237
 5488SOL     OW17362   4.524   0.324   6.278
 5488SOL    HW117363   4.591   0.382   6.325
 5488SOL    HW217364   4.549   0.228   6.291
 5489SOL     OW17365   6.622   3.649   2.939
 5489SOL    HW117366   6.695   3.616   2.880
 5489SOL    HW217367   6.569   3.719   2.891
 5490SOL     OW17368   2.923   1.426   6.684
 5490SOL    HW117369   2.981   1.406   6.605
 5490SOL    HW217370   2.830   1.392   6.667
 5491SOL     OW17371   6.062   6.777   1.551
 5491SOL    HW117372   6.049   6.681   1.577
 5491SOL    HW217373   6.109   6.825   1.625
 5492SOL     OW17374   1.754   1.404   5.225
 5492SOL    HW117375   1.835   1.451   5.259
 5492SOL    HW217376   1.781   1.324   5.173
 5493SOL     OW17377   4.046   1.108   6.932
 5493SOL    HW117378   4.063   1.175   6.860
 5493SOL    HW217379   4.077   1.018   6.901
 5494SOL     OW17380   5.266   3.113   2.244
 5494SOL    HW117381   5.308   3.084   2.158
 5494SOL    HW217382   5.331   3.171   2.295
 5495SOL     OW17383   3.488   3.108   5.061
 5495SOL    HW117384   3.401   3.151   5.085
 5495SOL    HW217385   3.487   3.012   5.089
 5496SOL     OW17386   4.514   4.924   2.061
 5496SOL    HW117387   4.417   4.944   2.074
 5496SOL    HW217388   4.556   4.904   2.150
 5497SOL     OW17389   5.632   6.958   0.111
 5497SOL    HW117390   5.636   6.928   0.016
 5497SOL    HW217391   5.539   6.987   0.133
 5498SOL     OW17392   3.823   1.051   4.181
 5498SOL    HW117393   3.839   1.087   4.273
 5498SOL    HW217394   3.805   1.127   4.118
 5499SOL     OW17395   0.256   0.574   5.028
 5499SOL    HW117396   0.293   0.507   5.092
 5499SOL    HW217397   0.328   0.603   4.964
 5500SOL     OW17398   1.900   6.646   0.570
 5500SOL    HW117399   1.891   6.720   0.637
 5500SOL    HW217400   1.985   6.597   0.587
 5501SOL     OW17401   2.342   1.396   2.275
 5501SOL    HW117402   2.275   1.466   2.297
 5501SOL    HW217403   2.384   1.416   2.186
 5502SOL     OW17404   5.252   4.690   0.753
 5502SOL    HW117405   5.232   4.704   0.850
 5502SOL    HW217406   5.339   4.733   0.730
 5503SOL     OW17407   6.745   0.822   4.132
 5503SOL    HW117408   6.824   0.829   4.072
 5503SOL    HW217409   6.675   0.887   4.103
 5504SOL     OW17410   2.453   2.203   4.854
 5504SOL    HW117411   2.370   2.258   4.850
 5504SOL    HW217412   2.529   2.259   4.888
 5505SOL     OW17413   3.512   5.001   0.422
 5505SOL    HW117414   3.420   5.032   0.444
 5505SOL    HW217415   3.509   4.905   0.395
 5506SOL     OW17416   1.104   6.712   4.932
 5506SOL    HW117417   1.005   6.722   4.927
 5506SOL    HW217418   1.144   6.795   4.971
 5507SOL     OW17419   2.557   5.358   4.750
 5507SOL    HW117420   2.575   5.298   4.828
 5507SOL    HW217421   2.468   5.335   4.710
 5508SOL     OW17422   2.314   1.167   5.820
 5508SOL    HW117423   2.313   1.190   5.723
 5508SOL    HW217424   2.355   1.241   5.872
 5509SOL     OW17425   6.856   0.178   5.873
 5509SOL    HW117426   6.810   0.192   5.961
 5509SOL    HW217427   6.940   0.125   5.888
 5510SOL     OW17428   1.121   0.409   5.523
 5510SOL    HW117429   1.068   0.328   5.549
 5510SOL    HW217430   1.161   0.450   5.604
 5511SOL     OW17431   0.267   2.277   0.845
 5511SOL    HW117432   0.355   2.244   0.810
 5511SOL    HW217433   0.193   2.229   0.798
 5512SOL     OW17434   6.586   6.411   0.219
 5512SOL    HW117435   6.540   6.491   0.182
 5512SOL    HW217436   6.654   6.439   0.286
 5513SOL     OW17437   2.587   6.060   4.356
 5513SOL    HW117438   2.534   6.018   4.429
 5513SOL    HW217439   2.542   6.042   4.268
 5514SOL     OW17440   5.603   5.927   3.391
 5514SOL    HW117441   5.608   5.854   3.323
 5514SOL    HW217442   5.507   5.949   3.409
 5515SOL     OW17443   0.708   4.144   3.569
 5515SOL    HW117444   0.784   4.207   3.588
 5515SOL    HW217445   0.728   4.092   3.486
 5516SOL     OW17446   2.184   2.983   0.181
 5516SOL    HW117447   2.179   3.069   0.233
 5516SOL    HW217448   2.115   2.984   0.109
 5517SOL     OW17449   3.050   0.715   2.664
 5517SOL    HW117450   2.972   0.667   2.624
 5517SOL    HW217451   3.127   0.712   2.601
 5518SOL     OW17452   5.750   3.647   5.778
 5518SOL    HW117453   5.676   3.714   5.781
 5518SOL    HW217454   5.718   3.559   5.812
 5519SOL     OW17455   5.514   4.048   2.219
 5519SOL    HW117456   5.482   4.067   2.311
 5519SOL    HW217457   5.613   4.037   2.219
 5520SOL     OW17458   1.485   3.105   0.883
 5520SOL    HW117459   1.499   3.065   0.974
 5520SOL    HW217460   1.419   3.049   0.832
 5521SOL     OW17461   5.306   4.533   6.419
 5521SOL    HW117462   5.257   4.456   6.460
 5521SOL    HW217463   5.340   4.508   6.328
 5522SOL     OW17464   1.609   2.947   1.343
 5522SOL    HW117465   1.685   2.888   1.316
 5522SOL    HW217466   1.588   2.932   1.440
 5523SOL     OW17467   2.354   6.462   1.509
 5523SOL    HW117468   2.365   6.400   1.587
 5523SOL    HW217469   2.414   6.542   1.522
 5524SOL     OW17470   6.049   6.725   5.555
 5524SOL    HW117471   6.012   6.670   5.480
 5524SOL    HW217472   6.047   6.822   5.529
 5525SOL     OW17473   6.673   6.271   3.193
 5525SOL    HW117474   6.674   6.319   3.280
 5525SOL    HW217475   6.704   6.177   3.206
 5526SOL     OW17476   5.761   3.719   4.670
 5526SOL    HW117477   5.709   3.779   4.610
 5526SOL    HW217478   5.858   3.725   4.647
 5527SOL     OW17479   3.130   3.041   0.368
 5527SOL    HW117480   3.222   3.071   0.396
 5527SOL    HW217481   3.064   3.069   0.438
 5528SOL     OW17482   6.242   3.042   2.645
 5528SOL    HW117483   6.295   2.966   2.608
 5528SOL    HW217484   6.173   3.070   2.579
 5529SOL     OW17485   1.541   0.726   4.120
 5529SOL    HW117486   1.600   0.723   4.201
 5529SOL    HW217487   1.522   0.821   4.095
 5530SOL     OW17488   0.057   3.558   6.718
 5530SOL    HW117489   7.000   3.580   6.780
 5530SOL    HW217490   0.051   3.462   6.691
 5531SOL     OW17491   2.870   3.072   0.758
 5531SOL    HW117492   2.798   3.045   0.821
 5531SOL    HW217493   2.947   3.008   0.764
 5532SOL     OW17494   2.422   2.469   2.004
 5532SOL    HW117495   2.366   2.398   1.960
 5532SOL    HW217496   2.366   2.518   2.072
 5533SOL     OW17497   3.074   0.399   0.894
 5533SOL    HW117498   3.167   0.371   0.874
 5533SOL    HW217499   3.010   0.333   0.854
 5534SOL     OW17500   0.471   3.312   5.068
 5534SOL    HW117501   0.405   3.347   5.134
 5534SOL    HW217502   0.554   3.284   5.116
 5535SOL     OW17503   4.892   4.665   3.560
 5535SOL    HW117504   4.911   4.633   3.653
 5535SOL    HW217505   4.903   4.765   3.556
 5536SOL     OW17506   2.267   1.437   4.632
 5536SOL    HW117507   2.327   1.450   4.553
 5536SOL    HW217508   2.232   1.343   4.631
 5537SOL     OW17509   3.874   1.324   3.420
 5537SOL    HW117510   3.845   1.350   3.327
 5537SOL    HW217511   3.798   1.341   3.483
 5538SOL     OW17512   4.861   2.258   2.464
 5538SOL    HW117513   4.817   2.312   2.393
 5538SOL    HW217514   4.825   2.283   2.554
 5539SOL     OW17515   1.380   0.773   6.491
 5539SOL    HW117516   1.354   0.829   6.412
 5539SOL    HW217517   1.377   0.676   6.465
 5540SOL     OW17518   4.953   6.999   5.138
 5540SOL    HW117519   5.049   0.009   5.149
 5540SOL    HW217520   4.930   6.930   5.206
 5541SOL     OW17521   4.665   2.908   5.549
 5541SOL    HW117522   4.691   2.990   5.599
 5541SOL    HW217523   4.588   2.928   5.489
 5542SOL     OW17524   4.693   4.280   6.557
 5542SOL    HW117525   4.651   4.203   6.606
 5542SOL    HW217526   4.654   4.286   6.465
 5543SOL     OW17527   0.764   0.500   6.255
 5543SOL    HW117528   0.808   0.433   6.315
 5543SOL    HW217529   0.802   0.492   6.163
 5544SOL     OW17530   3.796   4.972   0.257
 5544SOL    HW117531   3.797   5.072   0.258
 5544SOL    HW217532   3.702   4.939   0.268
 5545SOL     OW17533   5.492   1.757   3.028
 5545SOL    HW117534   5.518   1.821   2.956
 5545SOL    HW217535   5.395   1.734   3.018
 5546SOL     OW17536   0.923   6.426   4.509
 5546SOL    HW117537   0.997   6.483   4.545
 5546SOL    HW217538   0.886   6.368   4.582
 5547SOL     OW17539   5.001   1.363   4.705
 5547SOL    HW117540   5.061   1.427   4.656
 5547SOL    HW217541   4.962   1.409   4.785
 5548SOL     OW17542   1.129   3.843   4.920
 5548SOL    HW117543   1.131   3.901   4.838
 5548SOL    HW217544   1.216   3.850   4.969
 5549SOL     OW17545   4.261   3.204   0.373
 5549SOL    HW117546   4.209   3.224   0.290
 5549SOL    HW217547   4.225   3.259   0.448
 5550SOL     OW17548   3.124   3.669   1.600
 5550SOL    HW117549   3.165   3.752   1.562
 5550SOL    HW217550   3.134   3.669   1.699
 5551SOL     OW17551   1.406   4.522   2.554
 5551SOL    HW117552   1.397   4.452   2.624
 5551SOL    HW217553   1.379   4.611   2.592
 5552SOL     OW17554   0.484   0.863   0.589
 5552SOL    HW117555   0.538   0.786   0.554
 5552SOL    HW217556   0.396   0.865   0.543
 5553SOL     OW17557   5.784   5.762   0.863
 5553SOL    HW117558   5.861   5.823   0.843
 5553SOL    HW217559   5.741   5.790   0.949
 5554SOL     OW17560   6.956   2.480   1.424
 5554SOL    HW117561   6.930   2.567   1.466
 5554SOL    HW217562   6.994   2.419   1.494
 5555SOL     OW17563   1.050   4.759   1.835
 5555SOL    HW117564   1.088   4.770   1.927
 5555SOL    HW217565   1.038   4.662   1.815
 5556SOL     OW17566   6.824   1.994   5.070
 5556SOL    HW117567   6.737   1.969   5.112
 5556SOL    HW217568   6.807   2.032   4.979
 5557SOL     OW17569   3.590   6.980   3.028
 5557SOL    HW117570   3.551   6.889   3.045
 5557SOL    HW217571   3.683   6.969   2.994
 5558SOL     OW17572   3.868   3.479   6.181
 5558SOL    HW117573   3.902   3.562   6.226
 5558SOL    HW217574   3.893   3.481   6.085
 5559SOL     OW17575   3.638   0.734   2.806
 5559SOL    HW117576   3.548   0.726   2.847
 5559SOL    HW217577   3.700   0.668   2.850
 5560SOL     OW17578   6.688   5.335   3.337
 5560SOL    HW117579   6.666   5.432   3.323
 5560SOL    HW217580   6.647   5.303   3.422
 5561SOL     OW17581   3.128   0.751   3.556
 5561SOL    HW117582   3.129   0.792   3.465
 5561SOL    HW217583   3.204   0.789   3.610
 5562SOL     OW17584   4.993   3.151   0.962
 5562SOL    HW117585   4.961   3.213   0.891
 5562SOL    HW217586   4.995   3.058   0.927
 5563SOL     OW17587   1.786   4.040   2.088
 5563SOL    HW117588   1.777   4.138   2.073
 5563SOL    HW217589   1.771   4.020   2.185
 5564SOL     OW17590   4.266   0.086   6.648
 5564SOL    HW117591   4.305   0.039   6.569
 5564SOL    HW217592   4.231   0.018   6.713
 5565SOL     OW17593   3.107   1.958   6.279
 5565SOL    HW117594   3.067   2.003   6.199
 5565SOL    HW217595   3.205   1.978   6.281
 5566SOL     OW17596   1.287   5.443   5.469
 5566SOL    HW117597   1.268   5.536   5.436
 5566SOL    HW217598   1.212   5.412   5.528
 5567SOL     OW17599   1.336   5.174   6.820
 5567SOL    HW117600   1.318   5.272   6.830
 5567SOL    HW217601   1.252   5.129   6.790
 5568SOL     OW17602   5.511   5.216   1.881
 5568SOL    HW117603   5.573   5.195   1.957
 5568SOL    HW217604   5.480   5.311   1.890
 5569SOL     OW17605   1.503   2.238   2.922
 5569SOL    HW117606   1.447   2.308   2.879
 5569SOL    HW217607   1.586   2.280   2.959
 5570SOL     OW17608   6.798   3.746   1.571
 5570SOL    HW117609   6.782   3.842   1.548
 5570SOL    HW217610   6.793   3.691   1.488
 5571SOL     OW17611   7.004   4.518   6.463
 5571SOL    HW117612   6.944   4.479   6.393
 5571SOL    HW217613   0.076   4.474   6.459
 5572SOL     OW17614   1.083   4.393   5.408
 5572SOL    HW117615   1.029   4.456   5.464
 5572SOL    HW217616   1.164   4.439   5.374
 5573SOL     OW17617   3.325   5.100   3.344
 5573SOL    HW117618   3.402   5.044   3.377
 5573SOL    HW217619   3.347   5.137   3.254
 5574SOL     OW17620   1.204   1.145   6.133
 5574SOL    HW117621   1.135   1.141   6.061
 5574SOL    HW217622   1.296   1.143   6.092
 5575SOL     OW17623   0.228   0.567   1.593
 5575SOL    HW117624   0.294   0.517   1.648
 5575SOL    HW217625   0.209   0.656   1.635
 5576SOL     OW17626   1.978   4.639   3.378
 5576SOL    HW117627   1.951   4.616   3.471
 5576SOL    HW217628   2.021   4.729   3.377
 5577SOL     OW17629   3.354   2.264   6.445
 5577SOL    HW117630   3.301   2.268   6.530
 5577SOL    HW217631   3.350   2.172   6.407
 5578SOL     OW17632   3.625   4.135   3.695
 5578SOL    HW117633   3.628   4.050   3.747
 5578SOL    HW217634   3.682   4.203   3.741
 5579SOL     OW17635   5.786   2.881   1.690
 5579SOL    HW117636   5.787   2.806   1.757
 5579SOL    HW217637   5.830   2.850   1.606
 5580SOL     OW17638   5.444   2.296   6.332
 5580SOL    HW117639   5.504   2.291   6.412
 5580SOL    HW217640   5.475   2.231   6.262
 5581SOL     OW17641   1.436   1.116   5.947
 5581SOL    HW117642   1.520   1.163   5.972
 5581SOL    HW217643   1.399   1.156   5.863
 5582SOL     OW17644   2.830   2.661   5.939
 5582SOL    HW117645   2.738   2.701   5.932
 5582SOL    HW217646   2.885   2.713   6.004
 5583SOL     OW17647   6.072   6.513   1.338
 5583SOL    HW117648   6.073   6.540   1.242
 5583SOL    HW217649   5.978   6.518   1.373
 5584SOL     OW17650   0.641   3.705   4.592
 5584SOL    HW117651   0.640   3.763   4.511
 5584SOL    HW217652   0.732   3.704   4.632
 5585SOL     OW17653   6.346   5.155   1.233
 5585SOL    HW117654   6.261   5.169   1.283
 5585SOL    HW217655   6.420   5.204   1.280
 5586SOL     OW17656   1.310   6.278   1.718
 5586SOL    HW117657   1.386   6.257   1.779
 5586SOL    HW217658   1.344   6.283   1.624
 5587SOL     OW17659   5.597   0.989   5.403
 5587SOL    HW117660   5.534   0.976   5.480
 5587SOL    HW217661   5.681   0.938   5.419
 5588SOL     OW17662   3.176   6.831   1.229
 5588SOL    HW117663   3.170   6.923   1.267
 5588SOL    HW217664   3.269   6.813   1.198
 5589SOL     OW17665   0.639   4.507   5.634
 5589SOL    HW117666   0.644   4.431   5.699
 5589SOL    HW217667   0.543   4.528   5.615
 5590SOL     OW17668   6.202   5.090   3.278
 5590SOL    HW117669   6.129   5.022   3.267
 5590SOL    HW217670   6.177   5.173   3.228
 5591SOL     OW17671   5.066   1.614   2.825
 5591SOL    HW117672   5.023   1.542   2.880
 5591SOL    HW217673   4.998   1.656   2.765
 5592SOL     OW17674   0.006   5.237   4.424
 5592SOL    HW117675   6.986   5.195   4.506
 5592SOL    HW217676   0.043   5.166   4.363
 5593SOL     OW17677   2.084   3.796   0.968
 5593SOL    HW117678   2.082   3.841   1.057
 5593SOL    HW217679   2.167   3.823   0.919
 5594SOL     OW17680   6.393   0.607   5.725
 5594SOL    HW117681   6.475   0.654   5.757
 5594SOL    HW217682   6.368   0.640   5.634
 5595SOL     OW17683   0.042   1.719   0.686
 5595SOL    HW117684   0.043   1.731   0.786
 5595SOL    HW217685   0.131   1.686   0.656
 5596SOL     OW17686   4.113   6.223   3.229
 5596SOL    HW117687   4.069   6.151   3.175
 5596SOL    HW217688   4.127   6.304   3.171
 5597SOL     OW17689   5.233   3.324   1.988
 5597SOL    HW117690   5.146   3.284   1.962
 5597SOL    HW217691   5.306   3.255   1.979
 5598SOL     OW17692   3.389   0.485   3.989
 5598SOL    HW117693   3.384   0.412   4.057
 5598SOL    HW217694   3.467   0.544   4.010
 5599SOL     OW17695   1.171   1.655   3.446
 5599SOL    HW117696   1.167   1.602   3.530
 5599SOL    HW217697   1.090   1.712   3.438
 5600SOL     OW17698   2.399   2.869   5.379
 5600SOL    HW117699   2.441   2.938   5.321
 5600SOL    HW217700   2.326   2.822   5.329
 5601SOL     OW17701   2.225   0.490   6.191
 5601SOL    HW117702   2.233   0.510   6.094
 5601SOL    HW217703   2.272   0.561   6.244
 5602SOL     OW17704   1.948   1.132   0.035
 5602SOL    HW117705   1.945   1.119   0.134
 5602SOL    HW217706   1.963   1.045   7.007
 5603SOL     OW17707   6.700   3.595   4.904
 5603SOL    HW117708   6.727   3.668   4.841
 5603SOL    HW217709   6.782   3.562   4.952
 5604SOL     OW17710   5.445   0.843   6.582
 5604SOL    HW117711   5.530   0.799   6.611
 5604SOL    HW217712   5.382   0.775   6.545
 5605SOL     OW17713   1.082   1.522   6.784
 5605SOL    HW117714   1.045   1.557   6.698
 5605SOL    HW217715   1.014   1.463   6.828
 5606SOL     OW17716   5.965   7.004   3.073
 5606SOL    HW117717   6.031   6.953   3.017
 5606SOL    HW217718   6.007   0.010   3.161
 5607SOL     OW17719   4.889   0.625   1.451
 5607SOL    HW117720   4.851   0.706   1.405
 5607SOL    HW217721   4.879   0.546   1.391
 5608SOL     OW17722   3.517   6.840   5.207
 5608SOL    HW117723   3.519   6.758   5.150
 5608SOL    HW217724   3.470   6.914   5.158
 5609SOL     OW17725   1.210   5.909   4.648
 5609SOL    HW117726   1.124   5.858   4.653
 5609SOL    HW217727   1.248   5.900   4.556
 5610SOL     OW17728   4.926   0.237   6.806
 5610SOL    HW117729   4.874   0.285   6.735
 5610SOL    HW217730   4.975   0.304   6.862
 5611SOL     OW17731   1.885   4.153   3.907
 5611SOL    HW117732   1.910   4.234   3.960
 5611SOL    HW217733   1.949   4.079   3.927
 5612SOL     OW17734   3.560   6.621   4.382
 5612SOL    HW117735   3.599   6.705   4.347
 5612SOL    HW217736   3.460   6.625   4.374
 5613SOL     OW17737   2.611   5.037   2.612
 5613SOL    HW117738   2.618   5.019   2.514
 5613SOL    HW217739   2.516   5.056   2.637
 5614SOL     OW17740   4.783   2.302   4.797
 5614SOL    HW117741   4.756   2.226   4.857
 5614SOL    HW217742   4.702   2.354   4.772
 5615SOL     OW17743   0.833   1.653   1.952
 5615SOL    HW117744   0.931   1.645   1.935
 5615SOL    HW217745   0.802   1.576   2.007
 5616SOL     OW17746   2.334   6.738   4.648
 5616SOL    HW117747   2.279   6.804   4.596
 5616SOL    HW217748   2.423   6.727   4.604
 5617SOL     OW17749   0.484   1.144   5.961
 5617SOL    HW117750   0.423   1.116   5.887
 5617SOL    HW217751   0.432   1.155   6.045
 5618SOL     OW17752   6.295   4.888   3.706
 5618SOL    HW117753   6.288   4.965   3.769
 5618SOL    HW217754   6.317   4.923   3.614
 5619SOL     OW17755   2.163   3.528   4.829
 5619SOL    HW117756   2.258   3.544   4.856
 5619SOL    HW217757   2.151   3.431   4.806
 5620SOL     OW17758   5.317   2.057   6.712
 5620SOL    HW117759   5.316   2.111   6.797
 5620SOL    HW217760   5.252   2.098   6.647
 5621SOL     OW17761   2.496   1.189   6.384
 5621SOL    HW117762   2.486   1.286   6.364
 5621SOL    HW217763   2.414   1.157   6.431
 5622SOL     OW17764   5.425   1.130   5.232
 5622SOL    HW117765   5.399   1.208   5.289
 5622SOL    HW217766   5.480   1.066   5.285
 5623SOL     OW17767   0.043   6.255   6.551
 5623SOL    HW117768   6.968   6.252   6.514
 5623SOL    HW217769   0.109   6.245   6.476
 5624SOL     OW17770   1.049   4.270   2.511
 5624SOL    HW117771   1.082   4.364   2.512
 5624SOL    HW217772   1.111   4.212   2.564
 5625SOL     OW17773   6.821   1.823   5.502
 5625SOL    HW117774   6.808   1.895   5.433
 5625SOL    HW217775   6.917   1.821   5.529
 5626SOL     OW17776   5.659   6.836   5.330
 5626SOL    HW117777   5.595   6.789   5.390
 5626SOL    HW217778   5.608   6.887   5.260
 5627SOL     OW17779   1.117   0.621   1.689
 5627SOL    HW117780   1.171   0.574   1.619
 5627SOL    HW217781   1.163   0.706   1.715
 5628SOL     OW17782   1.750   1.468   4.185
 5628SOL    HW117783   1.758   1.564   4.210
 5628SOL    HW217784   1.809   1.413   4.243
 5629SOL     OW17785   3.801   3.727   3.508
 5629SOL    HW117786   3.862   3.672   3.565
 5629SOL    HW217787   3.733   3.668   3.465
 5630SOL     OW17788   6.701   4.022   0.575
 5630SOL    HW117789   6.670   3.962   0.649
 5630SOL    HW217790   6.777   3.977   0.527
 5631SOL     OW17791   5.821   1.419   6.135
 5631SOL    HW117792   5.810   1.320   6.140
 5631SOL    HW217793   5.896   1.448   6.194
 5632SOL     OW17794   3.226   2.355   0.721
 5632SOL    HW117795   3.311   2.356   0.669
 5632SOL    HW217796   3.210   2.445   0.761
 5633SOL     OW17797   0.282   2.624   5.774
 5633SOL    HW117798   0.225   2.590   5.699
 5633SOL    HW217799   0.226   2.636   5.856
 5634SOL     OW17800   4.963   5.975   5.381
 5634SOL    HW117801   4.984   5.950   5.287
 5634SOL    HW217802   5.046   5.965   5.437
 5635SOL     OW17803   3.086   1.680   6.279
 5635SOL    HW117804   3.139   1.628   6.347
 5635SOL    HW217805   3.098   1.778   6.296
 5636SOL     OW17806   4.618   0.332   4.469
 5636SOL    HW117807   4.530   0.285   4.454
 5636SOL    HW217808   4.682   0.307   4.396
 5637SOL     OW17809   5.972   6.713   2.939
 5637SOL    HW117810   5.891   6.694   2.995
 5637SOL    HW217811   6.021   6.628   2.922
 5638SOL     OW17812   0.162   3.647   0.033
 5638SOL    HW117813   0.163   3.715   6.977
 5638SOL    HW217814   0.253   3.639   0.073
 5639SOL     OW17815   4.055   6.897   6.526
 5639SOL    HW117816   4.117   6.823   6.551
 5639SOL    HW217817   3.962   6.873   6.551
 5640SOL     OW17818   1.480   6.937   3.508
 5640SOL    HW117819   1.483   0.010   3.551
 5640SOL    HW217820   1.560   6.926   3.449
 5641SOL     OW17821   6.906   5.884   5.002
 5641SOL    HW117822   6.908   5.915   5.097
 5641SOL    HW217823   6.921   5.962   4.941
 5642SOL     OW17824   1.640   1.219   0.358
 5642SOL    HW117825   1.616   1.190   0.265
 5642SOL    HW217826   1.647   1.319   0.360
 5643SOL     OW17827   5.278   2.039   0.030
 5643SOL    HW117828   5.264   1.940   0.018
 5643SOL    HW217829   5.192   2.086   0.010
 5644SOL     OW17830   2.698   0.095   5.776
 5644SOL    HW117831   2.658   0.186   5.767
 5644SOL    HW217832   2.628   0.031   5.809
 5645SOL     OW17833   5.395   3.873   4.123
 5645SOL    HW117834   5.317   3.907   4.070
 5645SOL    HW217835   5.363   3.843   4.213
 5646SOL     OW17836   0.702   3.946   2.466
 5646SOL    HW117837   0.787   3.896   2.448
 5646SOL    HW217838   0.712   4.001   2.549
 5647SOL     OW17839   4.592   5.677   2.477
 5647SOL    HW117840   4.669   5.740   2.470
 5647SOL    HW217841   4.620   5.596   2.529
 5648SOL     OW17842   5.787   6.425   3.423
 5648SOL    HW117843   5.851   6.373   3.366
 5648SOL    HW217844   5.712   6.459   3.367
 5649SOL     OW17845   0.168   0.289   4.869
 5649SOL    HW117846   0.125   0.285   4.779
 5649SOL    HW217847   0.179   0.385   4.897
 5650SOL     OW17848   0.295   3.763   6.212
 5650SOL    HW117849   0.198   3.760   6.188
 5650SOL    HW217850   0.350   3.756   6.128
 5651SOL     OW17851   2.653   1.235   1.495
 5651SOL    HW117852   2.664   1.174   1.574
 5651SOL    HW217853   2.597   1.190   1.426
 5652SOL     OW17854   0.547   5.983   2.780
 5652SOL    HW117855   0.591   6.070   2.758
 5652SOL    HW217856   0.528   5.932   2.696
 5653SOL     OW17857   6.816   0.435   2.868
 5653SOL    HW117858   6.732   0.487   2.855
 5653SOL    HW217859   6.844   0.393   2.782
 5654SOL     OW17860   3.302   6.177   5.735
 5654SOL    HW117861   3.318   6.149   5.640
 5654SOL    HW217862   3.388   6.177   5.785
 5655SOL     OW17863   6.177   3.530   4.515
 5655SOL    HW117864   6.224   3.515   4.428
 5655SOL    HW217865   6.240   3.574   4.579
 5656SOL     OW17866   0.431   4.669   1.115
 5656SOL    HW117867   0.469   4.704   1.201
 5656SOL    HW217868   0.335   4.646   1.129
 5657SOL     OW17869   5.971   6.116   5.431
 5657SOL    HW117870   6.009   6.156   5.514
 5657SOL    HW217871   5.961   6.017   5.442
 5658SOL     OW17872   3.063   2.588   5.568
 5658SOL    HW117873   3.076   2.640   5.483
 5658SOL    HW217874   3.043   2.651   5.643
 5659SOL     OW17875   2.449   4.063   6.045
 5659SOL    HW117876   2.461   3.989   6.111
 5659SOL    HW217877   2.353   4.093   6.046
 5660SOL     OW17878   4.285   0.515   4.433
 5660SOL    HW117879   4.335   0.564   4.504
 5660SOL    HW217880   4.187   0.525   4.449
 5661SOL     OW17881   0.254   5.867   5.854
 5661SOL    HW117882   0.276   5.781   5.809
 5661SOL    HW217883   0.337   5.924   5.859
 5662SOL     OW17884   2.567   6.101   0.975
 5662SOL    HW117885   2.512   6.141   0.902
 5662SOL    HW217886   2.507   6.067   1.048
 5663SOL     OW17887   3.160   1.888   6.536
 5663SOL    HW117888   3.215   1.805   6.533
 5663SOL    HW217889   3.092   1.885   6.462
 5664SOL     OW17890   5.030   5.680   4.730
 5664SOL    HW117891   5.014   5.778   4.739
 5664SOL    HW217892   4.946   5.630   4.752
 5665SOL     OW17893   2.154   0.832   0.849
 5665SOL    HW117894   2.188   0.770   0.919
 5665SOL    HW217895   2.158   0.787   0.760
 5666SOL     OW17896   5.848   3.221   4.719
 5666SOL    HW117897   5.940   3.258   4.729
 5666SOL    HW217898   5.850   3.122   4.738
 5667SOL     OW17899   2.604   4.657   3.829
 5667SOL    HW117900   2.557   4.570   3.815
 5667SOL    HW217901   2.689   4.658   3.775
 5668SOL     OW17902   4.578   4.414   3.982
 5668SOL    HW117903   4.634   4.362   3.918
 5668SOL    HW217904   4.506   4.462   3.933
 5669SOL     OW17905   5.877   3.573   5.499
 5669SOL    HW117906   5.877   3.592   5.597
 5669SOL    HW217907   5.815   3.637   5.453
 5670SOL     OW17908   1.014   3.203   3.969
 5670SOL    HW117909   0.921   3.200   3.932
 5670SOL    HW217910   1.080   3.194   3.895
 5671SOL     OW17911   6.256   5.837   2.747
 5671SOL    HW117912   6.172   5.892   2.753
 5671SOL    HW217913   6.232   5.741   2.758
 5672SOL     OW17914   5.677   3.434   4.735
 5672SOL    HW117915   5.714   3.526   4.724
 5672SOL    HW217916   5.749   3.367   4.719
 5673SOL     OW17917   0.685   2.009   0.494
 5673SOL    HW117918   0.751   2.081   0.516
 5673SOL    HW217919   0.692   1.986   0.397
 5674SOL     OW17920   2.802   5.708   4.990
 5674SOL    HW117921   2.775   5.749   5.077
 5674SOL    HW217922   2.848   5.776   4.933
 5675SOL     OW17923   3.567   2.359   0.844
 5675SOL    HW117924   3.518   2.366   0.757
 5675SOL    HW217925   3.666   2.358   0.826
 5676SOL     OW17926   3.636   1.056   1.934
 5676SOL    HW117927   3.644   0.957   1.922
 5676SOL    HW217928   3.542   1.084   1.915
 5677SOL     OW17929   1.212   1.420   6.364
 5677SOL    HW117930   1.177   1.404   6.272
 5677SOL    HW217931   1.209   1.518   6.385
 5678SOL     OW17932   3.841   1.775   1.910
 5678SOL    HW117933   3.817   1.723   1.828
 5678SOL    HW217934   3.757   1.806   1.955
 5679SOL     OW17935   0.891   3.798   5.831
 5679SOL    HW117936   0.888   3.846   5.743
 5679SOL    HW217937   0.804   3.751   5.847
 5680SOL     OW17938   0.526   5.367   4.759
 5680SOL    HW117939   0.502   5.462   4.742
 5680SOL    HW217940   0.451   5.323   4.809
 5681SOL     OW17941   1.434   3.424   3.252
 5681SOL    HW117942   1.409   3.406   3.157
 5681SOL    HW217943   1.352   3.419   3.310
 5682SOL     OW17944   2.074   4.545   0.631
 5682SOL    HW117945   2.161   4.511   0.667
 5682SOL    HW217946   2.084   4.569   0.535
 5683SOL     OW17947   6.800   6.852   5.820
 5683SOL    HW117948   6.759   6.905   5.746
 5683SOL    HW217949   6.740   6.855   5.900
 5684SOL     OW17950   1.873   3.287   4.774
 5684SOL    HW117951   1.832   3.338   4.849
 5684SOL    HW217952   1.820   3.302   4.690
 5685SOL     OW17953   1.652   2.183   1.764
 5685SOL    HW117954   1.684   2.088   1.754
 5685SOL    HW217955   1.720   2.235   1.815
 5686SOL     OW17956   5.905   5.455   5.238
 5686SOL    HW117957   5.863   5.501   5.316
 5686SOL    HW217958   5.835   5.409   5.183
 5687SOL     OW17959   1.309   0.446   6.770
 5687SOL    HW117960   1.254   0.523   6.738
 5687SOL    HW217961   1.273   0.414   6.858
 5688SOL     OW17962   1.488   2.608   2.533
 5688SOL    HW117963   1.516   2.512   2.540
 5688SOL    HW217964   1.563   2.663   2.495
 5689SOL     OW17965   6.761   1.656   1.046
 5689SOL    HW117966   6.813   1.738   1.027
 5689SOL    HW217967   6.666   1.668   1.015
 5690SOL     OW17968   2.822   5.099   0.326
 5690SOL    HW117969   2.881   5.148   0.390
 5690SOL    HW217970   2.782   5.019   0.372
 5691SOL     OW17971   4.930   3.020   3.461
 5691SOL    HW117972   4.883   3.004   3.548
 5691SOL    HW217973   5.004   2.954   3.451
 5692SOL     OW17974   6.843   5.101   1.855
 5692SOL    HW117975   6.862   5.197   1.877
 5692SOL    HW217976   6.745   5.084   1.860
 5693SOL     OW17977   3.149   1.254   2.390
 5693SOL    HW117978   3.245   1.262   2.363
 5693SOL    HW217979   3.143   1.220   2.484
 5694SOL     OW17980   0.238   6.723   0.973
 5694SOL    HW117981   0.240   6.684   1.066
 5694SOL    HW217982   0.311   6.790   0.964
 5695SOL     OW17983   1.939   1.215   2.036
 5695SOL    HW117984   1.914   1.270   2.116
 5695SOL    HW217985   1.909   1.120   2.050
 5696SOL     OW17986   0.312   0.820   3.441
 5696SOL    HW117987   0.272   0.864   3.522
 5696SOL    HW217988   0.276   0.862   3.358
 5697SOL     OW17989   5.914   1.879   0.783
 5697SOL    HW117990   5.830   1.904   0.734
 5697SOL    HW217991   5.960   1.805   0.734
 5698SOL     OW17992   2.946   2.236   3.450
 5698SOL    HW117993   2.897   2.286   3.522
 5698SOL    HW217994   3.039   2.272   3.444
 5699SOL     OW17995   2.337   2.748   2.646
 5699SOL    HW117996   2.293   2.661   2.671
 5699SOL    HW217997   2.427   2.753   2.688
 5700SOL     OW17998   5.783   0.183   1.977
 5700SOL    HW117999   5.839   0.152   2.054
 5700SOL    HW218000   5.750   0.276   1.995
 5701SOL     OW18001   1.777   0.465   0.737
 5701SOL    HW118002   1.707   0.396   0.715
 5701SOL    HW218003   1.733   0.554   0.749
 5702SOL     OW18004   1.170   6.237   5.186
 5702SOL    HW118005   1.181   6.156   5.130
 5702SOL    HW218006   1.215   6.315   5.142
 5703SOL     OW18007   1.235   2.962   6.138
 5703SOL    HW118008   1.324   2.953   6.093
 5703SOL    HW218009   1.236   2.911   6.224
 5704SOL     OW18010   4.044   5.649   4.471
 5704SOL    HW118011   4.100   5.716   4.422
 5704SOL    HW218012   4.104   5.585   4.520
 5705SOL     OW18013   5.442   1.424   5.040
 5705SOL    HW118014   5.485   1.412   4.950
 5705SOL    HW218015   5.351   1.385   5.039
 5706SOL     OW18016   5.353   1.011   1.023
 5706SOL    HW118017   5.337   0.914   1.040
 5706SOL    HW218018   5.321   1.065   1.101
 5707SOL     OW18019   5.742   6.048   1.570
 5707SOL    HW118020   5.738   5.949   1.581
 5707SOL    HW218021   5.739   6.092   1.660
 5708SOL     OW18022   5.325   6.822   2.384
 5708SOL    HW118023   5.302   6.871   2.300
 5708SOL    HW218024   5.425   6.812   2.390
 5709SOL     OW18025   0.159   2.245   2.157
 5709SOL    HW118026   0.125   2.335   2.129
 5709SOL    HW218027   0.188   2.250   2.253
 5710SOL     OW18028   5.495   1.183   0.849
 5710SOL    HW118029   5.560   1.241   0.899
 5710SOL    HW218030   5.448   1.124   0.914
 5711SOL     OW18031   4.076   1.427   2.595
 5711SOL    HW118032   4.174   1.408   2.600
 5711SOL    HW218033   4.053   1.501   2.659
 5712SOL     OW18034   6.555   6.207   6.477
 5712SOL    HW118035   6.565   6.306   6.487
 5712SOL    HW218036   6.529   6.167   6.565
 5713SOL     OW18037   1.268   1.550   0.409
 5713SOL    HW118038   1.180   1.517   0.375
 5713SOL    HW218039   1.286   1.641   0.373
 5714SOL     OW18040   5.778   0.110   1.364
 5714SOL    HW118041   5.751   0.125   1.459
 5714SOL    HW218042   5.842   0.033   1.360
 5715SOL     OW18043   0.133   6.129   0.924
 5715SOL    HW118044   0.164   6.156   1.015
 5715SOL    HW218045   0.066   6.195   0.891
 5716SOL     OW18046   0.037   4.926   5.806
 5716SOL    HW118047   0.071   5.009   5.850
 5716SOL    HW218048   6.997   4.875   5.871
 5717SOL     OW18049   0.162   5.841   3.320
 5717SOL    HW118050   0.160   5.748   3.282
 5717SOL    HW218051   0.081   5.891   3.291
 5718SOL     OW18052   1.442   4.442   6.962
 5718SOL    HW118053   1.380   4.369   6.991
 5718SOL    HW218054   1.446   4.512   0.016
 5719SOL     OW18055   3.308   3.690   1.000
 5719SOL    HW118056   3.241   3.677   1.073
 5719SOL    HW218057   3.368   3.609   0.995
 5720SOL     OW18058   2.912   4.354   6.496
 5720SOL    HW118059   2.932   4.258   6.477
 5720SOL    HW218060   2.970   4.386   6.571
 5721SOL     OW18061   0.765   2.981   0.550
 5721SOL    HW118062   0.783   2.888   0.520
 5721SOL    HW218063   0.829   3.006   0.624
 5722SOL     OW18064   1.663   0.758   6.210
 5722SOL    HW118065   1.751   0.803   6.193
 5722SOL    HW218066   1.594   0.827   6.232
 5723SOL     OW18067   4.218   3.643   0.309
 5723SOL    HW118068   4.294   3.707   0.320
 5723SOL    HW218069   4.135   3.682   0.348
 5724SOL     OW18070   6.381   1.793   6.153
 5724SOL    HW118071   6.351   1.781   6.247
 5724SOL    HW218072   6.477   1.767   6.145
 5725SOL     OW18073   7.001   4.221   4.306
 5725SOL    HW118074   7.017   4.254   4.399
 5725SOL    HW218075   6.954   4.292   4.254
 5726SOL     OW18076   3.762   4.929   2.166
 5726SOL    HW118077   3.688   4.877   2.124
 5726SOL    HW218078   3.782   4.893   2.257
 5727SOL     OW18079   0.992   3.258   6.532
 5727SOL    HW118080   0.993   3.161   6.512
 5727SOL    HW218081   0.943   3.274   6.618
 5728SOL     OW18082   2.406   6.097   4.122
 5728SOL    HW118083   2.385   6.089   4.024
 5728SOL    HW218084   2.392   6.191   4.151
 5729SOL     OW18085   2.807   1.857   4.831
 5729SOL    HW118086   2.785   1.954   4.841
 5729SOL    HW218087   2.762   1.821   4.750
 5730SOL     OW18088   6.307   4.634   4.462
 5730SOL    HW118089   6.297   4.551   4.408
 5730SOL    HW218090   6.379   4.622   4.530
 5731SOL     OW18091   0.207   6.304   2.442
 5731SOL    HW118092   0.191   6.403   2.447
 5731SOL    HW218093   0.185   6.271   2.351
 5732SOL     OW18094   5.267   0.684   3.637
 5732SOL    HW118095   5.241   0.716   3.545
 5732SOL    HW218096   5.281   0.763   3.696
 5733SOL     OW18097   2.778   0.912   5.033
 5733SOL    HW118098   2.831   0.966   4.968
 5733SOL    HW218099   2.827   0.828   5.055
 5734SOL     OW18100   1.931   6.366   4.241
 5734SOL    HW118101   1.968   6.284   4.284
 5734SOL    HW218102   1.850   6.395   4.292
 5735SOL     OW18103   2.389   0.961   1.703
 5735SOL    HW118104   2.425   0.945   1.611
 5735SOL    HW218105   2.295   0.994   1.697
 5736SOL     OW18106   1.766   4.912   1.033
 5736SOL    HW118107   1.825   4.838   1.066
 5736SOL    HW218108   1.742   4.972   1.109
 5737SOL     OW18109   5.929   4.005   6.798
 5737SOL    HW118110   5.923   4.030   6.701
 5737SOL    HW218111   6.004   4.055   6.841
 5738SOL     OW18112   0.688   5.476   4.424
 5738SOL    HW118113   0.604   5.496   4.373
 5738SOL    HW218114   0.722   5.560   4.466
 5739SOL     OW18115   0.798   2.402   0.792
 5739SOL    HW118116   0.743   2.486   0.796
 5739SOL    HW218117   0.886   2.418   0.837
 5740SOL     OW18118   4.598   5.094   0.560
 5740SOL    HW118119   4.576   5.072   0.656
 5740SOL    HW218120   4.552   5.179   0.534
 5741SOL     OW18121   0.051   2.491   2.080
 5741SOL    HW118122   6.969   2.489   2.084
 5741SOL    HW218123   0.080   2.543   2.000
 5742SOL     OW18124   0.670   5.325   3.174
 5742SOL    HW118125   0.646   5.273   3.092
 5742SOL    HW218126   0.592   5.325   3.237
 5743SOL     OW18127   0.703   0.516   5.005
 5743SOL    HW118128   0.745   0.566   4.929
 5743SOL    HW218129   0.608   0.495   4.984
 5744SOL     OW18130   6.199   0.128   2.116
 5744SOL    HW118131   6.271   0.089   2.059
 5744SOL    HW218132   6.239   0.191   2.182
 5745SOL     OW18133   6.948   3.601   2.033
 5745SOL    HW118134   6.904   3.512   2.016
 5745SOL    HW218135   6.899   3.672   1.982
 5746SOL     OW18136   0.358   3.676   5.917
 5746SOL    HW118137   0.398   3.586   5.929
 5746SOL    HW218138   0.311   3.681   5.829
 5747SOL     OW18139   0.113   5.690   4.299
 5747SOL    HW118140   0.095   5.753   4.223
 5747SOL    HW218141   0.055   5.609   4.290
 5748SOL     OW18142   1.701   1.303   3.740
 5748SOL    HW118143   1.682   1.371   3.811
 5748SOL    HW218144   1.766   1.235   3.774
 5749SOL     OW18145   0.634   1.429   3.056
 5749SOL    HW118146   0.660   1.525   3.060
 5749SOL    HW218147   0.551   1.414   3.108
 5750SOL     OW18148   4.741   6.463   2.364
 5750SOL    HW118149   4.752   6.437   2.268
 5750SOL    HW218150   4.818   6.520   2.393
 5751SOL     OW18151   1.343   2.024   6.687
 5751SOL    HW118152   1.400   2.008   6.768
 5751SOL    HW218153   1.372   2.109   6.643
 5752SOL     OW18154   1.883   0.953   6.587
 5752SOL    HW118155   1.882   1.052   6.576
 5752SOL    HW218156   1.791   0.917   6.568
 5753SOL     OW18157   4.018   1.481   6.558
 5753SOL    HW118158   3.945   1.542   6.590
 5753SOL    HW218159   3.981   1.420   6.488
 5754SOL     OW18160   6.293   5.902   0.627
 5754SOL    HW118161   6.223   5.836   0.601
 5754SOL    HW218162   6.263   5.951   0.709
 5755SOL     OW18163   2.933   3.471   2.281
 5755SOL    HW118164   2.917   3.488   2.378
 5755SOL    HW218165   2.880   3.392   2.251
 5756SOL     OW18166   6.464   0.168   3.838
 5756SOL    HW118167   6.417   0.119   3.911
 5756SOL    HW218168   6.517   0.104   3.783
 5757SOL     OW18169   6.458   6.527   1.803
 5757SOL    HW118170   6.483   6.521   1.706
 5757SOL    HW218171   6.470   6.438   1.846
 5758SOL     OW18172   3.419   0.653   5.941
 5758SOL    HW118173   3.333   0.602   5.939
 5758SOL    HW218174   3.404   0.746   5.908
 5759SOL     OW18175   0.816   1.136   5.735
 5759SOL    HW118176   0.741   1.197   5.760
 5759SOL    HW218177   0.781   1.043   5.723
 5760SOL     OW18178   6.487   5.752   1.676
 5760SOL    HW118179   6.413   5.812   1.707
 5760SOL    HW218180   6.462   5.657   1.695
 5761SOL     OW18181   3.669   0.605   4.463
 5761SOL    HW118182   3.644   0.701   4.448
 5761SOL    HW218183   3.745   0.581   4.403
 5762SOL     OW18184   4.957   6.904   1.475
 5762SOL    HW118185   4.868   6.872   1.446
 5762SOL    HW218186   5.027   6.838   1.450
 5763SOL     OW18187   3.608   0.922   0.623
 5763SOL    HW118188   3.692   0.976   0.630
 5763SOL    HW218189   3.550   0.960   0.551
 5764SOL     OW18190   3.417   2.903   6.634
 5764SOL    HW118191   3.389   2.981   6.578
 5764SOL    HW218192   3.345   2.834   6.635
 5765SOL     OW18193   6.596   4.765   6.024
 5765SOL    HW118194   6.633   4.846   6.069
 5765SOL    HW218195   6.619   4.684   6.076
 5766SOL     OW18196   2.041   1.688   3.162
 5766SOL    HW118197   2.010   1.642   3.245
 5766SOL    HW218198   2.010   1.637   3.082
 5767SOL     OW18199   5.295   6.533   0.344
 5767SOL    HW118200   5.206   6.576   0.328
 5767SOL    HW218201   5.367   6.587   0.301
 5768SOL     OW18202   5.818   6.737   2.108
 5768SOL    HW118203   5.872   6.699   2.033
 5768SOL    HW218204   5.878   6.786   2.171
 5769SOL     OW18205   6.877   4.676   3.064
 5769SOL    HW118206   6.970   4.707   3.082
 5769SOL    HW218207   6.825   4.677   3.150
 5770SOL     OW18208   4.746   2.239   1.195
 5770SOL    HW118209   4.725   2.172   1.124
 5770SOL    HW218210   4.768   2.327   1.152
 5771SOL     OW18211   0.873   0.467   1.701
 5771SOL    HW118212   0.931   0.546   1.680
 5771SOL    HW218213   0.789   0.499   1.745
 5772SOL     OW18214   6.062   5.021   5.462
 5772SOL    HW118215   5.993   5.093   5.473
 5772SOL    HW218216   6.098   4.995   5.552
 5773SOL     OW18217   4.918   6.215   5.202
 5773SOL    HW118218   4.936   6.304   5.243
 5773SOL    HW218219   4.914   6.145   5.273
 5774SOL     OW18220   1.931   4.952   1.729
 5774SOL    HW118221   1.881   5.011   1.793
 5774SOL    HW218222   1.867   4.893   1.680
 5775SOL     OW18223   0.977   1.109   0.949
 5775SOL    HW118224   0.937   1.030   0.903
 5775SOL    HW218225   1.021   1.080   1.034
 5776SOL     OW18226   4.827   1.024   5.762
 5776SOL    HW118227   4.821   1.124   5.752
 5776SOL    HW218228   4.783   0.980   5.684
 5777SOL     OW18229   5.198   6.491   5.087
 5777SOL    HW118230   5.157   6.461   5.173
 5777SOL    HW218231   5.251   6.574   5.104
 5778SOL     OW18232   2.318   6.378   3.853
 5778SOL    HW118233   2.366   6.297   3.820
 5778SOL    HW218234   2.277   6.358   3.942
 5779SOL     OW18235   3.577   6.594   2.212
 5779SOL    HW118236   3.537   6.599   2.304
 5779SOL    HW218237   3.673   6.621   2.216
 5780SOL     OW18238   6.589   4.473   6.752
 5780SOL    HW118239   6.622   4.486   6.659
 5780SOL    HW218240   6.663   4.489   6.817
 5781SOL     OW18241   4.525   4.134   5.665
 5781SOL    HW118242   4.434   4.172   5.653
 5781SOL    HW218243   4.520   4.034   5.663
 5782SOL     OW18244   4.736   1.879   2.824
 5782SOL    HW118245   4.749   1.879   2.923
 5782SOL    HW218246   4.659   1.819   2.800
 5783SOL     OW18247   2.947   6.090   3.343
 5783SOL    HW118248   2.923   6.022   3.273
 5783SOL    HW218249   2.953   6.181   3.301
 5784SOL     OW18250   0.344   6.857   2.031
 5784SOL    HW118251   0.267   6.884   2.088
 5784SOL    HW218252   0.399   6.937   2.009
 5785SOL     OW18253   2.406   0.999   6.199
 5785SOL    HW118254   2.498   1.025   6.226
 5785SOL    HW218255   2.364   0.942   6.269
 5786SOL     OW18256   2.333   1.570   6.495
 5786SOL    HW118257   2.328   1.656   6.444
 5786SOL    HW218258   2.363   1.497   6.434
 5787SOL     OW18259   0.640   1.956   6.225
 5787SOL    HW118260   0.662   1.997   6.136
 5787SOL    HW218261   0.542   1.939   6.231
 5788SOL     OW18262   0.187   2.577   1.860
 5788SOL    HW118263   0.275   2.608   1.897
 5788SOL    HW218264   0.203   2.517   1.782
 5789SOL     OW18265   3.165   1.181   0.185
 5789SOL    HW118266   3.217   1.222   0.110
 5789SOL    HW218267   3.146   1.085   0.164
 5790SOL     OW18268   6.287   5.953   2.253
 5790SOL    HW118269   6.342   5.986   2.330
 5790SOL    HW218270   6.244   6.031   2.207
 5791SOL     OW18271   3.705   0.864   1.455
 5791SOL    HW118272   3.677   0.774   1.420
 5791SOL    HW218273   3.735   0.922   1.379
 5792SOL     OW18274   4.632   2.037   2.529
 5792SOL    HW118275   4.638   2.116   2.589
 5792SOL    HW218276   4.609   2.068   2.436
 5793SOL     OW18277   4.592   2.413   0.870
 5793SOL    HW118278   4.691   2.411   0.860
 5793SOL    HW218279   4.549   2.416   0.780
 5794SOL     OW18280   3.308   6.149   6.895
 5794SOL    HW118281   3.230   6.088   6.908
 5794SOL    HW218282   3.370   6.141   6.973
 5795SOL     OW18283   0.910   0.472   1.387
 5795SOL    HW118284   0.851   0.397   1.418
 5795SOL    HW218285   0.907   0.547   1.454
 5796SOL     OW18286   4.915   0.985   6.025
 5796SOL    HW118287   4.943   0.902   5.977
 5796SOL    HW218288   4.840   1.029   5.975
 5797SOL     OW18289   5.900   1.540   6.994
 5797SOL    HW118290   5.951   1.617   0.015
 5797SOL    HW218291   5.803   1.549   7.017
 5798SOL     OW18292   2.294   2.776   5.110
 5798SOL    HW118293   2.204   2.775   5.067
 5798SOL    HW218294   2.328   2.870   5.115
 5799SOL     OW18295   2.651   0.667   3.720
 5799SOL    HW118296   2.631   0.754   3.675
 5799SOL    HW218297   2.748   0.664   3.745
 5800SOL     OW18298   1.564   6.084   1.486
 5800SOL    HW118299   1.625   6.028   1.542
 5800SOL    HW218300   1.592   6.079   1.390
 5801SOL     OW18301   1.548   2.142   3.321
 5801SOL    HW118302   1.620   2.186   3.375
 5801SOL    HW218303   1.578   2.051   3.294
 5802SOL     OW18304   0.218   6.824   2.608
 5802SOL    HW118305   0.247   6.805   2.702
 5802SOL    HW218306   0.152   6.900   2.609
 5803SOL     OW18307   0.380   6.442   4.611
 5803SOL    HW118308   0.361   6.540   4.619
 5803SOL    HW218309   0.411   6.407   4.699
 5804SOL     OW18310   5.850   2.146   3.287
 5804SOL    HW118311   5.873   2.198   3.204
 5804SOL    HW218312   5.786   2.198   3.342
 5805SOL     OW18313   0.535   2.225   1.496
 5805SOL    HW118314   0.444   2.251   1.464
 5805SOL    HW218315   0.531   2.138   1.545
 5806SOL     OW18316   6.597   4.277   1.151
 5806SOL    HW118317   6.661   4.336   1.200
 5806SOL    HW218318   6.507   4.321   1.148
 5807SOL     OW18319   0.943   0.590   2.998
 5807SOL    HW118320   0.957   0.654   3.075
 5807SOL    HW218321   0.965   0.636   2.912
 5808SOL     OW18322   5.995   5.531   5.935
 5808SOL    HW118323   6.064   5.600   5.956
 5808SOL    HW218324   5.911   5.551   5.984
 5809SOL     OW18325   6.439   3.504   4.914
 5809SOL    HW118326   6.386   3.516   4.997
 5809SOL    HW218327   6.515   3.569   4.913
 5810SOL     OW18328   0.697   6.041   5.170
 5810SOL    HW118329   0.612   6.072   5.213
 5810SOL    HW218330   0.727   6.108   5.103
 5811SOL     OW18331   3.239   5.052   0.472
 5811SOL    HW118332   3.231   5.019   0.378
 5811SOL    HW218333   3.149   5.048   0.517
 5812SOL     OW18334   6.431   1.908   5.880
 5812SOL    HW118335   6.514   1.880   5.831
 5812SOL    HW218336   6.418   1.849   5.960
 5813SOL     OW18337   6.458   5.714   0.547
 5813SOL    HW118338   6.442   5.642   0.615
 5813SOL    HW218339   6.399   5.792   0.569
 5814SOL     OW18340   4.906   2.033   2.677
 5814SOL    HW118341   4.869   2.006   2.766
 5814SOL    HW218342   4.833   2.031   2.609
 5815SOL     OW18343   0.148   4.518   4.838
 5815SOL    HW118344   0.161   4.435   4.892
 5815SOL    HW218345   0.101   4.587   4.893
 5816SOL     OW18346   6.951   3.966   1.372
 5816SOL    HW118347   6.972   4.061   1.348
 5816SOL    HW218348   6.964   3.907   1.293
 5817SOL     OW18349   6.542   2.636   3.509
 5817SOL    HW118350   6.600   2.627   3.427
 5817SOL    HW218351   6.596   2.614   3.590
 5818SOL     OW18352   2.567   1.170   3.861
 5818SOL    HW118353   2.593   1.198   3.769
 5818SOL    HW218354   2.624   1.093   3.890
 5819SOL     OW18355   3.928   4.478   1.615
 5819SOL    HW118356   3.987   4.409   1.572
 5819SOL    HW218357   3.985   4.552   1.651
 5820SOL     OW18358   0.531   6.249   2.285
 5820SOL    HW118359   0.494   6.342   2.298
 5820SOL    HW218360   0.625   6.256   2.253
 5821SOL     OW18361   4.575   5.887   1.722
 5821SOL    HW118362   4.548   5.810   1.664
 5821SOL    HW218363   4.647   5.939   1.677
 5822SOL     OW18364   1.210   3.907   3.225
 5822SOL    HW118365   1.168   3.820   3.199
 5822SOL    HW218366   1.274   3.935   3.154
 5823SOL     OW18367   2.200   6.261   4.799
 5823SOL    HW118368   2.299   6.267   4.781
 5823SOL    HW218369   2.152   6.240   4.714
 5824SOL     OW18370   2.055   5.537   2.273
 5824SOL    HW118371   2.014   5.576   2.355
 5824SOL    HW218372   2.011   5.576   2.192
 5825SOL     OW18373   3.523   2.109   4.842
 5825SOL    HW118374   3.529   2.199   4.885
 5825SOL    HW218375   3.429   2.075   4.849
 5826SOL     OW18376   1.342   6.013   5.845
 5826SOL    HW118377   1.252   6.019   5.889
 5826SOL    HW218378   1.378   6.106   5.832
 5827SOL     OW18379   1.663   4.507   3.978
 5827SOL    HW118380   1.617   4.594   3.960
 5827SOL    HW218381   1.597   4.433   3.969
 5828SOL     OW18382   4.465   0.249   5.225
 5828SOL    HW118383   4.480   0.245   5.126
 5828SOL    HW218384   4.410   0.170   5.253
 5829SOL     OW18385   1.853   1.358   2.799
 5829SOL    HW118386   1.757   1.353   2.771
 5829SOL    HW218387   1.884   1.268   2.829
 5830SOL     OW18388   5.122   5.326   4.129
 5830SOL    HW118389   5.097   5.421   4.149
 5830SOL    HW218390   5.163   5.286   4.210
 5831SOL     OW18391   2.579   1.994   3.855
 5831SOL    HW118392   2.606   1.928   3.924
 5831SOL    HW218393   2.611   2.085   3.880
 5832SOL     OW18394   3.038   5.325   3.193
 5832SOL    HW118395   3.126   5.374   3.189
 5832SOL    HW218396   3.033   5.273   3.278
 5833SOL     OW18397   2.203   4.621   1.711
 5833SOL    HW118398   2.264   4.690   1.673
 5833SOL    HW218399   2.182   4.552   1.641
 5834SOL     OW18400   5.998   1.485   6.750
 5834SOL    HW118401   5.922   1.476   6.685
 5834SOL    HW218402   5.962   1.482   6.844
 5835SOL     OW18403   3.673   0.601   3.579
 5835SOL    HW118404   3.756   0.548   3.590
 5835SOL    HW218405   3.696   0.695   3.552
 5836SOL     OW18406   6.189   4.721   1.404
 5836SOL    HW118407   6.190   4.629   1.445
 5836SOL    HW218408   6.174   4.789   1.476
 5837SOL     OW18409   2.203   3.885   7.001
 5837SOL    HW118410   2.181   3.887   0.081
 5837SOL    HW218411   2.166   3.966   6.957
 5838SOL     OW18412   2.935   3.319   0.961
 5838SOL    HW118413   2.847   3.330   1.007
 5838SOL    HW218414   2.989   3.250   1.008
 5839SOL     OW18415   2.480   1.861   1.238
 5839SOL    HW118416   2.485   1.957   1.211
 5839SOL    HW218417   2.391   1.843   1.281
 5840SOL     OW18418   6.299   3.576   2.455
 5840SOL    HW118419   6.232   3.644   2.483
 5840SOL    HW218420   6.315   3.583   2.357
 5841SOL     OW18421   5.091   1.288   0.336
 5841SOL    HW118422   5.053   1.312   0.247
 5841SOL    HW218423   5.166   1.350   0.359
 5842SOL     OW18424   3.648   2.083   2.217
 5842SOL    HW118425   3.567   2.028   2.196
 5842SOL    HW218426   3.665   2.146   2.141
 5843SOL     OW18427   2.994   2.483   1.544
 5843SOL    HW118428   2.999   2.567   1.599
 5843SOL    HW218429   2.961   2.408   1.601
 5844SOL     OW18430   6.345   5.382   5.318
 5844SOL    HW118431   6.322   5.305   5.378
 5844SOL    HW218432   6.444   5.383   5.301
 5845SOL     OW18433   2.157   5.979   3.228
 5845SOL    HW118434   2.189   5.910   3.163
 5845SOL    HW218435   2.089   6.037   3.183
 5846SOL     OW18436   0.423   3.894   5.551
 5846SOL    HW118437   0.490   3.936   5.612
 5846SOL    HW218438   0.470   3.837   5.484
 5847SOL     OW18439   1.841   3.772   5.671
 5847SOL    HW118440   1.845   3.819   5.759
 5847SOL    HW218441   1.908   3.812   5.609
 5848SOL     OW18442   2.958   6.773   1.880
 5848SOL    HW118443   3.027   6.837   1.912
 5848SOL    HW218444   2.995   6.717   1.805
 5849SOL     OW18445   2.844   6.037   6.526
 5849SOL    HW118446   2.809   6.023   6.434
 5849SOL    HW218447   2.777   6.089   6.579
 5850SOL     OW18448   5.388   2.250   1.435
 5850SOL    HW118449   5.293   2.282   1.432
 5850SOL    HW218450   5.394   2.169   1.492
 5851SOL     OW18451   1.132   2.698   5.935
 5851SOL    HW118452   1.229   2.689   5.956
 5851SOL    HW218453   1.102   2.791   5.954
 5852SOL     OW18454   4.436   5.012   2.965
 5852SOL    HW118455   4.527   5.019   2.925
 5852SOL    HW218456   4.398   4.922   2.947
 5853SOL     OW18457   4.291   4.783   6.764
 5853SOL    HW118458   4.355   4.757   6.837
 5853SOL    HW218459   4.327   4.752   6.676
 5854SOL     OW18460   2.578   4.156   5.431
 5854SOL    HW118461   2.592   4.070   5.381
 5854SOL    HW218462   2.627   4.230   5.385
 5855SOL     OW18463   1.611   2.117   4.482
 5855SOL    HW118464   1.615   2.023   4.446
 5855SOL    HW218465   1.570   2.177   4.413
 5856SOL     OW18466   0.185   0.803   2.141
 5856SOL    HW118467   0.204   0.835   2.234
 5856SOL    HW218468   0.191   0.703   2.138
 5857SOL     OW18469   6.540   5.772   6.851
 5857SOL    HW118470   6.476   5.847   6.868
 5857SOL    HW218471   6.567   5.773   6.755
 5858SOL     OW18472   2.495   1.583   1.223
 5858SOL    HW118473   2.510   1.682   1.225
 5858SOL    HW218474   2.428   1.558   1.293
 5859SOL     OW18475   6.406   4.909   1.359
 5859SOL    HW118476   6.368   4.988   1.310
 5859SOL    HW218477   6.333   4.843   1.377
 5860SOL     OW18478   1.742   2.731   1.588
 5860SOL    HW118479   1.670   2.688   1.534
 5860SOL    HW218480   1.724   2.829   1.595
 5861SOL     OW18481   4.988   6.522   4.858
 5861SOL    HW118482   5.058   6.514   4.928
 5861SOL    HW218483   4.908   6.469   4.884
 5862SOL     OW18484   0.401   5.181   1.560
 5862SOL    HW118485   0.476   5.231   1.602
 5862SOL    HW218486   0.341   5.144   1.631
 5863SOL     OW18487   4.131   6.558   5.712
 5863SOL    HW118488   4.160   6.624   5.781
 5863SOL    HW218489   4.186   6.570   5.629
 5864SOL     OW18490   4.018   3.830   3.359
 5864SOL    HW118491   3.977   3.916   3.327
 5864SOL    HW218492   3.949   3.776   3.407
 5865SOL     OW18493   6.756   6.409   1.250
 5865SOL    HW118494   6.778   6.475   1.178
 5865SOL    HW218495   6.787   6.444   1.338
 5866SOL     OW18496   2.902   3.499   3.925
 5866SOL    HW118497   2.882   3.551   4.008
 5866SOL    HW218498   2.999   3.508   3.903
 5867SOL     OW18499   4.478   1.083   0.626
 5867SOL    HW118500   4.420   1.164   0.638
 5867SOL    HW218501   4.473   1.026   0.708
 5868SOL     OW18502   1.359   1.047   0.445
 5868SOL    HW118503   1.383   1.031   0.349
 5868SOL    HW218504   1.343   1.145   0.459
 5869SOL     OW18505   2.222   5.422   3.612
 5869SOL    HW118506   2.287   5.488   3.577
 5869SOL    HW218507   2.267   5.361   3.677
 5870SOL     OW18508   3.901   6.487   3.584
 5870SOL    HW118509   3.805   6.502   3.605
 5870SOL    HW218510   3.940   6.570   3.544
 5871SOL     OW18511   4.075   3.629   3.169
 5871SOL    HW118512   4.088   3.539   3.210
 5871SOL    HW218513   4.056   3.696   3.242
 5872SOL     OW18514   3.810   5.144   1.534
 5872SOL    HW118515   3.748   5.204   1.483
 5872SOL    HW218516   3.883   5.112   1.474
 5873SOL     OW18517   3.908   6.902   2.475
 5873SOL    HW118518   3.912   6.995   2.438
 5873SOL    HW218519   3.823   6.858   2.446
 5874SOL     OW18520   0.248   3.451   4.393
 5874SOL    HW118521   0.157   3.493   4.401
 5874SOL    HW218522   0.279   3.457   4.298
 5875SOL     OW18523   4.591   2.666   1.299
 5875SOL    HW118524   4.512   2.722   1.276
 5875SOL    HW218525   4.665   2.724   1.333
 5876SOL     OW18526   3.563   3.678   2.684
 5876SOL    HW118527   3.613   3.737   2.620
 5876SOL    HW218528   3.505   3.734   2.743
 5877SOL     OW18529   4.448   4.793   1.640
 5877SOL    HW118530   4.479   4.866   1.701
 5877SOL    HW218531   4.394   4.832   1.566
 5878SOL     OW18532   0.534   3.365   2.051
 5878SOL    HW118533   0.506   3.275   2.019
 5878SOL    HW218534   0.455   3.426   2.052
 5879SOL     OW18535   2.108   4.447   4.972
 5879SOL    HW118536   2.073   4.353   4.969
 5879SOL    HW218537   2.031   4.511   4.984
 5880SOL     OW18538   2.631   5.151   0.115
 5880SOL    HW118539   2.695   5.135   0.191
 5880SOL    HW218540   2.609   5.063   0.072
 5881SOL     OW18541   1.420   5.806   4.486
 5881SOL    HW118542   1.387   5.735   4.549
 5881SOL    HW218543   1.520   5.802   4.480
 5882SOL     OW18544   5.120   0.412   3.436
 5882SOL    HW118545   5.176   0.412   3.519
 5882SOL    HW218546   5.177   0.431   3.356
 5883SOL     OW18547   0.678   3.610   5.647
 5883SOL    HW118548   0.778   3.602   5.643
 5883SOL    HW218549   0.643   3.625   5.554
 5884SOL     OW18550   0.493   1.208   3.527
 5884SOL    HW118551   0.542   1.233   3.611
 5884SOL    HW218552   0.553   1.154   3.468
 5885SOL     OW18553   6.092   5.759   0.320
 5885SOL    HW118554   6.003   5.746   0.277
 5885SOL    HW218555   6.116   5.856   0.319
 5886SOL     OW18556   5.864   1.743   5.577
 5886SOL    HW118557   5.941   1.700   5.530
 5886SOL    HW218558   5.781   1.732   5.523
 5887SOL     OW18559   3.456   0.203   2.243
 5887SOL    HW118560   3.366   0.220   2.283
 5887SOL    HW218561   3.510   0.288   2.244
 5888SOL     OW18562   6.631   6.075   1.728
 5888SOL    HW118563   6.729   6.069   1.748
 5888SOL    HW218564   6.615   6.146   1.660
 5889SOL     OW18565   3.191   0.128   1.140
 5889SOL    HW118566   3.150   0.117   1.230
 5889SOL    HW218567   3.160   0.053   1.080
 5890SOL     OW18568   4.366   5.389   5.824
 5890SOL    HW118569   4.391   5.294   5.843
 5890SOL    HW218570   4.337   5.434   5.908
 5891SOL     OW18571   2.295   2.893   6.732
 5891SOL    HW118572   2.294   2.807   6.782
 5891SOL    HW218573   2.340   2.963   6.787
 5892SOL     OW18574   3.015   5.489   1.607
 5892SOL    HW118575   2.959   5.568   1.585
 5892SOL    HW218576   3.000   5.417   1.539
 5893SOL     OW18577   0.681   2.803   1.928
 5893SOL    HW118578   0.774   2.799   1.891
 5893SOL    HW218579   0.681   2.856   2.012
 5894SOL     OW18580   1.839   3.939   3.385
 5894SOL    HW118581   1.933   3.966   3.405
 5894SOL    HW218582   1.836   3.894   3.295
 5895SOL     OW18583   5.052   5.136   2.666
 5895SOL    HW118584   5.087   5.164   2.755
 5895SOL    HW218585   5.004   5.213   2.623
 5896SOL     OW18586   5.815   1.997   5.866
 5896SOL    HW118587   5.797   1.919   5.926
 5896SOL    HW218588   5.798   1.970   5.771
 5897SOL     OW18589   4.410   4.230   0.415
 5897SOL    HW118590   4.389   4.211   0.319
 5897SOL    HW218591   4.505   4.204   0.433
 5898SOL     OW18592   1.512   5.572   2.979
 5898SOL    HW118593   1.445   5.546   2.908
 5898SOL    HW218594   1.583   5.630   2.939
 5899SOL     OW18595   5.282   0.940   3.713
 5899SOL    HW118596   5.318   1.006   3.779
 5899SOL    HW218597   5.282   0.981   3.622
 5900SOL     OW18598   3.512   5.144   1.994
 5900SOL    HW118599   3.568   5.186   2.065
 5900SOL    HW218600   3.473   5.215   1.935
 5901SOL     OW18601   2.987   6.352   3.502
 5901SOL    HW118602   2.992   6.382   3.407
 5901SOL    HW218603   2.957   6.428   3.560
 5902SOL     OW18604   6.367   1.979   0.341
 5902SOL    HW118605   6.458   1.997   0.302
 5902SOL    HW218606   6.333   2.063   0.383
 5903SOL     OW18607   0.819   1.729   6.578
 5903SOL    HW118608   0.815   1.816   6.529
 5903SOL    HW218609   0.746   1.727   6.647
 5904SOL     OW18610   0.378   2.796   1.660
 5904SOL    HW118611   0.281   2.798   1.685
 5904SOL    HW218612   0.411   2.702   1.661
 5905SOL     OW18613   6.644   3.751   2.244
 5905SOL    HW118614   6.697   3.667   2.235
 5905SOL    HW218615   6.698   3.819   2.293
 5906SOL     OW18616   6.753   1.502   3.214
 5906SOL    HW118617   6.747   1.516   3.313
 5906SOL    HW218618   6.830   1.443   3.193
 5907SOL     OW18619   1.613   0.945   2.165
 5907SOL    HW118620   1.567   0.887   2.233
 5907SOL    HW218621   1.569   1.035   2.164
 5908SOL     OW18622   0.592   3.049   5.384
 5908SOL    HW118623   0.671   3.033   5.443
 5908SOL    HW218624   0.608   3.129   5.327
 5909SOL     OW18625   6.651   4.275   6.458
 5909SOL    HW118626   6.676   4.372   6.455
 5909SOL    HW218627   6.651   4.238   6.365
 5910SOL     OW18628   1.342   1.757   3.260
 5910SOL    HW118629   1.274   1.799   3.201
 5910SOL    HW218630   1.297   1.717   3.340
 5911SOL     OW18631   5.925   5.105   6.700
 5911SOL    HW118632   5.986   5.068   6.629
 5911SOL    HW218633   5.859   5.167   6.657
 5912SOL     OW18634   0.758   1.920   2.425
 5912SOL    HW118635   0.748   1.870   2.338
 5912SOL    HW218636   0.717   1.866   2.499
 5913SOL     OW18637   6.980   3.778   1.182
 5913SOL    HW118638   0.047   3.827   1.162
 5913SOL    HW218639   6.912   3.799   1.112
 5914SOL     OW18640   1.249   6.803   0.809
 5914SOL    HW118641   1.321   6.743   0.842
 5914SOL    HW218642   1.250   6.806   0.709
 5915SOL     OW18643   4.348   0.535   5.492
 5915SOL    HW118644   4.311   0.445   5.467
 5915SOL    HW218645   4.374   0.534   5.589
 5916SOL     OW18646   0.673   0.494   2.925
 5916SOL    HW118647   0.772   0.483   2.910
 5916SOL    HW218648   0.639   0.569   2.868
 5917SOL     OW18649   3.911   3.252   0.365
 5917SOL    HW118650   3.872   3.317   0.430
 5917SOL    HW218651   3.932   3.167   0.413
 5918SOL     OW18652   3.488   6.612   5.078
 5918SOL    HW118653   3.533   6.575   5.159
 5918SOL    HW218654   3.417   6.549   5.047
 5919SOL     OW18655   3.020   3.266   4.651
 5919SOL    HW118656   3.055   3.172   4.642
 5919SOL    HW218657   2.972   3.275   4.739
 5920SOL     OW18658   1.475   0.139   5.555
 5920SOL    HW118659   1.498   0.231   5.524
 5920SOL    HW218660   1.380   0.136   5.584
 5921SOL     OW18661   2.505   4.387   1.060
 5921SOL    HW118662   2.539   4.445   1.134
 5921SOL    HW218663   2.421   4.341   1.090
 5922SOL     OW18664   5.061   2.655   2.404
 5922SOL    HW118665   5.117   2.732   2.434
 5922SOL    HW218666   5.083   2.633   2.309
 5923SOL     OW18667   5.823   0.894   2.472
 5923SOL    HW118668   5.895   0.953   2.508
 5923SOL    HW218669   5.746   0.950   2.441
 5924SOL     OW18670   0.369   6.030   3.317
 5924SOL    HW118671   0.297   5.961   3.310
 5924SOL    HW218672   0.392   6.064   3.225
 5925SOL     OW18673   4.376   0.761   1.081
 5925SOL    HW118674   4.388   0.671   1.038
 5925SOL    HW218675   4.281   0.774   1.106
 5926SOL     OW18676   5.035   3.238   3.315
 5926SOL    HW118677   5.031   3.325   3.364
 5926SOL    HW218678   4.972   3.173   3.357
 5927SOL     OW18679   1.367   0.007   1.651
 5927SOL    HW118680   1.273   0.040   1.662
 5927SOL    HW218681   1.427   0.083   1.629
 5928SOL     OW18682   3.199   6.980   0.038
 5928SOL    HW118683   3.276   6.979   0.102
 5928SOL    HW218684   3.202   6.898   6.999
 5929SOL     OW18685   1.066   0.879   1.446
 5929SOL    HW118686   1.103   0.889   1.538
 5929SOL    HW218687   0.968   0.861   1.450
 5930SOL     OW18688   0.644   4.980   1.550
 5930SOL    HW118689   0.721   4.916   1.546
 5930SOL    HW218690   0.597   4.972   1.638
 5931SOL     OW18691   4.516   0.600   4.839
 5931SOL    HW118692   4.606   0.642   4.825
 5931SOL    HW218693   4.514   0.554   4.928
 5932SOL     OW18694   2.875   5.400   0.884
 5932SOL    HW118695   2.914   5.418   0.794
 5932SOL    HW218696   2.789   5.350   0.874
 5933SOL     OW18697   6.985   5.473   4.300
 5933SOL    HW118698   6.901   5.520   4.328
 5933SOL    HW218699   6.991   5.384   4.346
 5934SOL     OW18700   3.060   4.613   7.008
 5934SOL    HW118701   3.093   4.705   6.987
 5934SOL    HW218702   3.136   4.556   0.020
 5935SOL     OW18703   1.672   0.960   5.452
 5935SOL    HW118704   1.623   1.035   5.407
 5935SOL    HW218705   1.676   0.977   5.550
 5936SOL     OW18706   3.900   3.220   2.080
 5936SOL    HW118707   3.986   3.231   2.031
 5936SOL    HW218708   3.850   3.142   2.042
 5937SOL     OW18709   0.783   2.710   0.532
 5937SOL    HW118710   0.718   2.686   0.604
 5937SOL    HW218711   0.780   2.641   0.460
 5938SOL     OW18712   0.286   3.476   4.121
 5938SOL    HW118713   0.381   3.475   4.152
 5938SOL    HW218714   0.271   3.400   4.058
 5939SOL     OW18715   4.981   1.939   5.915
 5939SOL    HW118716   4.887   1.937   5.880
 5939SOL    HW218717   5.010   1.846   5.938
 5940SOL     OW18718   4.787   4.923   1.040
 5940SOL    HW118719   4.714   4.856   1.029
 5940SOL    HW218720   4.751   5.005   1.084
 5941SOL     OW18721   1.549   1.519   3.327
 5941SOL    HW118722   1.599   1.497   3.243
 5941SOL    HW218723   1.483   1.591   3.308
 5942SOL     OW18724   4.698   2.342   6.540
 5942SOL    HW118725   4.639   2.404   6.593
 5942SOL    HW218726   4.687   2.362   6.442
 5943SOL     OW18727   1.991   4.458   2.345
 5943SOL    HW118728   1.987   4.431   2.441
 5943SOL    HW218729   2.083   4.443   2.310
 5944SOL     OW18730   6.667   3.236   5.575
 5944SOL    HW118731   6.756   3.269   5.608
 5944SOL    HW218732   6.646   3.278   5.487
 5945SOL     OW18733   0.538   6.780   4.311
 5945SOL    HW118734   0.541   6.749   4.216
 5945SOL    HW218735   0.621   6.751   4.359
 5946SOL     OW18736   3.199   2.741   6.687
 5946SOL    HW118737   3.134   2.817   6.697
 5946SOL    HW218738   3.155   2.665   6.639
 5947SOL     OW18739   3.563   3.636   5.638
 5947SOL    HW118740   3.642   3.584   5.605
 5947SOL    HW218741   3.480   3.582   5.629
 5948SOL     OW18742   4.737   3.830   1.158
 5948SOL    HW118743   4.721   3.923   1.194
 5948SOL    HW218744   4.656   3.774   1.175
 5949SOL     OW18745   1.597   4.870   4.356
 5949SOL    HW118746   1.670   4.835   4.297
 5949SOL    HW218747   1.614   4.966   4.376
 5950SOL     OW18748   1.851   6.559   4.996
 5950SOL    HW118749   1.838   6.621   5.074
 5950SOL    HW218750   1.799   6.475   5.012
 5951SOL     OW18751   0.059   2.944   6.259
 5951SOL    HW118752   6.978   2.960   6.259
 5951SOL    HW218753   0.085   2.897   6.174
 5952SOL     OW18754   3.467   4.065   1.907
 5952SOL    HW118755   3.408   4.080   1.987
 5952SOL    HW218756   3.509   3.974   1.914
 5953SOL     OW18757   6.986   2.785   6.957
 5953SOL    HW118758   0.011   2.730   6.885
 5953SOL    HW218759   0.037   2.843   7.000
 5954SOL     OW18760   2.725   5.079   3.716
 5954SOL    HW118761   2.672   5.068   3.631
 5954SOL    HW218762   2.821   5.093   3.694
 5955SOL     OW18763   4.528   3.424   0.386
 5955SOL    HW118764   4.620   3.394   0.409
 5955SOL    HW218765   4.532   3.515   0.345
 5956SOL     OW18766   4.298   2.210   6.903
 5956SOL    HW118767   4.350   2.256   6.831
 5956SOL    HW218768   4.221   2.162   6.862
 5957SOL     OW18769   0.066   2.689   3.705
 5957SOL    HW118770   0.044   2.703   3.608
 5957SOL    HW218771   0.125   2.609   3.714
 5958SOL     OW18772   2.348   6.263   1.690
 5958SOL    HW118773   2.420   6.256   1.759
 5958SOL    HW218774   2.259   6.257   1.735
 5959SOL     OW18775   5.062   4.376   2.798
 5959SOL    HW118776   4.989   4.381   2.866
 5959SOL    HW218777   5.064   4.286   2.756
 5960SOL     OW18778   6.277   6.677   6.782
 5960SOL    HW118779   6.254   6.730   6.864
 5960SOL    HW218780   6.366   6.706   6.747
 5961SOL     OW18781   1.667   1.885   3.281
 5961SOL    HW118782   1.744   1.925   3.231
 5961SOL    HW218783   1.642   1.797   3.239
 5962SOL     OW18784   5.287   5.453   0.558
 5962SOL    HW118785   5.200   5.489   0.589
 5962SOL    HW218786   5.285   5.353   0.560
 5963SOL     OW18787   2.434   4.305   1.432
 5963SOL    HW118788   2.463   4.385   1.485
 5963SOL    HW218789   2.512   4.243   1.421
 5964SOL     OW18790   1.350   6.700   4.082
 5964SOL    HW118791   1.427   6.705   4.018
 5964SOL    HW218792   1.381   6.726   4.173
 5965SOL     OW18793   1.831   0.201   1.549
 5965SOL    HW118794   1.848   0.292   1.511
 5965SOL    HW218795   1.734   0.179   1.540
 5966SOL     OW18796   2.819   1.867   5.488
 5966SOL    HW118797   2.859   1.835   5.574
 5966SOL    HW218798   2.884   1.852   5.414
 5967SOL     OW18799   4.800   2.261   5.775
 5967SOL    HW118800   4.707   2.228   5.759
 5967SOL    HW218801   4.807   2.296   5.868
 5968SOL     OW18802   6.450   1.581   3.209
 5968SOL    HW118803   6.438   1.613   3.115
 5968SOL    HW218804   6.386   1.507   3.228
 5969SOL     OW18805   5.302   6.456   1.795
 5969SOL    HW118806   5.331   6.537   1.845
 5969SOL    HW218807   5.276   6.481   1.702
 5970SOL     OW18808   6.070   1.717   0.640
 5970SOL    HW118809   6.154   1.770   0.633
 5970SOL    HW218810   6.077   1.636   0.582
 5971SOL     OW18811   6.920   5.168   3.511
 5971SOL    HW118812   7.004   5.122   3.482
 5971SOL    HW218813   6.943   5.253   3.558
 5972SOL     OW18814   6.328   5.253   0.240
 5972SOL    HW118815   6.347   5.235   0.337
 5972SOL    HW218816   6.401   5.214   0.184
 5973SOL     OW18817   3.317   0.664   1.911
 5973SOL    HW118818   3.278   0.641   2.001
 5973SOL    HW218819   3.398   0.722   1.924
 5974SOL     OW18820   5.428   0.932   4.652
 5974SOL    HW118821   5.348   0.876   4.674
 5974SOL    HW218822   5.410   0.983   4.568
 5975SOL     OW18823   3.981   4.376   0.665
 5975SOL    HW118824   3.929   4.433   0.601
 5975SOL    HW218825   3.918   4.328   0.726
 5976SOL     OW18826   0.806   2.007   6.495
 5976SOL    HW118827   0.765   2.004   6.404
 5976SOL    HW218828   0.906   2.017   6.486
 5977SOL     OW18829   0.831   5.528   1.582
 5977SOL    HW118830   0.875   5.522   1.672
 5977SOL    HW218831   0.820   5.624   1.557
 5978SOL     OW18832   2.968   3.585   6.113
 5978SOL    HW118833   2.985   3.661   6.050
 5978SOL    HW218834   3.004   3.609   6.204
 5979SOL     OW18835   5.993   0.654   1.587
 5979SOL    HW118836   6.084   0.692   1.575
 5979SOL    HW218837   5.924   0.720   1.555
 5980SOL     OW18838   3.864   2.512   0.453
 5980SOL    HW118839   3.786   2.570   0.432
 5980SOL    HW218840   3.937   2.530   0.387
 5981SOL     OW18841   4.333   2.092   0.817
 5981SOL    HW118842   4.412   2.104   0.758
 5981SOL    HW218843   4.359   2.115   0.911
 5982SOL     OW18844   5.801   2.742   1.429
 5982SOL    HW118845   5.718   2.796   1.416
 5982SOL    HW218846   5.789   2.652   1.386
 5983SOL     OW18847   0.399   2.016   3.335
 5983SOL    HW118848   0.359   1.951   3.399
 5983SOL    HW218849   0.327   2.061   3.283
 5984SOL     OW18850   6.180   5.778   1.516
 5984SOL    HW118851   6.242   5.855   1.506
 5984SOL    HW218852   6.186   5.719   1.435
 5985SOL     OW18853   0.242   4.205   2.464
 5985SOL    HW118854   0.281   4.113   2.466
 5985SOL    HW218855   0.315   4.271   2.446
 5986SOL     OW18856   3.742   3.556   2.858
 5986SOL    HW118857   3.685   3.596   2.787
 5986SOL    HW218858   3.745   3.456   2.846
 5987SOL     OW18859   0.570   5.998   4.377
 5987SOL    HW118860   0.520   5.943   4.311
 5987SOL    HW218861   0.509   6.066   4.417
 5988SOL     OW18862   1.930   2.079   0.827
 5988SOL    HW118863   1.881   2.022   0.893
 5988SOL    HW218864   1.887   2.169   0.822
 5989SOL     OW18865   2.589   6.319   5.809
 5989SOL    HW118866   2.513   6.310   5.874
 5989SOL    HW218867   2.591   6.412   5.773
 5990SOL     OW18868   2.584   4.141   1.747
 5990SOL    HW118869   2.507   4.179   1.696
 5990SOL    HW218870   2.569   4.043   1.760
 5991SOL     OW18871   5.134   1.241   0.644
 5991SOL    HW118872   5.135   1.208   0.738
 5991SOL    HW218873   5.049   1.292   0.628
 5992SOL     OW18874   2.634   4.585   2.575
 5992SOL    HW118875   2.567   4.658   2.568
 5992SOL    HW218876   2.596   4.510   2.629
 5993SOL     OW18877   5.703   1.140   0.093
 5993SOL    HW118878   5.720   1.188   0.007
 5993SOL    HW218879   5.789   1.128   0.142
 5994SOL     OW18880   0.788   4.706   1.205
 5994SOL    HW118881   0.764   4.796   1.241
 5994SOL    HW218882   0.789   4.709   1.105
 5995SOL     OW18883   5.342   4.740   1.022
 5995SOL    HW118884   5.432   4.697   1.016
 5995SOL    HW218885   5.305   4.728   1.114
 5996SOL     OW18886   2.301   0.923   2.083
 5996SOL    HW118887   2.267   1.017   2.096
 5996SOL    HW218888   2.228   0.867   2.044
 5997SOL     OW18889   6.380   0.678   4.684
 5997SOL    HW118890   6.455   0.722   4.634
 5997SOL    HW218891   6.304   0.741   4.693
 5998SOL     OW18892   5.848   6.530   0.446
 5998SOL    HW118893   5.752   6.507   0.455
 5998SOL    HW218894   5.869   6.610   0.503
 5999SOL     OW18895   5.691   3.227   0.617
 5999SOL    HW118896   5.655   3.164   0.685
 5999SOL    HW218897   5.698   3.319   0.657
 6000SOL     OW18898   0.652   5.187   1.940
 6000SOL    HW118899   0.580   5.219   2.001
 6000SOL    HW218900   0.618   5.111   1.885
 6001SOL     OW18901   0.145   6.529   5.904
 6001SOL    HW118902   0.093   6.446   5.883
 6001SOL    HW218903   0.241   6.505   5.917
 6002SOL     OW18904   5.478   4.937   4.562
 6002SOL    HW118905   5.562   4.956   4.510
 6002SOL    HW218906   5.501   4.879   4.641
 6003SOL     OW18907   2.390   0.794   4.771
 6003SOL    HW118908   2.372   0.867   4.706
 6003SOL    HW218909   2.353   0.708   4.735
 6004SOL     OW18910   5.499   3.012   5.041
 6004SOL    HW118911   5.469   2.981   5.131
 6004SOL    HW218912   5.551   3.097   5.050
 6005SOL     OW18913   3.961   3.704   0.386
 6005SOL    HW118914   3.935   3.681   0.292
 6005SOL    HW218915   3.879   3.717   0.441
 6006SOL     OW18916   2.743   6.093   5.830
 6006SOL    HW118917   2.740   6.012   5.771
 6006SOL    HW218918   2.671   6.156   5.803
 6007SOL     OW18919   3.261   6.692   4.386
 6007SOL    HW118920   3.167   6.690   4.421
 6007SOL    HW218921   3.260   6.672   4.288
 6008SOL     OW18922   2.357   3.781   6.784
 6008SOL    HW118923   2.295   3.729   6.725
 6008SOL    HW218924   2.309   3.804   6.870
 6009SOL     OW18925   2.332   5.589   2.266
 6009SOL    HW118926   2.236   5.573   2.290
 6009SOL    HW218927   2.390   5.523   2.314
 6010SOL     OW18928   0.056   5.405   5.996
 6010SOL    HW118929   0.032   5.462   6.075
 6010SOL    HW218930   0.098   5.461   5.925
 6011SOL     OW18931   5.817   1.872   3.332
 6011SOL    HW118932   5.821   1.971   3.347
 6011SOL    HW218933   5.908   1.833   3.345
 6012SOL     OW18934   6.630   1.037   5.682
 6012SOL    HW118935   6.693   1.115   5.688
 6012SOL    HW218936   6.551   1.052   5.741
 6013SOL     OW18937   5.833   1.593   2.561
 6013SOL    HW118938   5.907   1.660   2.572
 6013SOL    HW218939   5.870   1.501   2.571
 6014SOL     OW18940   4.031   3.822   4.188
 6014SOL    HW118941   4.119   3.837   4.142
 6014SOL    HW218942   4.043   3.754   4.260
 6015SOL     OW18943   0.052   0.321   3.252
 6015SOL    HW118944   0.067   0.407   3.301
 6015SOL    HW218945   0.069   0.244   3.313
 6016SOL     OW18946   4.290   2.017   4.010
 6016SOL    HW118947   4.204   2.036   4.057
 6016SOL    HW218948   4.361   2.079   4.044
 6017SOL     OW18949   1.244   2.594   5.057
 6017SOL    HW118950   1.189   2.529   5.006
 6017SOL    HW218951   1.338   2.595   5.021
 6018SOL     OW18952   2.197   0.903   4.012
 6018SOL    HW118953   2.125   0.947   4.066
 6018SOL    HW218954   2.237   0.970   3.949
 6019SOL     OW18955   6.796   2.972   6.236
 6019SOL    HW118956   6.758   2.902   6.298
 6019SOL    HW218957   6.721   3.031   6.204
 6020SOL     OW18958   0.485   5.650   4.806
 6020SOL    HW118959   0.519   5.708   4.880
 6020SOL    HW218960   0.389   5.626   4.823
 6021SOL     OW18961   5.062   0.302   3.941
 6021SOL    HW118962   5.121   0.362   3.886
 6021SOL    HW218963   4.967   0.329   3.930
 6022SOL     OW18964   6.329   3.916   1.187
 6022SOL    HW118965   6.343   3.979   1.263
 6022SOL    HW218966   6.243   3.938   1.141
 6023SOL     OW18967   4.183   0.291   3.103
 6023SOL    HW118968   4.269   0.250   3.133
 6023SOL    HW218969   4.197   0.387   3.082
 6024SOL     OW18970   0.662   6.406   6.985
 6024SOL    HW118971   0.726   6.465   0.016
 6024SOL    HW218972   0.568   6.435   7.005
 6025SOL     OW18973   3.418   0.280   5.837
 6025SOL    HW118974   3.369   0.347   5.781
 6025SOL    HW218975   3.353   0.212   5.871
 6026SOL     OW18976   5.021   6.325   3.632
 6026SOL    HW118977   5.118   6.342   3.649
 6026SOL    HW218978   4.979   6.286   3.714
 6027SOL     OW18979   6.178   4.143   5.624
 6027SOL    HW118980   6.144   4.087   5.699
 6027SOL    HW218981   6.222   4.226   5.661
 6028SOL     OW18982   5.815   5.610   6.473
 6028SOL    HW118983   5.897   5.570   6.433
 6028SOL    HW218984   5.738   5.547   6.462
 6029SOL     OW18985   2.598   1.467   2.556
 6029SOL    HW118986   2.531   1.411   2.605
 6029SOL    HW218987   2.664   1.505   2.621
 6030SOL     OW18988   6.087   2.948   4.994
 6030SOL    HW118989   6.143   3.024   4.961
 6030SOL    HW218990   6.126   2.862   4.962
 6031SOL     OW18991   0.094   0.597   3.675
 6031SOL    HW118992   0.068   0.509   3.715
 6031SOL    HW218993   0.067   0.671   3.736
 6032SOL     OW18994   3.208   0.026   2.999
 6032SOL    HW118995   3.211   0.046   2.901
 6032SOL    HW218996   3.220   0.111   3.051
 6033SOL     OW18997   0.758   1.751   2.670
 6033SOL    HW118998   0.852   1.732   2.642
 6033SOL    HW218999   0.752   1.843   2.707
 6034SOL     OW19000   0.715   0.541   1.079
 6034SOL    HW119001   0.686   0.632   1.108
 6034SOL    HW219002   0.808   0.523   1.112
 6035SOL     OW19003   2.095   1.412   2.671
 6035SOL    HW119004   2.000   1.427   2.700
 6035SOL    HW219005   2.116   1.471   2.593
 6036SOL     OW19006   0.073   3.773   0.261
 6036SOL    HW119007   0.097   3.706   0.191
 6036SOL    HW219008   0.155   3.821   0.292
 6037SOL     OW19009   4.697   0.506   6.431
 6037SOL    HW119010   4.677   0.595   6.391
 6037SOL    HW219011   4.699   0.514   6.531
 6038SOL     OW19012   2.559   1.292   0.115
 6038SOL    HW119013   2.589   1.386   0.099
 6038SOL    HW219014   2.459   1.288   0.119
 6039SOL     OW19015   3.379   2.889   4.303
 6039SOL    HW119016   3.307   2.951   4.270
 6039SOL    HW219017   3.383   2.892   4.403
 6040SOL     OW19018   6.634   0.961   0.560
 6040SOL    HW119019   6.657   0.869   0.528
 6040SOL    HW219020   6.613   1.020   0.482
 6041SOL     OW19021   0.390   3.227   4.500
 6041SOL    HW119022   0.341   3.314   4.495
 6041SOL    HW219023   0.464   3.226   4.432
 6042SOL     OW19024   2.840   5.897   3.169
 6042SOL    HW119025   2.745   5.927   3.174
 6042SOL    HW219026   2.883   5.933   3.086
 6043SOL     OW19027   2.191   5.158   1.521
 6043SOL    HW119028   2.235   5.140   1.609
 6043SOL    HW219029   2.220   5.248   1.488
 6044SOL     OW19030   6.529   3.943   6.749
 6044SOL    HW119031   6.604   3.984   6.802
 6044SOL    HW219032   6.495   4.009   6.683
 6045SOL     OW19033   4.744   1.243   4.136
 6045SOL    HW119034   4.772   1.272   4.228
 6045SOL    HW219035   4.669   1.302   4.104
 6046SOL     OW19036   3.157   3.587   2.820
 6046SOL    HW119037   3.096   3.508   2.822
 6046SOL    HW219038   3.181   3.613   2.913
 6047SOL     OW19039   0.297   1.617   0.670
 6047SOL    HW119040   0.380   1.616   0.613
 6047SOL    HW219041   0.290   1.530   0.720
 6048SOL     OW19042   6.463   5.889   3.835
 6048SOL    HW119043   6.475   5.791   3.825
 6048SOL    HW219044   6.519   5.922   3.911
 6049SOL     OW19045   5.216   4.890   6.924
 6049SOL    HW119046   5.217   4.793   6.899
 6049SOL    HW219047   5.279   4.905   7.000
 6050SOL     OW19048   1.705   5.418   3.305
 6050SOL    HW119049   1.665   5.506   3.280
 6050SOL    HW219050   1.785   5.401   3.248
 6051SOL     OW19051   0.563   1.563   2.671
 6051SOL    HW119052   0.623   1.642   2.653
 6051SOL    HW219053   0.548   1.554   2.769
 6052SOL     OW19054   5.280   5.982   6.573
 6052SOL    HW119055   5.313   6.005   6.481
 6052SOL    HW219056   5.348   6.010   6.641
 6053SOL     OW19057   3.865   1.802   5.758
 6053SOL    HW119058   3.955   1.792   5.715
 6053SOL    HW219059   3.812   1.718   5.744
 6054SOL     OW19060   4.425   3.717   6.529
 6054SOL    HW119061   4.434   3.720   6.628
 6054SOL    HW219062   4.504   3.761   6.486
 6055SOL     OW19063   2.728   4.225   1.418
 6055SOL    HW119064   2.704   4.131   1.444
 6055SOL    HW219065   2.727   4.284   1.498
 6056SOL     OW19066   5.591   6.600   3.297
 6056SOL    HW119067   5.532   6.584   3.218
 6056SOL    HW219068   5.607   6.698   3.308
 6057SOL     OW19069   5.609   1.178   3.960
 6057SOL    HW119070   5.688   1.134   4.003
 6057SOL    HW219071   5.636   1.218   3.873
 6058SOL     OW19072   6.860   3.037   5.965
 6058SOL    HW119073   6.861   3.003   6.060
 6058SOL    HW219074   6.834   2.963   5.904
 6059SOL     OW19075   4.430   2.205   6.318
 6059SOL    HW119076   4.451   2.137   6.388
 6059SOL    HW219077   4.438   2.163   6.227
 6060SOL     OW19078   2.480   2.130   1.181
 6060SOL    HW119079   2.577   2.129   1.203
 6060SOL    HW219080   2.467   2.145   1.083
 6061SOL     OW19081   2.436   4.761   6.734
 6061SOL    HW119082   2.444   4.671   6.777
 6061SOL    HW219083   2.453   4.752   6.636
 6062SOL     OW19084   2.091   2.581   5.258
 6062SOL    HW119085   2.077   2.639   5.178
 6062SOL    HW219086   2.006   2.534   5.280
 6063SOL     OW19087   4.681   3.752   6.428
 6063SOL    HW119088   4.763   3.768   6.373
 6063SOL    HW219089   4.689   3.663   6.473
 6064SOL     OW19090   5.779   6.063   0.038
 6064SOL    HW119091   5.714   6.101   6.989
 6064SOL    HW219092   5.870   6.100   0.019
 6065SOL     OW19093   1.637   5.603   1.524
 6065SOL    HW119094   1.578   5.629   1.447
 6065SOL    HW219095   1.732   5.627   1.503
 6066SOL     OW19096   5.620   5.712   2.609
 6066SOL    HW119097   5.650   5.762   2.528
 6066SOL    HW219098   5.579   5.775   2.675
 6067SOL     OW19099   6.710   4.671   5.368
 6067SOL    HW119100   6.691   4.757   5.415
 6067SOL    HW219101   6.625   4.618   5.361
 6068SOL     OW19102   4.689   1.980   3.625
 6068SOL    HW119103   4.659   2.035   3.703
 6068SOL    HW219104   4.683   2.034   3.542
 6069SOL     OW19105   1.110   4.850   5.563
 6069SOL    HW119106   1.207   4.874   5.566
 6069SOL    HW219107   1.058   4.912   5.621
 6070SOL     OW19108   2.483   0.937   1.455
 6070SOL    HW119109   2.474   1.011   1.388
 6070SOL    HW219110   2.455   0.851   1.412
 6071SOL     OW19111   6.212   0.109   6.628
 6071SOL    HW119112   6.115   0.088   6.621
 6071SOL    HW219113   6.249   0.127   6.536
 6072SOL     OW19114   0.226   2.877   0.033
 6072SOL    HW119115   0.298   2.882   0.103
 6072SOL    HW219116   0.234   2.955   6.989
 6073SOL     OW19117   4.573   4.300   6.904
 6073SOL    HW119118   4.499   4.367   6.902
 6073SOL    HW219119   4.571   4.246   6.819
 6074SOL     OW19120   1.142   6.066   2.285
 6074SOL    HW119121   1.090   6.143   2.322
 6074SOL    HW219122   1.239   6.090   2.281
 6075SOL     OW19123   6.256   6.895   7.007
 6075SOL    HW119124   6.326   6.941   6.954
 6075SOL    HW219125   6.246   6.940   0.078
 6076SOL     OW19126   0.155   6.597   3.220
 6076SOL    HW119127   0.234   6.536   3.217
 6076SOL    HW219128   0.076   6.551   3.182
 6077SOL     OW19129   5.203   6.318   2.637
 6077SOL    HW119130   5.182   6.407   2.677
 6077SOL    HW219131   5.164   6.313   2.545
 6078SOL     OW19132   5.531   4.007   0.445
 6078SOL    HW119133   5.534   3.909   0.421
 6078SOL    HW219134   5.495   4.059   0.367
 6079SOL     OW19135   3.364   1.711   0.136
 6079SOL    HW119136   3.310   1.736   0.217
 6079SOL    HW219137   3.381   1.613   0.136
 6080SOL     OW19138   5.950   3.309   5.471
 6080SOL    HW119139   6.047   3.287   5.462
 6080SOL    HW219140   5.938   3.408   5.466
 6081SOL     OW19141   2.242   4.074   4.109
 6081SOL    HW119142   2.302   4.002   4.145
 6081SOL    HW219143   2.298   4.152   4.081
 6082SOL     OW19144   4.035   0.706   0.846
 6082SOL    HW119145   3.949   0.658   0.864
 6082SOL    HW219146   4.063   0.757   0.927
 6083SOL     OW19147   4.958   0.816   5.545
 6083SOL    HW119148   4.965   0.725   5.505
 6083SOL    HW219149   4.870   0.826   5.590
 6084SOL     OW19150   6.459   4.647   3.282
 6084SOL    HW119151   6.475   4.654   3.183
 6084SOL    HW219152   6.373   4.691   3.305
 6085SOL     OW19153   0.627   6.336   1.224
 6085SOL    HW119154   0.588   6.417   1.181
 6085SOL    HW219155   0.651   6.269   1.153
 6086SOL     OW19156   4.794   3.337   0.461
 6086SOL    HW119157   4.819   3.405   0.529
 6086SOL    HW219158   4.829   3.247   0.489
 6087SOL     OW19159   4.258   0.733   0.073
 6087SOL    HW119160   4.245   0.736   0.172
 6087SOL    HW219161   4.323   0.804   0.045
 6088SOL     OW19162   4.105   6.028   2.450
 6088SOL    HW119163   4.077   5.933   2.458
 6088SOL    HW219164   4.199   6.038   2.484
 6089SOL     OW19165   6.327   5.321   2.738
 6089SOL    HW119166   6.299   5.231   2.706
 6089SOL    HW219167   6.412   5.313   2.790
 6090SOL     OW19168   3.800   5.755   4.480
 6090SOL    HW119169   3.885   5.711   4.511
 6090SOL    HW219170   3.761   5.701   4.405
 6091SOL     OW19171   0.422   2.672   1.981
 6091SOL    HW119172   0.362   2.743   2.016
 6091SOL    HW219173   0.513   2.710   1.962
 6092SOL     OW19174   1.776   6.839   1.100
 6092SOL    HW119175   1.759   6.777   1.024
 6092SOL    HW219176   1.740   6.930   1.078
 6093SOL     OW19177   3.633   3.417   2.606
 6093SOL    HW119178   3.560   3.392   2.543
 6093SOL    HW219179   3.609   3.503   2.652
 6094SOL     OW19180   0.460   0.261   5.751
 6094SOL    HW119181   0.454   0.177   5.805
 6094SOL    HW219182   0.555   0.293   5.749
 6095SOL     OW19183   5.451   4.843   2.079
 6095SOL    HW119184   5.357   4.832   2.045
 6095SOL    HW219185   5.449   4.861   2.178
 6096SOL     OW19186   5.071   6.071   2.890
 6096SOL    HW119187   5.146   6.123   2.849
 6096SOL    HW219188   4.990   6.129   2.898
 6097SOL     OW19189   2.293   5.181   1.172
 6097SOL    HW119190   2.317   5.233   1.254
 6097SOL    HW219191   2.368   5.120   1.148
 6098SOL     OW19192   5.950   1.483   5.415
 6098SOL    HW119193   6.000   1.516   5.335
 6098SOL    HW219194   5.909   1.394   5.393
 6099SOL     OW19195   3.237   0.005   5.390
 6099SOL    HW119196   3.246   7.015   5.291
 6099SOL    HW219197   3.244   6.933   5.432
 6100SOL     OW19198   6.771   5.325   6.246
 6100SOL    HW119199   6.697   5.388   6.221
 6100SOL    HW219200   6.750   5.283   6.334
 6101SOL     OW19201   1.027   2.717   0.640
 6101SOL    HW119202   1.037   2.816   0.629
 6101SOL    HW219203   0.935   2.689   0.613
 6102SOL     OW19204   2.803   0.464   2.917
 6102SOL    HW119205   2.764   0.553   2.891
 6102SOL    HW219206   2.877   0.479   2.983
 6103SOL     OW19207   5.815   0.323   2.622
 6103SOL    HW119208   5.883   0.270   2.571
 6103SOL    HW219209   5.858   0.361   2.704
 6104SOL     OW19210   6.502   0.756   4.944
 6104SOL    HW119211   6.550   0.669   4.950
 6104SOL    HW219212   6.456   0.763   4.856
 6105SOL     OW19213   3.777   4.796   6.697
 6105SOL    HW119214   3.841   4.725   6.669
 6105SOL    HW219215   3.809   4.839   6.782
 6106SOL     OW19216   6.336   4.047   5.154
 6106SOL    HW119217   6.333   4.035   5.253
 6106SOL    HW219218   6.403   3.984   5.115
 6107SOL     OW19219   6.081   4.905   4.779
 6107SOL    HW119220   6.056   4.848   4.858
 6107SOL    HW219221   6.027   4.878   4.700
 6108SOL     OW19222   3.121   0.187   6.152
 6108SOL    HW119223   3.104   0.272   6.200
 6108SOL    HW219224   3.034   0.147   6.123
 6109SOL     OW19225   6.812   6.508   3.976
 6109SOL    HW119226   6.787   6.504   4.073
 6109SOL    HW219227   6.799   6.601   3.942
 6110SOL     OW19228   0.997   1.980   4.094
 6110SOL    HW119229   0.932   2.021   4.158
 6110SOL    HW219230   0.985   2.022   4.004
 6111SOL     OW19231   3.048   3.101   1.109
 6111SOL    HW119232   2.962   3.060   1.080
 6111SOL    HW219233   3.112   3.102   1.033
 6112SOL     OW19234   5.056   6.283   4.392
 6112SOL    HW119235   5.037   6.351   4.463
 6112SOL    HW219236   4.980   6.219   4.385
 6113SOL     OW19237   3.417   5.256   1.098
 6113SOL    HW119238   3.463   5.343   1.081
 6113SOL    HW219239   3.437   5.225   1.191
 6114SOL     OW19240   5.012   3.690   1.474
 6114SOL    HW119241   5.041   3.655   1.563
 6114SOL    HW219242   5.063   3.774   1.454
 6115SOL     OW19243   6.285   1.137   4.630
 6115SOL    HW119244   6.297   1.153   4.728
 6115SOL    HW219245   6.374   1.141   4.585
 6116SOL     OW19246   6.214   2.666   0.422
 6116SOL    HW119247   6.250   2.574   0.406
 6116SOL    HW219248   6.162   2.696   0.343
 6117SOL     OW19249   2.931   2.318   1.142
 6117SOL    HW119250   2.884   2.351   1.060
 6117SOL    HW219251   2.965   2.395   1.195
 6118SOL     OW19252   6.067   0.658   1.223
 6118SOL    HW119253   5.968   0.643   1.231
 6118SOL    HW219254   6.104   0.680   1.313
 6119SOL     OW19255   0.781   1.154   6.252
 6119SOL    HW119256   0.757   1.208   6.333
 6119SOL    HW219257   0.702   1.098   6.225
 6120SOL     OW19258   3.192   1.279   3.662
 6120SOL    HW119259   3.149   1.189   3.656
 6120SOL    HW219260   3.207   1.315   3.569
 6121SOL     OW19261   3.081   0.558   5.541
 6121SOL    HW119262   3.178   0.537   5.547
 6121SOL    HW219263   3.046   0.580   5.632
 6122SOL     OW19264   4.520   4.583   4.643
 6122SOL    HW119265   4.453   4.529   4.591
 6122SOL    HW219266   4.537   4.539   4.731
 6123SOL     OW19267   6.063   1.505   5.105
 6123SOL    HW119268   6.051   1.595   5.149
 6123SOL    HW219269   6.159   1.491   5.084
 6124SOL     OW19270   2.024   6.177   3.758
 6124SOL    HW119271   2.091   6.163   3.686
 6124SOL    HW219272   2.063   6.152   3.847
 6125SOL     OW19273   2.961   0.894   5.786
 6125SOL    HW119274   3.028   0.966   5.804
 6125SOL    HW219275   2.869   0.932   5.786
 6126SOL     OW19276   5.869   2.798   6.571
 6126SOL    HW119277   5.861   2.712   6.520
 6126SOL    HW219278   5.839   2.783   6.665
 6127SOL     OW19279   5.158   2.037   2.648
 6127SOL    HW119280   5.061   2.013   2.658
 6127SOL    HW219281   5.195   2.067   2.736
 6128SOL     OW19282   5.788   5.499   4.786
 6128SOL    HW119283   5.822   5.428   4.847
 6128SOL    HW219284   5.764   5.580   4.840
 6129SOL     OW19285   2.196   5.809   2.988
 6129SOL    HW119286   2.098   5.790   2.999
 6129SOL    HW219287   2.241   5.727   2.952
 6130SOL     OW19288   6.392   2.345   6.574
 6130SOL    HW119289   6.360   2.288   6.498
 6130SOL    HW219290   6.323   2.345   6.646
 6131SOL     OW19291   5.931   2.921   2.693
 6131SOL    HW119292   5.976   2.989   2.635
 6131SOL    HW219293   5.849   2.961   2.733
 6132SOL     OW19294   4.710   5.915   6.425
 6132SOL    HW119295   4.651   5.987   6.390
 6132SOL    HW219296   4.658   5.855   6.486
 6133SOL     OW19297   0.234   2.488   3.754
 6133SOL    HW119298   0.326   2.490   3.716
 6133SOL    HW219299   0.217   2.397   3.792
 6134SOL     OW19300   0.601   0.136   5.255
 6134SOL    HW119301   0.614   0.037   5.264
 6134SOL    HW219302   0.544   0.169   5.329
 6135SOL     OW19303   6.038   6.251   0.027
 6135SOL    HW119304   6.087   6.166   0.045
 6135SOL    HW219305   6.038   6.308   0.109
 6136SOL     OW19306   0.990   2.109   3.208
 6136SOL    HW119307   1.058   2.156   3.153
 6136SOL    HW219308   0.902   2.108   3.160
 6137SOL     OW19309   0.178   4.927   0.848
 6137SOL    HW119310   0.103   4.871   0.883
 6137SOL    HW219311   0.179   5.014   0.897
 6138SOL     OW19312   5.206   0.768   2.566
 6138SOL    HW119313   5.301   0.798   2.557
 6138SOL    HW219314   5.178   0.776   2.661
 6139SOL     OW19315   1.855   2.420   5.329
 6139SOL    HW119316   1.793   2.459   5.396
 6139SOL    HW219317   1.803   2.369   5.261
 6140SOL     OW19318   1.973   0.357   3.778
 6140SOL    HW119319   2.054   0.307   3.749
 6140SOL    HW219320   1.983   0.454   3.754
 6141SOL     OW19321   0.977   0.039   0.624
 6141SOL    HW119322   0.901   7.010   0.667
 6141SOL    HW219323   1.012   7.002   0.548
 6142SOL     OW19324   0.328   0.165   1.622
 6142SOL    HW119325   0.245   0.133   1.576
 6142SOL    HW219326   0.404   0.164   1.558
 6143SOL     OW19327   0.812   3.272   5.498
 6143SOL    HW119328   0.733   3.312   5.451
 6143SOL    HW219329   0.780   3.214   5.573
 6144SOL     OW19330   3.403   5.865   2.638
 6144SOL    HW119331   3.368   5.929   2.706
 6144SOL    HW219332   3.498   5.886   2.617
 6145SOL     OW19333   5.378   3.334   4.206
 6145SOL    HW119334   5.384   3.301   4.300
 6145SOL    HW219335   5.292   3.383   4.193
 6146SOL     OW19336   5.974   1.659   5.814
 6146SOL    HW119337   5.919   1.685   5.735
 6146SOL    HW219338   6.047   1.726   5.827
 6147SOL     OW19339   1.477   1.762   5.715
 6147SOL    HW119340   1.459   1.788   5.809
 6147SOL    HW219341   1.434   1.827   5.652
 6148SOL     OW19342   3.962   4.907   6.890
 6148SOL    HW119343   3.933   5.000   6.909
 6148SOL    HW219344   4.062   4.900   6.895
 6149SOL     OW19345   4.059   1.529   1.646
 6149SOL    HW119346   3.961   1.527   1.626
 6149SOL    HW219347   4.107   1.467   1.583
 6150SOL     OW19348   0.641   4.826   4.075
 6150SOL    HW119349   0.723   4.863   4.118
 6150SOL    HW219350   0.598   4.760   4.137
 6151SOL     OW19351   3.928   5.278   1.986
 6151SOL    HW119352   3.838   5.285   2.030
 6151SOL    HW219353   3.925   5.325   1.898
 6152SOL     OW19354   6.932   3.769   3.242
 6152SOL    HW119355   6.977   3.716   3.313
 6152SOL    HW219356   6.833   3.771   3.260
 6153SOL     OW19357   5.995   6.269   0.991
 6153SOL    HW119358   5.933   6.334   1.035
 6153SOL    HW219359   6.041   6.214   1.060
 6154SOL     OW19360   4.219   5.040   2.574
 6154SOL    HW119361   4.190   4.970   2.639
 6154SOL    HW219362   4.180   5.020   2.484
 6155SOL     OW19363   1.541   1.646   4.286
 6155SOL    HW119364   1.569   1.689   4.372
 6155SOL    HW219365   1.580   1.554   4.281
 6156SOL     OW19366   4.396   4.616   2.609
 6156SOL    HW119367   4.461   4.542   2.593
 6156SOL    HW219368   4.383   4.627   2.708
 6157SOL     OW19369   0.613   2.505   1.228
 6157SOL    HW119370   0.564   2.457   1.156
 6157SOL    HW219371   0.690   2.449   1.260
 6158SOL     OW19372   3.563   0.567   6.164
 6158SOL    HW119373   3.495   0.572   6.091
 6158SOL    HW219374   3.591   0.660   6.189
 6159SOL     OW19375   6.568   1.921   0.930
 6159SOL    HW119376   6.530   1.832   0.907
 6159SOL    HW219377   6.667   1.912   0.944
 6160SOL     OW19378   0.879   0.016   1.106
 6160SOL    HW119379   0.897   6.969   1.032
 6160SOL    HW219380   0.805   0.077   1.079
 6161SOL     OW19381   6.151   4.124   6.955
 6161SOL    HW119382   6.105   4.193   7.010
 6161SOL    HW219383   6.149   4.036   7.002
 6162SOL     OW19384   6.120   6.090   1.147
 6162SOL    HW119385   6.160   6.016   1.094
 6162SOL    HW219386   6.039   6.058   1.195
 6163SOL     OW19387   5.910   5.899   2.981
 6163SOL    HW119388   5.870   5.812   2.950
 6163SOL    HW219389   5.856   5.934   3.058
 6164SOL     OW19390   3.279   4.037   4.548
 6164SOL    HW119391   3.183   4.010   4.549
 6164SOL    HW219392   3.337   3.956   4.543
 6165SOL     OW19393   3.104   0.502   6.974
 6165SOL    HW119394   3.069   0.522   0.048
 6165SOL    HW219395   3.158   0.580   6.941
 6166SOL     OW19396   3.083   1.146   5.863
 6166SOL    HW119397   3.107   1.174   5.956
 6166SOL    HW219398   2.995   1.186   5.838
 6167SOL     OW19399   1.178   2.976   2.575
 6167SOL    HW119400   1.265   2.988   2.527
 6167SOL    HW219401   1.159   3.057   2.630
 6168SOL     OW19402   0.695   3.923   3.731
 6168SOL    HW119403   0.793   3.904   3.735
 6168SOL    HW219404   0.679   4.002   3.672
 6169SOL     OW19405   2.394   1.305   0.713
 6169SOL    HW119406   2.433   1.230   0.660
 6169SOL    HW219407   2.446   1.389   0.696
 6170SOL     OW19408   2.933   4.744   1.039
 6170SOL    HW119409   2.894   4.664   0.993
 6170SOL    HW219410   3.028   4.724   1.064
 6171SOL     OW19411   2.192   4.132   1.981
 6171SOL    HW119412   2.249   4.184   2.043
 6171SOL    HW219413   2.166   4.045   2.024
 6172SOL     OW19414   2.437   5.021   1.384
 6172SOL    HW119415   2.365   4.969   1.337
 6172SOL    HW219416   2.405   5.046   1.476
 6173SOL     OW19417   1.130   5.452   2.622
 6173SOL    HW119418   1.054   5.432   2.683
 6173SOL    HW219419   1.107   5.424   2.529
 6174SOL     OW19420   6.432   5.024   1.608
 6174SOL    HW119421   6.351   5.012   1.665
 6174SOL    HW219422   6.423   4.969   1.525
 6175SOL     OW19423   5.902   0.211   4.242
 6175SOL    HW119424   5.926   0.209   4.145
 6175SOL    HW219425   5.812   0.254   4.253
 6176SOL     OW19426   6.556   3.185   0.409
 6176SOL    HW119427   6.474   3.241   0.404
 6176SOL    HW219428   6.533   3.096   0.448
 6177SOL     OW19429   5.909   2.115   2.619
 6177SOL    HW119430   5.928   2.022   2.588
 6177SOL    HW219431   5.854   2.162   2.551
 6178SOL     OW19432   6.803   3.292   0.943
 6178SOL    HW119433   6.796   3.389   0.919
 6178SOL    HW219434   6.817   3.239   0.859
 6179SOL     OW19435   0.951   1.404   5.305
 6179SOL    HW119436   0.874   1.410   5.242
 6179SOL    HW219437   1.034   1.437   5.260
 6180SOL     OW19438   3.036   0.716   6.333
 6180SOL    HW119439   3.134   0.701   6.345
 6180SOL    HW219440   3.018   0.748   6.240
 6181SOL     OW19441   4.480   6.122   6.374
 6181SOL    HW119442   4.482   6.182   6.454
 6181SOL    HW219443   4.451   6.031   6.402
 6182SOL     OW19444   4.812   0.043   5.496
 6182SOL    HW119445   4.911   0.034   5.502
 6182SOL    HW219446   4.786   0.058   5.400
 6183SOL     OW19447   2.759   0.357   2.478
 6183SOL    HW119448   2.804   0.274   2.443
 6183SOL    HW219449   2.675   0.373   2.426
 6184SOL     OW19450   6.819   0.791   5.627
 6184SOL    HW119451   6.915   0.809   5.606
 6184SOL    HW219452   6.768   0.877   5.628
 6185SOL     OW19453   2.613   2.626   6.831
 6185SOL    HW119454   2.604   2.559   6.757
 6185SOL    HW219455   2.684   2.596   6.895
 6186SOL     OW19456   4.308   1.115   4.153
 6186SOL    HW119457   4.387   1.138   4.209
 6186SOL    HW219458   4.237   1.075   4.210
 6187SOL     OW19459   3.193   4.867   4.471
 6187SOL    HW119460   3.124   4.912   4.414
 6187SOL    HW219461   3.220   4.781   4.429
 6188SOL     OW19462   2.892   0.117   2.393
 6188SOL    HW119463   2.930   0.066   2.316
 6188SOL    HW219464   2.895   0.060   2.475
 6189SOL     OW19465   5.315   4.861   2.984
 6189SOL    HW119466   5.287   4.803   2.907
 6189SOL    HW219467   5.260   4.838   3.064
 6190SOL     OW19468   5.222   3.305   5.582
 6190SOL    HW119469   5.158   3.312   5.659
 6190SOL    HW219470   5.211   3.215   5.539
 6191SOL     OW19471   6.888   1.638   6.481
 6191SOL    HW119472   6.936   1.637   6.394
 6191SOL    HW219473   6.796   1.674   6.468
 6192SOL     OW19474   3.311   1.941   0.673
 6192SOL    HW119475   3.267   2.025   0.706
 6192SOL    HW219476   3.410   1.948   0.686
 6193SOL     OW19477   0.274   0.114   1.917
 6193SOL    HW119478   0.362   0.101   1.964
 6193SOL    HW219479   0.290   0.153   1.827
 6194SOL     OW19480   2.945   0.194   0.788
 6194SOL    HW119481   2.936   0.116   0.850
 6194SOL    HW219482   2.858   0.211   0.742
 6195SOL     OW19483   2.323   0.331   5.669
 6195SOL    HW119484   2.312   0.282   5.582
 6195SOL    HW219485   2.254   0.300   5.734
 6196SOL     OW19486   1.290   1.895   5.571
 6196SOL    HW119487   1.337   1.973   5.528
 6196SOL    HW219488   1.205   1.928   5.614
 6197SOL     OW19489   2.762   2.889   1.588
 6197SOL    HW119490   2.695   2.831   1.634
 6197SOL    HW219491   2.773   2.859   1.493
 6198SOL     OW19492   3.395   5.251   2.425
 6198SOL    HW119493   3.360   5.214   2.339
 6198SOL    HW219494   3.398   5.351   2.420
 6199SOL     OW19495   0.399   0.267   6.897
 6199SOL    HW119496   0.425   0.334   6.966
 6199SOL    HW219497   0.408   0.308   6.806
 6200SOL     OW19498   3.872   0.497   5.923
 6200SOL    HW119499   3.901   0.414   5.971
 6200SOL    HW219500   3.952   0.553   5.903
 6201SOL     OW19501   2.318   4.954   4.380
 6201SOL    HW119502   2.377   4.984   4.455
 6201SOL    HW219503   2.360   4.980   4.293
 6202SOL     OW19504   2.135   2.488   1.564
 6202SOL    HW119505   2.108   2.439   1.481
 6202SOL    HW219506   2.194   2.429   1.620
 6203SOL     OW19507   5.723   2.310   3.786
 6203SOL    HW119508   5.785   2.386   3.806
 6203SOL    HW219509   5.628   2.341   3.793
 6204SOL     OW19510   1.088   6.643   5.576
 6204SOL    HW119511   1.117   6.548   5.584
 6204SOL    HW219512   1.126   6.697   5.651
 6205SOL     OW19513   4.565   6.441   6.922
 6205SOL    HW119514   4.602   6.502   6.852
 6205SOL    HW219515   4.578   6.484   7.012
 6206SOL     OW19516   4.947   0.094   3.714
 6206SOL    HW119517   4.903   0.021   3.765
 6206SOL    HW219518   4.997   0.154   3.777
 6207SOL     OW19519   2.076   4.226   4.308
 6207SOL    HW119520   2.157   4.205   4.254
 6207SOL    HW219521   2.045   4.144   4.356
 6208SOL     OW19522   5.083   4.774   5.611
 6208SOL    HW119523   5.145   4.815   5.678
 6208SOL    HW219524   4.998   4.748   5.656
 6209SOL     OW19525   1.847   5.785   0.744
 6209SOL    HW119526   1.905   5.754   0.669
 6209SOL    HW219527   1.839   5.713   0.812
 6210SOL     OW19528   0.069   3.932   2.851
 6210SOL    HW119529   0.101   4.027   2.849
 6210SOL    HW219530   7.001   3.924   2.800
 6211SOL     OW19531   2.549   0.440   5.022
 6211SOL    HW119532   2.557   0.518   4.961
 6211SOL    HW219533   2.468   0.451   5.079
 6212SOL     OW19534   6.664   0.557   4.213
 6212SOL    HW119535   6.742   0.504   4.246
 6212SOL    HW219536   6.692   0.651   4.195
 6213SOL     OW19537   6.623   6.867   0.014
 6213SOL    HW119538   6.709   6.901   0.053
 6213SOL    HW219539   6.585   6.935   6.970
 6214SOL     OW19540   4.898   4.546   1.568
 6214SOL    HW119541   4.944   4.507   1.648
 6214SOL    HW219542   4.801   4.559   1.588
 6215SOL     OW19543   3.197   4.674   1.404
 6215SOL    HW119544   3.144   4.597   1.439
 6215SOL    HW219545   3.278   4.688   1.460
 6216SOL     OW19546   6.606   2.378   3.010
 6216SOL    HW119547   6.526   2.437   3.019
 6216SOL    HW219548   6.623   2.331   3.097
 6217SOL     OW19549   4.424   1.604   1.709
 6217SOL    HW119550   4.485   1.682   1.724
 6217SOL    HW219551   4.436   1.569   1.617
 6218SOL     OW19552   4.729   6.198   4.692
 6218SOL    HW119553   4.715   6.148   4.606
 6218SOL    HW219554   4.643   6.237   4.723
 6219SOL     OW19555   0.110   0.989   4.571
 6219SOL    HW119556   0.103   0.928   4.650
 6219SOL    HW219557   0.203   0.987   4.535
 6220SOL     OW19558   0.948   3.317   4.688
 6220SOL    HW119559   1.011   3.373   4.634
 6220SOL    HW219560   0.963   3.220   4.666
 6221SOL     OW19561   4.468   4.747   4.267
 6221SOL    HW119562   4.370   4.768   4.269
 6221SOL    HW219563   4.499   4.742   4.172
 6222SOL     OW19564   6.543   1.994   1.288
 6222SOL    HW119565   6.554   2.034   1.198
 6222SOL    HW219566   6.633   1.972   1.326
 6223SOL     OW19567   5.147   4.440   3.735
 6223SOL    HW119568   5.203   4.402   3.809
 6223SOL    HW219569   5.173   4.535   3.720
 6224SOL     OW19570   2.419   0.056   4.324
 6224SOL    HW119571   2.387   0.131   4.382
 6224SOL    HW219572   2.481   0.092   4.254
 6225SOL     OW19573   3.870   1.681   6.676
 6225SOL    HW119574   3.774   1.708   6.667
 6225SOL    HW219575   3.927   1.749   6.632
 6226SOL     OW19576   0.407   6.231   4.454
 6226SOL    HW119577   0.400   6.312   4.513
 6226SOL    HW219578   0.356   6.247   4.370
 6227SOL     OW19579   2.619   4.208   6.278
 6227SOL    HW119580   2.631   4.151   6.360
 6227SOL    HW219581   2.658   4.161   6.199
 6228SOL     OW19582   0.244   2.464   2.569
 6228SOL    HW119583   0.190   2.482   2.651
 6228SOL    HW219584   0.222   2.531   2.498
 6229SOL     OW19585   1.256   2.262   1.994
 6229SOL    HW119586   1.323   2.187   1.989
 6229SOL    HW219587   1.302   2.348   1.971
 6230SOL     OW19588   2.035   2.616   3.900
 6230SOL    HW119589   1.938   2.636   3.881
 6230SOL    HW219590   2.085   2.610   3.814
 6231SOL     OW19591   6.421   4.583   2.007
 6231SOL    HW119592   6.507   4.531   2.009
 6231SOL    HW219593   6.374   4.566   1.921
 6232SOL     OW19594   0.830   0.664   0.220
 6232SOL    HW119595   0.922   0.695   0.245
 6232SOL    HW219596   0.837   0.581   0.163
 6233SOL     OW19597   4.223   1.085   6.641
 6233SOL    HW119598   4.301   1.102   6.702
 6233SOL    HW219599   4.249   1.019   6.570
 6234SOL     OW19600   2.665   2.222   3.410
 6234SOL    HW119601   2.660   2.150   3.480
 6234SOL    HW219602   2.757   2.224   3.371
 6235SOL     OW19603   2.076   5.481   1.773
 6235SOL    HW119604   2.146   5.427   1.819
 6235SOL    HW219605   1.990   5.430   1.773
 6236SOL     OW19606   0.331   4.167   0.044
 6236SOL    HW119607   0.398   4.108   0.089
 6236SOL    HW219608   0.278   4.216   0.113
 6237SOL     OW19609   3.452   5.691   6.067
 6237SOL    HW119610   3.425   5.785   6.046
 6237SOL    HW219611   3.418   5.666   6.157
 6238SOL     OW19612   5.222   3.257   1.041
 6238SOL    HW119613   5.286   3.181   1.052
 6238SOL    HW219614   5.129   3.223   1.035
 6239SOL     OW19615   3.709   6.300   3.455
 6239SOL    HW119616   3.788   6.240   3.446
 6239SOL    HW219617   3.656   6.299   3.370
 6240SOL     OW19618   2.657   4.180   0.009
 6240SOL    HW119619   2.725   4.114   0.041
 6240SOL    HW219620   2.655   4.180   6.927
 6241SOL     OW19621   4.839   6.784   2.803
 6241SOL    HW119622   4.898   6.753   2.878
 6241SOL    HW219623   4.873   6.748   2.716
 6242SOL     OW19624   3.639   2.126   2.693
 6242SOL    HW119625   3.594   2.114   2.604
 6242SOL    HW219626   3.738   2.117   2.682
 6243SOL     OW19627   6.346   5.357   3.060
 6243SOL    HW119628   6.387   5.271   3.032
 6243SOL    HW219629   6.247   5.352   3.048
 6244SOL     OW19630   1.464   1.933   1.963
 6244SOL    HW119631   1.563   1.925   1.978
 6244SOL    HW219632   1.417   1.925   2.050
 6245SOL     OW19633   2.342   3.659   0.235
 6245SOL    HW119634   2.371   3.714   0.314
 6245SOL    HW219635   2.243   3.667   0.224
 6246SOL     OW19636   4.318   6.597   0.356
 6246SOL    HW119637   4.322   6.648   0.270
 6246SOL    HW219638   4.308   6.499   0.336
 6247SOL     OW19639   6.818   6.841   2.914
 6247SOL    HW119640   6.760   6.822   2.993
 6247SOL    HW219641   6.853   6.755   2.877
 6248SOL     OW19642   0.815   5.813   0.769
 6248SOL    HW119643   0.850   5.724   0.742
 6248SOL    HW219644   0.847   5.883   0.705
 6249SOL     OW19645   6.145   2.645   5.779
 6249SOL    HW119646   6.124   2.601   5.866
 6249SOL    HW219647   6.084   2.723   5.765
 6250SOL     OW19648   6.668   4.309   5.878
 6250SOL    HW119649   6.677   4.310   5.779
 6250SOL    HW219650   6.744   4.257   5.918
 6251SOL     OW19651   4.167   1.102   0.917
 6251SOL    HW119652   4.178   1.090   1.016
 6251SOL    HW219653   4.086   1.158   0.899
 6252SOL     OW19654   1.832   6.509   5.339
 6252SOL    HW119655   1.849   6.422   5.293
 6252SOL    HW219656   1.789   6.573   5.276
 6253SOL     OW19657   2.392   3.406   1.333
 6253SOL    HW119658   2.406   3.313   1.366
 6253SOL    HW219659   2.372   3.466   1.411
 6254SOL     OW19660   5.162   0.398   0.424
 6254SOL    HW119661   5.147   0.434   0.332
 6254SOL    HW219662   5.197   0.472   0.483
 6255SOL     OW19663   0.784   3.289   2.712
 6255SOL    HW119664   0.758   3.195   2.734
 6255SOL    HW219665   0.777   3.346   2.793
 6256SOL     OW19666   3.829   5.204   4.284
 6256SOL    HW119667   3.873   5.116   4.303
 6256SOL    HW219668   3.732   5.190   4.267
 6257SOL     OW19669   4.242   2.984   6.793
 6257SOL    HW119670   4.172   2.980   6.722
 6257SOL    HW219671   4.199   2.979   6.883
 6258SOL     OW19672   4.784   1.926   3.159
 6258SOL    HW119673   4.816   1.928   3.254
 6258SOL    HW219674   4.687   1.952   3.156
 6259SOL     OW19675   3.466   2.324   1.703
 6259SOL    HW119676   3.440   2.241   1.654
 6259SOL    HW219677   3.556   2.311   1.745
 6260SOL     OW19678   3.442   4.373   1.383
 6260SOL    HW119679   3.377   4.337   1.316
 6260SOL    HW219680   3.393   4.396   1.467
 6261SOL     OW19681   4.843   6.589   5.959
 6261SOL    HW119682   4.826   6.686   5.976
 6261SOL    HW219683   4.907   6.555   6.028
 6262SOL     OW19684   6.871   5.930   5.290
 6262SOL    HW119685   6.807   5.893   5.358
 6262SOL    HW219686   6.965   5.907   5.316
 6263SOL     OW19687   6.597   0.516   1.621
 6263SOL    HW119688   6.573   0.593   1.561
 6263SOL    HW219689   6.579   0.542   1.716
 6264SOL     OW19690   2.797   1.453   0.514
 6264SOL    HW119691   2.799   1.520   0.440
 6264SOL    HW219692   2.889   1.444   0.553
 6265SOL     OW19693   6.368   3.525   0.631
 6265SOL    HW119694   6.446   3.575   0.668
 6265SOL    HW219695   6.295   3.520   0.700
 6266SOL     OW19696   2.518   6.745   2.618
 6266SOL    HW119697   2.557   6.825   2.572
 6266SOL    HW219698   2.519   6.667   2.556
 6267SOL     OW19699   3.222   6.493   6.859
 6267SOL    HW119700   3.211   6.420   6.792
 6267SOL    HW219701   3.204   6.456   6.951
 6268SOL     OW19702   2.165   6.252   1.926
 6268SOL    HW119703   2.142   6.331   1.982
 6268SOL    HW219704   2.237   6.199   1.972
 6269SOL     OW19705   6.441   4.151   6.571
 6269SOL    HW119706   6.398   4.091   6.504
 6269SOL    HW219707   6.512   4.205   6.525
 6270SOL     OW19708   0.610   1.328   4.071
 6270SOL    HW119709   0.625   1.403   4.137
 6270SOL    HW219710   0.696   1.280   4.057
 6271SOL     OW19711   5.535   1.682   1.220
 6271SOL    HW119712   5.618   1.633   1.194
 6271SOL    HW219713   5.523   1.679   1.319
 6272SOL     OW19714   2.434   2.576   3.852
 6272SOL    HW119715   2.390   2.653   3.897
 6272SOL    HW219716   2.401   2.490   3.891
 6273SOL     OW19717   3.797   1.307   2.803
 6273SOL    HW119718   3.779   1.358   2.718
 6273SOL    HW219719   3.895   1.298   2.817
 6274SOL     OW19720   2.747   5.543   6.903
 6274SOL    HW119721   2.727   5.445   6.909
 6274SOL    HW219722   2.763   5.568   6.808
 6275SOL     OW19723   3.279   0.768   4.700
 6275SOL    HW119724   3.377   0.784   4.710
 6275SOL    HW219725   3.236   0.769   4.790
 6276SOL     OW19726   1.062   5.284   3.490
 6276SOL    HW119727   1.124   5.212   3.522
 6276SOL    HW219728   1.098   5.324   3.406
 6277SOL     OW19729   6.256   3.409   3.912
 6277SOL    HW119730   6.307   3.367   3.987
 6277SOL    HW219731   6.223   3.338   3.850
 6278SOL     OW19732   4.941   1.100   3.387
 6278SOL    HW119733   4.960   1.019   3.332
 6278SOL    HW219734   4.883   1.075   3.464
 6279SOL     OW19735   3.613   1.649   5.921
 6279SOL    HW119736   3.665   1.581   5.974
 6279SOL    HW219737   3.610   1.620   5.825
 6280SOL     OW19738   1.598   5.387   5.815
 6280SOL    HW119739   1.603   5.486   5.832
 6280SOL    HW219740   1.612   5.338   5.901
 6281SOL     OW19741   3.423   6.253   4.867
 6281SOL    HW119742   3.503   6.204   4.901
 6281SOL    HW219743   3.449   6.309   4.789
 6282SOL     OW19744   0.935   6.756   4.586
 6282SOL    HW119745   1.032   6.749   4.562
 6282SOL    HW219746   0.926   6.804   4.673
 6283SOL     OW19747   0.938   2.920   4.881
 6283SOL    HW119748   1.009   2.948   4.816
 6283SOL    HW219749   0.874   2.995   4.895
 6284SOL     OW19750   2.362   5.259   0.163
 6284SOL    HW119751   2.454   5.226   0.142
 6284SOL    HW219752   2.362   5.359   0.161
 6285SOL     OW19753   2.036   3.929   2.119
 6285SOL    HW119754   1.941   3.959   2.108
 6285SOL    HW219755   2.063   3.875   2.039
 6286SOL     OW19756   0.137   6.031   4.549
 6286SOL    HW119757   0.170   6.036   4.455
 6286SOL    HW219758   0.178   6.104   4.603
 6287SOL     OW19759   3.606   4.987   2.982
 6287SOL    HW119760   3.577   4.957   2.891
 6287SOL    HW219761   3.532   5.038   3.025
 6288SOL     OW19762   6.605   3.654   0.745
 6288SOL    HW119763   6.670   3.619   0.812
 6288SOL    HW219764   6.608   3.754   0.744
 6289SOL     OW19765   0.479   6.517   2.768
 6289SOL    HW119766   0.570   6.555   2.784
 6289SOL    HW219767   0.483   6.452   2.691
 6290SOL     OW19768   5.744   3.813   3.985
 6290SOL    HW119769   5.689   3.888   3.949
 6290SOL    HW219770   5.722   3.799   4.081
 6291SOL     OW19771   3.686   4.126   3.433
 6291SOL    HW119772   3.593   4.136   3.398
 6291SOL    HW219773   3.685   4.130   3.533
 6292SOL     OW19774   6.871   0.866   1.402
 6292SOL    HW119775   6.833   0.809   1.329
 6292SOL    HW219776   6.798   0.920   1.443
 6293SOL     OW19777   5.692   4.610   5.835
 6293SOL    HW119778   5.596   4.583   5.830
 6293SOL    HW219779   5.733   4.570   5.917
 6294SOL     OW19780   3.174   6.420   1.555
 6294SOL    HW119781   3.201   6.494   1.494
 6294SOL    HW219782   3.124   6.351   1.502
 6295SOL     OW19783   6.192   5.712   6.011
 6295SOL    HW119784   6.257   5.675   6.078
 6295SOL    HW219785   6.191   5.812   6.018
 6296SOL     OW19786   6.335   1.931   3.464
 6296SOL    HW119787   6.406   1.920   3.533
 6296SOL    HW219788   6.376   1.935   3.373
 6297SOL     OW19789   5.273   1.545   5.751
 6297SOL    HW119790   5.277   1.645   5.761
 6297SOL    HW219791   5.344   1.516   5.687
 6298SOL     OW19792   6.258   2.420   4.364
 6298SOL    HW119793   6.331   2.470   4.409
 6298SOL    HW219794   6.171   2.468   4.377
 6299SOL     OW19795   0.157   2.358   0.093
 6299SOL    HW119796   0.134   2.262   0.111
 6299SOL    HW219797   0.227   2.388   0.157
 6300SOL     OW19798   5.230   1.295   3.532
 6300SOL    HW119799   5.183   1.329   3.450
 6300SOL    HW219800   5.279   1.211   3.508
 6301SOL     OW19801   3.304   0.239   1.435
 6301SOL    HW119802   3.320   0.239   1.336
 6301SOL    HW219803   3.391   0.253   1.482
 6302SOL     OW19804   6.570   0.165   3.066
 6302SOL    HW119805   6.556   0.151   2.968
 6302SOL    HW219806   6.664   0.195   3.082
 6303SOL     OW19807   2.654   5.300   4.405
 6303SOL    HW119808   2.729   5.356   4.439
 6303SOL    HW219809   2.568   5.349   4.416
 6304SOL     OW19810   4.195   0.683   4.747
 6304SOL    HW119811   4.241   0.617   4.806
 6304SOL    HW219812   4.246   0.693   4.662
 6305SOL     OW19813   5.165   0.077   2.957
 6305SOL    HW119814   5.088   0.062   2.895
 6305SOL    HW219815   5.178   7.015   3.014
 6306SOL     OW19816   6.135   3.122   4.048
 6306SOL    HW119817   6.041   3.088   4.051
 6306SOL    HW219818   6.181   3.098   4.133
 6307SOL     OW19819   2.266   4.978   0.132
 6307SOL    HW119820   2.200   5.050   0.155
 6307SOL    HW219821   2.343   5.017   0.082
 6308SOL     OW19822   4.138   2.639   6.187
 6308SOL    HW119823   4.169   2.543   6.185
 6308SOL    HW219824   4.041   2.643   6.164
 6309SOL     OW19825   6.053   2.393   5.337
 6309SOL    HW119826   6.089   2.422   5.426
 6309SOL    HW219827   5.986   2.459   5.305
 6310SOL     OW19828   6.634   5.691   4.756
 6310SOL    HW119829   6.645   5.740   4.670
 6310SOL    HW219830   6.626   5.756   4.831
 6311SOL     OW19831   6.029   0.241   4.588
 6311SOL    HW119832   6.057   0.311   4.522
 6311SOL    HW219833   6.056   0.269   4.680
 6312SOL     OW19834   5.950   3.901   5.505
 6312SOL    HW119835   5.941   3.937   5.598
 6312SOL    HW219836   6.027   3.948   5.460
 6313SOL     OW19837   2.622   5.770   3.965
 6313SOL    HW119838   2.623   5.671   3.976
 6313SOL    HW219839   2.658   5.814   4.048
 6314SOL     OW19840   1.265   0.088   3.240
 6314SOL    HW119841   1.350   0.105   3.291
 6314SOL    HW219842   1.208   0.170   3.243
 6315SOL     OW19843   1.794   3.636   0.535
 6315SOL    HW119844   1.721   3.671   0.594
 6315SOL    HW219845   1.758   3.619   0.443
 6316SOL     OW19846   4.397   0.860   4.966
 6316SOL    HW119847   4.418   0.770   4.928
 6316SOL    HW219848   4.319   0.899   4.917
 6317SOL     OW19849   6.750   5.560   4.441
 6317SOL    HW119850   6.658   5.527   4.463
 6317SOL    HW219851   6.767   5.646   4.489
 6318SOL     OW19852   1.696   2.622   3.853
 6318SOL    HW119853   1.688   2.523   3.863
 6318SOL    HW219854   1.650   2.651   3.769
 6319SOL     OW19855   1.119   1.877   3.145
 6319SOL    HW119856   1.039   1.911   3.194
 6319SOL    HW219857   1.096   1.862   3.049
 6320SOL     OW19858   0.352   2.579   2.922
 6320SOL    HW119859   0.397   2.545   2.839
 6320SOL    HW219860   0.299   2.505   2.963
 6321SOL     OW19861   2.156   4.051   5.732
 6321SOL    HW119862   2.226   4.108   5.689
 6321SOL    HW219863   2.114   3.992   5.663
 6322SOL     OW19864   2.630   6.972   0.160
 6322SOL    HW119865   2.692   0.018   0.205
 6322SOL    HW219866   2.680   6.920   0.091
 6323SOL     OW19867   4.491   1.548   2.069
 6323SOL    HW119868   4.457   1.470   2.121
 6323SOL    HW219869   4.428   1.567   1.993
 6324SOL     OW19870   3.094   1.837   1.002
 6324SOL    HW119871   2.997   1.821   1.018
 6324SOL    HW219872   3.148   1.782   1.066
 6325SOL     OW19873   1.952   2.983   3.152
 6325SOL    HW119874   1.949   2.948   3.245
 6325SOL    HW219875   1.906   3.072   3.148
 6326SOL     OW19876   4.666   6.799   1.515
 6326SOL    HW119877   4.605   6.729   1.477
 6326SOL    HW219878   4.720   6.760   1.589
 6327SOL     OW19879   3.779   5.517   5.360
 6327SOL    HW119880   3.783   5.506   5.459
 6327SOL    HW219881   3.871   5.532   5.325
 6328SOL     OW19882   3.451   4.315   0.176
 6328SOL    HW119883   3.407   4.242   0.228
 6328SOL    HW219884   3.387   4.391   0.165
 6329SOL     OW19885   0.998   2.384   3.568
 6329SOL    HW119886   0.939   2.420   3.496
 6329SOL    HW219887   0.941   2.353   3.645
 6330SOL     OW19888   3.619   0.560   6.928
 6330SOL    HW119889   3.581   0.528   7.016
 6330SOL    HW219890   3.623   0.483   6.864
 6331SOL     OW19891   5.112   2.787   1.160
 6331SOL    HW119892   5.144   2.698   1.128
 6331SOL    HW219893   5.181   2.828   1.220
 6332SOL     OW19894   4.310   5.994   1.783
 6332SOL    HW119895   4.397   5.946   1.772
 6332SOL    HW219896   4.243   5.932   1.824
 6333SOL     OW19897   2.447   5.363   2.390
 6333SOL    HW119898   2.421   5.266   2.394
 6333SOL    HW219899   2.520   5.381   2.455
 6334SOL     OW19900   2.077   0.742   2.049
 6334SOL    HW119901   2.089   0.730   1.950
 6334SOL    HW219902   1.992   0.791   2.067
 6335SOL     OW19903   6.196   0.941   6.957
 6335SOL    HW119904   6.186   0.849   6.993
 6335SOL    HW219905   6.255   0.995   7.017
 6336SOL     OW19906   1.558   2.861   5.087
 6336SOL    HW119907   1.648   2.818   5.081
 6336SOL    HW219908   1.568   2.960   5.098
 6337SOL     OW19909   0.778   4.729   5.232
 6337SOL    HW119910   0.727   4.811   5.204
 6337SOL    HW219911   0.811   4.681   5.151
 6338SOL     OW19912   3.616   1.250   4.292
 6338SOL    HW119913   3.716   1.260   4.283
 6338SOL    HW219914   3.585   1.172   4.237
 6339SOL     OW19915   6.634   2.654   4.172
 6339SOL    HW119916   6.567   2.679   4.101
 6339SOL    HW219917   6.673   2.736   4.212
 6340SOL     OW19918   3.248   5.370   3.374
 6340SOL    HW119919   3.309   5.426   3.432
 6340SOL    HW219920   3.280   5.276   3.374
 6341SOL     OW19921   6.274   5.223   2.012
 6341SOL    HW119922   6.190   5.199   2.060
 6341SOL    HW219923   6.258   5.304   1.956
 6342SOL     OW19924   0.923   3.713   0.631
 6342SOL    HW119925   0.824   3.717   0.644
 6342SOL    HW219926   0.943   3.680   0.538
 6343SOL     OW19927   3.954   1.608   0.254
 6343SOL    HW119928   3.899   1.593   0.172
 6343SOL    HW219929   3.960   1.523   0.307
 6344SOL     OW19930   6.125   4.845   4.500
 6344SOL    HW119931   6.161   4.924   4.549
 6344SOL    HW219932   6.199   4.780   4.483
 6345SOL     OW19933   2.251   1.837   0.963
 6345SOL    HW119934   2.281   1.799   1.051
 6345SOL    HW219935   2.204   1.923   0.979
 6346SOL     OW19936   0.572   5.161   3.865
 6346SOL    HW119937   0.655   5.204   3.829
 6346SOL    HW219938   0.517   5.229   3.913
 6347SOL     OW19939   2.832   0.377   0.471
 6347SOL    HW119940   2.931   0.388   0.467
 6347SOL    HW219941   2.789   0.466   0.488
 6348SOL     OW19942   0.284   2.302   4.307
 6348SOL    HW119943   0.219   2.339   4.240
 6348SOL    HW219944   0.326   2.378   4.357
 6349SOL     OW19945   0.682   1.205   0.461
 6349SOL    HW119946   0.707   1.301   0.473
 6349SOL    HW219947   0.765   1.149   0.451
 6350SOL     OW19948   6.791   5.688   3.091
 6350SOL    HW119949   6.696   5.700   3.062
 6350SOL    HW219950   6.811   5.591   3.100
 6351SOL     OW19951   0.246   2.079   3.122
 6351SOL    HW119952   0.238   1.983   3.094
 6351SOL    HW219953   0.199   2.137   3.056
 6352SOL     OW19954   6.430   4.120   2.722
 6352SOL    HW119955   6.404   4.050   2.655
 6352SOL    HW219956   6.496   4.082   2.786
 6353SOL     OW19957   6.984   6.892   2.148
 6353SOL    HW119958   0.032   6.965   2.166
 6353SOL    HW219959   7.007   6.848   2.061
 6354SOL     OW19960   6.898   0.097   4.871
 6354SOL    HW119961   6.876   0.165   4.801
 6354SOL    HW219962   6.930   0.143   4.954
 6355SOL     OW19963   1.390   1.855   1.360
 6355SOL    HW119964   1.319   1.817   1.420
 6355SOL    HW219965   1.358   1.853   1.265
 6356SOL     OW19966   3.530   3.773   1.398
 6356SOL    HW119967   3.533   3.710   1.475
 6356SOL    HW219968   3.439   3.815   1.393
 6357SOL     OW19969   4.972   1.447   1.033
 6357SOL    HW119970   5.068   1.470   1.019
 6357SOL    HW219971   4.964   1.387   1.113
 6358SOL     OW19972   0.875   2.764   5.327
 6358SOL    HW119973   0.864   2.679   5.379
 6358SOL    HW219974   0.963   2.762   5.279
 6359SOL     OW19975   6.856   0.583   6.368
 6359SOL    HW119976   6.816   0.671   6.394
 6359SOL    HW219977   6.936   0.598   6.310
 6360SOL     OW19978   2.053   4.674   3.994
 6360SOL    HW119979   2.129   4.698   4.054
 6360SOL    HW219980   2.019   4.583   4.018
 6361SOL     OW19981   3.164   6.033   5.372
 6361SOL    HW119982   3.200   5.982   5.294
 6361SOL    HW219983   3.140   5.968   5.445
 6362SOL     OW19984   6.882   4.642   5.582
 6362SOL    HW119985   6.860   4.646   5.484
 6362SOL    HW219986   6.977   4.671   5.595
 6363SOL     OW19987   1.009   5.666   3.770
 6363SOL    HW119988   0.933   5.705   3.718
 6363SOL    HW219989   1.096   5.699   3.732
 6364SOL     OW19990   2.597   1.622   6.232
 6364SOL    HW119991   2.684   1.574   6.229
 6364SOL    HW219992   2.613   1.721   6.228
 6365SOL     OW19993   4.038   5.327   2.229
 6365SOL    HW119994   3.981   5.326   2.311
 6365SOL    HW219995   3.980   5.329   2.148
 6366SOL     OW19996   0.567   4.080   5.228
 6366SOL    HW119997   0.556   4.092   5.326
 6366SOL    HW219998   0.615   4.159   5.189
 6367SOL     OW19999   5.450   5.535   1.980
 6367SOL    HW120000   5.453   5.496   2.072
 6367SOL    HW220001   5.364   5.585   1.967
 6368SOL     OW20002   3.041   1.508   2.409
 6368SOL    HW120003   3.069   1.414   2.389
 6368SOL    HW220004   3.087   1.571   2.347
 6369SOL     OW20005   2.249   5.939   5.107
 6369SOL    HW120006   2.218   5.844   5.100
 6369SOL    HW220007   2.170   5.998   5.121
 6370SOL     OW20008   5.445   2.547   2.374
 6370SOL    HW120009   5.536   2.523   2.342
 6370SOL    HW220010   5.420   2.637   2.339
 6371SOL     OW20011   4.519   1.327   3.201
 6371SOL    HW120012   4.541   1.260   3.130
 6371SOL    HW220013   4.580   1.313   3.280
 6372SOL     OW20014   3.095   0.196   2.781
 6372SOL    HW120015   3.011   0.250   2.788
 6372SOL    HW220016   3.110   0.169   2.686
 6373SOL     OW20017   3.925   4.506   0.180
 6373SOL    HW120018   3.911   4.447   0.100
 6373SOL    HW220019   4.020   4.538   0.182
 6374SOL     OW20020   3.148   3.022   4.601
 6374SOL    HW120021   3.231   3.028   4.656
 6374SOL    HW220022   3.148   2.936   4.550
 6375SOL     OW20023   1.859   5.958   2.070
 6375SOL    HW120024   1.854   6.033   2.004
 6375SOL    HW220025   1.832   5.991   2.161
 6376SOL     OW20026   1.378   1.361   5.331
 6376SOL    HW120027   1.304   1.375   5.396
 6376SOL    HW220028   1.344   1.311   5.251
 6377SOL     OW20029   0.742   2.673   3.838
 6377SOL    HW120030   0.812   2.664   3.767
 6377SOL    HW220031   0.699   2.763   3.831
 6378SOL     OW20032   3.882   5.091   3.732
 6378SOL    HW120033   3.959   5.060   3.677
 6378SOL    HW220034   3.884   5.044   3.821
 6379SOL     OW20035   2.091   4.559   1.951
 6379SOL    HW120036   2.143   4.597   1.874
 6379SOL    HW220037   1.994   4.578   1.938
 6380SOL     OW20038   1.391   0.499   6.416
 6380SOL    HW120039   1.456   0.458   6.353
 6380SOL    HW220040   1.337   0.428   6.460
 6381SOL     OW20041   3.376   3.411   2.982
 6381SOL    HW120042   3.346   3.375   2.894
 6381SOL    HW220043   3.311   3.480   3.014
 6382SOL     OW20044   1.207   4.579   5.133
 6382SOL    HW120045   1.157   4.641   5.193
 6382SOL    HW220046   1.280   4.534   5.185
 6383SOL     OW20047   4.004   1.691   3.966
 6383SOL    HW120048   3.968   1.784   3.960
 6383SOL    HW220049   4.103   1.693   3.950
 6384SOL     OW20050   6.864   4.274   1.597
 6384SOL    HW120051   6.881   4.331   1.678
 6384SOL    HW220052   6.879   4.178   1.619
 6385SOL     OW20053   1.072   5.611   5.508
 6385SOL    HW120054   1.141   5.663   5.459
 6385SOL    HW220055   1.023   5.670   5.572
 6386SOL     OW20056   1.781   5.448   3.018
 6386SOL    HW120057   1.747   5.355   3.028
 6386SOL    HW220058   1.831   5.457   2.932
 6387SOL     OW20059   5.659   0.983   5.019
 6387SOL    HW120060   5.698   0.950   4.933
 6387SOL    HW220061   5.618   0.906   5.068
 6388SOL     OW20062   2.079   4.950   2.278
 6388SOL    HW120063   2.082   4.853   2.301
 6388SOL    HW220064   2.098   5.005   2.359
 6389SOL     OW20065   1.572   3.869   0.937
 6389SOL    HW120066   1.618   3.794   0.985
 6389SOL    HW220067   1.639   3.921   0.884
 6390SOL     OW20068   0.628   3.363   4.660
 6390SOL    HW120069   0.690   3.327   4.589
 6390SOL    HW220070   0.536   3.370   4.623
 6391SOL     OW20071   3.677   0.664   0.530
 6391SOL    HW120072   3.646   0.756   0.554
 6391SOL    HW220073   3.776   0.657   0.545
 6392SOL     OW20074   1.170   5.945   4.331
 6392SOL    HW120075   1.249   5.997   4.362
 6392SOL    HW220076   1.148   5.970   4.236
 6393SOL     OW20077   5.063   0.989   6.948
 6393SOL    HW120078   5.116   1.066   6.913
 6393SOL    HW220079   5.070   0.912   6.884
 6394SOL     OW20080   3.817   5.643   1.984
 6394SOL    HW120081   3.772   5.579   2.047
 6394SOL    HW220082   3.776   5.733   1.993
 6395SOL     OW20083   5.753   1.697   0.403
 6395SOL    HW120084   5.752   1.790   0.366
 6395SOL    HW220085   5.839   1.682   0.452
 6396SOL     OW20086   6.567   2.140   6.723
 6396SOL    HW120087   6.574   2.234   6.689
 6396SOL    HW220088   6.475   2.105   6.707
 6397SOL     OW20089   6.731   0.342   0.633
 6397SOL    HW120090   6.762   0.309   0.545
 6397SOL    HW220091   6.810   0.358   0.693
 6398SOL     OW20092   4.437   1.258   1.681
 6398SOL    HW120093   4.494   1.311   1.744
 6398SOL    HW220094   4.420   1.311   1.598
 6399SOL     OW20095   1.203   6.409   6.422
 6399SOL    HW120096   1.188   6.371   6.331
 6399SOL    HW220097   1.263   6.489   6.416
 6400SOL     OW20098   3.441   5.006   4.568
 6400SOL    HW120099   3.410   5.101   4.579
 6400SOL    HW220100   3.368   4.944   4.596
 6401SOL     OW20101   6.909   5.038   5.618
 6401SOL    HW120102   6.949   5.006   5.704
 6401SOL    HW220103   6.960   4.999   5.541
 6402SOL     OW20104   1.850   3.445   2.984
 6402SOL    HW120105   1.908   3.433   3.065
 6402SOL    HW220106   1.766   3.392   2.996
 6403SOL     OW20107   0.141   6.247   1.857
 6403SOL    HW120108   0.123   6.276   1.763
 6403SOL    HW220109   0.151   6.147   1.860
 6404SOL     OW20110   4.841   0.603   2.544
 6404SOL    HW120111   4.789   0.588   2.628
 6404SOL    HW220112   4.851   0.701   2.527
 6405SOL     OW20113   3.552   0.021   1.742
 6405SOL    HW120114   3.544   6.945   1.709
 6405SOL    HW220115   3.546   0.022   1.842
 6406SOL     OW20116   2.383   2.067   3.297
 6406SOL    HW120117   2.382   2.019   3.385
 6406SOL    HW220118   2.477   2.090   3.272
 6407SOL     OW20119   5.082   6.046   6.796
 6407SOL    HW120120   5.115   6.086   6.711
 6407SOL    HW220121   5.154   6.049   6.865
 6408SOL     OW20122   6.164   2.428   1.110
 6408SOL    HW120123   6.176   2.331   1.088
 6408SOL    HW220124   6.245   2.479   1.079
 6409SOL     OW20125   1.192   4.932   1.659
 6409SOL    HW120126   1.181   4.971   1.568
 6409SOL    HW220127   1.102   4.915   1.699
 6410SOL     OW20128   0.023   0.051   1.058
 6410SOL    HW120129   0.016   6.975   1.092
 6410SOL    HW220130   0.097   0.098   1.106
 6411SOL     OW20131   1.698   1.668   3.107
 6411SOL    HW120132   1.753   1.609   3.048
 6411SOL    HW220133   1.620   1.704   3.056
 6412SOL     OW20134   5.753   2.215   4.814
 6412SOL    HW120135   5.723   2.228   4.908
 6412SOL    HW220136   5.801   2.297   4.782
 6413SOL     OW20137   0.337   5.206   0.725
 6413SOL    HW120138   0.371   5.185   0.634
 6413SOL    HW220139   0.405   5.179   0.793
 6414SOL     OW20140   6.242   0.467   3.617
 6414SOL    HW120141   6.267   0.370   3.613
 6414SOL    HW220142   6.309   0.516   3.673
 6415SOL     OW20143   1.304   1.832   2.158
 6415SOL    HW120144   1.310   1.758   2.225
 6415SOL    HW220145   1.215   1.829   2.113
 6416SOL     OW20146   3.007   6.104   6.719
 6416SOL    HW120147   2.948   6.077   6.643
 6416SOL    HW220148   3.062   6.183   6.692
 6417SOL     OW20149   6.967   6.091   4.818
 6417SOL    HW120150   6.969   6.171   4.759
 6417SOL    HW220151   7.016   6.016   4.774
 6418SOL     OW20152   6.944   5.120   2.227
 6418SOL    HW120153   6.845   5.121   2.218
 6418SOL    HW220154   6.985   5.082   2.144
 6419SOL     OW20155   2.677   2.339   0.431
 6419SOL    HW120156   2.618   2.419   0.436
 6419SOL    HW220157   2.713   2.318   0.522
 6420SOL     OW20158   0.618   2.257   0.226
 6420SOL    HW120159   0.582   2.167   0.247
 6420SOL    HW220160   0.707   2.248   0.181
 6421SOL     OW20161   5.828   1.397   0.694
 6421SOL    HW120162   5.919   1.381   0.654
 6421SOL    HW220163   5.831   1.374   0.792
 6422SOL     OW20164   5.460   2.185   3.177
 6422SOL    HW120165   5.450   2.086   3.189
 6422SOL    HW220166   5.450   2.207   3.080
 6423SOL     OW20167   5.303   3.833   0.608
 6423SOL    HW120168   5.374   3.808   0.542
 6423SOL    HW220169   5.222   3.777   0.593
 6424SOL     OW20170   6.095   3.805   5.075
 6424SOL    HW120171   6.038   3.885   5.061
 6424SOL    HW220172   6.136   3.777   4.988
 6425SOL     OW20173   0.991   5.561   0.894
 6425SOL    HW120174   0.963   5.542   0.800
 6425SOL    HW220175   0.972   5.482   0.951
 6426SOL     OW20176   6.502   3.394   3.416
 6426SOL    HW120177   6.554   3.446   3.484
 6426SOL    HW220178   6.480   3.452   3.338
 6427SOL     OW20179   1.038   3.643   6.031
 6427SOL    HW120180   0.992   3.698   5.961
 6427SOL    HW220181   1.134   3.630   6.006
 6428SOL     OW20182   6.076   4.132   5.217
 6428SOL    HW120183   6.083   4.172   5.309
 6428SOL    HW220184   6.167   4.108   5.185
 6429SOL     OW20185   1.057   0.578   5.306
 6429SOL    HW120186   1.124   0.645   5.272
 6429SOL    HW220187   1.093   0.532   5.387
 6430SOL     OW20188   6.377   3.225   7.006
 6430SOL    HW120189   6.461   3.214   0.042
 6430SOL    HW220190   6.348   3.321   7.007
 6431SOL     OW20191   5.820   1.499   2.131
 6431SOL    HW120192   5.723   1.501   2.108
 6431SOL    HW220193   5.842   1.411   2.174
 6432SOL     OW20194   6.291   3.972   0.613
 6432SOL    HW120195   6.370   4.030   0.595
 6432SOL    HW220196   6.283   3.903   0.540
 6433SOL     OW20197   2.095   3.431   1.516
 6433SOL    HW120198   2.045   3.369   1.455
 6433SOL    HW220199   2.080   3.525   1.487
 6434SOL     OW20200   1.797   6.211   0.779
 6434SOL    HW120201   1.843   6.235   0.864
 6434SOL    HW220202   1.734   6.135   0.796
 6435SOL     OW20203   5.775   3.469   0.692
 6435SOL    HW120204   5.867   3.454   0.655
 6435SOL    HW220205   5.778   3.461   0.792
 6436SOL     OW20206   2.855   2.428   0.907
 6436SOL    HW120207   2.896   2.519   0.910
 6436SOL    HW220208   2.839   2.403   0.812
 6437SOL     OW20209   0.278   1.455   1.494
 6437SOL    HW120210   0.354   1.515   1.523
 6437SOL    HW220211   0.232   1.419   1.575
 6438SOL     OW20212   0.699   3.496   4.395
 6438SOL    HW120213   0.711   3.517   4.492
 6438SOL    HW220214   0.756   3.556   4.340
 6439SOL     OW20215   0.094   6.117   2.630
 6439SOL    HW120216   0.152   6.038   2.607
 6439SOL    HW220217   0.130   6.199   2.586
 6440SOL     OW20218   0.460   0.426   2.232
 6440SOL    HW120219   0.546   0.467   2.261
 6440SOL    HW220220   0.403   0.407   2.312
 6441SOL     OW20221   5.156   1.857   3.253
 6441SOL    HW120222   5.176   1.771   3.301
 6441SOL    HW220223   5.071   1.896   3.289
 6442SOL     OW20224   1.561   1.922   3.571
 6442SOL    HW120225   1.463   1.938   3.559
 6442SOL    HW220226   1.611   1.962   3.495
 6443SOL     OW20227   2.350   0.840   1.110
 6443SOL    HW120228   2.318   0.765   1.168
 6443SOL    HW220229   2.281   0.912   1.107
 6444SOL     OW20230   1.056   1.296   2.652
 6444SOL    HW120231   1.108   1.380   2.666
 6444SOL    HW220232   0.995   1.281   2.730
 6445SOL     OW20233   3.399   4.458   6.371
 6445SOL    HW120234   3.395   4.409   6.284
 6445SOL    HW220235   3.400   4.556   6.354
 6446SOL     OW20236   0.443   1.079   1.383
 6446SOL    HW120237   0.352   1.060   1.419
 6446SOL    HW220238   0.443   1.070   1.283
 6447SOL     OW20239   2.043   1.145   3.405
 6447SOL    HW120240   2.047   1.178   3.311
 6447SOL    HW220241   1.997   1.213   3.462
 6448SOL     OW20242   6.536   2.485   2.323
 6448SOL    HW120243   6.617   2.464   2.376
 6448SOL    HW220244   6.454   2.473   2.380
 6449SOL     OW20245   4.479   2.451   0.627
 6449SOL    HW120246   4.544   2.526   0.615
 6449SOL    HW220247   4.390   2.478   0.591
 6450SOL     OW20248   6.369   2.514   0.070
 6450SOL    HW120249   6.363   2.613   0.053
 6450SOL    HW220250   6.432   2.473   0.004
 6451SOL     OW20251   3.110   6.173   4.665
 6451SOL    HW120252   3.143   6.119   4.743
 6451SOL    HW220253   3.021   6.213   4.687
 6452SOL     OW20254   3.854   5.985   4.356
 6452SOL    HW120255   3.856   5.901   4.411
 6452SOL    HW220256   3.766   5.992   4.310
 6453SOL     OW20257   2.508   5.169   6.767
 6453SOL    HW120258   2.531   5.227   6.845
 6453SOL    HW220259   2.446   5.097   6.797
 6454SOL     OW20260   3.787   0.799   4.877
 6454SOL    HW120261   3.804   0.873   4.942
 6454SOL    HW220262   3.863   0.734   4.881
 6455SOL     OW20263   6.499   3.602   0.030
 6455SOL    HW120264   6.416   3.579   6.997
 6455SOL    HW220265   6.477   3.615   0.127
 6456SOL     OW20266   6.482   1.936   4.178
 6456SOL    HW120267   6.517   2.030   4.185
 6456SOL    HW220268   6.402   1.934   4.118
 6457SOL     OW20269   5.418   3.123   1.961
 6457SOL    HW120270   5.385   3.097   1.871
 6457SOL    HW220271   5.486   3.056   1.992
 6458SOL     OW20272   1.517   5.518   4.005
 6458SOL    HW120273   1.469   5.535   4.091
 6458SOL    HW220274   1.452   5.484   3.937
 6459SOL     OW20275   5.893   4.004   0.112
 6459SOL    HW120276   5.937   3.960   0.190
 6459SOL    HW220277   5.847   3.935   0.056
 6460SOL     OW20278   3.793   4.994   1.776
 6460SOL    HW120279   3.847   4.910   1.778
 6460SOL    HW220280   3.823   5.050   1.699
 6461SOL     OW20281   3.053   5.669   4.366
 6461SOL    HW120282   3.043   5.760   4.405
 6461SOL    HW220283   3.148   5.655   4.337
 6462SOL     OW20284   1.759   4.014   2.367
 6462SOL    HW120285   1.754   3.914   2.374
 6462SOL    HW220286   1.826   4.049   2.433
 6463SOL     OW20287   2.074   3.122   6.205
 6463SOL    HW120288   2.158   3.131   6.153
 6463SOL    HW220289   2.030   3.211   6.215
 6464SOL     OW20290   0.924   5.087   1.876
 6464SOL    HW120291   0.827   5.099   1.899
 6464SOL    HW220292   0.966   5.024   1.941
 6465SOL     OW20293   6.821   0.296   3.103
 6465SOL    HW120294   6.862   0.342   3.024
 6465SOL    HW220295   6.893   0.266   3.166
 6466SOL     OW20296   6.338   2.873   4.682
 6466SOL    HW120297   6.416   2.935   4.687
 6466SOL    HW220298   6.293   2.883   4.593
 6467SOL     OW20299   3.976   0.006   6.134
 6467SOL    HW120300   3.921   6.944   6.159
 6467SOL    HW220301   4.025   7.006   6.049
 6468SOL     OW20302   6.571   4.772   2.384
 6468SOL    HW120303   6.561   4.673   2.399
 6468SOL    HW220304   6.595   4.816   2.471
 6469SOL     OW20305   5.795   2.257   6.011
 6469SOL    HW120306   5.887   2.248   6.050
 6469SOL    HW220307   5.768   2.170   5.970
 6470SOL     OW20308   6.637   6.537   4.717
 6470SOL    HW120309   6.650   6.458   4.658
 6470SOL    HW220310   6.547   6.532   4.761
 6471SOL     OW20311   6.605   0.050   4.889
 6471SOL    HW120312   6.697   0.081   4.865
 6471SOL    HW220313   6.538   0.121   4.868
 6472SOL     OW20314   1.704   6.658   1.956
 6472SOL    HW120315   1.684   6.737   2.014
 6472SOL    HW220316   1.631   6.647   1.888
 6473SOL     OW20317   2.526   1.460   5.645
 6473SOL    HW120318   2.454   1.528   5.633
 6473SOL    HW220319   2.489   1.369   5.624
 6474SOL     OW20320   2.056   2.971   6.609
 6474SOL    HW120321   2.146   2.950   6.645
 6474SOL    HW220322   1.990   2.903   6.641
 6475SOL     OW20323   4.128   5.442   3.810
 6475SOL    HW120324   4.111   5.421   3.714
 6475SOL    HW220325   4.092   5.368   3.867
 6476SOL     OW20326   5.112   5.808   2.880
 6476SOL    HW120327   5.094   5.907   2.878
 6476SOL    HW220328   5.196   5.791   2.931
 6477SOL     OW20329   6.557   6.018   0.303
 6477SOL    HW120330   6.636   6.048   0.357
 6477SOL    HW220331   6.564   5.919   0.287
 6478SOL     OW20332   4.134   6.115   1.193
 6478SOL    HW120333   4.146   6.054   1.115
 6478SOL    HW220334   4.108   6.061   1.273
 6479SOL     OW20335   3.132   5.595   2.779
 6479SOL    HW120336   3.158   5.593   2.682
 6479SOL    HW220337   3.200   5.546   2.833
 6480SOL     OW20338   2.259   0.867   0.539
 6480SOL    HW120339   2.175   0.823   0.506
 6480SOL    HW220340   2.265   0.959   0.501
 6481SOL     OW20341   4.680   0.663   1.035
 6481SOL    HW120342   4.622   0.744   1.051
 6481SOL    HW220343   4.626   0.580   1.052
 6482SOL     OW20344   0.182   0.676   5.617
 6482SOL    HW120345   0.200   0.672   5.716
 6482SOL    HW220346   0.160   0.585   5.583
 6483SOL     OW20347   1.377   5.213   1.585
 6483SOL    HW120348   1.304   5.255   1.639
 6483SOL    HW220349   1.362   5.234   1.488
 6484SOL     OW20350   4.713   0.098   3.255
 6484SOL    HW120351   4.807   0.131   3.267
 6484SOL    HW220352   4.704   0.056   3.164
 6485SOL     OW20353   6.962   2.835   1.965
 6485SOL    HW120354   6.942   2.912   1.905
 6485SOL    HW220355   6.880   2.779   1.978
 6486SOL     OW20356   1.377   3.074   3.096
 6486SOL    HW120357   1.365   2.977   3.075
 6486SOL    HW220358   1.444   3.084   3.169
 6487SOL     OW20359   6.094   5.702   3.011
 6487SOL    HW120360   6.108   5.681   3.108
 6487SOL    HW220361   6.052   5.792   3.001
 6488SOL     OW20362   3.571   5.220   4.244
 6488SOL    HW120363   3.518   5.273   4.310
 6488SOL    HW220364   3.550   5.123   4.255
 6489SOL     OW20365   2.819   1.029   6.209
 6489SOL    HW120366   2.882   0.953   6.196
 6489SOL    HW220367   2.865   1.102   6.261
 6490SOL     OW20368   4.578   0.839   0.298
 6490SOL    HW120369   4.650   0.843   0.367
 6490SOL    HW220370   4.491   0.868   0.338
 6491SOL     OW20371   5.208   1.398   5.972
 6491SOL    HW120372   5.230   1.446   5.887
 6491SOL    HW220373   5.292   1.379   6.022
 6492SOL     OW20374   5.784   5.227   5.940
 6492SOL    HW120375   5.805   5.244   5.844
 6492SOL    HW220376   5.696   5.269   5.964
 6493SOL     OW20377   6.877   0.049   5.452
 6493SOL    HW120378   6.915   6.979   5.483
 6493SOL    HW220379   6.839   0.038   5.360
 6494SOL     OW20380   0.469   2.756   3.502
 6494SOL    HW120381   0.537   2.829   3.494
 6494SOL    HW220382   0.382   2.788   3.463
 6495SOL     OW20383   5.830   4.558   2.158
 6495SOL    HW120384   5.793   4.613   2.232
 6495SOL    HW220385   5.761   4.544   2.088
 6496SOL     OW20386   0.260   6.644   3.557
 6496SOL    HW120387   0.200   6.706   3.506
 6496SOL    HW220388   0.220   6.553   3.559
 6497SOL     OW20389   1.006   0.056   1.369
 6497SOL    HW120390   1.049   6.984   1.360
 6497SOL    HW220391   0.954   0.077   1.287
 6498SOL     OW20392   1.346   3.580   4.071
 6498SOL    HW120393   1.347   3.489   4.113
 6498SOL    HW220394   1.425   3.590   4.011
 6499SOL     OW20395   6.196   1.164   2.959
 6499SOL    HW120396   6.203   1.144   2.861
 6499SOL    HW220397   6.286   1.154   3.001
 6500SOL     OW20398   5.718   4.830   1.984
 6500SOL    HW120399   5.737   4.733   1.973
 6500SOL    HW220400   5.620   4.844   1.994
 6501SOL     OW20401   6.532   4.472   0.787
 6501SOL    HW120402   6.520   4.376   0.810
 6501SOL    HW220403   6.459   4.526   0.828
 6502SOL     OW20404   0.484   5.612   1.728
 6502SOL    HW120405   0.519   5.605   1.821
 6502SOL    HW220406   0.526   5.542   1.670
 6503SOL     OW20407   3.810   0.717   3.875
 6503SOL    HW120408   3.870   0.660   3.819
 6503SOL    HW220409   3.715   0.706   3.844
 6504SOL     OW20410   2.204   2.428   6.927
 6504SOL    HW120411   2.283   2.367   6.937
 6504SOL    HW220412   2.235   2.522   6.920
 6505SOL     OW20413   5.546   5.063   0.608
 6505SOL    HW120414   5.506   5.090   0.696
 6505SOL    HW220415   5.630   5.115   0.592
 6506SOL     OW20416   2.136   1.202   1.863
 6506SOL    HW120417   2.181   1.291   1.866
 6506SOL    HW220418   2.058   1.201   1.925
 6507SOL     OW20419   3.016   0.799   1.644
 6507SOL    HW120420   3.070   0.841   1.716
 6507SOL    HW220421   2.934   0.853   1.627
 6508SOL     OW20422   1.287   2.977   1.490
 6508SOL    HW120423   1.307   3.017   1.579
 6508SOL    HW220424   1.318   3.039   1.418
 6509SOL     OW20425   1.530   2.948   3.838
 6509SOL    HW120426   1.618   2.904   3.823
 6509SOL    HW220427   1.495   2.924   3.929
 6510SOL     OW20428   6.152   4.253   6.163
 6510SOL    HW120429   6.230   4.231   6.103
 6510SOL    HW220430   6.094   4.320   6.119
 6511SOL     OW20431   6.653   6.934   6.054
 6511SOL    HW120432   6.568   6.881   6.064
 6511SOL    HW220433   6.632   0.004   6.012
 6512SOL     OW20434   5.240   6.570   4.548
 6512SOL    HW120435   5.207   6.483   4.586
 6512SOL    HW220436   5.178   6.643   4.574
 6513SOL     OW20437   1.356   6.726   3.627
 6513SOL    HW120438   1.403   6.804   3.584
 6513SOL    HW220439   1.387   6.641   3.585
 6514SOL     OW20440   2.564   0.625   4.028
 6514SOL    HW120441   2.585   0.656   3.935
 6514SOL    HW220442   2.635   0.561   4.057
 6515SOL     OW20443   1.356   0.891   3.450
 6515SOL    HW120444   1.405   0.871   3.365
 6515SOL    HW220445   1.413   0.946   3.510
 6516SOL     OW20446   2.328   1.215   5.568
 6516SOL    HW120447   2.338   1.285   5.497
 6516SOL    HW220448   2.265   1.144   5.535
 6517SOL     OW20449   2.699   1.991   1.013
 6517SOL    HW120450   2.779   2.035   0.972
 6517SOL    HW220451   2.617   2.017   0.963
 6518SOL     OW20452   5.485   6.189   1.292
 6518SOL    HW120453   5.501   6.248   1.371
 6518SOL    HW220454   5.499   6.094   1.319
 6519SOL     OW20455   0.389   1.963   3.800
 6519SOL    HW120456   0.451   2.022   3.749
 6519SOL    HW220457   0.436   1.878   3.825
 6520SOL     OW20458   5.557   5.291   0.943
 6520SOL    HW120459   5.547   5.378   0.896
 6520SOL    HW220460   5.497   5.223   0.901
 6521SOL     OW20461   1.266   2.412   5.592
 6521SOL    HW120462   1.309   2.363   5.668
 6521SOL    HW220463   1.286   2.509   5.599
 6522SOL     OW20464   2.604   4.764   4.086
 6522SOL    HW120465   2.598   4.736   3.990
 6522SOL    HW220466   2.598   4.684   4.145
 6523SOL     OW20467   2.453   2.496   0.764
 6523SOL    HW120468   2.475   2.523   0.670
 6523SOL    HW220469   2.511   2.419   0.791
 6524SOL     OW20470   3.977   2.344   5.562
 6524SOL    HW120471   3.958   2.249   5.536
 6524SOL    HW220472   3.916   2.372   5.636
 6525SOL     OW20473   0.691   2.487   4.364
 6525SOL    HW120474   0.744   2.418   4.316
 6525SOL    HW220475   0.728   2.499   4.456
 6526SOL     OW20476   1.489   5.906   3.273
 6526SOL    HW120477   1.525   5.950   3.355
 6526SOL    HW220478   1.545   5.826   3.252
 6527SOL     OW20479   2.066   1.079   4.530
 6527SOL    HW120480   2.032   1.173   4.529
 6527SOL    HW220481   1.993   1.016   4.503
 6528SOL     OW20482   6.961   0.766   2.919
 6528SOL    HW120483   6.897   0.738   2.990
 6528SOL    HW220484   0.023   0.706   2.919
 6529SOL     OW20485   6.013   3.139   2.516
 6529SOL    HW120486   5.974   3.229   2.535
 6529SOL    HW220487   6.022   3.127   2.417
 6530SOL     OW20488   0.165   1.282   0.183
 6530SOL    HW120489   0.126   1.196   0.218
 6530SOL    HW220490   0.119   1.359   0.226
 6531SOL     OW20491   5.046   2.280   5.666
 6531SOL    HW120492   4.947   2.277   5.679
 6531SOL    HW220493   5.083   2.187   5.669
 6532SOL     OW20494   1.646   1.497   6.760
 6532SOL    HW120495   1.549   1.512   6.739
 6532SOL    HW220496   1.661   1.400   6.778
 6533SOL     OW20497   4.910   0.298   0.584
 6533SOL    HW120498   4.870   0.385   0.553
 6533SOL    HW220499   4.994   0.281   0.534
 6534SOL     OW20500   3.834   2.624   6.615
 6534SOL    HW120501   3.811   2.534   6.652
 6534SOL    HW220502   3.930   2.644   6.635
 6535SOL     OW20503   1.965   3.174   5.378
 6535SOL    HW120504   2.062   3.193   5.364
 6535SOL    HW220505   1.918   3.166   5.290
 6536SOL     OW20506   0.576   1.748   0.549
 6536SOL    HW120507   0.621   1.708   0.629
 6536SOL    HW220508   0.598   1.845   0.544
 6537SOL     OW20509   0.630   0.749   6.553
 6537SOL    HW120510   0.626   0.849   6.547
 6537SOL    HW220511   0.597   0.719   6.642
 6538SOL     OW20512   3.181   2.939   5.787
 6538SOL    HW120513   3.133   2.853   5.767
 6538SOL    HW220514   3.167   2.962   5.884
 6539SOL     OW20515   3.188   1.791   6.944
 6539SOL    HW120516   3.100   1.762   6.980
 6539SOL    HW220517   3.261   1.765   7.008
 6540SOL     OW20518   4.101   2.247   3.133
 6540SOL    HW120519   4.074   2.283   3.044
 6540SOL    HW220520   4.175   2.302   3.171
 6541SOL     OW20521   2.989   2.115   5.156
 6541SOL    HW120522   3.055   2.177   5.115
 6541SOL    HW220523   2.902   2.162   5.169
 6542SOL     OW20524   4.398   4.597   2.884
 6542SOL    HW120525   4.448   4.565   2.964
 6542SOL    HW220526   4.325   4.658   2.912
 6543SOL     OW20527   1.584   6.356   6.383
 6543SOL    HW120528   1.569   6.323   6.476
 6543SOL    HW220529   1.647   6.294   6.336
 6544SOL     OW20530   0.684   5.178   2.888
 6544SOL    HW120531   0.675   5.277   2.897
 6544SOL    HW220532   0.595   5.138   2.866
 6545SOL     OW20533   6.160   2.501   6.499
 6545SOL    HW120534   6.169   2.404   6.479
 6545SOL    HW220535   6.169   2.554   6.414
 6546SOL     OW20536   3.196   4.765   6.579
 6546SOL    HW120537   3.165   4.837   6.516
 6546SOL    HW220538   3.293   4.779   6.599
 6547SOL     OW20539   3.971   1.287   6.090
 6547SOL    HW120540   4.028   1.231   6.029
 6547SOL    HW220541   3.892   1.234   6.120
 6548SOL     OW20542   5.056   3.830   5.894
 6548SOL    HW120543   5.138   3.855   5.946
 6548SOL    HW220544   5.051   3.731   5.885
 6549SOL     OW20545   2.597   2.231   2.263
 6549SOL    HW120546   2.572   2.328   2.265
 6549SOL    HW220547   2.572   2.192   2.174
 6550SOL     OW20548   1.031   5.996   2.043
 6550SOL    HW120549   1.100   6.016   1.974
 6550SOL    HW220550   1.065   6.023   2.133
 6551SOL     OW20551   3.359   5.314   1.777
 6551SOL    HW120552   3.309   5.400   1.777
 6551SOL    HW220553   3.305   5.244   1.731
 6552SOL     OW20554   4.462   4.971   5.581
 6552SOL    HW120555   4.457   4.896   5.646
 6552SOL    HW220556   4.541   5.029   5.603
 6553SOL     OW20557   6.693   3.631   3.277
 6553SOL    HW120558   6.603   3.668   3.254
 6553SOL    HW220559   6.691   3.531   3.270
 6554SOL     OW20560   6.587   2.994   4.704
 6554SOL    HW120561   6.594   2.986   4.804
 6554SOL    HW220562   6.616   3.086   4.677
 6555SOL     OW20563   0.727   1.608   1.419
 6555SOL    HW120564   0.724   1.586   1.322
 6555SOL    HW220565   0.684   1.534   1.472
 6556SOL     OW20566   3.545   0.195   3.155
 6556SOL    HW120567   3.564   0.168   3.250
 6556SOL    HW220568   3.550   0.114   3.096
 6557SOL     OW20569   5.327   6.283   0.464
 6557SOL    HW120570   5.264   6.275   0.541
 6557SOL    HW220571   5.310   6.369   0.416
 6558SOL     OW20572   6.224   6.842   5.921
 6558SOL    HW120573   6.293   6.877   5.984
 6558SOL    HW220574   6.265   6.771   5.863
 6559SOL     OW20575   2.906   3.993   1.088
 6559SOL    HW120576   2.836   4.064   1.077
 6559SOL    HW220577   2.994   4.035   1.105
 6560SOL     OW20578   4.651   1.622   0.812
 6560SOL    HW120579   4.747   1.644   0.829
 6560SOL    HW220580   4.600   1.626   0.898
 6561SOL     OW20581   3.866   3.523   4.813
 6561SOL    HW120582   3.795   3.585   4.781
 6561SOL    HW220583   3.880   3.451   4.744
 6562SOL     OW20584   0.166   4.315   5.028
 6562SOL    HW120585   0.136   4.356   5.114
 6562SOL    HW220586   0.194   4.221   5.043
 6563SOL     OW20587   1.008   6.285   2.355
 6563SOL    HW120588   1.080   6.352   2.338
 6563SOL    HW220589   0.924   6.312   2.308
 6564SOL     OW20590   1.718   5.204   3.127
 6564SOL    HW120591   1.747   5.119   3.170
 6564SOL    HW220592   1.643   5.244   3.179
 6565SOL     OW20593   6.913   3.342   5.173
 6565SOL    HW120594   6.914   3.285   5.091
 6565SOL    HW220595   6.949   3.433   5.151
 6566SOL     OW20596   3.869   1.004   0.613
 6566SOL    HW120597   3.920   1.023   0.697
 6566SOL    HW220598   3.929   0.958   0.547
 6567SOL     OW20599   6.730   2.495   0.761
 6567SOL    HW120600   6.742   2.546   0.846
 6567SOL    HW220601   6.658   2.426   0.774
 6568SOL     OW20602   5.581   3.384   1.359
 6568SOL    HW120603   5.613   3.478   1.369
 6568SOL    HW220604   5.574   3.341   1.448
 6569SOL     OW20605   1.161   3.991   5.436
 6569SOL    HW120606   1.223   3.915   5.420
 6569SOL    HW220607   1.201   4.051   5.506
 6570SOL     OW20608   0.251   3.869   2.250
 6570SOL    HW120609   0.343   3.832   2.261
 6570SOL    HW220610   0.190   3.798   2.215
 6571SOL     OW20611   2.368   5.066   3.950
 6571SOL    HW120612   2.380   5.082   4.048
 6571SOL    HW220613   2.287   5.009   3.935
 6572SOL     OW20614   1.321   3.788   5.343
 6572SOL    HW120615   1.248   3.720   5.355
 6572SOL    HW220616   1.406   3.741   5.317
 6573SOL     OW20617   1.703   2.139   1.353
 6573SOL    HW120618   1.669   2.145   1.259
 6573SOL    HW220619   1.658   2.063   1.400
 6574SOL     OW20620   2.295   4.470   4.275
 6574SOL    HW120621   2.227   4.443   4.343
 6574SOL    HW220622   2.326   4.563   4.294
 6575SOL     OW20623   1.343   1.900   2.510
 6575SOL    HW120624   1.280   1.972   2.481
 6575SOL    HW220625   1.405   1.935   2.579
 6576SOL     OW20626   0.446   5.567   4.341
 6576SOL    HW120627   0.386   5.506   4.289
 6576SOL    HW220628   0.443   5.659   4.301
 6577SOL     OW20629   0.608   3.997   5.726
 6577SOL    HW120630   0.703   3.965   5.725
 6577SOL    HW220631   0.575   3.999   5.820
 6578SOL     OW20632   6.384   6.147   3.763
 6578SOL    HW120633   6.409   6.052   3.782
 6578SOL    HW220634   6.444   6.208   3.814
 6579SOL     OW20635   0.119   3.852   3.757
 6579SOL    HW120636   0.192   3.905   3.802
 6579SOL    HW220637   0.158   3.800   3.682
 6580SOL     OW20638   5.972   2.384   0.651
 6580SOL    HW120639   6.045   2.318   0.672
 6580SOL    HW220640   5.891   2.361   0.704
 6581SOL     OW20641   2.453   2.172   5.362
 6581SOL    HW120642   2.545   2.190   5.395
 6581SOL    HW220643   2.417   2.253   5.315
 6582SOL     OW20644   6.334   0.665   2.601
 6582SOL    HW120645   6.373   0.586   2.648
 6582SOL    HW220646   6.317   0.738   2.668
 6583SOL     OW20647   6.329   1.010   6.097
 6583SOL    HW120648   6.283   1.024   6.009
 6583SOL    HW220649   6.399   0.939   6.087
 6584SOL     OW20650   5.863   2.440   0.406
 6584SOL    HW120651   5.914   2.439   0.493
 6584SOL    HW220652   5.794   2.512   0.409
 6585SOL     OW20653   2.498   0.754   2.662
 6585SOL    HW120654   2.573   0.724   2.722
 6585SOL    HW220655   2.536   0.788   2.577
 6586SOL     OW20656   5.694   1.131   6.699
 6586SOL    HW120657   5.753   1.052   6.717
 6586SOL    HW220658   5.711   1.202   6.768
 6587SOL     OW20659   1.411   5.496   1.702
 6587SOL    HW120660   1.467   5.452   1.772
 6587SOL    HW220661   1.450   5.478   1.612
 6588SOL     OW20662   3.702   3.036   0.257
 6588SOL    HW120663   3.738   3.064   0.346
 6588SOL    HW220664   3.676   3.118   0.205
 6589SOL     OW20665   5.028   1.638   5.989
 6589SOL    HW120666   5.016   1.655   6.087
 6589SOL    HW220667   5.075   1.550   5.976
 6590SOL     OW20668   6.612   1.878   5.208
 6590SOL    HW120669   6.560   1.910   5.288
 6590SOL    HW220670   6.548   1.842   5.139
 6591SOL     OW20671   4.934   0.420   2.362
 6591SOL    HW120672   5.023   0.431   2.319
 6591SOL    HW220673   4.910   0.503   2.412
 6592SOL     OW20674   5.362   5.075   5.531
 6592SOL    HW120675   5.407   5.108   5.614
 6592SOL    HW220676   5.265   5.099   5.535
 6593SOL     OW20677   5.558   0.927   2.837
 6593SOL    HW120678   5.657   0.932   2.851
 6593SOL    HW220679   5.522   1.020   2.823
 6594SOL     OW20680   5.550   0.872   0.081
 6594SOL    HW120681   5.624   0.824   0.034
 6594SOL    HW220682   5.576   0.968   0.093
 6595SOL     OW20683   3.742   2.969   6.094
 6595SOL    HW120684   3.706   2.942   6.183
 6595SOL    HW220685   3.729   3.067   6.082
 6596SOL     OW20686   2.247   5.584   4.646
 6596SOL    HW120687   2.334   5.622   4.678
 6596SOL    HW220688   2.259   5.488   4.623
 6597SOL     OW20689   0.158   4.374   0.161
 6597SOL    HW120690   0.122   4.450   0.107
 6597SOL    HW220691   0.090   4.347   0.229
 6598SOL     OW20692   3.259   6.144   4.102
 6598SOL    HW120693   3.354   6.127   4.130
 6598SOL    HW220694   3.233   6.077   4.032
 6599SOL     OW20695   4.212   3.810   6.365
 6599SOL    HW120696   4.253   3.744   6.303
 6599SOL    HW220697   4.235   3.787   6.459
 6600SOL     OW20698   4.288   4.771   4.946
 6600SOL    HW120699   4.320   4.687   4.990
 6600SOL    HW220700   4.364   4.836   4.940
 6601SOL     OW20701   1.099   1.159   2.415
 6601SOL    HW120702   1.087   1.195   2.507
 6601SOL    HW220703   1.193   1.128   2.403
 6602SOL     OW20704   5.387   1.367   1.061
 6602SOL    HW120705   5.344   1.286   1.101
 6602SOL    HW220706   5.462   1.398   1.120
 6603SOL     OW20707   2.743   2.156   1.227
 6603SOL    HW120708   2.761   2.094   1.150
 6603SOL    HW220709   2.806   2.233   1.223
 6604SOL     OW20710   4.170   5.106   5.022
 6604SOL    HW120711   4.225   5.077   5.100
 6604SOL    HW220712   4.132   5.197   5.041
 6605SOL     OW20713   5.182   5.887   1.092
 6605SOL    HW120714   5.114   5.955   1.065
 6605SOL    HW220715   5.274   5.925   1.080
 6606SOL     OW20716   0.445   2.966   3.047
 6606SOL    HW120717   0.458   2.877   3.091
 6606SOL    HW220718   0.483   3.038   3.105
 6607SOL     OW20719   1.997   3.497   2.590
 6607SOL    HW120720   2.042   3.461   2.672
 6607SOL    HW220721   1.904   3.527   2.613
 6608SOL     OW20722   5.213   4.433   4.619
 6608SOL    HW120723   5.226   4.334   4.627
 6608SOL    HW220724   5.191   4.470   4.709
 6609SOL     OW20725   5.584   2.299   6.694
 6609SOL    HW120726   5.621   2.375   6.747
 6609SOL    HW220727   5.584   2.216   6.749
 6610SOL     OW20728   3.919   1.257   0.829
 6610SOL    HW120729   3.827   1.217   0.822
 6610SOL    HW220730   3.914   1.343   0.880
 6611SOL     OW20731   5.453   3.299   2.329
 6611SOL    HW120732   5.429   3.380   2.275
 6611SOL    HW220733   5.463   3.324   2.425
 6612SOL     OW20734   0.653   5.541   6.470
 6612SOL    HW120735   0.717   5.526   6.394
 6612SOL    HW220736   0.591   5.462   6.476
 6613SOL     OW20737   6.065   4.894   0.803
 6613SOL    HW120738   6.115   4.851   0.879
 6613SOL    HW220739   6.080   4.841   0.720
 6614SOL     OW20740   5.702   4.244   6.256
 6614SOL    HW120741   5.708   4.155   6.299
 6614SOL    HW220742   5.734   4.238   6.162
 6615SOL     OW20743   0.185   3.694   4.692
 6615SOL    HW120744   0.263   3.693   4.629
 6615SOL    HW220745   0.205   3.636   4.771
 6616SOL     OW20746   5.021   1.557   4.110
 6616SOL    HW120747   5.044   1.625   4.041
 6616SOL    HW220748   5.072   1.473   4.093
 6617SOL     OW20749   4.085   0.306   4.533
 6617SOL    HW120750   4.045   0.315   4.442
 6617SOL    HW220751   4.109   0.210   4.550
 6618SOL     OW20752   0.320   4.376   1.184
 6618SOL    HW120753   0.251   4.437   1.222
 6618SOL    HW220754   0.391   4.430   1.139
 6619SOL     OW20755   6.286   6.320   2.417
 6619SOL    HW120756   6.363   6.367   2.373
 6619SOL    HW220757   6.255   6.374   2.495
 6620SOL     OW20758   4.907   2.965   5.430
 6620SOL    HW120759   4.909   3.051   5.481
 6620SOL    HW220760   4.834   2.907   5.467
 6621SOL     OW20761   3.571   3.208   1.143
 6621SOL    HW120762   3.565   3.108   1.146
 6621SOL    HW220763   3.498   3.244   1.086
 6622SOL     OW20764   5.851   5.402   0.277
 6622SOL    HW120765   5.825   5.307   0.258
 6622SOL    HW220766   5.827   5.425   0.371
 6623SOL     OW20767   2.999   3.884   2.821
 6623SOL    HW120768   2.902   3.896   2.844
 6623SOL    HW220769   3.008   3.820   2.745
 6624SOL     OW20770   4.921   5.126   4.066
 6624SOL    HW120771   5.004   5.181   4.080
 6624SOL    HW220772   4.883   5.101   4.155
 6625SOL     OW20773   5.450   6.756   0.239
 6625SOL    HW120774   5.544   6.788   0.251
 6625SOL    HW220775   5.393   6.831   0.203
 6626SOL     OW20776   2.725   5.279   4.147
 6626SOL    HW120777   2.693   5.263   4.241
 6626SOL    HW220778   2.773   5.198   4.114
 6627SOL     OW20779   0.184   1.020   1.462
 6627SOL    HW120780   0.163   1.095   1.400
 6627SOL    HW220781   0.156   0.934   1.420
 6628SOL     OW20782   4.062   6.140   3.713
 6628SOL    HW120783   4.105   6.230   3.723
 6628SOL    HW220784   4.132   6.070   3.704
 6629SOL     OW20785   3.168   4.423   0.169
 6629SOL    HW120786   3.179   4.381   0.078
 6629SOL    HW220787   3.074   4.412   0.200
 6630SOL     OW20788   3.392   1.066   6.111
 6630SOL    HW120789   3.454   1.125   6.163
 6630SOL    HW220790   3.298   1.100   6.123
 6631SOL     OW20791   3.374   6.893   2.072
 6631SOL    HW120792   3.449   6.957   2.060
 6631SOL    HW220793   3.400   6.803   2.036
 6632SOL     OW20794   5.990   3.025   1.831
 6632SOL    HW120795   5.918   2.983   1.776
 6632SOL    HW220796   6.076   2.977   1.816
 6633SOL     OW20797   1.028   6.091   3.371
 6633SOL    HW120798   1.084   6.171   3.353
 6633SOL    HW220799   1.052   6.052   3.460
 6634SOL     OW20800   6.133   2.065   5.248
 6634SOL    HW120801   6.114   1.992   5.182
 6634SOL    HW220802   6.079   2.050   5.330
 6635SOL     OW20803   4.334   4.840   3.713
 6635SOL    HW120804   4.396   4.810   3.641
 6635SOL    HW220805   4.319   4.938   3.706
 6636SOL     OW20806   1.803   3.285   2.723
 6636SOL    HW120807   1.888   3.317   2.765
 6636SOL    HW220808   1.767   3.207   2.775
 6637SOL     OW20809   6.903   3.010   0.341
 6637SOL    HW120810   6.984   3.028   0.397
 6637SOL    HW220811   6.881   2.913   0.344
 6638SOL     OW20812   1.529   0.437   6.954
 6638SOL    HW120813   1.498   0.352   6.912
 6638SOL    HW220814   1.454   0.503   6.955
 6639SOL     OW20815   3.954   5.581   6.090
 6639SOL    HW120816   3.863   5.595   6.053
 6639SOL    HW220817   3.974   5.483   6.094
 6640SOL     OW20818   5.612   3.579   3.001
 6640SOL    HW120819   5.609   3.645   3.076
 6640SOL    HW220820   5.518   3.556   2.973
 6641SOL     OW20821   2.368   5.220   6.533
 6641SOL    HW120822   2.400   5.291   6.471
 6641SOL    HW220823   2.422   5.223   6.618
 6642SOL     OW20824   6.565   6.610   5.841
 6642SOL    HW120825   6.489   6.646   5.786
 6642SOL    HW220826   6.642   6.589   5.781
 6643SOL     OW20827   4.143   5.715   0.281
 6643SOL    HW120828   4.151   5.764   0.368
 6643SOL    HW220829   4.193   5.629   0.288
 6644SOL     OW20830   1.200   3.343   2.042
 6644SOL    HW120831   1.133   3.412   2.068
 6644SOL    HW220832   1.278   3.388   1.999
 6645SOL     OW20833   0.122   4.754   5.450
 6645SOL    HW120834   0.138   4.852   5.439
 6645SOL    HW220835   0.183   4.718   5.521
 6646SOL     OW20836   2.272   5.072   3.568
 6646SOL    HW120837   2.293   5.108   3.477
 6646SOL    HW220838   2.324   5.121   3.637
 6647SOL     OW20839   4.216   1.562   1.865
 6647SOL    HW120840   4.290   1.591   1.804
 6647SOL    HW220841   4.138   1.532   1.810
 6648SOL     OW20842   3.525   5.582   2.008
 6648SOL    HW120843   3.448   5.545   2.059
 6648SOL    HW220844   3.578   5.642   2.068
 6649SOL     OW20845   4.219   1.882   5.697
 6649SOL    HW120846   4.209   1.783   5.686
 6649SOL    HW220847   4.266   1.902   5.783
 6650SOL     OW20848   3.728   1.470   4.040
 6650SOL    HW120849   3.772   1.533   3.975
 6650SOL    HW220850   3.648   1.513   4.080
 6651SOL     OW20851   0.693   1.424   0.928
 6651SOL    HW120852   0.790   1.409   0.947
 6651SOL    HW220853   0.665   1.368   0.851
 6652SOL     OW20854   0.755   5.293   3.493
 6652SOL    HW120855   0.744   5.367   3.427
 6652SOL    HW220856   0.848   5.256   3.486
 6653SOL     OW20857   3.872   4.042   3.252
 6653SOL    HW120858   3.823   4.084   3.329
 6653SOL    HW220859   3.935   4.109   3.213
 6654SOL     OW20860   1.429   3.309   1.616
 6654SOL    HW120861   1.494   3.367   1.567
 6654SOL    HW220862   1.383   3.248   1.551
 6655SOL     OW20863   1.187   1.133   6.945
 6655SOL    HW120864   1.274   1.097   6.913
 6655SOL    HW220865   1.132   1.163   6.867
 6656SOL     OW20866   6.328   2.141   1.715
 6656SOL    HW120867   6.388   2.118   1.639
 6656SOL    HW220868   6.253   2.075   1.721
 6657SOL     OW20869   3.668   4.885   5.380
 6657SOL    HW120870   3.720   4.811   5.422
 6657SOL    HW220871   3.584   4.848   5.339
 6658SOL     OW20872   6.420   0.352   5.605
 6658SOL    HW120873   6.449   0.379   5.696
 6658SOL    HW220874   6.408   0.253   5.601
 6659SOL     OW20875   2.082   3.285   0.266
 6659SOL    HW120876   2.072   3.352   0.193
 6659SOL    HW220877   2.147   3.319   0.334
 6660SOL     OW20878   0.305   6.737   2.870
 6660SOL    HW120879   0.367   6.672   2.827
 6660SOL    HW220880   0.357   6.805   2.922
 6661SOL     OW20881   6.841   0.216   3.997
 6661SOL    HW120882   6.876   0.166   4.076
 6661SOL    HW220883   6.791   0.153   3.938
 6662SOL     OW20884   1.161   3.210   6.083
 6662SOL    HW120885   1.171   3.115   6.113
 6662SOL    HW220886   1.139   3.267   6.161
 6663SOL     OW20887   0.303   5.581   1.921
 6663SOL    HW120888   0.354   5.551   1.841
 6663SOL    HW220889   0.315   5.680   1.933
 6664SOL     OW20890   6.627   1.984   1.999
 6664SOL    HW120891   6.719   1.981   1.959
 6664SOL    HW220892   6.610   2.076   2.034
 6665SOL     OW20893   1.998   6.240   3.405
 6665SOL    HW120894   2.038   6.324   3.369
 6665SOL    HW220895   2.068   6.189   3.457
 6666SOL     OW20896   5.912   0.789   0.376
 6666SOL    HW120897   5.843   0.854   0.408
 6666SOL    HW220898   5.948   0.819   0.288
 6667SOL     OW20899   5.388   5.034   5.262
 6667SOL    HW120900   5.295   5.069   5.251
 6667SOL    HW220901   5.409   5.026   5.360
 6668SOL     OW20902   6.339   5.942   0.910
 6668SOL    HW120903   6.266   6.006   0.889
 6668SOL    HW220904   6.419   5.991   0.945
 6669SOL     OW20905   0.692   5.024   3.344
 6669SOL    HW120906   0.729   5.102   3.394
 6669SOL    HW220907   0.700   4.941   3.399
 6670SOL     OW20908   5.199   5.038   0.317
 6670SOL    HW120909   5.198   5.092   0.401
 6670SOL    HW220910   5.171   5.095   0.240
 6671SOL     OW20911   0.854   2.387   5.186
 6671SOL    HW120912   0.920   2.417   5.254
 6671SOL    HW220913   0.797   2.464   5.158
 6672SOL     OW20914   6.866   1.079   4.983
 6672SOL    HW120915   6.920   1.007   4.939
 6672SOL    HW220916   6.779   1.041   5.015
 6673SOL     OW20917   3.466   6.041   1.989
 6673SOL    HW120918   3.424   5.953   1.969
 6673SOL    HW220919   3.519   6.034   2.074
 6674SOL     OW20920   0.645   5.811   5.050
 6674SOL    HW120921   0.715   5.771   4.990
 6674SOL    HW220922   0.674   5.902   5.080
 6675SOL     OW20923   6.066   6.440   6.417
 6675SOL    HW120924   6.016   6.447   6.330
 6675SOL    HW220925   6.063   6.346   6.451
 6676SOL     OW20926   0.657   1.632   0.779
 6676SOL    HW120927   0.652   1.672   0.871
 6676SOL    HW220928   0.679   1.535   0.786
 6677SOL     OW20929   0.654   4.894   0.724
 6677SOL    HW120930   0.605   4.937   0.648
 6677SOL    HW220931   0.590   4.842   0.779
 6678SOL     OW20932   0.533   3.735   3.823
 6678SOL    HW120933   0.541   3.737   3.922
 6678SOL    HW220934   0.592   3.806   3.783
 6679SOL     OW20935   2.302   1.141   4.655
 6679SOL    HW120936   2.212   1.096   4.654
 6679SOL    HW220937   2.362   1.095   4.590
 6680SOL     OW20938   2.838   0.621   6.968
 6680SOL    HW120939   2.897   0.596   0.027
 6680SOL    HW220940   2.878   0.588   6.883
 6681SOL     OW20941   5.966   5.242   6.370
 6681SOL    HW120942   5.984   5.157   6.419
 6681SOL    HW220943   6.012   5.239   6.281
 6682SOL     OW20944   6.360   5.024   2.422
 6682SOL    HW120945   6.408   4.939   2.397
 6682SOL    HW220946   6.424   5.085   2.468
 6683SOL     OW20947   5.293   2.937   4.193
 6683SOL    HW120948   5.386   2.970   4.210
 6683SOL    HW220949   5.292   2.837   4.192
 6684SOL     OW20950   1.843   0.904   1.981
 6684SOL    HW120951   1.774   0.930   2.049
 6684SOL    HW220952   1.817   0.943   1.892
 6685SOL     OW20953   6.127   2.891   6.700
 6685SOL    HW120954   6.143   2.839   6.784
 6685SOL    HW220955   6.040   2.865   6.659
 6686SOL     OW20956   4.923   4.545   3.816
 6686SOL    HW120957   4.948   4.607   3.890
 6686SOL    HW220958   5.001   4.486   3.795
 6687SOL     OW20959   0.389   6.979   6.895
 6687SOL    HW120960   0.362   0.058   6.900
 6687SOL    HW220961   0.322   6.929   6.840
 6688SOL     OW20962   0.366   4.554   2.765
 6688SOL    HW120963   0.434   4.602   2.820
 6688SOL    HW220964   0.407   4.470   2.728
 6689SOL     OW20965   5.550   3.755   0.366
 6689SOL    HW120966   5.563   3.750   0.267
 6689SOL    HW220967   5.524   3.665   0.400
 6690SOL     OW20968   0.076   1.476   0.386
 6690SOL    HW120969   0.013   1.470   0.464
 6690SOL    HW220970   0.109   1.570   0.378
 6691SOL     OW20971   1.139   5.456   1.272
 6691SOL    HW120972   1.077   5.533   1.256
 6691SOL    HW220973   1.097   5.393   1.337
 6692SOL     OW20974   5.023   3.544   6.509
 6692SOL    HW120975   5.045   3.446   6.500
 6692SOL    HW220976   5.045   3.574   6.602
 6693SOL     OW20977   4.130   3.528   6.413
 6693SOL    HW120978   4.068   3.568   6.345
 6693SOL    HW220979   4.102   3.434   6.432
 6694SOL     OW20980   3.017   5.747   6.864
 6694SOL    HW120981   2.930   5.705   6.837
 6694SOL    HW220982   3.055   5.698   6.942
 6695SOL     OW20983   1.878   1.669   0.227
 6695SOL    HW120984   1.948   1.659   0.298
 6695SOL    HW220985   1.904   1.615   0.147
 6696SOL     OW20986   1.621   2.162   1.099
 6696SOL    HW120987   1.537   2.111   1.078
 6696SOL    HW220988   1.632   2.237   1.032
 6697SOL     OW20989   5.452   3.749   4.575
 6697SOL    HW120990   5.508   3.668   4.559
 6697SOL    HW220991   5.420   3.785   4.488
 6698SOL     OW20992   2.741   4.436   6.164
 6698SOL    HW120993   2.813   4.389   6.112
 6698SOL    HW220994   2.700   4.371   6.228
 6699SOL     OW20995   2.102   3.211   6.752
 6699SOL    HW120996   2.039   3.135   6.737
 6699SOL    HW220997   2.103   3.270   6.671
 6700SOL     OW20998   0.131   6.277   6.278
 6700SOL    HW120999   0.041   6.271   6.235
 6700SOL    HW221000   0.154   6.373   6.295
 6701SOL     OW21001   1.577   2.482   6.971
 6701SOL    HW121002   1.605   2.464   6.877
 6701SOL    HW221003   1.542   2.575   6.979
 6702SOL     OW21004   3.208   3.189   0.899
 6702SOL    HW121005   3.139   3.236   0.844
 6702SOL    HW221006   3.236   3.249   0.975
 6703SOL     OW21007   0.373   2.059   0.561
 6703SOL    HW121008   0.446   2.115   0.600
 6703SOL    HW221009   0.382   2.055   0.462
 6704SOL     OW21010   5.248   3.324   2.653
 6704SOL    HW121011   5.316   3.382   2.698
 6704SOL    HW221012   5.177   3.381   2.613
 6705SOL     OW21013   5.047   1.831   1.249
 6705SOL    HW121014   5.056   1.925   1.281
 6705SOL    HW221015   5.024   1.831   1.152
 6706SOL     OW21016   1.592   6.695   6.883
 6706SOL    HW121017   1.653   6.652   6.816
 6706SOL    HW221018   1.638   6.700   6.972
 6707SOL     OW21019   1.514   4.967   3.418
 6707SOL    HW121020   1.464   5.054   3.415
 6707SOL    HW221021   1.612   4.986   3.432
 6708SOL     OW21022   2.192   5.908   1.292
 6708SOL    HW121023   2.098   5.900   1.323
 6708SOL    HW221024   2.226   5.817   1.265
 6709SOL     OW21025   5.052   1.662   3.743
 6709SOL    HW121026   5.041   1.565   3.763
 6709SOL    HW221027   4.985   1.715   3.795
 6710SOL     OW21028   2.544   2.567   0.518
 6710SOL    HW121029   2.566   2.646   0.575
 6710SOL    HW221030   2.532   2.597   0.423
 6711SOL     OW21031   5.915   3.442   6.567
 6711SOL    HW121032   5.830   3.456   6.517
 6711SOL    HW221033   5.993   3.459   6.507
 6712SOL     OW21034   2.917   6.332   0.634
 6712SOL    HW121035   2.897   6.271   0.557
 6712SOL    HW221036   3.005   6.376   0.620
 6713SOL     OW21037   0.530   2.704   3.077
 6713SOL    HW121038   0.454   2.671   3.021
 6713SOL    HW221039   0.549   2.638   3.150
 6714SOL     OW21040   6.640   0.955   5.098
 6714SOL    HW121041   6.585   0.887   5.050
 6714SOL    HW221042   6.598   0.974   5.187
 6715SOL     OW21043   5.192   2.750   0.732
 6715SOL    HW121044   5.157   2.687   0.801
 6715SOL    HW221045   5.233   2.698   0.657
 6716SOL     OW21046   3.345   6.114   0.959
 6716SOL    HW121047   3.312   6.043   1.021
 6716SOL    HW221048   3.325   6.088   0.865
 6717SOL     OW21049   3.774   1.041   6.923
 6717SOL    HW121050   3.770   1.026   0.004
 6717SOL    HW221051   3.857   1.093   6.900
 6718SOL     OW21052   4.197   0.309   6.507
 6718SOL    HW121053   4.173   0.257   6.425
 6718SOL    HW221054   4.233   0.246   6.576
 6719SOL     OW21055   0.868   1.815   5.096
 6719SOL    HW121056   0.911   1.755   5.029
 6719SOL    HW221057   0.869   1.909   5.062
 6720SOL     OW21058   1.369   4.538   0.675
 6720SOL    HW121059   1.375   4.633   0.706
 6720SOL    HW221060   1.366   4.477   0.755
 6721SOL     OW21061   6.659   6.405   2.761
 6721SOL    HW121062   6.690   6.473   2.694
 6721SOL    HW221063   6.734   6.384   2.824
 6722SOL     OW21064   3.946   4.532   6.698
 6722SOL    HW121065   3.932   4.433   6.703
 6722SOL    HW221066   4.019   4.559   6.760
 6723SOL     OW21067   3.740   1.754   2.634
 6723SOL    HW121068   3.746   1.810   2.717
 6723SOL    HW221069   3.709   1.811   2.558
 6724SOL     OW21070   3.095   4.603   5.762
 6724SOL    HW121071   3.012   4.607   5.706
 6724SOL    HW221072   3.090   4.674   5.833
 6725SOL     OW21073   0.999   5.872   1.704
 6725SOL    HW121074   0.979   5.827   1.617
 6725SOL    HW221075   0.918   5.921   1.736
 6726SOL     OW21076   2.046   2.538   1.954
 6726SOL    HW121077   2.067   2.635   1.942
 6726SOL    HW221078   1.998   2.505   1.872
 6727SOL     OW21079   2.893   3.623   1.081
 6727SOL    HW121080   2.986   3.591   1.100
 6727SOL    HW221081   2.895   3.693   1.009
 6728SOL     OW21082   4.263   1.354   4.011
 6728SOL    HW121083   4.264   1.265   4.057
 6728SOL    HW221084   4.222   1.422   4.072
 6729SOL     OW21085   4.265   5.977   3.719
 6729SOL    HW121086   4.317   5.932   3.646
 6729SOL    HW221087   4.270   5.921   3.802
 6730SOL     OW21088   1.255   6.757   2.651
 6730SOL    HW121089   1.284   6.777   2.558
 6730SOL    HW221090   1.170   6.805   2.671
 6731SOL     OW21091   1.528   3.878   1.238
 6731SOL    HW121092   1.562   3.801   1.184
 6731SOL    HW221093   1.585   3.889   1.320
 6732SOL     OW21094   3.367   6.163   0.458
 6732SOL    HW121095   3.277   6.147   0.418
 6732SOL    HW221096   3.371   6.120   0.548
 6733SOL     OW21097   6.673   6.015   4.370
 6733SOL    HW121098   6.614   5.986   4.446
 6733SOL    HW221099   6.672   6.114   4.364
 6734SOL     OW21100   2.630   3.894   6.809
 6734SOL    HW121101   2.550   3.909   6.750
 6734SOL    HW221102   2.606   3.830   6.882
 6735SOL     OW21103   0.481   6.804   5.935
 6735SOL    HW121104   0.566   6.768   5.973
 6735SOL    HW221105   0.497   6.834   5.840
 6736SOL     OW21106   1.767   4.175   1.776
 6736SOL    HW121107   1.850   4.221   1.808
 6736SOL    HW221108   1.746   4.099   1.837
 6737SOL     OW21109   1.652   0.165   1.274
 6737SOL    HW121110   1.620   0.087   1.221
 6737SOL    HW221111   1.751   0.176   1.261
 6738SOL     OW21112   5.154   1.540   0.711
 6738SOL    HW121113   5.087   1.491   0.655
 6738SOL    HW221114   5.246   1.527   0.672
 6739SOL     OW21115   3.860   5.704   5.750
 6739SOL    HW121116   3.928   5.756   5.802
 6739SOL    HW221117   3.799   5.767   5.702
 6740SOL     OW21118   5.564   2.112   5.650
 6740SOL    HW121119   5.652   2.078   5.617
 6740SOL    HW221120   5.553   2.208   5.623
 6741SOL     OW21121   0.531   0.743   5.685
 6741SOL    HW121122   0.516   0.709   5.778
 6741SOL    HW221123   0.623   0.782   5.679
 6742SOL     OW21124   6.312   6.050   4.946
 6742SOL    HW121125   6.310   5.961   4.902
 6742SOL    HW221126   6.354   6.041   5.036
 6743SOL     OW21127   5.941   1.913   1.118
 6743SOL    HW121128   5.872   1.900   1.047
 6743SOL    HW221129   6.020   1.961   1.080
 6744SOL     OW21130   4.444   0.642   4.205
 6744SOL    HW121131   4.399   0.577   4.266
 6744SOL    HW221132   4.381   0.717   4.184
 6745SOL     OW21133   0.957   3.598   2.997
 6745SOL    HW121134   1.023   3.598   3.072
 6745SOL    HW221135   0.892   3.673   3.009
 6746SOL     OW21136   5.977   0.531   0.403
 6746SOL    HW121137   5.952   0.628   0.398
 6746SOL    HW221138   5.980   0.503   0.498
 6747SOL     OW21139   5.241   5.468   6.288
 6747SOL    HW121140   5.223   5.386   6.233
 6747SOL    HW221141   5.272   5.440   6.379
 6748SOL     OW21142   6.403   6.571   2.529
 6748SOL    HW121143   6.390   6.543   2.624
 6748SOL    HW221144   6.500   6.568   2.506
 6749SOL     OW21145   2.732   5.035   0.960
 6749SOL    HW121146   2.826   5.057   0.988
 6749SOL    HW221147   2.733   4.952   0.904
 6750SOL     OW21148   2.173   3.473   5.156
 6750SOL    HW121149   2.152   3.410   5.081
 6750SOL    HW221150   2.179   3.566   5.120
 6751SOL     OW21151   4.500   2.627   5.595
 6751SOL    HW121152   4.542   2.716   5.612
 6751SOL    HW221153   4.517   2.600   5.500
 6752SOL     OW21154   6.589   1.014   0.277
 6752SOL    HW121155   6.609   1.111   0.267
 6752SOL    HW221156   6.502   1.002   0.325
 6753SOL     OW21157   5.840   0.360   6.477
 6753SOL    HW121158   5.869   0.435   6.417
 6753SOL    HW221159   5.843   0.391   6.572
 6754SOL     OW21160   4.167   1.482   6.950
 6754SOL    HW121161   4.250   1.538   6.948
 6754SOL    HW221162   4.148   1.447   6.859
 6755SOL     OW21163   5.237   1.699   3.013
 6755SOL    HW121164   5.189   1.680   2.927
 6755SOL    HW221165   5.173   1.742   3.077
 6756SOL     OW21166   4.605   5.336   2.887
 6756SOL    HW121167   4.558   5.252   2.858
 6756SOL    HW221168   4.702   5.316   2.903
 6757SOL     OW21169   6.426   4.086   1.390
 6757SOL    HW121170   6.346   4.071   1.448
 6757SOL    HW221171   6.413   4.168   1.335
 6758SOL     OW21172   6.980   2.318   2.624
 6758SOL    HW121173   0.017   2.313   2.707
 6758SOL    HW221174   0.022   2.331   2.545
 6759SOL     OW21175   0.269   5.413   4.205
 6759SOL    HW121176   0.314   5.337   4.251
 6759SOL    HW221177   0.172   5.416   4.231
 6760SOL     OW21178   0.687   3.971   5.013
 6760SOL    HW121179   0.631   4.039   5.060
 6760SOL    HW221180   0.627   3.902   4.972
 6761SOL     OW21181   6.333   3.105   6.758
 6761SOL    HW121182   6.256   3.042   6.762
 6761SOL    HW221183   6.345   3.149   6.847
 6762SOL     OW21184   0.140   2.059   4.397
 6762SOL    HW121185   0.187   2.147   4.397
 6762SOL    HW221186   0.061   2.063   4.336
 6763SOL     OW21187   5.717   6.148   5.490
 6763SOL    HW121188   5.699   6.144   5.588
 6763SOL    HW221189   5.812   6.120   5.473
 6764SOL     OW21190   2.043   3.675   6.925
 6764SOL    HW121191   2.094   3.753   6.960
 6764SOL    HW221192   1.945   3.690   6.939
 6765SOL     OW21193   4.692   5.498   1.725
 6765SOL    HW121194   4.665   5.528   1.816
 6765SOL    HW221195   4.760   5.424   1.732
 6766SOL     OW21196   2.771   2.259   5.262
 6766SOL    HW121197   2.749   2.194   5.335
 6766SOL    HW221198   2.838   2.325   5.295
 6767SOL     OW21199   0.535   2.823   5.826
 6767SOL    HW121200   0.588   2.905   5.847
 6767SOL    HW221201   0.439   2.838   5.851
 6768SOL     OW21202   6.613   0.710   5.808
 6768SOL    HW121203   6.641   0.617   5.833
 6768SOL    HW221204   6.668   0.741   5.731
 6769SOL     OW21205   1.178   2.263   6.367
 6769SOL    HW121206   1.104   2.279   6.302
 6769SOL    HW221207   1.148   2.288   6.459
 6770SOL     OW21208   0.588   2.057   3.568
 6770SOL    HW121209   0.670   2.005   3.591
 6770SOL    HW221210   0.579   2.063   3.469
 6771SOL     OW21211   5.441   2.295   2.086
 6771SOL    HW121212   5.387   2.313   2.168
 6771SOL    HW221213   5.505   2.371   2.070
 6772SOL     OW21214   1.460   6.839   1.837
 6772SOL    HW121215   1.521   6.771   1.797
 6772SOL    HW221216   1.428   6.901   1.765
 6773SOL     OW21217   1.688   1.343   3.151
 6773SOL    HW121218   1.638   1.272   3.201
 6773SOL    HW221219   1.769   1.370   3.203
 6774SOL     OW21220   3.570   1.050   5.369
 6774SOL    HW121221   3.631   0.971   5.381
 6774SOL    HW221222   3.624   1.128   5.336
 6775SOL     OW21223   1.503   3.016   4.814
 6775SOL    HW121224   1.449   3.068   4.880
 6775SOL    HW221225   1.599   3.016   4.842
 6776SOL     OW21226   3.189   3.526   3.862
 6776SOL    HW121227   3.233   3.568   3.782
 6776SOL    HW221228   3.209   3.581   3.943
 6777SOL     OW21229   0.140   0.424   5.480
 6777SOL    HW121230   0.073   0.434   5.406
 6777SOL    HW221231   0.129   0.335   5.523
 6778SOL     OW21232   5.969   5.822   2.053
 6778SOL    HW121233   5.970   5.729   2.090
 6778SOL    HW221234   6.032   5.879   2.107
 6779SOL     OW21235   5.923   3.346   5.737
 6779SOL    HW121236   6.001   3.407   5.750
 6779SOL    HW221237   5.923   3.310   5.644
 6780SOL     OW21238   4.743   0.767   2.249
 6780SOL    HW121239   4.789   0.695   2.197
 6780SOL    HW221240   4.709   0.837   2.187
 6781SOL     OW21241   5.389   3.982   3.163
 6781SOL    HW121242   5.484   3.963   3.139
 6781SOL    HW221243   5.380   3.985   3.263
 6782SOL     OW21244   6.867   2.217   2.929
 6782SOL    HW121245   6.849   2.157   3.007
 6782SOL    HW221246   6.782   2.262   2.901
 6783SOL     OW21247   0.839   6.629   6.999
 6783SOL    HW121248   0.755   6.674   0.010
 6783SOL    HW221249   0.874   6.673   6.916
 6784SOL     OW21250   1.688   4.774   6.290
 6784SOL    HW121251   1.680   4.676   6.274
 6784SOL    HW221252   1.779   4.805   6.264
 6785SOL     OW21253   5.617   4.294   1.658
 6785SOL    HW121254   5.667   4.231   1.717
 6785SOL    HW221255   5.667   4.381   1.652
 6786SOL     OW21256   6.288   1.364   6.345
 6786SOL    HW121257   6.288   1.407   6.435
 6786SOL    HW221258   6.291   1.434   6.274
 6787SOL     OW21259   4.297   2.327   1.639
 6787SOL    HW121260   4.213   2.359   1.596
 6787SOL    HW221261   4.376   2.364   1.589
 6788SOL     OW21262   1.415   4.385   1.330
 6788SOL    HW121263   1.464   4.471   1.349
 6788SOL    HW221264   1.339   4.403   1.268
 6789SOL     OW21265   5.704   2.549   2.812
 6789SOL    HW121266   5.687   2.454   2.784
 6789SOL    HW221267   5.731   2.551   2.908
 6790SOL     OW21268   1.074   5.842   6.901
 6790SOL    HW121269   1.166   5.882   6.897
 6790SOL    HW221270   1.063   5.793   6.988
 6791SOL     OW21271   2.041   6.156   4.036
 6791SOL    HW121272   1.956   6.194   4.071
 6791SOL    HW221273   2.118   6.201   4.081
 6792SOL     OW21274   3.134   5.825   0.490
 6792SOL    HW121275   3.180   5.738   0.510
 6792SOL    HW221276   3.123   5.836   0.391
 6793SOL     OW21277   1.399   3.244   5.930
 6793SOL    HW121278   1.325   3.245   5.997
 6793SOL    HW221279   1.487   3.258   5.976
 6794SOL     OW21280   4.455   2.189   4.187
 6794SOL    HW121281   4.423   2.209   4.280
 6794SOL    HW221282   4.551   2.163   4.190
 6795SOL     OW21283   0.726   0.340   2.622
 6795SOL    HW121284   0.708   0.248   2.655
 6795SOL    HW221285   0.660   0.364   2.551
 6796SOL     OW21286   6.288   2.342   2.450
 6796SOL    HW121287   6.335   2.306   2.531
 6796SOL    HW221288   6.288   2.272   2.378
 6797SOL     OW21289   1.830   4.013   0.604
 6797SOL    HW121290   1.925   4.022   0.574
 6797SOL    HW221291   1.821   3.931   0.660
 6798SOL     OW21292   5.193   2.143   1.609
 6798SOL    HW121293   5.154   2.095   1.688
 6798SOL    HW221294   5.136   2.221   1.586
 6799SOL     OW21295   4.250   6.895   2.332
 6799SOL    HW121296   4.211   6.840   2.406
 6799SOL    HW221297   4.271   6.986   2.366
 6800SOL     OW21298   6.888   2.659   2.447
 6800SOL    HW121299   6.838   2.701   2.371
 6800SOL    HW221300   6.845   2.573   2.472
 6801SOL     OW21301   2.344   4.957   5.276
 6801SOL    HW121302   2.263   5.013   5.289
 6801SOL    HW221303   2.328   4.865   5.312
 6802SOL     OW21304   2.351   4.251   2.145
 6802SOL    HW121305   2.342   4.329   2.206
 6802SOL    HW221306   2.446   4.242   2.116
 6803SOL     OW21307   6.293   5.291   6.177
 6803SOL    HW121308   6.206   5.280   6.128
 6803SOL    HW221309   6.305   5.387   6.202
 6804SOL     OW21310   2.933   5.802   1.533
 6804SOL    HW121311   2.873   5.867   1.485
 6804SOL    HW221312   3.011   5.780   1.474
 6805SOL     OW21313   0.240   4.134   4.097
 6805SOL    HW121314   0.146   4.144   4.065
 6805SOL    HW221315   0.283   4.224   4.104
 6806SOL     OW21316   6.171   3.615   1.937
 6806SOL    HW121317   6.116   3.532   1.925
 6806SOL    HW221318   6.250   3.612   1.876
 6807SOL     OW21319   4.014   3.742   2.591
 6807SOL    HW121320   4.025   3.739   2.492
 6807SOL    HW221321   4.023   3.649   2.629
 6808SOL     OW21322   2.264   6.353   4.116
 6808SOL    HW121323   2.362   6.375   4.111
 6808SOL    HW221324   2.215   6.430   4.155
 6809SOL     OW21325   6.336   2.443   0.353
 6809SOL    HW121326   6.344   2.473   0.257
 6809SOL    HW221327   6.423   2.460   0.400
 6810SOL     OW21328   3.209   6.892   4.721
 6810SOL    HW121329   3.253   6.982   4.720
 6810SOL    HW221330   3.111   6.903   4.731
 6811SOL     OW21331   6.497   2.134   1.509
 6811SOL    HW121332   6.467   2.227   1.491
 6811SOL    HW221333   6.510   2.086   1.423
 6812SOL     OW21334   3.461   4.729   5.315
 6812SOL    HW121335   3.401   4.653   5.340
 6812SOL    HW221336   3.406   4.810   5.294
 6813SOL     OW21337   0.371   3.393   1.720
 6813SOL    HW121338   0.372   3.320   1.789
 6813SOL    HW221339   0.322   3.472   1.756
 6814SOL     OW21340   4.856   2.199   1.711
 6814SOL    HW121341   4.935   2.175   1.766
 6814SOL    HW221342   4.776   2.213   1.770
 6815SOL     OW21343   1.972   6.237   0.988
 6815SOL    HW121344   2.048   6.302   0.979
 6815SOL    HW221345   1.960   6.213   1.084
 6816SOL     OW21346   5.625   0.221   3.536
 6816SOL    HW121347   5.720   0.198   3.515
 6816SOL    HW221348   5.572   0.222   3.451
 6817SOL     OW21349   6.189   0.967   1.263
 6817SOL    HW121350   6.092   0.984   1.281
 6817SOL    HW221351   6.235   1.053   1.240
 6818SOL     OW21352   6.669   0.048   5.639
 6818SOL    HW121353   6.698   0.114   5.709
 6818SOL    HW221354   6.715   0.070   5.553
 6819SOL     OW21355   6.251   3.766   0.427
 6819SOL    HW121356   6.335   3.738   0.380
 6819SOL    HW221357   6.187   3.689   0.431
 6820SOL     OW21358   2.317   4.588   0.890
 6820SOL    HW121359   2.281   4.538   0.969
 6820SOL    HW221360   2.406   4.626   0.913
 6821SOL     OW21361   2.379   3.605   5.796
 6821SOL    HW121362   2.357   3.571   5.705
 6821SOL    HW221363   2.464   3.658   5.793
 6822SOL     OW21364   0.453   4.302   4.903
 6822SOL    HW121365   0.545   4.309   4.944
 6822SOL    HW221366   0.389   4.269   4.972
 6823SOL     OW21367   6.670   3.396   5.347
 6823SOL    HW121368   6.742   3.401   5.278
 6823SOL    HW221369   6.654   3.487   5.385
 6824SOL     OW21370   1.424   0.600   3.719
 6824SOL    HW121371   1.517   0.569   3.740
 6824SOL    HW221372   1.389   0.548   3.641
 6825SOL     OW21373   4.879   5.244   1.439
 6825SOL    HW121374   4.889   5.298   1.522
 6825SOL    HW221375   4.866   5.304   1.361
 6826SOL     OW21376   5.722   0.772   4.340
 6826SOL    HW121377   5.748   0.688   4.291
 6826SOL    HW221378   5.623   0.772   4.355
 6827SOL     OW21379   5.072   5.047   5.536
 6827SOL    HW121380   5.072   4.947   5.540
 6827SOL    HW221381   5.019   5.078   5.457
 6828SOL     OW21382   2.488   2.037   2.447
 6828SOL    HW121383   2.551   1.987   2.507
 6828SOL    HW221384   2.541   2.091   2.382
 6829SOL     OW21385   5.710   6.491   4.872
 6829SOL    HW121386   5.698   6.544   4.956
 6829SOL    HW221387   5.630   6.433   4.857
 6830SOL     OW21388   4.130   6.416   3.024
 6830SOL    HW121389   4.031   6.435   3.028
 6830SOL    HW221390   4.154   6.387   2.932
 6831SOL     OW21391   2.000   0.454   0.021
 6831SOL    HW121392   2.029   0.372   6.990
 6831SOL    HW221393   2.048   0.534   7.002
 6832SOL     OW21394   3.731   3.706   0.535
 6832SOL    HW121395   3.662   3.723   0.605
 6832SOL    HW221396   3.688   3.706   0.445
 6833SOL     OW21397   4.060   5.376   0.323
 6833SOL    HW121398   4.044   5.461   0.372
 6833SOL    HW221399   4.147   5.381   0.273
 6834SOL     OW21400   6.598   5.541   5.224
 6834SOL    HW121401   6.676   5.575   5.170
 6834SOL    HW221402   6.607   5.443   5.237
 6835SOL     OW21403   3.982   0.401   2.789
 6835SOL    HW121404   4.036   0.405   2.705
 6835SOL    HW221405   3.962   0.493   2.821
 6836SOL     OW21406   0.929   4.570   6.690
 6836SOL    HW121407   0.836   4.563   6.655
 6836SOL    HW221408   0.965   4.478   6.706
 6837SOL     OW21409   5.966   2.294   1.415
 6837SOL    HW121410   5.889   2.230   1.408
 6837SOL    HW221411   5.941   2.381   1.372
 6838SOL     OW21412   2.017   4.664   6.871
 6838SOL    HW121413   2.021   4.670   6.771
 6838SOL    HW221414   1.945   4.724   6.905
 6839SOL     OW21415   6.408   2.497   5.229
 6839SOL    HW121416   6.485   2.472   5.171
 6839SOL    HW221417   6.439   2.557   5.303
 6840SOL     OW21418   2.899   0.463   4.450
 6840SOL    HW121419   2.868   0.521   4.375
 6840SOL    HW221420   2.986   0.496   4.484
 6841SOL     OW21421   4.786   6.111   0.527
 6841SOL    HW121422   4.803   6.191   0.469
 6841SOL    HW221423   4.766   6.141   0.620
 6842SOL     OW21424   0.201   3.111   3.338
 6842SOL    HW121425   0.259   3.192   3.337
 6842SOL    HW221426   0.178   3.086   3.244
 6843SOL     OW21427   4.269   3.077   1.746
 6843SOL    HW121428   4.368   3.075   1.761
 6843SOL    HW221429   4.237   2.985   1.724
 6844SOL     OW21430   3.116   6.379   4.116
 6844SOL    HW121431   3.048   6.386   4.043
 6844SOL    HW221432   3.164   6.291   4.109
 6845SOL     OW21433   3.933   4.213   0.020
 6845SOL    HW121434   3.949   4.117   0.044
 6845SOL    HW221435   3.835   4.231   0.017
 6846SOL     OW21436   3.626   3.530   4.070
 6846SOL    HW121437   3.719   3.516   4.037
 6846SOL    HW221438   3.572   3.448   4.051
 6847SOL     OW21439   5.082   3.504   1.014
 6847SOL    HW121440   5.141   3.425   1.001
 6847SOL    HW221441   5.116   3.560   1.090
 6848SOL     OW21442   1.061   6.305   4.896
 6848SOL    HW121443   1.093   6.224   4.845
 6848SOL    HW221444   1.137   6.345   4.946
 6849SOL     OW21445   2.469   0.445   4.438
 6849SOL    HW121446   2.377   0.472   4.408
 6849SOL    HW221447   2.529   0.525   4.435
 6850SOL     OW21448   6.646   2.249   2.106
 6850SOL    HW121449   6.567   2.283   2.157
 6850SOL    HW221450   6.647   2.290   2.015
 6851SOL     OW21451   2.370   5.463   0.806
 6851SOL    HW121452   2.322   5.433   0.888
 6851SOL    HW221453   2.317   5.436   0.725
 6852SOL     OW21454   4.781   4.628   2.542
 6852SOL    HW121455   4.735   4.628   2.630
 6852SOL    HW221456   4.714   4.610   2.469
 6853SOL     OW21457   5.703   4.634   4.061
 6853SOL    HW121458   5.647   4.667   4.137
 6853SOL    HW221459   5.733   4.541   4.080
 6854SOL     OW21460   6.166   0.667   6.754
 6854SOL    HW121461   6.141   0.585   6.702
 6854SOL    HW221462   6.135   0.748   6.704
 6855SOL     OW21463   2.626   6.432   2.901
 6855SOL    HW121464   2.691   6.449   2.827
 6855SOL    HW221465   2.601   6.519   2.943
 6856SOL     OW21466   1.113   5.253   6.065
 6856SOL    HW121467   1.144   5.215   6.153
 6856SOL    HW221468   1.187   5.247   5.998
 6857SOL     OW21469   4.561   0.963   6.472
 6857SOL    HW121470   4.608   1.050   6.488
 6857SOL    HW221471   4.475   0.980   6.423
 6858SOL     OW21472   3.286   3.076   6.486
 6858SOL    HW121473   3.265   3.167   6.449
 6858SOL    HW221474   3.207   3.016   6.473
 6859SOL     OW21475   4.144   6.975   1.506
 6859SOL    HW121476   4.047   7.000   1.503
 6859SOL    HW221477   4.156   6.896   1.565
 6860SOL     OW21478   4.796   3.303   0.155
 6860SOL    HW121479   4.714   3.280   0.102
 6860SOL    HW221480   4.802   3.243   0.235
 6861SOL     OW21481   6.274   3.766   6.901
 6861SOL    HW121482   6.254   3.807   6.989
 6861SOL    HW221483   6.314   3.835   6.840
 6862SOL     OW21484   2.752   4.788   4.558
 6862SOL    HW121485   2.806   4.783   4.642
 6862SOL    HW221486   2.681   4.719   4.559
 6863SOL     OW21487   0.966   3.846   3.844
 6863SOL    HW121488   0.965   3.747   3.860
 6863SOL    HW221489   1.061   3.878   3.836
 6864SOL     OW21490   3.141   5.574   6.062
 6864SOL    HW121491   3.211   5.548   5.995
 6864SOL    HW221492   3.078   5.639   6.020
 6865SOL     OW21493   0.888   2.523   5.429
 6865SOL    HW121494   0.803   2.474   5.450
 6865SOL    HW221495   0.941   2.533   5.513
 6866SOL     OW21496   0.183   4.194   2.726
 6866SOL    HW121497   0.204   4.227   2.634
 6866SOL    HW221498   0.132   4.265   2.776
 6867SOL     OW21499   2.612   5.386   3.729
 6867SOL    HW121500   2.615   5.410   3.632
 6867SOL    HW221501   2.675   5.310   3.746
 6868SOL     OW21502   1.760   5.665   5.076
 6868SOL    HW121503   1.807   5.577   5.084
 6868SOL    HW221504   1.670   5.658   5.118
 6869SOL     OW21505   0.249   2.735   3.925
 6869SOL    HW121506   0.248   2.834   3.934
 6869SOL    HW221507   0.192   2.708   3.846
 6870SOL     OW21508   5.120   3.868   3.023
 6870SOL    HW121509   5.108   3.955   3.071
 6870SOL    HW221510   5.058   3.799   3.061
 6871SOL     OW21511   4.263   5.834   2.107
 6871SOL    HW121512   4.361   5.817   2.101
 6871SOL    HW221513   4.247   5.932   2.124
 6872SOL     OW21514   3.135   4.159   0.839
 6872SOL    HW121515   3.079   4.088   0.796
 6872SOL    HW221516   3.090   4.248   0.828
 6873SOL     OW21517   4.672   4.600   5.244
 6873SOL    HW121518   4.726   4.563   5.168
 6873SOL    HW221519   4.734   4.636   5.314
 6874SOL     OW21520   1.447   1.711   6.405
 6874SOL    HW121521   1.464   1.788   6.343
 6874SOL    HW221522   1.523   1.702   6.468
 6875SOL     OW21523   3.808   6.669   5.053
 6875SOL    HW121524   3.721   6.712   5.029
 6875SOL    HW221525   3.832   6.601   4.984
 6876SOL     OW21526   2.639   6.348   4.887
 6876SOL    HW121527   2.720   6.407   4.896
 6876SOL    HW221528   2.613   6.312   4.976
 6877SOL     OW21529   2.175   4.118   0.805
 6877SOL    HW121530   2.109   4.185   0.840
 6877SOL    HW221531   2.138   4.073   0.724
 6878SOL     OW21532   2.188   1.505   5.157
 6878SOL    HW121533   2.245   1.569   5.208
 6878SOL    HW221534   2.233   1.483   5.070
 6879SOL     OW21535   6.178   1.374   5.894
 6879SOL    HW121536   6.111   1.369   5.820
 6879SOL    HW221537   6.173   1.291   5.950
 6880SOL     OW21538   0.957   4.882   4.519
 6880SOL    HW121539   0.861   4.858   4.533
 6880SOL    HW221540   0.978   4.881   4.421
 6881SOL     OW21541   4.638   6.171   1.606
 6881SOL    HW121542   4.577   6.137   1.534
 6881SOL    HW221543   4.726   6.123   1.600
 6882SOL     OW21544   2.700   5.840   5.223
 6882SOL    HW121545   2.618   5.784   5.233
 6882SOL    HW221546   2.718   5.889   5.308
 6883SOL     OW21547   2.466   6.689   2.207
 6883SOL    HW121548   2.473   6.590   2.205
 6883SOL    HW221549   2.370   6.716   2.210
 6884SOL     OW21550   1.680   4.926   3.136
 6884SOL    HW121551   1.666   4.832   3.165
 6884SOL    HW221552   1.597   4.961   3.093
 6885SOL     OW21553   4.149   4.785   4.667
 6885SOL    HW121554   4.163   4.767   4.764
 6885SOL    HW221555   4.051   4.782   4.646
 6886SOL     OW21556   5.051   6.748   0.861
 6886SOL    HW121557   5.100   6.823   0.906
 6886SOL    HW221558   4.956   6.774   0.847
 6887SOL     OW21559   6.606   1.152   4.826
 6887SOL    HW121560   6.535   1.116   4.887
 6887SOL    HW221561   6.663   1.077   4.793
 6888SOL     OW21562   6.993   6.863   3.981
 6888SOL    HW121563   6.946   6.811   3.909
 6888SOL    HW221564   0.044   6.805   4.024
 6889SOL     OW21565   1.946   4.077   6.342
 6889SOL    HW121566   2.044   4.065   6.330
 6889SOL    HW221567   1.897   4.025   6.272
 6890SOL     OW21568   1.192   0.431   1.472
 6890SOL    HW121569   1.258   0.442   1.397
 6890SOL    HW221570   1.100   0.426   1.435
 6891SOL     OW21571   5.418   5.402   5.479
 6891SOL    HW121572   5.431   5.332   5.409
 6891SOL    HW221573   5.378   5.483   5.438
 6892SOL     OW21574   3.029   1.920   3.915
 6892SOL    HW121575   3.068   2.010   3.898
 6892SOL    HW221576   2.972   1.923   3.997
 6893SOL     OW21577   4.814   0.053   1.148
 6893SOL    HW121578   4.760   6.990   1.127
 6893SOL    HW221579   4.815   0.068   1.247
 6894SOL     OW21580   5.579   4.215   5.934
 6894SOL    HW121581   5.562   4.306   5.898
 6894SOL    HW221582   5.677   4.202   5.947
 6895SOL     OW21583   4.822   5.020   4.314
 6895SOL    HW121584   4.869   4.933   4.305
 6895SOL    HW221585   4.730   5.005   4.352
 6896SOL     OW21586   5.124   1.969   2.300
 6896SOL    HW121587   5.081   1.992   2.213
 6896SOL    HW221588   5.110   2.044   2.365
 6897SOL     OW21589   4.179   1.313   1.491
 6897SOL    HW121590   4.234   1.339   1.412
 6897SOL    HW221591   4.171   1.213   1.494
 6898SOL     OW21592   3.966   1.235   1.709
 6898SOL    HW121593   4.024   1.300   1.660
 6898SOL    HW221594   4.020   1.155   1.734
 6899SOL     OW21595   5.418   4.506   5.822
 6899SOL    HW121596   5.372   4.564   5.888
 6899SOL    HW221597   5.355   4.483   5.747
 6900SOL     OW21598   4.288   0.434   5.794
 6900SOL    HW121599   4.245   0.367   5.734
 6900SOL    HW221600   4.354   0.388   5.854
 6901SOL     OW21601   1.252   0.696   6.935
 6901SOL    HW121602   1.263   0.761   6.860
 6901SOL    HW221603   1.279   0.740   0.003
 6902SOL     OW21604   6.536   5.180   2.556
 6902SOL    HW121605   6.536   5.170   2.656
 6902SOL    HW221606   6.567   5.271   2.532
 6903SOL     OW21607   5.986   4.339   6.633
 6903SOL    HW121608   5.927   4.356   6.712
 6903SOL    HW221609   6.076   4.310   6.664
 6904SOL     OW21610   0.549   1.327   2.513
 6904SOL    HW121611   0.481   1.257   2.537
 6904SOL    HW221612   0.580   1.374   2.595
 6905SOL     OW21613   3.591   5.398   0.913
 6905SOL    HW121614   3.625   5.311   0.949
 6905SOL    HW221615   3.514   5.380   0.852
 6906SOL     OW21616   5.953   6.470   2.276
 6906SOL    HW121617   5.957   6.511   2.367
 6906SOL    HW221618   6.044   6.470   2.234
 6907SOL     OW21619   3.577   0.724   2.078
 6907SOL    HW121620   3.500   0.669   2.111
 6907SOL    HW221621   3.601   0.696   1.985
 6908SOL     OW21622   5.307   6.976   0.158
 6908SOL    HW121623   5.293   0.033   0.223
 6908SOL    HW221624   5.220   6.933   0.137
 6909SOL     OW21625   2.342   2.187   6.939
 6909SOL    HW121626   2.307   2.171   6.847
 6909SOL    HW221627   2.283   2.141   7.005
 6910SOL     OW21628   4.393   0.953   0.852
 6910SOL    HW121629   4.394   0.891   0.930
 6910SOL    HW221630   4.320   1.020   0.863
 6911SOL     OW21631   3.607   6.452   5.317
 6911SOL    HW121632   3.672   6.376   5.315
 6911SOL    HW221633   3.522   6.422   5.360
 6912SOL     OW21634   3.330   5.791   1.910
 6912SOL    HW121635   3.248   5.779   1.854
 6912SOL    HW221636   3.395   5.718   1.890
 6913SOL     OW21637   4.050   5.788   5.943
 6913SOL    HW121638   4.035   5.881   5.977
 6913SOL    HW221639   4.032   5.723   6.017
 6914SOL     OW21640   6.989   5.344   6.804
 6914SOL    HW121641   7.000   5.271   6.872
 6914SOL    HW221642   0.032   5.420   6.827
 6915SOL     OW21643   0.940   6.771   6.785
 6915SOL    HW121644   1.028   6.731   6.759
 6915SOL    HW221645   0.937   6.867   6.758
 6916SOL     OW21646   6.200   0.565   6.197
 6916SOL    HW121647   6.242   0.527   6.114
 6916SOL    HW221648   6.210   0.500   6.272
 6917SOL     OW21649   4.319   5.835   6.106
 6917SOL    HW121650   4.270   5.813   6.190
 6917SOL    HW221651   4.292   5.926   6.074
 6918SOL     OW21652   1.794   2.413   3.570
 6918SOL    HW121653   1.805   2.506   3.534
 6918SOL    HW221654   1.746   2.417   3.657
 6919SOL     OW21655   1.851   5.768   3.709
 6919SOL    HW121656   1.821   5.839   3.772
 6919SOL    HW221657   1.932   5.722   3.746
 6920SOL     OW21658   5.820   5.674   4.142
 6920SOL    HW121659   5.875   5.729   4.205
 6920SOL    HW221660   5.744   5.729   4.107
 6921SOL     OW21661   1.832   4.872   2.822
 6921SOL    HW121662   1.788   4.958   2.848
 6921SOL    HW221663   1.776   4.795   2.856
 6922SOL     OW21664   1.666   6.363   1.584
 6922SOL    HW121665   1.619   6.280   1.553
 6922SOL    HW221666   1.759   6.338   1.614
 6923SOL     OW21667   5.121   5.607   4.482
 6923SOL    HW121668   5.065   5.633   4.560
 6923SOL    HW221669   5.212   5.649   4.491
 6924SOL     OW21670   5.384   6.206   2.399
 6924SOL    HW121671   5.474   6.201   2.355
 6924SOL    HW221672   5.390   6.265   2.479
 6925SOL     OW21673   4.350   5.709   1.866
 6925SOL    HW121674   4.389   5.763   1.941
 6925SOL    HW221675   4.256   5.684   1.888
 6926SOL     OW21676   2.859   3.918   5.536
 6926SOL    HW121677   2.939   3.860   5.552
 6926SOL    HW221678   2.821   3.898   5.446
 6927SOL     OW21679   3.854   3.926   0.632
 6927SOL    HW121680   3.838   3.833   0.597
 6927SOL    HW221681   3.813   3.992   0.569
 6928SOL     OW21682   6.656   0.336   6.645
 6928SOL    HW121683   6.744   0.341   6.691
 6928SOL    HW221684   6.585   0.314   6.712
 6929SOL     OW21685   3.739   5.914   1.004
 6929SOL    HW121686   3.678   5.991   1.024
 6929SOL    HW221687   3.687   5.839   0.964
 6930SOL     OW21688   0.005   1.083   3.204
 6930SOL    HW121689   0.023   1.076   3.302
 6930SOL    HW221690   0.018   0.994   3.161
 6931SOL     OW21691   2.535   0.194   1.418
 6931SOL    HW121692   2.610   0.143   1.462
 6931SOL    HW221693   2.527   0.165   1.322
 6932SOL     OW21694   3.257   2.786   0.468
 6932SOL    HW121695   3.238   2.861   0.405
 6932SOL    HW221696   3.210   2.703   0.437
 6933SOL     OW21697   3.001   6.233   5.212
 6933SOL    HW121698   2.931   6.168   5.184
 6933SOL    HW221699   3.059   6.193   5.283
 6934SOL     OW21700   5.156   4.877   6.643
 6934SOL    HW121701   5.160   4.877   6.743
 6934SOL    HW221702   5.071   4.833   6.613
 6935SOL     OW21703   4.591   5.580   3.283
 6935SOL    HW121704   4.663   5.586   3.213
 6935SOL    HW221705   4.568   5.484   3.299
 6936SOL     OW21706   1.045   4.439   0.826
 6936SOL    HW121707   1.071   4.369   0.760
 6936SOL    HW221708   1.042   4.528   0.780
 6937SOL     OW21709   4.297   5.643   6.560
 6937SOL    HW121710   4.251   5.567   6.513
 6937SOL    HW221711   4.269   5.645   6.655
 6938SOL     OW21712   6.452   2.184   5.149
 6938SOL    HW121713   6.457   2.127   5.067
 6938SOL    HW221714   6.527   2.160   5.211
 6939SOL     OW21715   6.736   4.682   1.681
 6939SOL    HW121716   6.697   4.660   1.771
 6939SOL    HW221717   6.804   4.755   1.692
 6940SOL     OW21718   4.192   0.754   4.133
 6940SOL    HW121719   4.209   0.681   4.067
 6940SOL    HW221720   4.131   0.822   4.093
 6941SOL     OW21721   3.532   2.832   4.983
 6941SOL    HW121722   3.446   2.857   4.939
 6941SOL    HW221723   3.524   2.741   5.024
 6942SOL     OW21724   6.307   1.534   6.107
 6942SOL    HW121725   6.313   1.633   6.114
 6942SOL    HW221726   6.261   1.509   6.022
 6943SOL     OW21727   6.018   4.323   0.114
 6943SOL    HW121728   5.954   4.396   0.134
 6943SOL    HW221729   5.996   4.242   0.169
 6944SOL     OW21730   2.123   0.328   0.259
 6944SOL    HW121731   2.106   0.391   0.183
 6944SOL    HW221732   2.214   0.344   0.296
 6945SOL     OW21733   3.870   1.490   6.869
 6945SOL    HW121734   3.944   1.484   6.936
 6945SOL    HW221735   3.883   1.572   6.812
 6946SOL     OW21736   6.394   3.918   2.261
 6946SOL    HW121737   6.309   3.868   2.243
 6946SOL    HW221738   6.473   3.859   2.241
 6947SOL     OW21739   3.743   6.602   0.941
 6947SOL    HW121740   3.807   6.594   0.864
 6947SOL    HW221741   3.726   6.699   0.960
 6948SOL     OW21742   3.140   1.921   5.845
 6948SOL    HW121743   3.217   1.877   5.891
 6948SOL    HW221744   3.120   2.008   5.889
 6949SOL     OW21745   5.237   0.135   2.575
 6949SOL    HW121746   5.232   0.186   2.489
 6949SOL    HW221747   5.193   0.189   2.647
 6950SOL     OW21748   3.562   1.838   3.309
 6950SOL    HW121749   3.549   1.788   3.395
 6950SOL    HW221750   3.514   1.791   3.235
 6951SOL     OW21751   4.612   3.842   5.662
 6951SOL    HW121752   4.626   3.750   5.627
 6951SOL    HW221753   4.700   3.888   5.674
 6952SOL     OW21754   0.348   3.731   6.706
 6952SOL    HW121755   0.281   3.774   6.767
 6952SOL    HW221756   0.309   3.648   6.667
 6953SOL     OW21757   5.645   2.532   4.893
 6953SOL    HW121758   5.678   2.455   4.948
 6953SOL    HW221759   5.551   2.554   4.919
 6954SOL     OW21760   0.154   4.886   1.614
 6954SOL    HW121761   0.214   4.813   1.583
 6954SOL    HW221762   0.194   4.929   1.695
 6955SOL     OW21763   0.282   0.726   3.882
 6955SOL    HW121764   0.372   0.685   3.869
 6955SOL    HW221765   0.212   0.655   3.884
 6956SOL     OW21766   3.505   4.111   1.446
 6956SOL    HW121767   3.599   4.082   1.460
 6956SOL    HW221768   3.500   4.211   1.444
 6957SOL     OW21769   1.731   4.645   0.808
 6957SOL    HW121770   1.824   4.623   0.837
 6957SOL    HW221771   1.732   4.672   0.711
 6958SOL     OW21772   1.977   3.333   5.991
 6958SOL    HW121773   1.976   3.397   6.068
 6958SOL    HW221774   1.920   3.370   5.917
 6959SOL     OW21775   4.090   0.863   5.052
 6959SOL    HW121776   4.141   0.917   4.985
 6959SOL    HW221777   3.996   0.896   5.056
 6960SOL     OW21778   1.258   5.767   6.543
 6960SOL    HW121779   1.166   5.752   6.578
 6960SOL    HW221780   1.278   5.865   6.542
 6961SOL     OW21781   6.014   0.809   3.598
 6961SOL    HW121782   5.921   0.773   3.608
 6961SOL    HW221783   6.051   0.782   3.509
 6962SOL     OW21784   3.229   3.840   0.809
 6962SOL    HW121785   3.247   3.789   0.893
 6962SOL    HW221786   3.292   3.917   0.802
 6963SOL     OW21787   6.007   6.005   1.834
 6963SOL    HW121788   6.030   5.962   1.747
 6963SOL    HW221789   5.976   5.936   1.899
 6964SOL     OW21790   3.815   5.175   5.822
 6964SOL    HW121791   3.784   5.247   5.884
 6964SOL    HW221792   3.887   5.211   5.762
 6965SOL     OW21793   5.814   1.161   6.014
 6965SOL    HW121794   5.853   1.091   6.074
 6965SOL    HW221795   5.867   1.163   5.929
 6966SOL     OW21796   4.596   1.979   3.944
 6966SOL    HW121797   4.576   1.963   4.040
 6966SOL    HW221798   4.574   1.897   3.891
 6967SOL     OW21799   3.007   2.948   6.597
 6967SOL    HW121800   2.945   2.893   6.653
 6967SOL    HW221801   2.957   2.989   6.521
 6968SOL     OW21802   3.657   0.858   3.451
 6968SOL    HW121803   3.740   0.909   3.428
 6968SOL    HW221804   3.616   0.822   3.367
 6969SOL     OW21805   3.552   3.353   1.370
 6969SOL    HW121806   3.453   3.369   1.371
 6969SOL    HW221807   3.574   3.285   1.300
 6970SOL     OW21808   4.931   4.590   0.195
 6970SOL    HW121809   4.969   4.673   0.235
 6970SOL    HW221810   4.878   4.614   0.113
 6971SOL     OW21811   6.052   1.619   2.072
 6971SOL    HW121812   5.959   1.585   2.090
 6971SOL    HW221813   6.074   1.606   1.976
 6972SOL     OW21814   4.975   5.958   4.612
 6972SOL    HW121815   5.041   6.003   4.671
 6972SOL    HW221816   4.886   5.955   4.657
 6973SOL     OW21817   1.401   4.030   3.063
 6973SOL    HW121818   1.472   4.089   3.102
 6973SOL    HW221819   1.437   3.983   2.982
 6974SOL     OW21820   3.281   3.924   5.032
 6974SOL    HW121821   3.289   3.999   4.967
 6974SOL    HW221822   3.358   3.926   5.096
 6975SOL     OW21823   1.805   6.298   6.619
 6975SOL    HW121824   1.787   6.388   6.580
 6975SOL    HW221825   1.879   6.304   6.685
 6976SOL     OW21826   1.184   6.035   1.176
 6976SOL    HW121827   1.202   5.974   1.253
 6976SOL    HW221828   1.135   5.984   1.105
 6977SOL     OW21829   5.541   2.583   1.148
 6977SOL    HW121830   5.492   2.660   1.107
 6977SOL    HW221831   5.496   2.498   1.122
 6978SOL     OW21832   4.640   2.457   3.356
 6978SOL    HW121833   4.559   2.432   3.409
 6978SOL    HW221834   4.691   2.375   3.332
 6979SOL     OW21835   0.024   3.737   4.467
 6979SOL    HW121836   0.044   3.828   4.432
 6979SOL    HW221837   0.097   3.708   4.530
 6980SOL     OW21838   4.891   1.922   5.087
 6980SOL    HW121839   4.847   1.839   5.120
 6980SOL    HW221840   4.977   1.899   5.041
 6981SOL     OW21841   3.443   3.599   6.084
 6981SOL    HW121842   3.360   3.651   6.065
 6981SOL    HW221843   3.509   3.613   6.010
 6982SOL     OW21844   0.683   0.260   4.857
 6982SOL    HW121845   0.661   0.328   4.786
 6982SOL    HW221846   0.776   0.274   4.889
 6983SOL     OW21847   6.123   0.878   2.921
 6983SOL    HW121848   6.168   0.892   2.833
 6983SOL    HW221849   6.135   0.958   2.978
 6984SOL     OW21850   1.855   1.226   6.274
 6984SOL    HW121851   1.935   1.234   6.216
 6984SOL    HW221852   1.774   1.257   6.224
 6985SOL     OW21853   4.876   6.881   3.845
 6985SOL    HW121854   4.940   6.877   3.922
 6985SOL    HW221855   4.862   6.789   3.809
 6986SOL     OW21856   2.006   6.092   5.139
 6986SOL    HW121857   2.047   6.177   5.107
 6986SOL    HW221858   1.969   6.105   5.231
 6987SOL     OW21859   6.910   3.277   6.121
 6987SOL    HW121860   6.852   3.273   6.202
 6987SOL    HW221861   6.892   3.198   6.063
 6988SOL     OW21862   5.568   1.917   6.575
 6988SOL    HW121863   5.544   1.855   6.500
 6988SOL    HW221864   5.485   1.953   6.618
 6989SOL     OW21865   1.900   3.538   4.550
 6989SOL    HW121866   1.934   3.589   4.629
 6989SOL    HW221867   1.865   3.602   4.482
 6990SOL     OW21868   4.045   3.478   1.669
 6990SOL    HW121869   4.111   3.448   1.600
 6990SOL    HW221870   4.060   3.575   1.689
 6991SOL     OW21871   4.473   4.476   5.415
 6991SOL    HW121872   4.422   4.515   5.492
 6991SOL    HW221873   4.570   4.468   5.441
 6992SOL     OW21874   6.620   6.766   4.938
 6992SOL    HW121875   6.618   6.866   4.945
 6992SOL    HW221876   6.526   6.732   4.926
 6993SOL     OW21877   0.807   0.172   3.420
 6993SOL    HW121878   0.841   0.221   3.500
 6993SOL    HW221879   0.813   0.233   3.340
 6994SOL     OW21880   1.781   2.390   0.463
 6994SOL    HW121881   1.817   2.309   0.418
 6994SOL    HW221882   1.691   2.412   0.425
 6995SOL     OW21883   1.338   5.261   3.836
 6995SOL    HW121884   1.433   5.228   3.841
 6995SOL    HW221885   1.285   5.200   3.776
 6996SOL     OW21886   1.692   6.694   5.216
 6996SOL    HW121887   1.698   6.777   5.161
 6996SOL    HW221888   1.597   6.665   5.222
 6997SOL     OW21889   4.290   5.151   4.130
 6997SOL    HW121890   4.356   5.213   4.087
 6997SOL    HW221891   4.280   5.174   4.227
 6998SOL     OW21892   2.963   1.915   2.315
 6998SOL    HW121893   2.900   1.838   2.311
 6998SOL    HW221894   2.919   1.996   2.278
 6999SOL     OW21895   5.620   2.056   6.822
 6999SOL    HW121896   5.620   2.034   6.920
 6999SOL    HW221897   5.628   1.971   6.769
 7000SOL     OW21898   0.001   7.004   1.690
 7000SOL    HW121899   0.012   0.016   1.784
 7000SOL    HW221900   0.065   6.930   1.670
 7001SOL     OW21901   2.661   1.541   6.846
 7001SOL    HW121902   2.679   1.600   6.768
 7001SOL    HW221903   2.586   1.478   6.824
 7002SOL     OW21904   2.738   5.093   1.675
 7002SOL    HW121905   2.789   5.165   1.628
 7002SOL    HW221906   2.801   5.024   1.709
 7003SOL     OW21907   1.629   6.000   5.737
 7003SOL    HW121908   1.708   5.944   5.765
 7003SOL    HW221909   1.572   6.018   5.817
 7004SOL     OW21910   1.855   3.885   6.184
 7004SOL    HW121911   1.812   3.798   6.210
 7004SOL    HW221912   1.793   3.936   6.125
 7005SOL     OW21913   6.073   0.617   5.689
 7005SOL    HW121914   5.994   0.660   5.732
 7005SOL    HW221915   6.156   0.668   5.711
 7006SOL     OW21916   5.275   5.795   3.811
 7006SOL    HW121917   5.330   5.845   3.878
 7006SOL    HW221918   5.239   5.858   3.743
 7007SOL     OW21919   5.627   5.022   1.640
 7007SOL    HW121920   5.697   5.089   1.616
 7007SOL    HW221921   5.584   5.048   1.726
 7008SOL     OW21922   0.825   6.343   4.151
 7008SOL    HW121923   0.783   6.380   4.233
 7008SOL    HW221924   0.778   6.258   4.126
 7009SOL     OW21925   0.011   4.429   1.073
 7009SOL    HW121926   0.079   4.394   1.008
 7009SOL    HW221927   6.937   4.410   1.040
 7010SOL     OW21928   5.168   4.296   5.778
 7010SOL    HW121929   5.156   4.331   5.871
 7010SOL    HW221930   5.091   4.325   5.722
 7011SOL     OW21931   1.138   7.014   5.921
 7011SOL    HW121932   1.056   6.976   5.962
 7011SOL    HW221933   1.168   0.075   5.975
 7012SOL     OW21934   0.657   0.681   1.827
 7012SOL    HW121935   0.574   0.651   1.873
 7012SOL    HW221936   0.658   0.781   1.823
 7013SOL     OW21937   6.198   2.165   1.307
 7013SOL    HW121938   6.117   2.198   1.356
 7013SOL    HW221939   6.268   2.237   1.308
 7014SOL     OW21940   2.247   5.086   0.842
 7014SOL    HW121941   2.314   5.090   0.768
 7014SOL    HW221942   2.162   5.128   0.812
 7015SOL     OW21943   4.716   2.433   2.319
 7015SOL    HW121944   4.808   2.443   2.281
 7015SOL    HW221945   4.650   2.427   2.245
 7016SOL     OW21946   5.174   4.624   0.507
 7016SOL    HW121947   5.210   4.695   0.568
 7016SOL    HW221948   5.156   4.664   0.417
 7017SOL     OW21949   5.397   2.192   5.181
 7017SOL    HW121950   5.351   2.186   5.269
 7017SOL    HW221951   5.330   2.187   5.107
 7018SOL     OW21952   0.421   3.985   2.583
 7018SOL    HW121953   0.496   3.990   2.517
 7018SOL    HW221954   0.454   4.010   2.674
 7019SOL     OW21955   6.775   6.354   2.366
 7019SOL    HW121956   6.758   6.261   2.399
 7019SOL    HW221957   6.832   6.350   2.284
 7020SOL     OW21958   6.910   5.588   6.502
 7020SOL    HW121959   6.860   5.601   6.588
 7020SOL    HW221960   6.994   5.641   6.504
 7021SOL     OW21961   3.095   6.358   5.683
 7021SOL    HW121962   3.164   6.286   5.678
 7021SOL    HW221963   3.140   6.447   5.692
 7022SOL     OW21964   3.617   4.932   5.643
 7022SOL    HW121965   3.630   4.924   5.544
 7022SOL    HW221966   3.705   4.952   5.686
 7023SOL     OW21967   4.285   5.256   2.116
 7023SOL    HW121968   4.211   5.314   2.149
 7023SOL    HW221969   4.342   5.227   2.193
 7024SOL     OW21970   6.167   6.838   2.081
 7024SOL    HW121971   6.181   6.937   2.073
 7024SOL    HW221972   6.180   6.795   1.992
 7025SOL     OW21973   2.896   0.291   1.325
 7025SOL    HW121974   2.863   0.239   1.246
 7025SOL    HW221975   2.825   0.297   1.394
 7026SOL     OW21976   4.876   2.545   0.721
 7026SOL    HW121977   4.829   2.588   0.644
 7026SOL    HW221978   4.953   2.491   0.688
 7027SOL     OW21979   5.850   5.779   4.900
 7027SOL    HW121980   5.838   5.837   4.981
 7027SOL    HW221981   5.908   5.701   4.924
 7028SOL     OW21982   3.252   1.092   4.578
 7028SOL    HW121983   3.219   1.014   4.630
 7028SOL    HW221984   3.234   1.076   4.480
 7029SOL     OW21985   3.671   0.416   4.111
 7029SOL    HW121986   3.633   0.410   4.203
 7029SOL    HW221987   3.738   0.490   4.107
 7030SOL     OW21988   1.226   3.923   3.837
 7030SOL    HW121989   1.260   3.954   3.926
 7030SOL    HW221990   1.268   3.977   3.764
 7031SOL     OW21991   1.947   0.838   4.304
 7031SOL    HW121992   1.994   0.760   4.264
 7031SOL    HW221993   1.970   0.921   4.252
 7032SOL     OW21994   5.989   2.240   3.532
 7032SOL    HW121995   6.076   2.196   3.554
 7032SOL    HW221996   5.919   2.169   3.520
 7033SOL     OW21997   0.131   1.143   4.914
 7033SOL    HW121998   0.056   1.091   4.956
 7033SOL    HW221999   0.215   1.088   4.917
 7034SOL     OW22000   0.266   5.142   3.640
 7034SOL    HW122001   0.340   5.120   3.577
 7034SOL    HW222002   0.182   5.096   3.610
 7035SOL     OW22003   0.103   4.871   1.205
 7035SOL    HW122004   0.104   4.969   1.225
 7035SOL    HW222005   0.050   4.854   1.122
 7036SOL     OW22006   6.670   5.390   0.472
 7036SOL    HW122007   6.600   5.324   0.444
 7036SOL    HW222008   6.630   5.455   0.537
 7037SOL     OW22009   0.979   0.297   6.706
 7037SOL    HW122010   0.969   0.393   6.680
 7037SOL    HW222011   0.995   0.291   6.804
 7038SOL     OW22012   2.239   2.787   4.617
 7038SOL    HW122013   2.283   2.799   4.706
 7038SOL    HW222014   2.309   2.773   4.547
 7039SOL     OW22015   4.068   1.893   6.616
 7039SOL    HW122016   4.164   1.875   6.640
 7039SOL    HW222017   4.048   1.990   6.629
 7040SOL     OW22018   6.269   2.208   6.382
 7040SOL    HW122019   6.201   2.149   6.426
 7040SOL    HW222020   6.301   2.166   6.297
 7041SOL     OW22021   1.904   1.585   3.611
 7041SOL    HW122022   1.804   1.576   3.604
 7041SOL    HW222023   1.930   1.680   3.594
 7042SOL     OW22024   1.896   0.916   6.868
 7042SOL    HW122025   1.939   0.826   6.881
 7042SOL    HW222026   1.891   0.937   6.771
 7043SOL     OW22027   1.853   2.810   1.298
 7043SOL    HW122028   1.908   2.785   1.219
 7043SOL    HW222029   1.803   2.730   1.331
 7044SOL     OW22030   0.052   5.821   0.799
 7044SOL    HW122031   6.977   5.788   0.815
 7044SOL    HW222032   0.050   5.920   0.782
 7045SOL     OW22033   0.330   4.912   0.426
 7045SOL    HW122034   0.315   4.882   0.331
 7045SOL    HW222035   0.244   4.909   0.476
 7046SOL     OW22036   2.812   2.299   3.679
 7046SOL    HW122037   2.772   2.210   3.657
 7046SOL    HW222038   2.808   2.315   3.777
 7047SOL     OW22039   1.436   6.581   3.156
 7047SOL    HW122040   1.429   6.617   3.063
 7047SOL    HW222041   1.404   6.649   3.221
 7048SOL     OW22042   0.129   5.624   6.904
 7048SOL    HW122043   0.195   5.586   6.969
 7048SOL    HW222044   0.060   5.675   6.953
 7049SOL     OW22045   2.604   1.201   6.671
 7049SOL    HW122046   2.701   1.189   6.650
 7049SOL    HW222047   2.551   1.131   6.622
 7050SOL     OW22048   4.038   3.457   5.662
 7050SOL    HW122049   3.959   3.501   5.618
 7050SOL    HW222050   4.101   3.424   5.592
 7051SOL     OW22051   6.060   6.153   2.405
 7051SOL    HW122052   6.011   6.175   2.490
 7051SOL    HW222053   6.148   6.201   2.405
 7052SOL     OW22054   6.219   0.534   5.129
 7052SOL    HW122055   6.140   0.526   5.191
 7052SOL    HW222056   6.303   0.520   5.181
 7053SOL     OW22057   6.402   3.285   6.315
 7053SOL    HW122058   6.354   3.311   6.399
 7053SOL    HW222059   6.343   3.227   6.259
 7054SOL     OW22060   6.081   2.258   2.774
 7054SOL    HW122061   6.011   2.204   2.728
 7054SOL    HW222062   6.083   2.350   2.735
 7055SOL     OW22063   4.380   1.567   3.416
 7055SOL    HW122064   4.440   1.613   3.352
 7055SOL    HW222065   4.321   1.634   3.461
 7056SOL     OW22066   4.679   5.702   4.487
 7056SOL    HW122067   4.584   5.680   4.468
 7056SOL    HW222068   4.713   5.766   4.418
 7057SOL     OW22069   5.804   6.252   3.003
 7057SOL    HW122070   5.797   6.190   3.080
 7057SOL    HW222071   5.714   6.265   2.961
 7058SOL     OW22072   0.068   3.894   4.833
 7058SOL    HW122073   0.087   3.823   4.766
 7058SOL    HW222074   0.146   3.958   4.837
 7059SOL     OW22075   1.414   0.469   1.722
 7059SOL    HW122076   1.361   0.493   1.641
 7059SOL    HW222077   1.474   0.545   1.747
 7060SOL     OW22078   3.908   6.812   1.239
 7060SOL    HW122079   3.879   6.843   1.330
 7060SOL    HW222080   4.005   6.831   1.227
 7061SOL     OW22081   0.964   1.269   3.124
 7061SOL    HW122082   0.916   1.325   3.056
 7061SOL    HW222083   1.014   1.329   3.187
 7062SOL     OW22084   6.663   1.384   6.113
 7062SOL    HW122085   6.729   1.332   6.060
 7062SOL    HW222086   6.579   1.330   6.124
 7063SOL     OW22087   1.899   6.307   1.720
 7063SOL    HW122088   1.973   6.360   1.678
 7063SOL    HW222089   1.938   6.227   1.766
 7064SOL     OW22090   3.465   2.718   0.666
 7064SOL    HW122091   3.515   2.796   0.704
 7064SOL    HW222092   3.379   2.749   0.626
 7065SOL     OW22093   3.245   3.500   2.572
 7065SOL    HW122094   3.220   3.556   2.651
 7065SOL    HW222095   3.292   3.556   2.504
 7066SOL     OW22096   2.653   4.802   1.547
 7066SOL    HW122097   2.737   4.773   1.593
 7066SOL    HW222098   2.672   4.884   1.492
 7067SOL     OW22099   0.815   4.231   4.807
 7067SOL    HW122100   0.879   4.175   4.860
 7067SOL    HW222101   0.865   4.281   4.736
 7068SOL     OW22102   0.942   0.999   2.794
 7068SOL    HW122103   0.978   1.037   2.879
 7068SOL    HW222104   0.942   0.899   2.799
 7069SOL     OW22105   1.391   4.507   5.515
 7069SOL    HW122106   1.407   4.480   5.420
 7069SOL    HW222107   1.391   4.425   5.572
 7070SOL     OW22108   6.004   5.337   2.874
 7070SOL    HW122109   5.909   5.305   2.871
 7070SOL    HW222110   6.061   5.277   2.819
 7071SOL     OW22111   1.531   6.365   5.270
 7071SOL    HW122112   1.458   6.421   5.309
 7071SOL    HW222113   1.544   6.283   5.326
 7072SOL     OW22114   0.187   0.239   6.646
 7072SOL    HW122115   0.165   0.196   6.734
 7072SOL    HW222116   0.103   0.271   6.603
 7073SOL     OW22117   1.980   2.366   6.781
 7073SOL    HW122118   1.956   2.441   6.719
 7073SOL    HW222119   2.065   2.388   6.828
 7074SOL     OW22120   3.693   1.445   6.417
 7074SOL    HW122121   3.639   1.478   6.340
 7074SOL    HW222122   3.773   1.395   6.383
 7075SOL     OW22123   1.174   6.336   3.394
 7075SOL    HW122124   1.123   6.381   3.468
 7075SOL    HW222125   1.163   6.390   3.310
 7076SOL     OW22126   3.159   1.209   6.159
 7076SOL    HW122127   3.130   1.169   6.246
 7076SOL    HW222128   3.196   1.301   6.176
 7077SOL     OW22129   1.174   5.802   6.267
 7077SOL    HW122130   1.195   5.778   6.362
 7077SOL    HW222131   1.176   5.719   6.210
 7078SOL     OW22132   0.582   0.557   1.496
 7078SOL    HW122133   0.542   0.593   1.580
 7078SOL    HW222134   0.518   0.492   1.455
 7079SOL     OW22135   5.152   6.846   4.592
 7079SOL    HW122136   5.085   6.920   4.581
 7079SOL    HW222137   5.238   6.872   4.548
 7080SOL     OW22138   5.875   0.806   4.078
 7080SOL    HW122139   5.826   0.752   4.009
 7080SOL    HW222140   5.943   0.747   4.123
 7081SOL     OW22141   4.693   0.955   4.547
 7081SOL    HW122142   4.602   0.979   4.579
 7081SOL    HW222143   4.723   0.870   4.592
 7082SOL     OW22144   5.950   1.167   0.252
 7082SOL    HW122145   5.868   1.201   0.298
 7082SOL    HW222146   6.021   1.148   0.320
 7083SOL     OW22147   3.689   0.328   5.265
 7083SOL    HW122148   3.642   0.370   5.187
 7083SOL    HW222149   3.721   0.237   5.240
 7084SOL     OW22150   5.831   5.861   0.247
 7084SOL    HW122151   5.783   5.782   0.210
 7084SOL    HW222152   5.800   5.944   0.201
 7085SOL     OW22153   4.984   1.473   1.347
 7085SOL    HW122154   5.045   1.537   1.394
 7085SOL    HW222155   4.990   1.384   1.391
 7086SOL     OW22156   1.334   0.864   5.965
 7086SOL    HW122157   1.321   0.843   6.062
 7086SOL    HW222158   1.349   0.962   5.954
 7087SOL     OW22159   2.412   2.540   4.769
 7087SOL    HW122160   2.453   2.551   4.859
 7087SOL    HW222161   2.319   2.503   4.778
 7088SOL     OW22162   0.055   1.635   4.406
 7088SOL    HW122163   0.055   1.587   4.318
 7088SOL    HW222164   0.014   1.577   4.476
 7089SOL     OW22165   3.110   1.833   2.059
 7089SOL    HW122166   3.081   1.929   2.058
 7089SOL    HW222167   3.179   1.819   1.988
 7090SOL     OW22168   2.907   0.708   5.190
 7090SOL    HW122169   2.832   0.683   5.252
 7090SOL    HW222170   2.980   0.640   5.197
 7091SOL     OW22171   6.440   5.361   6.789
 7091SOL    HW122172   6.528   5.332   6.827
 7091SOL    HW222173   6.384   5.401   6.862
 7092SOL     OW22174   3.696   2.242   0.412
 7092SOL    HW122175   3.712   2.304   0.489
 7092SOL    HW222176   3.630   2.284   0.349
 7093SOL     OW22177   3.999   3.111   6.248
 7093SOL    HW122178   3.966   3.102   6.154
 7093SOL    HW222179   3.921   3.119   6.310
 7094SOL     OW22180   6.110   0.855   6.570
 7094SOL    HW122181   6.185   0.907   6.611
 7094SOL    HW222182   6.132   0.836   6.474
 7095SOL     OW22183   1.206   4.091   1.143
 7095SOL    HW122184   1.256   4.014   1.102
 7095SOL    HW222185   1.232   4.100   1.239
 7096SOL     OW22186   3.749   6.817   3.345
 7096SOL    HW122187   3.753   6.901   3.290
 7096SOL    HW222188   3.672   6.761   3.314
 7097SOL     OW22189   1.592   1.407   1.729
 7097SOL    HW122190   1.661   1.472   1.699
 7097SOL    HW222191   1.552   1.438   1.815
 7098SOL     OW22192   1.703   0.525   6.575
 7098SOL    HW122193   1.699   0.603   6.638
 7098SOL    HW222194   1.612   0.485   6.566
 7099SOL     OW22195   6.800   1.303   5.120
 7099SOL    HW122196   6.806   1.226   5.057
 7099SOL    HW222197   6.761   1.272   5.207
 7100SOL     OW22198   5.341   1.782   1.063
 7100SOL    HW122199   5.279   1.704   1.053
 7100SOL    HW222200   5.424   1.752   1.110
 7101SOL     OW22201   1.512   0.544   4.881
 7101SOL    HW122202   1.480   0.478   4.813
 7101SOL    HW222203   1.576   0.500   4.943
 7102SOL     OW22204   4.412   2.808   0.732
 7102SOL    HW122205   4.326   2.858   0.734
 7102SOL    HW222206   4.451   2.804   0.824
 7103SOL     OW22207   2.102   6.921   6.069
 7103SOL    HW122208   2.057   6.841   6.110
 7103SOL    HW222209   2.150   6.973   6.140
 7104SOL     OW22210   0.597   3.542   1.460
 7104SOL    HW122211   0.632   3.555   1.553
 7104SOL    HW222212   0.500   3.515   1.465
 7105SOL     OW22213   2.038   2.685   4.997
 7105SOL    HW122214   2.043   2.767   4.940
 7105SOL    HW222215   2.045   2.604   4.938
 7106SOL     OW22216   3.059   3.080   5.073
 7106SOL    HW122217   3.008   3.159   5.040
 7106SOL    HW222218   3.000   3.025   5.132
 7107SOL     OW22219   2.028   1.399   0.072
 7107SOL    HW122220   2.043   1.398   0.171
 7107SOL    HW222221   2.007   1.306   0.041
 7108SOL     OW22222   4.657   6.582   2.041
 7108SOL    HW122223   4.603   6.648   2.093
 7108SOL    HW222224   4.742   6.625   2.010
 7109SOL     OW22225   4.576   5.936   6.802
 7109SOL    HW122226   4.600   5.864   6.738
 7109SOL    HW222227   4.489   5.978   6.774
 7110SOL     OW22228   3.752   4.895   4.139
 7110SOL    HW122229   3.804   4.907   4.223
 7110SOL    HW222230   3.654   4.900   4.159
 7111SOL     OW22231   1.181   3.007   3.422
 7111SOL    HW122232   1.136   2.972   3.340
 7111SOL    HW222233   1.222   3.096   3.401
 7112SOL     OW22234   1.558   6.098   2.950
 7112SOL    HW122235   1.501   6.157   3.005
 7112SOL    HW222236   1.505   6.061   2.874
 7113SOL     OW22237   3.604   4.075   5.839
 7113SOL    HW122238   3.531   4.017   5.874
 7113SOL    HW222239   3.659   4.109   5.915
 7114SOL     OW22240   3.730   6.356   1.129
 7114SOL    HW122241   3.827   6.340   1.146
 7114SOL    HW222242   3.720   6.437   1.071
 7115SOL     OW22243   4.105   2.481   1.493
 7115SOL    HW122244   4.023   2.446   1.537
 7115SOL    HW222245   4.119   2.577   1.520
 7116SOL     OW22246   6.061   4.215   3.752
 7116SOL    HW122247   6.123   4.246   3.680
 7116SOL    HW222248   6.094   4.249   3.840
 7117SOL     OW22249   5.215   6.912   2.697
 7117SOL    HW122250   5.229   7.000   2.651
 7117SOL    HW222251   5.169   6.849   2.635
 7118SOL     OW22252   6.575   3.350   3.783
 7118SOL    HW122253   6.674   3.343   3.798
 7118SOL    HW222254   6.546   3.444   3.799
 7119SOL     OW22255   0.755   2.326   2.193
 7119SOL    HW122256   0.807   2.395   2.243
 7119SOL    HW222257   0.664   2.362   2.171
 7120SOL     OW22258   4.581   6.086   4.117
 7120SOL    HW122259   4.562   6.178   4.150
 7120SOL    HW222260   4.654   6.090   4.048
 7121SOL     OW22261   1.943   6.525   1.341
 7121SOL    HW122262   1.870   6.590   1.360
 7121SOL    HW222263   1.981   6.542   1.250
 7122SOL     OW22264   0.096   6.090   0.377
 7122SOL    HW122265   0.023   6.084   0.308
 7122SOL    HW222266   0.134   6.000   0.393
 7123SOL     OW22267   3.280   5.093   0.931
 7123SOL    HW122268   3.325   5.154   0.996
 7123SOL    HW222269   3.345   5.065   0.861
 7124SOL     OW22270   0.163   5.654   6.316
 7124SOL    HW122271   0.141   5.736   6.370
 7124SOL    HW222272   0.084   5.629   6.261
 7125SOL     OW22273   1.223   5.787   3.228
 7125SOL    HW122274   1.314   5.827   3.239
 7125SOL    HW222275   1.190   5.754   3.317
 7126SOL     OW22276   1.714   4.234   1.264
 7126SOL    HW122277   1.624   4.217   1.303
 7126SOL    HW222278   1.768   4.291   1.326
 7127SOL     OW22279   2.215   0.217   5.091
 7127SOL    HW122280   2.139   0.184   5.036
 7127SOL    HW222281   2.199   0.311   5.119
 7128SOL     OW22282   3.519   3.190   2.768
 7128SOL    HW122283   3.539   3.250   2.691
 7128SOL    HW222284   3.555   3.232   2.852
 7129SOL     OW22285   3.245   2.070   0.948
 7129SOL    HW122286   3.337   2.048   0.981
 7129SOL    HW222287   3.180   2.003   0.982
 7130SOL     OW22288   1.899   0.384   2.914
 7130SOL    HW122289   1.803   0.409   2.903
 7130SOL    HW222290   1.925   0.317   2.845
 7131SOL     OW22291   2.337   1.099   3.169
 7131SOL    HW122292   2.273   1.023   3.164
 7131SOL    HW222293   2.408   1.088   3.099
 7132SOL     OW22294   2.907   3.464   2.578
 7132SOL    HW122295   2.869   3.503   2.662
 7132SOL    HW222296   2.951   3.377   2.600
 7133SOL     OW22297   6.686   3.991   1.512
 7133SOL    HW122298   6.608   4.029   1.464
 7133SOL    HW222299   6.770   4.017   1.465
 7134SOL     OW22300   4.580   4.410   2.525
 7134SOL    HW122301   4.552   4.322   2.488
 7134SOL    HW222302   4.600   4.473   2.450
 7135SOL     OW22303   0.201   1.702   5.538
 7135SOL    HW122304   0.277   1.642   5.513
 7135SOL    HW222305   0.162   1.672   5.625
 7136SOL     OW22306   1.744   1.919   6.689
 7136SOL    HW122307   1.747   1.857   6.768
 7136SOL    HW222308   1.677   1.991   6.707
 7137SOL     OW22309   5.317   1.739   4.862
 7137SOL    HW122310   5.328   1.640   4.849
 7137SOL    HW222311   5.360   1.787   4.785
 7138SOL     OW22312   2.289   1.893   6.865
 7138SOL    HW122313   2.294   1.973   6.805
 7138SOL    HW222314   2.245   1.818   6.816
 7139SOL     OW22315   1.857   1.880   0.454
 7139SOL    HW122316   1.903   1.858   0.540
 7139SOL    HW222317   1.910   1.845   0.377
 7140SOL     OW22318   6.664   4.481   4.339
 7140SOL    HW122319   6.641   4.575   4.316
 7140SOL    HW222320   6.589   4.421   4.311
 7141SOL     OW22321   0.767   0.264   2.318
 7141SOL    HW122322   0.857   0.257   2.275
 7141SOL    HW222323   0.725   0.351   2.294
 7142SOL     OW22324   3.795   6.515   3.923
 7142SOL    HW122325   3.738   6.449   3.876
 7142SOL    HW222326   3.766   6.608   3.900
 7143SOL     OW22327   1.603   2.687   3.594
 7143SOL    HW122328   1.605   2.720   3.500
 7143SOL    HW222329   1.510   2.699   3.631
 7144SOL     OW22330   1.452   3.499   3.768
 7144SOL    HW122331   1.530   3.530   3.821
 7144SOL    HW222332   1.443   3.400   3.777
 7145SOL     OW22333   3.398   5.437   7.001
 7145SOL    HW122334   3.327   5.491   6.956
 7145SOL    HW222335   3.487   5.480   6.988
 7146SOL     OW22336   3.465   4.991   1.660
 7146SOL    HW122337   3.524   4.993   1.580
 7146SOL    HW222338   3.385   5.049   1.645
 7147SOL     OW22339   0.806   1.405   3.696
 7147SOL    HW122340   0.832   1.408   3.793
 7147SOL    HW222341   0.888   1.391   3.640
 7148SOL     OW22342   6.641   1.854   0.480
 7148SOL    HW122343   6.638   1.756   0.461
 7148SOL    HW222344   6.610   1.904   0.400
 7149SOL     OW22345   0.980   0.693   5.029
 7149SOL    HW122346   0.894   0.706   4.981
 7149SOL    HW222347   1.007   0.778   5.074
 7150SOL     OW22348   5.757   2.951   5.793
 7150SOL    HW122349   5.793   2.872   5.841
 7150SOL    HW222350   5.804   2.962   5.705
 7151SOL     OW22351   1.419   0.226   0.261
 7151SOL    HW122352   1.393   0.169   0.182
 7151SOL    HW222353   1.337   0.267   0.301
 7152SOL     OW22354   1.272   2.228   5.072
 7152SOL    HW122355   1.253   2.279   5.156
 7152SOL    HW222356   1.227   2.274   4.995
 7153SOL     OW22357   4.353   2.046   2.981
 7153SOL    HW122358   4.365   1.990   2.900
 7153SOL    HW222359   4.343   2.142   2.955
 7154SOL     OW22360   3.380   6.943   4.484
 7154SOL    HW122361   3.332   6.880   4.423
 7154SOL    HW222362   3.352   6.926   4.579
 7155SOL     OW22363   2.543   1.594   3.928
 7155SOL    HW122364   2.533   1.608   3.829
 7155SOL    HW222365   2.608   1.520   3.944
 7156SOL     OW22366   2.347   5.457   5.002
 7156SOL    HW122367   2.405   5.479   4.923
 7156SOL    HW222368   2.310   5.365   4.992
 7157SOL     OW22369   5.447   4.627   0.184
 7157SOL    HW122370   5.461   4.597   0.279
 7157SOL    HW222371   5.459   4.726   0.179
 7158SOL     OW22372   3.768   0.490   3.292
 7158SOL    HW122373   3.681   0.493   3.341
 7158SOL    HW222374   3.752   0.462   3.197
 7159SOL     OW22375   1.458   6.375   0.175
 7159SOL    HW122376   1.511   6.292   0.195
 7159SOL    HW222377   1.480   6.407   0.083
 7160SOL     OW22378   0.146   0.518   2.411
 7160SOL    HW122379   0.224   0.544   2.469
 7160SOL    HW222380   0.176   0.509   2.316
 7161SOL     OW22381   2.961   3.839   4.846
 7161SOL    HW122382   2.995   3.932   4.854
 7161SOL    HW222383   2.914   3.813   4.930
 7162SOL     OW22384   3.570   4.948   3.886
 7162SOL    HW122385   3.497   5.013   3.865
 7162SOL    HW222386   3.609   4.969   3.976
 7163SOL     OW22387   0.984   6.257   3.764
 7163SOL    HW122388   0.996   6.324   3.691
 7163SOL    HW222389   0.907   6.283   3.822
 7164SOL     OW22390   3.668   1.654   4.366
 7164SOL    HW122391   3.676   1.751   4.345
 7164SOL    HW222392   3.677   1.601   4.281
 7165SOL     OW22393   4.243   4.979   2.061
 7165SOL    HW122394   4.150   4.942   2.048
 7165SOL    HW222395   4.237   5.075   2.088
 7166SOL     OW22396   3.131   6.333   2.494
 7166SOL    HW122397   3.147   6.379   2.581
 7166SOL    HW222398   3.092   6.398   2.428
 7167SOL     OW22399   5.849   3.571   0.302
 7167SOL    HW122400   5.784   3.566   0.378
 7167SOL    HW222401   5.803   3.544   0.217
 7168SOL     OW22402   6.727   1.342   4.462
 7168SOL    HW122403   6.769   1.318   4.375
 7168SOL    HW222404   6.796   1.336   4.535
 7169SOL     OW22405   2.660   2.887   6.631
 7169SOL    HW122406   2.614   2.818   6.574
 7169SOL    HW222407   2.654   2.860   6.727
 7170SOL     OW22408   5.001   3.886   4.290
 7170SOL    HW122409   4.949   3.831   4.355
 7170SOL    HW222410   4.948   3.967   4.264
 7171SOL     OW22411   3.916   3.812   5.425
 7171SOL    HW122412   3.977   3.892   5.418
 7171SOL    HW222413   3.839   3.835   5.485
 7172SOL     OW22414   5.856   5.638   1.335
 7172SOL    HW122415   5.904   5.562   1.379
 7172SOL    HW222416   5.795   5.682   1.401
 7173SOL     OW22417   6.962   6.300   4.620
 7173SOL    HW122418   6.996   6.280   4.528
 7173SOL    HW222419   6.981   6.395   4.644
 7174SOL     OW22420   1.136   6.301   6.194
 7174SOL    HW122421   1.201   6.229   6.170
 7174SOL    HW222422   1.138   6.372   6.123
 7175SOL     OW22423   6.356   3.748   5.479
 7175SOL    HW122424   6.278   3.727   5.420
 7175SOL    HW222425   6.327   3.746   5.575
 7176SOL     OW22426   1.074   3.571   0.844
 7176SOL    HW122427   0.991   3.570   0.787
 7176SOL    HW222428   1.153   3.595   0.787
 7177SOL     OW22429   0.588   5.342   1.246
 7177SOL    HW122430   0.497   5.302   1.241
 7177SOL    HW222431   0.597   5.391   1.333
 7178SOL     OW22432   6.146   0.439   6.558
 7178SOL    HW122433   6.148   0.383   6.474
 7178SOL    HW222434   6.130   0.380   6.637
 7179SOL     OW22435   0.576   3.670   5.403
 7179SOL    HW122436   0.650   3.716   5.354
 7179SOL    HW222437   0.554   3.584   5.356
 7180SOL     OW22438   6.962   0.859   2.015
 7180SOL    HW122439   6.924   0.779   2.063
 7180SOL    HW222440   0.044   0.861   2.029
 7181SOL     OW22441   5.462   5.954   2.769
 7181SOL    HW122442   5.539   6.004   2.730
 7181SOL    HW222443   5.386   5.953   2.704
 7182SOL     OW22444   4.293   3.661   6.147
 7182SOL    HW122445   4.343   3.713   6.078
 7182SOL    HW222446   4.284   3.566   6.117
 7183SOL     OW22447   2.335   2.742   2.953
 7183SOL    HW122448   2.395   2.683   2.898
 7183SOL    HW222449   2.334   2.710   3.047
 7184SOL     OW22450   2.170   5.324   3.226
 7184SOL    HW122451   2.098   5.336   3.295
 7184SOL    HW222452   2.133   5.272   3.149
 7185SOL     OW22453   5.414   2.510   6.631
 7185SOL    HW122454   5.389   2.563   6.713
 7185SOL    HW222455   5.484   2.443   6.655
 7186SOL     OW22456   1.302   6.621   4.710
 7186SOL    HW122457   1.292   6.524   4.685
 7186SOL    HW222458   1.235   6.644   4.781
 7187SOL     OW22459   1.743   5.048   1.272
 7187SOL    HW122460   1.713   5.141   1.293
 7187SOL    HW222461   1.821   5.024   1.331
 7188SOL     OW22462   5.008   0.516   1.678
 7188SOL    HW122463   5.009   0.569   1.763
 7188SOL    HW222464   4.939   0.554   1.616
 7189SOL     OW22465   5.623   0.715   5.967
 7189SOL    HW122466   5.545   0.747   6.020
 7189SOL    HW222467   5.592   0.651   5.896
 7190SOL     OW22468   5.037   4.982   2.393
 7190SOL    HW122469   4.981   5.044   2.448
 7190SOL    HW222470   5.109   5.033   2.348
 7191SOL     OW22471   0.491   3.214   1.349
 7191SOL    HW122472   0.516   3.128   1.303
 7191SOL    HW222473   0.568   3.246   1.404
 7192SOL     OW22474   2.829   4.351   5.748
 7192SOL    HW122475   2.861   4.283   5.682
 7192SOL    HW222476   2.860   4.326   5.840
 7193SOL     OW22477   5.756   1.938   4.766
 7193SOL    HW122478   5.854   1.933   4.783
 7193SOL    HW222479   5.730   2.032   4.745
 7194SOL     OW22480   3.151   0.959   2.128
 7194SOL    HW122481   3.096   0.984   2.207
 7194SOL    HW222482   3.247   0.949   2.156
 7195SOL     OW22483   0.612   0.006   3.008
 7195SOL    HW122484   0.690   6.962   3.002
 7195SOL    HW222485   0.631   0.076   3.077
 7196SOL     OW22486   3.874   3.987   1.777
 7196SOL    HW122487   3.958   3.933   1.777
 7196SOL    HW222488   3.798   3.931   1.810
 7197SOL     OW22489   1.986   1.075   4.149
 7197SOL    HW122490   1.983   1.126   4.235
 7197SOL    HW222491   1.914   1.108   4.088
 7198SOL     OW22492   0.119   0.058   5.977
 7198SOL    HW122493   0.205   0.106   5.956
 7198SOL    HW222494   0.093   0.077   6.072
 7199SOL     OW22495   6.299   5.608   2.191
 7199SOL    HW122496   6.318   5.703   2.164
 7199SOL    HW222497   6.336   5.592   2.282
 7200SOL     OW22498   1.245   2.256   2.601
 7200SOL    HW122499   1.203   2.173   2.564
 7200SOL    HW222500   1.219   2.334   2.545
 7201SOL     OW22501   1.535   4.426   3.397
 7201SOL    HW122502   1.474   4.501   3.418
 7201SOL    HW222503   1.595   4.408   3.475
 7202SOL     OW22504   2.420   6.796   6.090
 7202SOL    HW122505   2.385   6.885   6.118
 7202SOL    HW222506   2.518   6.792   6.108
 7203SOL     OW22507   5.522   0.195   0.314
 7203SOL    HW122508   5.527   0.294   0.333
 7203SOL    HW222509   5.428   0.164   0.330
 7204SOL     OW22510   0.281   3.162   2.656
 7204SOL    HW122511   0.354   3.225   2.628
 7204SOL    HW222512   0.248   3.188   2.746
 7205SOL     OW22513   0.893   3.832   1.642
 7205SOL    HW122514   0.850   3.918   1.616
 7205SOL    HW222515   0.951   3.800   1.567
 7206SOL     OW22516   6.437   0.865   1.684
 7206SOL    HW122517   6.385   0.780   1.685
 7206SOL    HW222518   6.521   0.853   1.631
 7207SOL     OW22519   3.924   0.130   1.334
 7207SOL    HW122520   3.946   0.132   1.237
 7207SOL    HW222521   3.837   0.082   1.347
 7208SOL     OW22522   2.453   0.196   4.933
 7208SOL    HW122523   2.516   0.272   4.945
 7208SOL    HW222524   2.383   0.199   5.004
 7209SOL     OW22525   3.131   3.683   5.351
 7209SOL    HW122526   3.112   3.710   5.445
 7209SOL    HW222527   3.213   3.729   5.318
 7210SOL     OW22528   4.746   0.181   4.189
 7210SOL    HW122529   4.745   0.086   4.158
 7210SOL    HW222530   4.836   0.204   4.225
 7211SOL     OW22531   0.862   5.182   2.631
 7211SOL    HW122532   0.943   5.170   2.688
 7211SOL    HW222533   0.784   5.208   2.688
 7212SOL     OW22534   5.739   6.859   3.514
 7212SOL    HW122535   5.698   6.792   3.576
 7212SOL    HW222536   5.692   6.856   3.426
 7213SOL     OW22537   5.446   6.282   5.645
 7213SOL    HW122538   5.363   6.246   5.688
 7213SOL    HW222539   5.527   6.240   5.688
 7214SOL     OW22540   1.462   4.801   6.120
 7214SOL    HW122541   1.535   4.803   6.189
 7214SOL    HW222542   1.380   4.761   6.160
 7215SOL     OW22543   1.194   3.120   1.010
 7215SOL    HW122544   1.282   3.093   1.048
 7215SOL    HW222545   1.188   3.220   1.007
 7216SOL     OW22546   2.796   1.687   2.945
 7216SOL    HW122547   2.814   1.776   2.904
 7216SOL    HW222548   2.700   1.679   2.969
 7217SOL     OW22549   0.758   3.428   1.897
 7217SOL    HW122550   0.740   3.504   1.834
 7217SOL    HW222551   0.676   3.411   1.952
 7218SOL     OW22552   6.191   3.043   3.293
 7218SOL    HW122553   6.270   3.044   3.355
 7218SOL    HW222554   6.110   3.010   3.343
 7219SOL     OW22555   2.192   1.216   1.410
 7219SOL    HW122556   2.223   1.144   1.348
 7219SOL    HW222557   2.142   1.175   1.486
 7220SOL     OW22558   0.115   1.495   3.328
 7220SOL    HW122559   0.167   1.436   3.389
 7220SOL    HW222560   0.071   1.439   3.257
 7221SOL     OW22561   6.728   4.117   4.634
 7221SOL    HW122562   6.794   4.170   4.687
 7221SOL    HW222563   6.663   4.073   4.696
 7222SOL     OW22564   6.626   6.965   2.767
 7222SOL    HW122565   6.658   6.871   2.775
 7222SOL    HW222566   6.687   0.008   2.819
 7223SOL     OW22567   4.810   1.365   4.381
 7223SOL    HW122568   4.883   1.419   4.341
 7223SOL    HW222569   4.847   1.278   4.414
 7224SOL     OW22570   5.569   1.739   3.421
 7224SOL    HW122571   5.619   1.708   3.503
 7224SOL    HW222572   5.631   1.793   3.363
 7225SOL     OW22573   2.818   0.614   1.716
 7225SOL    HW122574   2.789   0.593   1.623
 7225SOL    HW222575   2.911   0.650   1.715
 7226SOL     OW22576   5.939   6.807   5.226
 7226SOL    HW122577   5.839   6.806   5.236
 7226SOL    HW222578   5.962   6.836   5.133
 7227SOL     OW22579   0.552   3.374   5.536
 7227SOL    HW122580   0.535   3.288   5.584
 7227SOL    HW222581   0.570   3.447   5.602
 7228SOL     OW22582   1.806   0.103   2.712
 7228SOL    HW122583   1.796   0.153   2.626
 7228SOL    HW222584   1.903   0.087   2.730
 7229SOL     OW22585   6.846   0.345   3.545
 7229SOL    HW122586   6.930   0.367   3.496
 7229SOL    HW222587   6.782   0.421   3.538
 7230SOL     OW22588   6.458   5.406   1.028
 7230SOL    HW122589   6.461   5.501   0.997
 7230SOL    HW222590   6.377   5.393   1.086
 7231SOL     OW22591   5.873   0.540   6.937
 7231SOL    HW122592   5.819   0.487   7.001
 7231SOL    HW222593   5.953   0.487   6.908
 7232SOL     OW22594   3.293   3.987   0.518
 7232SOL    HW122595   3.324   3.999   0.613
 7232SOL    HW222596   3.288   3.890   0.496
 7233SOL     OW22597   0.943   1.974   5.937
 7233SOL    HW122598   0.854   1.935   5.915
 7233SOL    HW222599   0.931   2.058   5.990
 7234SOL     OW22600   5.131   2.429   4.219
 7234SOL    HW122601   5.211   2.386   4.260
 7234SOL    HW222602   5.122   2.399   4.124
 7235SOL     OW22603   6.051   2.625   4.384
 7235SOL    HW122604   6.071   2.591   4.476
 7235SOL    HW222605   5.957   2.658   4.380
 7236SOL     OW22606   1.156   1.380   3.292
 7236SOL    HW122607   1.160   1.479   3.308
 7236SOL    HW222608   1.248   1.342   3.296
 7237SOL     OW22609   5.846   5.923   5.125
 7237SOL    HW122610   5.898   5.916   5.210
 7237SOL    HW222611   5.753   5.952   5.146
 7238SOL     OW22612   1.632   0.474   2.406
 7238SOL    HW122613   1.539   0.510   2.395
 7238SOL    HW222614   1.636   0.382   2.367
 7239SOL     OW22615   4.770   2.190   2.105
 7239SOL    HW122616   4.717   2.203   2.022
 7239SOL    HW222617   4.712   2.148   2.175
 7240SOL     OW22618   3.617   2.896   3.368
 7240SOL    HW122619   3.633   2.870   3.463
 7240SOL    HW222620   3.604   2.995   3.362
 7241SOL     OW22621   4.035   0.361   5.175
 7241SOL    HW122622   4.079   0.361   5.085
 7241SOL    HW222623   4.058   0.446   5.223
 7242SOL     OW22624   6.214   6.016   0.332
 7242SOL    HW122625   6.311   6.033   0.350
 7242SOL    HW222626   6.162   6.100   0.346
 7243SOL     OW22627   0.995   5.877   1.018
 7243SOL    HW122628   0.911   5.927   0.997
 7243SOL    HW222629   1.034   5.840   0.933
 7244SOL     OW22630   5.195   1.618   1.680
 7244SOL    HW122631   5.169   1.698   1.734
 7244SOL    HW222632   5.191   1.640   1.583
 7245SOL     OW22633   6.065   1.765   3.364
 7245SOL    HW122634   6.067   1.712   3.279
 7245SOL    HW222635   6.158   1.774   3.400
 7246SOL     OW22636   0.676   5.531   5.653
 7246SOL    HW122637   0.687   5.488   5.743
 7246SOL    HW222638   0.714   5.471   5.583
 7247SOL     OW22639   4.027   5.619   4.170
 7247SOL    HW122640   3.950   5.655   4.223
 7247SOL    HW222641   4.018   5.519   4.163
 7248SOL     OW22642   3.118   0.857   4.944
 7248SOL    HW122643   3.063   0.776   4.965
 7248SOL    HW222644   3.205   0.852   4.993
 7249SOL     OW22645   4.689   2.811   6.227
 7249SOL    HW122646   4.701   2.811   6.326
 7249SOL    HW222647   4.592   2.801   6.204
 7250SOL     OW22648   3.175   2.951   0.045
 7250SOL    HW122649   3.232   2.963   0.127
 7250SOL    HW222650   3.190   3.028   7.000
 7251SOL     OW22651   5.988   1.416   5.696
 7251SOL    HW122652   5.965   1.501   5.744
 7251SOL    HW222653   5.980   1.430   5.597
 7252SOL     OW22654   4.515   3.482   5.331
 7252SOL    HW122655   4.580   3.512   5.261
 7252SOL    HW222656   4.441   3.431   5.288
 7253SOL     OW22657   4.828   5.071   6.643
 7253SOL    HW122658   4.906   5.119   6.685
 7253SOL    HW222659   4.805   4.991   6.699
 7254SOL     OW22660   5.486   5.956   5.020
 7254SOL    HW122661   5.514   5.931   5.113
 7254SOL    HW222662   5.496   6.054   5.007
 7255SOL     OW22663   3.548   3.709   3.293
 7255SOL    HW122664   3.489   3.774   3.342
 7255SOL    HW222665   3.617   3.759   3.241
 7256SOL     OW22666   3.539   6.012   3.535
 7256SOL    HW122667   3.490   5.925   3.542
 7256SOL    HW222668   3.497   6.069   3.465
 7257SOL     OW22669   6.071   5.319   2.338
 7257SOL    HW122670   6.027   5.245   2.389
 7257SOL    HW222671   6.137   5.365   2.396
 7258SOL     OW22672   2.802   0.560   6.438
 7258SOL    HW122673   2.704   0.558   6.418
 7258SOL    HW222674   2.848   0.625   6.377
 7259SOL     OW22675   3.315   4.259   5.928
 7259SOL    HW122676   3.304   4.338   5.988
 7259SOL    HW222677   3.364   4.286   5.845
 7260SOL     OW22678   4.376   2.287   2.388
 7260SOL    HW122679   4.326   2.205   2.417
 7260SOL    HW222680   4.342   2.316   2.298
 7261SOL     OW22681   2.313   4.738   1.361
 7261SOL    HW122682   2.352   4.743   1.453
 7261SOL    HW222683   2.384   4.713   1.296
 7262SOL     OW22684   5.787   0.330   4.944
 7262SOL    HW122685   5.744   0.345   4.854
 7262SOL    HW222686   5.883   0.357   4.940
 7263SOL     OW22687   5.075   4.941   1.069
 7263SOL    HW122688   5.110   4.880   1.140
 7263SOL    HW222689   4.976   4.937   1.068
 7264SOL     OW22690   0.200   6.893   4.659
 7264SOL    HW122691   0.112   6.851   4.681
 7264SOL    HW222692   0.274   6.837   4.697
 7265SOL     OW22693   4.721   2.836   6.755
 7265SOL    HW122694   4.628   2.837   6.790
 7265SOL    HW222695   4.773   2.763   6.799
 7266SOL     OW22696   4.171   1.592   2.991
 7266SOL    HW122697   4.268   1.568   2.982
 7266SOL    HW222698   4.163   1.689   3.014
 7267SOL     OW22699   4.848   1.829   3.880
 7267SOL    HW122700   4.760   1.802   3.841
 7267SOL    HW222701   4.857   1.929   3.876
 7268SOL     OW22702   4.082   6.034   6.883
 7268SOL    HW122703   4.022   6.099   6.928
 7268SOL    HW222704   4.137   5.986   6.951
 7269SOL     OW22705   1.791   6.930   2.985
 7269SOL    HW122706   1.778   7.007   3.047
 7269SOL    HW222707   1.741   6.945   2.900
 7270SOL     OW22708   3.319   2.560   1.741
 7270SOL    HW122709   3.346   2.608   1.658
 7270SOL    HW222710   3.348   2.464   1.735
 7271SOL     OW22711   5.685   5.702   3.726
 7271SOL    HW122712   5.596   5.706   3.680
 7271SOL    HW222713   5.744   5.775   3.691
 7272SOL     OW22714   5.693   1.248   1.866
 7272SOL    HW122715   5.719   1.155   1.843
 7272SOL    HW222716   5.655   1.251   1.959
 7273SOL     OW22717   6.144   5.309   4.851
 7273SOL    HW122718   6.195   5.278   4.932
 7273SOL    HW222719   6.199   5.294   4.769
 7274SOL     OW22720   5.697   4.777   3.706
 7274SOL    HW122721   5.696   4.843   3.780
 7274SOL    HW222722   5.792   4.755   3.682
 7275SOL     OW22723   5.918   0.109   2.472
 7275SOL    HW122724   5.921   0.099   2.373
 7275SOL    HW222725   6.009   0.096   2.510
 7276SOL     OW22726   4.163   1.867   3.069
 7276SOL    HW122727   4.065   1.889   3.072
 7276SOL    HW222728   4.216   1.951   3.056
 7277SOL     OW22729   5.831   2.587   3.784
 7277SOL    HW122730   5.858   2.570   3.689
 7277SOL    HW222731   5.903   2.637   3.831
 7278SOL     OW22732   3.862   1.455   3.171
 7278SOL    HW122733   3.921   1.533   3.150
 7278SOL    HW222734   3.795   1.443   3.098
 7279SOL     OW22735   3.635   3.766   1.874
 7279SOL    HW122736   3.717   3.764   1.931
 7279SOL    HW222737   3.554   3.769   1.933
 7280SOL     OW22738   6.665   1.518   5.783
 7280SOL    HW122739   6.717   1.461   5.719
 7280SOL    HW222740   6.679   1.484   5.876
 7281SOL     OW22741   3.737   6.767   3.813
 7281SOL    HW122742   3.800   6.833   3.772
 7281SOL    HW222743   3.710   6.798   3.904
 7282SOL     OW22744   0.890   3.718   1.279
 7282SOL    HW122745   0.842   3.630   1.275
 7282SOL    HW222746   0.943   3.731   1.196
 7283SOL     OW22747   2.882   6.031   2.787
 7283SOL    HW122748   2.897   6.085   2.871
 7283SOL    HW222749   2.828   5.950   2.809
 7284SOL     OW22750   0.782   0.480   4.094
 7284SOL    HW122751   0.709   0.547   4.107
 7284SOL    HW222752   0.801   0.434   4.180
 7285SOL     OW22753   4.904   2.445   2.121
 7285SOL    HW122754   4.846   2.509   2.071
 7285SOL    HW222755   4.856   2.358   2.131
 7286SOL     OW22756   6.573   1.405   4.749
 7286SOL    HW122757   6.592   1.308   4.767
 7286SOL    HW222758   6.484   1.414   4.705
 7287SOL     OW22759   3.646   1.490   4.579
 7287SOL    HW122760   3.595   1.407   4.557
 7287SOL    HW222761   3.641   1.553   4.502
 7288SOL     OW22762   2.935   1.823   1.355
 7288SOL    HW122763   2.895   1.913   1.368
 7288SOL    HW222764   2.939   1.802   1.257
 7289SOL     OW22765   6.684   2.405   1.099
 7289SOL    HW122766   6.766   2.348   1.107
 7289SOL    HW222767   6.709   2.494   1.060
 7290SOL     OW22768   3.287   2.054   5.018
 7290SOL    HW122769   3.257   2.139   5.061
 7290SOL    HW222770   3.228   2.034   4.940
 7291SOL     OW22771   0.916   1.063   0.469
 7291SOL    HW122772   0.937   1.097   0.378
 7291SOL    HW222773   1.001   1.041   0.517
 7292SOL     OW22774   3.562   1.288   2.536
 7292SOL    HW122775   3.641   1.345   2.558
 7292SOL    HW222776   3.587   1.222   2.466
 7293SOL     OW22777   6.398   1.245   4.192
 7293SOL    HW122778   6.335   1.252   4.269
 7293SOL    HW222779   6.365   1.302   4.116
 7294SOL     OW22780   2.352   1.307   2.719
 7294SOL    HW122781   2.356   1.212   2.688
 7294SOL    HW222782   2.261   1.345   2.700
 7295SOL     OW22783   5.254   4.506   1.322
 7295SOL    HW122784   5.280   4.483   1.228
 7295SOL    HW222785   5.195   4.435   1.359
 7296SOL     OW22786   3.231   0.463   2.796
 7296SOL    HW122787   3.197   0.482   2.703
 7296SOL    HW222788   3.214   0.367   2.818
 7297SOL     OW22789   4.325   0.067   6.929
 7297SOL    HW122790   4.226   0.053   6.922
 7297SOL    HW222791   4.343   0.164   6.945
 7298SOL     OW22792   4.112   4.549   0.854
 7298SOL    HW122793   4.091   4.539   0.951
 7298SOL    HW222794   4.101   4.461   0.808
 7299SOL     OW22795   0.060   3.212   6.981
 7299SOL    HW122796   0.113   3.233   0.045
 7299SOL    HW222797   0.119   3.170   6.912
 7300SOL     OW22798   0.592   4.077   1.907
 7300SOL    HW122799   0.683   4.068   1.948
 7300SOL    HW222800   0.554   3.985   1.892
 7301SOL     OW22801   3.600   2.044   0.603
 7301SOL    HW122802   3.591   2.122   0.541
 7301SOL    HW222803   3.696   2.016   0.609
 7302SOL     OW22804   5.624   1.659   6.812
 7302SOL    HW122805   5.545   1.701   6.856
 7302SOL    HW222806   5.704   1.719   6.820
 7303SOL     OW22807   3.971   2.382   0.985
 7303SOL    HW122808   4.062   2.424   0.994
 7303SOL    HW222809   3.959   2.312   1.055
 7304SOL     OW22810   3.151   0.132   0.614
 7304SOL    HW122811   3.196   0.177   0.537
 7304SOL    HW222812   3.094   0.198   0.663
 7305SOL     OW22813   6.708   0.375   6.369
 7305SOL    HW122814   6.770   0.453   6.363
 7305SOL    HW222815   6.682   0.362   6.465
 7306SOL     OW22816   2.219   3.326   1.116
 7306SOL    HW122817   2.232   3.237   1.074
 7306SOL    HW222818   2.281   3.336   1.194
 7307SOL     OW22819   4.306   6.408   1.501
 7307SOL    HW122820   4.242   6.481   1.480
 7307SOL    HW222821   4.256   6.324   1.520
 7308SOL     OW22822   3.630   2.144   2.979
 7308SOL    HW122823   3.633   2.159   2.880
 7308SOL    HW222824   3.721   2.117   3.012
 7309SOL     OW22825   2.579   5.018   3.496
 7309SOL    HW122826   2.527   4.969   3.565
 7309SOL    HW222827   2.516   5.062   3.431
 7310SOL     OW22828   4.891   2.823   0.347
 7310SOL    HW122829   4.892   2.731   0.386
 7310SOL    HW222830   4.934   2.821   0.257
 7311SOL     OW22831   1.443   6.380   5.551
 7311SOL    HW122832   1.505   6.422   5.617
 7311SOL    HW222833   1.365   6.441   5.535
 7312SOL     OW22834   5.652   1.976   4.366
 7312SOL    HW122835   5.750   1.980   4.388
 7312SOL    HW222836   5.637   2.017   4.276
 7313SOL     OW22837   3.455   1.053   3.449
 7313SOL    HW122838   3.445   1.092   3.357
 7313SOL    HW222839   3.543   1.006   3.456
 7314SOL     OW22840   2.427   5.726   4.776
 7314SOL    HW122841   2.386   5.795   4.835
 7314SOL    HW222842   2.518   5.756   4.748
 7315SOL     OW22843   2.520   4.802   2.473
 7315SOL    HW122844   2.527   4.852   2.559
 7315SOL    HW222845   2.610   4.771   2.445
 7316SOL     OW22846   3.530   0.963   2.541
 7316SOL    HW122847   3.623   0.971   2.575
 7316SOL    HW222848   3.474   1.037   2.578
 7317SOL     OW22849   5.956   1.743   1.581
 7317SOL    HW122850   5.925   1.815   1.519
 7317SOL    HW222851   5.900   1.744   1.664
 7318SOL     OW22852   4.807   6.682   1.689
 7318SOL    HW122853   4.781   6.593   1.651
 7318SOL    HW222854   4.898   6.675   1.729
 7319SOL     OW22855   4.689   5.300   5.818
 7319SOL    HW122856   4.780   5.317   5.782
 7319SOL    HW222857   4.695   5.258   5.908
 7320SOL     OW22858   1.585   3.279   0.552
 7320SOL    HW122859   1.519   3.206   0.534
 7320SOL    HW222860   1.542   3.349   0.608
 7321SOL     OW22861   2.085   1.992   5.264
 7321SOL    HW122862   2.065   2.064   5.330
 7321SOL    HW222863   2.176   2.005   5.226
 7322SOL     OW22864   2.666   2.272   3.970
 7322SOL    HW122865   2.716   2.269   4.057
 7322SOL    HW222866   2.572   2.300   3.988
 7323SOL     OW22867   2.386   1.772   0.060
 7323SOL    HW122868   2.376   1.838   7.002
 7323SOL    HW222869   2.331   1.691   0.041
 7324SOL     OW22870   5.421   3.913   5.080
 7324SOL    HW122871   5.330   3.902   5.039
 7324SOL    HW222872   5.489   3.866   5.024
 7325SOL     OW22873   3.398   0.885   6.664
 7325SOL    HW122874   3.457   0.868   6.743
 7325SOL    HW222875   3.319   0.940   6.692
 7326SOL     OW22876   3.629   6.698   0.185
 7326SOL    HW122877   3.603   6.789   0.153
 7326SOL    HW222878   3.728   6.686   0.175
 7327SOL     OW22879   1.937   4.540   3.040
 7327SOL    HW122880   1.902   4.477   3.110
 7327SOL    HW222881   1.868   4.610   3.022
 7328SOL     OW22882   3.846   5.538   6.870
 7328SOL    HW122883   3.845   5.440   6.851
 7328SOL    HW222884   3.876   5.588   6.788
 7329SOL     OW22885   2.705   4.009   6.477
 7329SOL    HW122886   2.614   3.986   6.512
 7329SOL    HW222887   2.737   3.937   6.415
 7330SOL     OW22888   2.403   3.586   1.544
 7330SOL    HW122889   2.407   3.537   1.631
 7330SOL    HW222890   2.445   3.676   1.555
 7331SOL     OW22891   5.484   1.390   2.570
 7331SOL    HW122892   5.554   1.447   2.614
 7331SOL    HW222893   5.396   1.438   2.573
 7332SOL     OW22894   1.717   6.899   5.016
 7332SOL    HW122895   1.658   6.979   5.032
 7332SOL    HW222896   1.694   6.858   4.928
 7333SOL     OW22897   6.358   1.736   1.980
 7333SOL    HW122898   6.298   1.679   1.925
 7333SOL    HW222899   6.307   1.817   2.012
 7334SOL     OW22900   0.925   5.092   5.164
 7334SOL    HW122901   1.014   5.129   5.136
 7334SOL    HW222902   0.892   5.028   5.095
 7335SOL     OW22903   6.489   2.820   1.795
 7335SOL    HW122904   6.404   2.857   1.757
 7335SOL    HW222905   6.535   2.891   1.848
 7336SOL     OW22906   2.811   0.098   1.158
 7336SOL    HW122907   2.763   0.100   1.070
 7336SOL    HW222908   2.775   0.023   1.214
 7337SOL     OW22909   3.211   1.698   2.283
 7337SOL    HW122910   3.155   1.742   2.213
 7337SOL    HW222911   3.303   1.681   2.248
 7338SOL     OW22912   5.300   2.631   0.379
 7338SOL    HW122913   5.211   2.650   0.337
 7338SOL    HW222914   5.342   2.552   0.333
 7339SOL     OW22915   0.071   0.042   3.728
 7339SOL    HW122916   0.082   6.990   3.799
 7339SOL    HW222917   6.992   0.057   3.711
 7340SOL     OW22918   3.230   0.302   0.306
 7340SOL    HW122919   3.165   0.237   0.268
 7340SOL    HW222920   3.303   0.319   0.240
 7341SOL     OW22921   6.358   5.062   3.022
 7341SOL    HW122922   6.332   5.015   3.106
 7341SOL    HW222923   6.291   5.040   2.950
 7342SOL     OW22924   6.930   4.933   6.718
 7342SOL    HW122925   6.859   5.002   6.727
 7342SOL    HW222926   7.011   4.974   6.676
 7343SOL     OW22927   0.582   1.794   3.246
 7343SOL    HW122928   0.558   1.731   3.320
 7343SOL    HW222929   0.538   1.882   3.260
 7344SOL     OW22930   1.711   1.771   5.951
 7344SOL    HW122931   1.774   1.737   5.881
 7344SOL    HW222932   1.702   1.870   5.941
 7345SOL     OW22933   1.187   6.715   7.004
 7345SOL    HW122934   1.162   6.810   0.004
 7345SOL    HW222935   1.177   6.696   6.906
 7346SOL     OW22936   3.977   5.422   2.756
 7346SOL    HW122937   3.884   5.398   2.729
 7346SOL    HW222938   3.975   5.490   2.829
 7347SOL     OW22939   5.601   2.793   3.473
 7347SOL    HW122940   5.630   2.863   3.538
 7347SOL    HW222941   5.557   2.718   3.523
 7348SOL     OW22942   5.453   0.177   6.234
 7348SOL    HW122943   5.504   0.234   6.169
 7348SOL    HW222944   5.477   0.081   6.220
 7349SOL     OW22945   3.828   2.314   1.402
 7349SOL    HW122946   3.793   2.267   1.483
 7349SOL    HW222947   3.801   2.410   1.406
 7350SOL     OW22948   1.723   1.581   2.571
 7350SOL    HW122949   1.777   1.662   2.549
 7350SOL    HW222950   1.664   1.601   2.650
 7351SOL     OW22951   6.147   4.891   0.270
 7351SOL    HW122952   6.166   4.977   0.221
 7351SOL    HW222953   6.062   4.852   0.235
 7352SOL     OW22954   6.675   1.420   2.960
 7352SOL    HW122955   6.687   1.446   3.056
 7352SOL    HW222956   6.683   1.502   2.903
 7353SOL     OW22957   5.611   1.405   4.786
 7353SOL    HW122958   5.666   1.380   4.705
 7353SOL    HW222959   5.655   1.482   4.832
 7354SOL     OW22960   5.480   4.527   5.465
 7354SOL    HW122961   5.546   4.579   5.518
 7354SOL    HW222962   5.524   4.492   5.382
 7355SOL     OW22963   6.917   5.741   0.394
 7355SOL    HW122964   7.003   5.698   0.420
 7355SOL    HW222965   6.933   5.837   0.371
 7356SOL     OW22966   0.020   2.204   6.420
 7356SOL    HW122967   6.982   2.123   6.437
 7356SOL    HW222968   7.001   2.254   6.342
 7357SOL     OW22969   0.556   0.893   0.908
 7357SOL    HW122970   0.512   0.803   0.915
 7357SOL    HW222971   0.548   0.926   0.814
 7358SOL     OW22972   3.458   1.383   3.684
 7358SOL    HW122973   3.389   1.455   3.673
 7358SOL    HW222974   3.419   1.309   3.739
 7359SOL     OW22975   3.194   3.706   4.058
 7359SOL    HW122976   3.209   3.722   4.155
 7359SOL    HW222977   3.113   3.756   4.027
 7360SOL     OW22978   1.590   4.403   5.884
 7360SOL    HW122979   1.505   4.363   5.850
 7360SOL    HW222980   1.583   4.503   5.881
 7361SOL     OW22981   4.497   0.382   1.712
 7361SOL    HW122982   4.555   0.392   1.631
 7361SOL    HW222983   4.412   0.335   1.686
 7362SOL     OW22984   1.121   5.024   0.173
 7362SOL    HW122985   1.211   5.017   0.217
 7362SOL    HW222986   1.096   5.121   0.166
 7363SOL     OW22987   5.016   2.325   5.965
 7363SOL    HW122988   5.031   2.340   5.867
 7363SOL    HW222989   5.046   2.233   5.989
 7364SOL     OW22990   5.155   6.886   0.498
 7364SOL    HW122991   5.149   6.792   0.530
 7364SOL    HW222992   5.218   6.938   0.556
 7365SOL     OW22993   4.945   0.046   1.709
 7365SOL    HW122994   4.930   6.991   1.642
 7365SOL    HW222995   4.957   0.005   1.800
 7366SOL     OW22996   3.075   6.903   0.660
 7366SOL    HW122997   3.126   6.824   0.625
 7366SOL    HW222998   3.102   6.984   0.610
 7367SOL     OW22999   4.529   3.028   5.812
 7367SOL    HW123000   4.505   3.055   5.905
 7367SOL    HW223001   4.454   3.051   5.750
 7368SOL     OW23002   3.252   2.868   5.001
 7368SOL    HW123003   3.185   2.940   5.018
 7368SOL    HW223004   3.205   2.781   4.986
 7369SOL     OW23005   0.110   6.537   6.346
 7369SOL    HW123006   0.155   6.568   6.429
 7369SOL    HW223007   0.151   6.583   6.267
 7370SOL     OW23008   0.316   5.835   1.014
 7370SOL    HW123009   0.269   5.913   0.971
 7370SOL    HW223010   0.278   5.750   0.978
 7371SOL     OW23011   2.297   4.803   3.467
 7371SOL    HW123012   2.339   4.751   3.541
 7371SOL    HW223013   2.257   4.887   3.504
 7372SOL     OW23014   2.535   0.007   5.172
 7372SOL    HW123015   2.452   7.017   5.227
 7372SOL    HW223016   2.613   6.993   5.226
 7373SOL     OW23017   3.869   1.486   1.045
 7373SOL    HW123018   3.850   1.536   0.961
 7373SOL    HW223019   3.856   1.546   1.123
 7374SOL     OW23020   2.474   3.575   0.591
 7374SOL    HW123021   2.409   3.543   0.660
 7374SOL    HW223022   2.558   3.522   0.597
 7375SOL     OW23023   2.108   5.533   2.701
 7375SOL    HW123024   2.142   5.534   2.795
 7375SOL    HW223025   2.175   5.577   2.641
 7376SOL     OW23026   3.637   4.553   0.204
 7376SOL    HW123027   3.719   4.604   0.177
 7376SOL    HW223028   3.641   4.461   0.165
 7377SOL     OW23029   5.261   5.822   1.438
 7377SOL    HW123030   5.270   5.791   1.533
 7377SOL    HW223031   5.187   5.889   1.432
 7378SOL     OW23032   0.933   1.547   6.440
 7378SOL    HW123033   1.028   1.547   6.473
 7378SOL    HW223034   0.881   1.618   6.486
 7379SOL     OW23035   4.283   0.970   0.404
 7379SOL    HW123036   4.253   1.054   0.449
 7379SOL    HW223037   4.230   0.956   0.321
 7380SOL     OW23038   0.543   3.480   6.950
 7380SOL    HW123039   0.580   3.514   6.863
 7380SOL    HW223040   0.448   3.451   6.936
 7381SOL     OW23041   5.335   2.477   0.740
 7381SOL    HW123042   5.393   2.552   0.772
 7381SOL    HW223043   5.308   2.421   0.819
 7382SOL     OW23044   1.026   5.388   3.750
 7382SOL    HW123045   1.038   5.349   3.659
 7382SOL    HW223046   1.022   5.488   3.742
 7383SOL     OW23047   2.032   4.805   2.640
 7383SOL    HW123048   1.967   4.853   2.699
 7383SOL    HW223049   2.082   4.738   2.694
 7384SOL     OW23050   5.442   1.157   1.432
 7384SOL    HW123051   5.513   1.193   1.371
 7384SOL    HW223052   5.481   1.140   1.522
 7385SOL     OW23053   5.062   0.076   2.177
 7385SOL    HW123054   5.120   0.008   2.132
 7385SOL    HW223055   5.026   0.140   2.109
 7386SOL     OW23056   6.139   1.778   5.492
 7386SOL    HW123057   6.133   1.877   5.501
 7386SOL    HW223058   6.230   1.748   5.521
 7387SOL     OW23059   5.142   5.623   4.170
 7387SOL    HW123060   5.228   5.633   4.119
 7387SOL    HW223061   5.162   5.605   4.266
 7388SOL     OW23062   5.322   3.435   4.786
 7388SOL    HW123063   5.244   3.390   4.830
 7388SOL    HW223064   5.367   3.496   4.852
 7389SOL     OW23065   2.367   3.362   5.584
 7389SOL    HW123066   2.326   3.279   5.621
 7389SOL    HW223067   2.459   3.341   5.550
 7390SOL     OW23068   4.563   6.307   0.380
 7390SOL    HW123069   4.570   6.287   0.478
 7390SOL    HW223070   4.510   6.235   0.336
 7391SOL     OW23071   6.984   5.207   0.805
 7391SOL    HW123072   0.066   5.199   0.792
 7391SOL    HW223073   6.942   5.235   0.718
 7392SOL     OW23074   1.159   4.312   1.942
 7392SOL    HW123075   1.108   4.237   1.985
 7392SOL    HW223076   1.099   4.361   1.879
 7393SOL     OW23077   1.424   3.883   0.631
 7393SOL    HW123078   1.474   3.941   0.695
 7393SOL    HW223079   1.376   3.940   0.564
 7394SOL     OW23080   3.094   3.888   0.052
 7394SOL    HW123081   3.062   3.832   6.993
 7394SOL    HW223082   3.175   3.939   0.024
 7395SOL     OW23083   2.669   6.875   0.435
 7395SOL    HW123084   2.666   6.827   0.347
 7395SOL    HW223085   2.665   6.974   0.419
 7396SOL     OW23086   6.919   0.032   2.404
 7396SOL    HW123087   6.978   0.062   2.329
 7396SOL    HW223088   6.885   6.958   2.384
 7397SOL     OW23089   5.551   4.284   3.731
 7397SOL    HW123090   5.641   4.327   3.728
 7397SOL    HW223091   5.498   4.324   3.805
 7398SOL     OW23092   4.312   6.237   2.738
 7398SOL    HW123093   4.346   6.299   2.809
 7398SOL    HW223094   4.312   6.285   2.650
 7399SOL     OW23095   5.320   6.288   4.700
 7399SOL    HW123096   5.364   6.259   4.615
 7399SOL    HW223097   5.360   6.375   4.730
 7400SOL     OW23098   2.638   4.315   6.672
 7400SOL    HW123099   2.615   4.397   6.724
 7400SOL    HW223100   2.713   4.334   6.609
 7401SOL     OW23101   6.490   2.718   3.938
 7401SOL    HW123102   6.506   2.803   3.889
 7401SOL    HW223103   6.453   2.649   3.876
 7402SOL     OW23104   1.707   6.343   5.047
 7402SOL    HW123105   1.733   6.247   5.055
 7402SOL    HW223106   1.637   6.364   5.116
 7403SOL     OW23107   2.307   2.873   1.761
 7403SOL    HW123108   2.239   2.849   1.692
 7403SOL    HW223109   2.337   2.968   1.746
 7404SOL     OW23110   1.546   2.928   2.152
 7404SOL    HW123111   1.551   2.828   2.152
 7404SOL    HW223112   1.625   2.966   2.200
 7405SOL     OW23113   3.182   5.286   5.842
 7405SOL    HW123114   3.242   5.366   5.840
 7405SOL    HW223115   3.156   5.261   5.749
 7406SOL     OW23116   6.087   6.029   2.827
 7406SOL    HW123117   6.024   5.995   2.898
 7406SOL    HW223118   6.098   6.128   2.836
 7407SOL     OW23119   4.054   1.530   5.961
 7407SOL    HW123120   4.003   1.465   6.016
 7407SOL    HW223121   4.042   1.509   5.864
 7408SOL     OW23122   0.835   3.507   4.872
 7408SOL    HW123123   0.859   3.417   4.835
 7408SOL    HW223124   0.739   3.506   4.901
 7409SOL     OW23125   1.972   6.968   4.725
 7409SOL    HW123126   1.954   6.874   4.755
 7409SOL    HW223127   2.003   6.967   4.630
 7410SOL     OW23128   4.457   5.460   5.566
 7410SOL    HW123129   4.404   5.510   5.498
 7410SOL    HW223130   4.401   5.445   5.647
 7411SOL     OW23131   6.135   3.514   5.743
 7411SOL    HW123132   6.114   3.612   5.739
 7411SOL    HW223133   6.214   3.499   5.802
 7412SOL     OW23134   1.272   0.643   0.395
 7412SOL    HW123135   1.352   0.689   0.358
 7412SOL    HW223136   1.277   0.642   0.495
 7413SOL     OW23137   6.297   3.782   3.021
 7413SOL    HW123138   6.312   3.865   3.074
 7413SOL    HW223139   6.205   3.748   3.038
 7414SOL     OW23140   0.057   5.773   2.232
 7414SOL    HW123141   6.980   5.767   2.261
 7414SOL    HW223142   0.062   5.789   2.133
 7415SOL     OW23143   2.730   1.442   3.317
 7415SOL    HW123144   2.804   1.381   3.345
 7415SOL    HW223145   2.647   1.389   3.301
 7416SOL     OW23146   6.568   0.717   2.432
 7416SOL    HW123147   6.492   0.720   2.497
 7416SOL    HW223148   6.641   0.660   2.468
 7417SOL     OW23149   0.196   5.471   1.547
 7417SOL    HW123150   0.270   5.406   1.529
 7417SOL    HW223151   0.164   5.510   1.461
 7418SOL     OW23152   2.468   3.635   1.135
 7418SOL    HW123153   2.430   3.589   1.055
 7418SOL    HW223154   2.437   3.589   1.218
 7419SOL     OW23155   6.101   2.062   5.528
 7419SOL    HW123156   6.040   2.098   5.598
 7419SOL    HW223157   6.183   2.119   5.522
 7420SOL     OW23158   0.491   6.072   1.776
 7420SOL    HW123159   0.459   6.125   1.855
 7420SOL    HW223160   0.422   6.005   1.750
 7421SOL     OW23161   4.433   2.106   1.082
 7421SOL    HW123162   4.432   2.169   1.159
 7421SOL    HW223163   4.528   2.080   1.061
 7422SOL     OW23164   1.472   2.195   0.260
 7422SOL    HW123165   1.380   2.202   0.299
 7422SOL    HW223166   1.517   2.114   0.295
 7423SOL     OW23167   2.730   3.890   0.683
 7423SOL    HW123168   2.697   3.910   0.591
 7423SOL    HW223169   2.776   3.801   0.684
 7424SOL     OW23170   5.885   0.092   3.992
 7424SOL    HW123171   5.896   0.091   3.892
 7424SOL    HW223172   5.915   0.005   4.029
 7425SOL     OW23173   3.740   0.339   4.888
 7425SOL    HW123174   3.822   0.363   4.939
 7425SOL    HW223175   3.705   0.420   4.841
 7426SOL     OW23176   0.184   0.611   6.555
 7426SOL    HW123177   0.139   0.522   6.546
 7426SOL    HW223178   0.235   0.614   6.641
 7427SOL     OW23179   5.357   5.124   6.215
 7427SOL    HW123180   5.361   5.045   6.276
 7427SOL    HW223181   5.272   5.174   6.230
 7428SOL     OW23182   5.672   1.735   5.362
 7428SOL    HW123183   5.659   1.675   5.282
 7428SOL    HW223184   5.621   1.820   5.348
 7429SOL     OW23185   6.007   6.256   3.301
 7429SOL    HW123186   6.079   6.285   3.363
 7429SOL    HW223187   6.039   6.181   3.244
 7430SOL     OW23188   0.929   4.002   4.561
 7430SOL    HW123189   0.939   3.937   4.486
 7430SOL    HW223190   0.836   3.997   4.597
 7431SOL     OW23191   0.039   3.601   3.023
 7431SOL    HW123192   6.978   3.588   2.964
 7431SOL    HW223193   0.012   3.655   3.103
 7432SOL     OW23194   1.939   6.360   5.581
 7432SOL    HW123195   1.881   6.424   5.531
 7432SOL    HW223196   1.915   6.266   5.555
 7433SOL     OW23197   0.339   0.014   0.551
 7433SOL    HW123198   0.399   0.090   0.577
 7433SOL    HW223199   0.279   7.009   0.628
 7434SOL     OW23200   4.426   0.008   0.496
 7434SOL    HW123201   4.509   0.029   0.445
 7434SOL    HW223202   4.415   6.926   0.502
 7435SOL     OW23203   0.978   4.612   0.037
 7435SOL    HW123204   0.967   4.670   0.117
 7435SOL    HW223205   0.900   4.549   0.030
 7436SOL     OW23206   5.404   3.649   6.950
 7436SOL    HW123207   5.387   3.718   6.879
 7436SOL    HW223208   5.354   3.674   0.015
 7437SOL     OW23209   6.555   6.613   5.518
 7437SOL    HW123210   6.645   6.578   5.544
 7437SOL    HW223211   6.543   6.705   5.555
 7438SOL     OW23212   6.754   4.523   0.615
 7438SOL    HW123213   6.688   4.519   0.690
 7438SOL    HW223214   6.742   4.443   0.556
 7439SOL     OW23215   1.407   6.326   3.071
 7439SOL    HW123216   1.376   6.355   2.980
 7439SOL    HW223217   1.436   6.406   3.123
 7440SOL     OW23218   1.416   0.885   4.356
 7440SOL    HW123219   1.512   0.861   4.343
 7440SOL    HW223220   1.359   0.806   4.334
 7441SOL     OW23221   7.015   0.688   4.220
 7441SOL    HW123222   6.999   0.590   4.211
 7441SOL    HW223223   0.002   0.729   4.129
 7442SOL     OW23224   2.056   1.355   0.363
 7442SOL    HW123225   2.093   1.346   0.456
 7442SOL    HW223226   2.008   1.271   0.339
 7443SOL     OW23227   6.370   1.548   1.594
 7443SOL    HW123228   6.371   1.647   1.610
 7443SOL    HW223229   6.458   1.510   1.624
 7444SOL     OW23230   1.875   3.122   5.145
 7444SOL    HW123231   1.777   3.119   5.122
 7444SOL    HW223232   1.925   3.062   5.083
 7445SOL     OW23233   5.643   2.977   2.773
 7445SOL    HW123234   5.590   2.923   2.838
 7445SOL    HW223235   5.627   3.074   2.790
 7446SOL     OW23236   4.735   4.288   2.732
 7446SOL    HW123237   4.700   4.329   2.648
 7446SOL    HW223238   4.736   4.356   2.805
 7447SOL     OW23239   1.409   3.010   6.558
 7447SOL    HW123240   1.333   2.954   6.590
 7447SOL    HW223241   1.452   3.056   6.635
 7448SOL     OW23242   0.142   0.959   5.637
 7448SOL    HW123243   0.143   0.862   5.611
 7448SOL    HW223244   0.236   0.989   5.655
 7449SOL     OW23245   3.258   1.086   2.990
 7449SOL    HW123246   3.352   1.051   2.988
 7449SOL    HW223247   3.202   1.035   2.925
 7450SOL     OW23248   3.939   1.763   2.165
 7450SOL    HW123249   4.026   1.769   2.117
 7450SOL    HW223250   3.864   1.764   2.098
 7451SOL     OW23251   0.848   0.618   2.048
 7451SOL    HW123252   0.757   0.605   2.010
 7451SOL    HW223253   0.903   0.673   1.985
 7452SOL     OW23254   1.701   5.870   3.030
 7452SOL    HW123255   1.648   5.953   3.010
 7452SOL    HW223256   1.690   5.804   2.956
 7453SOL     OW23257   6.510   4.595   4.646
 7453SOL    HW123258   6.561   4.509   4.651
 7453SOL    HW223259   6.527   4.649   4.729
 7454SOL     OW23260   2.637   2.215   6.971
 7454SOL    HW123261   2.673   2.198   0.045
 7454SOL    HW223262   2.539   2.198   6.970
 7455SOL     OW23263   5.058   0.017   0.963
 7455SOL    HW123264   5.148   0.005   1.005
 7455SOL    HW223265   4.996   0.059   1.029
 7456SOL     OW23266   1.392   3.347   6.364
 7456SOL    HW123267   1.381   3.446   6.360
 7456SOL    HW223268   1.305   3.303   6.343
 7457SOL     OW23269   0.182   6.862   5.838
 7457SOL    HW123270   0.136   6.927   5.898
 7457SOL    HW223271   0.257   6.817   5.887
 7458SOL     OW23272   2.923   0.376   1.768
 7458SOL    HW123273   2.858   0.452   1.769
 7458SOL    HW223274   2.986   0.386   1.692
 7459SOL     OW23275   4.148   5.806   3.152
 7459SOL    HW123276   4.244   5.778   3.151
 7459SOL    HW223277   4.112   5.798   3.245
 7460SOL     OW23278   0.952   5.242   6.405
 7460SOL    HW123279   1.016   5.287   6.468
 7460SOL    HW223280   0.980   5.146   6.393
 7461SOL     OW23281   3.824   1.617   3.778
 7461SOL    HW123282   3.759   1.693   3.781
 7461SOL    HW223283   3.898   1.633   3.843
 7462SOL     OW23284   1.479   1.967   4.236
 7462SOL    HW123285   1.567   2.007   4.212
 7462SOL    HW223286   1.493   1.884   4.290
 7463SOL     OW23287   3.917   3.998   2.532
 7463SOL    HW123288   3.930   3.910   2.578
 7463SOL    HW223289   4.006   4.032   2.500
 7464SOL     OW23290   4.725   5.999   0.250
 7464SOL    HW123291   4.814   6.007   0.205
 7464SOL    HW223292   4.733   6.025   0.346
 7465SOL     OW23293   3.166   1.522   2.932
 7465SOL    HW123294   3.163   1.622   2.923
 7465SOL    HW223295   3.106   1.481   2.863
 7466SOL     OW23296   6.993   6.622   0.699
 7466SOL    HW123297   0.062   6.660   0.667
 7466SOL    HW223298   6.921   6.643   0.632
 7467SOL     OW23299   4.402   2.440   1.071
 7467SOL    HW123300   4.464   2.400   1.003
 7467SOL    HW223301   4.424   2.404   1.161
 7468SOL     OW23302   4.754   4.624   4.489
 7468SOL    HW123303   4.680   4.584   4.543
 7468SOL    HW223304   4.738   4.722   4.479
 7469SOL     OW23305   5.272   2.042   1.054
 7469SOL    HW123306   5.303   1.948   1.041
 7469SOL    HW223307   5.309   2.077   1.140
 7470SOL     OW23308   0.711   3.600   3.387
 7470SOL    HW123309   0.724   3.667   3.313
 7470SOL    HW223310   0.771   3.522   3.373
 7471SOL     OW23311   6.694   4.245   5.382
 7471SOL    HW123312   6.640   4.228   5.299
 7471SOL    HW223313   6.767   4.176   5.388
 7472SOL     OW23314   4.796   5.815   2.674
 7472SOL    HW123315   4.885   5.856   2.655
 7472SOL    HW223316   4.800   5.766   2.761
 7473SOL     OW23317   1.706   2.303   6.308
 7473SOL    HW123318   1.700   2.217   6.359
 7473SOL    HW223319   1.617   2.346   6.306
 7474SOL     OW23320   2.762   1.224   2.139
 7474SOL    HW123321   2.685   1.225   2.203
 7474SOL    HW223322   2.728   1.241   2.047
 7475SOL     OW23323   5.189   1.125   6.396
 7475SOL    HW123324   5.257   1.059   6.363
 7475SOL    HW223325   5.168   1.107   6.492
 7476SOL     OW23326   1.608   6.458   4.645
 7476SOL    HW123327   1.534   6.396   4.668
 7476SOL    HW223328   1.695   6.408   4.644
 7477SOL     OW23329   4.572   4.500   4.894
 7477SOL    HW123330   4.491   4.508   4.951
 7477SOL    HW223331   4.653   4.527   4.947
 7478SOL     OW23332   0.147   4.605   1.244
 7478SOL    HW123333   0.120   4.701   1.238
 7478SOL    HW223334   0.085   4.550   1.189
 7479SOL     OW23335   3.534   0.196   4.666
 7479SOL    HW123336   3.628   0.172   4.642
 7479SOL    HW223337   3.517   0.170   4.761
 7480SOL     OW23338   5.754   4.997   6.940
 7480SOL    HW123339   5.708   4.918   6.899
 7480SOL    HW223340   5.805   5.047   6.870
 7481SOL     OW23341   5.764   6.284   0.642
 7481SOL    HW123342   5.843   6.336   0.671
 7481SOL    HW223343   5.734   6.316   0.552
 7482SOL     OW23344   4.689   0.360   5.343
 7482SOL    HW123345   4.601   0.311   5.338
 7482SOL    HW223346   4.756   0.313   5.286
 7483SOL     OW23347   3.793   0.156   6.967
 7483SOL    HW123348   3.865   0.221   6.942
 7483SOL    HW223349   3.831   0.087   0.011
 7484SOL     OW23350   3.141   6.433   1.263
 7484SOL    HW123351   3.227   6.383   1.258
 7484SOL    HW223352   3.158   6.530   1.246
 7485SOL     OW23353   1.099   0.033   5.345
 7485SOL    HW123354   1.033   0.052   5.273
 7485SOL    HW223355   1.190   0.021   5.305
 7486SOL     OW23356   1.519   2.137   5.062
 7486SOL    HW123357   1.536   2.140   4.964
 7486SOL    HW223358   1.429   2.176   5.082
 7487SOL     OW23359   2.547   5.750   2.383
 7487SOL    HW123360   2.633   5.701   2.385
 7487SOL    HW223361   2.487   5.711   2.314
 7488SOL     OW23362   4.496   2.052   4.743
 7488SOL    HW123363   4.575   2.101   4.781
 7488SOL    HW223364   4.412   2.097   4.774
 7489SOL     OW23365   1.174   3.368   3.434
 7489SOL    HW123366   1.091   3.319   3.460
 7489SOL    HW223367   1.171   3.461   3.472
 7490SOL     OW23368   5.727   0.558   2.285
 7490SOL    HW123369   5.645   0.537   2.231
 7490SOL    HW223370   5.700   0.580   2.379
 7491SOL     OW23371   0.711   0.177   0.973
 7491SOL    HW123372   0.684   0.191   0.878
 7491SOL    HW223373   0.668   0.248   1.030
 7492SOL     OW23374   1.248   2.416   2.826
 7492SOL    HW123375   1.238   2.341   2.760
 7492SOL    HW223376   1.324   2.474   2.798
 7493SOL     OW23377   5.864   4.368   6.850
 7493SOL    HW123378   5.781   4.317   6.874
 7493SOL    HW223379   5.922   4.377   6.931
 7494SOL     OW23380   4.913   2.121   1.372
 7494SOL    HW123381   4.872   2.180   1.303
 7494SOL    HW223382   4.875   2.145   1.462
 7495SOL     OW23383   1.645   1.640   3.543
 7495SOL    HW123384   1.612   1.733   3.531
 7495SOL    HW223385   1.590   1.578   3.487
 7496SOL     OW23386   0.437   5.171   5.984
 7496SOL    HW123387   0.421   5.266   5.956
 7496SOL    HW223388   0.450   5.167   6.083
 7497SOL     OW23389   0.457   4.163   2.840
 7497SOL    HW123390   0.475   4.246   2.786
 7497SOL    HW223391   0.361   4.138   2.833
 7498SOL     OW23392   5.258   1.987   4.102
 7498SOL    HW123393   5.236   2.029   4.014
 7498SOL    HW223394   5.176   1.983   4.159
 7499SOL     OW23395   3.795   5.301   3.380
 7499SOL    HW123396   3.707   5.286   3.424
 7499SOL    HW223397   3.859   5.230   3.408
 7500SOL     OW23398   4.826   3.922   1.721
 7500SOL    HW123399   4.912   3.929   1.671
 7500SOL    HW223400   4.794   4.013   1.746
 7501SOL     OW23401   1.085   4.063   3.387
 7501SOL    HW123402   1.152   4.081   3.459
 7501SOL    HW223403   1.126   4.005   3.317
 7502SOL     OW23404   1.398   1.754   4.560
 7502SOL    HW123405   1.383   1.701   4.477
 7502SOL    HW223406   1.427   1.694   4.634
 7503SOL     OW23407   2.145   2.107   0.103
 7503SOL    HW123408   2.103   2.168   0.171
 7503SOL    HW223409   2.089   2.107   0.020
 7504SOL     OW23410   5.421   5.706   5.776
 7504SOL    HW123411   5.349   5.773   5.756
 7504SOL    HW223412   5.384   5.632   5.831
 7505SOL     OW23413   1.455   1.789   2.996
 7505SOL    HW123414   1.409   1.877   3.010
 7505SOL    HW223415   1.453   1.736   3.081
 7506SOL     OW23416   3.834   0.594   2.933
 7506SOL    HW123417   3.911   0.631   2.985
 7506SOL    HW223418   3.822   0.497   2.955
 7507SOL     OW23419   1.802   6.946   5.503
 7507SOL    HW123420   1.860   6.993   5.436
 7507SOL    HW223421   1.771   7.012   5.572
 7508SOL     OW23422   5.137   6.086   3.168
 7508SOL    HW123423   5.149   6.185   3.175
 7508SOL    HW223424   5.084   6.064   3.086
 7509SOL     OW23425   3.097   4.457   6.278
 7509SOL    HW123426   3.083   4.363   6.245
 7509SOL    HW223427   3.061   4.465   6.370
 7510SOL     OW23428   4.065   3.300   5.006
 7510SOL    HW123429   4.069   3.280   4.908
 7510SOL    HW223430   4.069   3.398   5.020
 7511SOL     OW23431   1.370   1.141   2.402
 7511SOL    HW123432   1.438   1.092   2.456
 7511SOL    HW223433   1.405   1.155   2.310
 7512SOL     OW23434   2.182   2.378   2.401
 7512SOL    HW123435   2.247   2.445   2.437
 7512SOL    HW223436   2.129   2.419   2.327
 7513SOL     OW23437   2.348   2.679   6.933
 7513SOL    HW123438   2.439   2.645   6.910
 7513SOL    HW223439   2.356   2.772   6.971
 7514SOL     OW23440   2.994   5.095   3.003
 7514SOL    HW123441   3.007   5.176   3.061
 7514SOL    HW223442   2.911   5.106   2.949
 7515SOL     OW23443   0.101   4.847   3.096
 7515SOL    HW123444   0.191   4.890   3.093
 7515SOL    HW223445   0.052   4.878   3.177
 7516SOL     OW23446   1.876   3.686   1.310
 7516SOL    HW123447   1.968   3.654   1.289
 7516SOL    HW223448   1.852   3.661   1.404
 7517SOL     OW23449   1.373   4.802   1.959
 7517SOL    HW123450   1.373   4.754   1.872
 7517SOL    HW223451   1.379   4.735   2.034
 7518SOL     OW23452   5.281   4.099   2.122
 7518SOL    HW123453   5.237   4.023   2.171
 7518SOL    HW223454   5.379   4.098   2.141
 7519SOL     OW23455   1.870   0.577   4.902
 7519SOL    HW123456   1.859   0.645   4.974
 7519SOL    HW223457   1.810   0.499   4.920
 7520SOL     OW23458   1.997   0.218   4.546
 7520SOL    HW123459   1.960   0.309   4.564
 7520SOL    HW223460   1.924   0.158   4.515
 7521SOL     OW23461   4.278   2.578   5.762
 7521SOL    HW123462   4.230   2.665   5.750
 7521SOL    HW223463   4.364   2.580   5.710
 7522SOL     OW23464   1.942   6.470   2.468
 7522SOL    HW123465   2.024   6.523   2.488
 7522SOL    HW223466   1.956   6.375   2.495
 7523SOL     OW23467   6.253   6.574   6.233
 7523SOL    HW123468   6.203   6.513   6.294
 7523SOL    HW223469   6.350   6.570   6.255
 7524SOL     OW23470   6.614   1.756   5.665
 7524SOL    HW123471   6.686   1.767   5.596
 7524SOL    HW223472   6.629   1.671   5.716
 7525SOL     OW23473   6.921   6.799   0.475
 7525SOL    HW123474   7.015   6.769   0.487
 7525SOL    HW223475   6.911   6.894   0.506
 7526SOL     OW23476   3.929   3.026   5.461
 7526SOL    HW123477   3.849   3.037   5.402
 7526SOL    HW223478   3.978   2.943   5.435
 7527SOL     OW23479   2.576   6.624   1.555
 7527SOL    HW123480   2.652   6.567   1.584
 7527SOL    HW223481   2.593   6.658   1.462
 7528SOL     OW23482   6.387   2.789   0.057
 7528SOL    HW123483   6.415   2.796   6.979
 7528SOL    HW223484   6.355   2.878   0.090
 7529SOL     OW23485   1.775   0.114   4.185
 7529SOL    HW123486   1.692   0.109   4.130
 7529SOL    HW223487   1.843   0.170   4.138
 7530SOL     OW23488   0.265   2.845   2.887
 7530SOL    HW123489   0.315   2.905   2.950
 7530SOL    HW223490   0.286   2.750   2.910
 7531SOL     OW23491   1.648   2.336   3.825
 7531SOL    HW123492   1.586   2.299   3.755
 7531SOL    HW223493   1.693   2.260   3.873
 7532SOL     OW23494   4.665   4.327   2.212
 7532SOL    HW123495   4.686   4.247   2.268
 7532SOL    HW223496   4.612   4.300   2.132
 7533SOL     OW23497   3.325   0.450   5.257
 7533SOL    HW123498   3.367   0.411   5.175
 7533SOL    HW223499   3.231   0.416   5.265
 7534SOL     OW23500   4.453   6.311   4.218
 7534SOL    HW123501   4.380   6.335   4.154
 7534SOL    HW223502   4.421   6.321   4.312
 7535SOL     OW23503   2.980   5.283   6.913
 7535SOL    HW123504   3.004   5.249   7.004
 7535SOL    HW223505   2.925   5.215   6.865
 7536SOL     OW23506   4.399   5.051   6.439
 7536SOL    HW123507   4.433   5.033   6.531
 7536SOL    HW223508   4.474   5.081   6.381
 7537SOL     OW23509   2.269   4.395   4.619
 7537SOL    HW123510   2.267   4.312   4.674
 7537SOL    HW223511   2.185   4.403   4.566
 7538SOL     OW23512   3.372   4.279   5.341
 7538SOL    HW123513   3.425   4.363   5.325
 7538SOL    HW223514   3.276   4.296   5.319
 7539SOL     OW23515   0.643   2.812   4.726
 7539SOL    HW123516   0.618   2.833   4.632
 7539SOL    HW223517   0.655   2.897   4.777
 7540SOL     OW23518   2.662   0.966   0.272
 7540SOL    HW123519   2.563   0.978   0.283
 7540SOL    HW223520   2.708   1.054   0.281
 7541SOL     OW23521   0.376   1.818   5.895
 7541SOL    HW123522   0.407   1.876   5.819
 7541SOL    HW223523   0.302   1.759   5.863
 7542SOL     OW23524   1.713   0.366   5.001
 7542SOL    HW123525   1.725   0.354   5.099
 7542SOL    HW223526   1.685   0.280   4.960
 7543SOL     OW23527   2.652   2.473   1.815
 7543SOL    HW123528   2.598   2.486   1.899
 7543SOL    HW223529   2.749   2.467   1.839
 7544SOL     OW23530   1.416   2.089   2.207
 7544SOL    HW123531   1.410   1.989   2.210
 7544SOL    HW223532   1.441   2.123   2.297
 7545SOL     OW23533   4.047   0.285   3.808
 7545SOL    HW123534   4.105   0.203   3.810
 7545SOL    HW223535   3.963   0.267   3.859
 7546SOL     OW23536   5.218   6.985   5.153
 7546SOL    HW123537   5.272   6.940   5.224
 7546SOL    HW223538   5.229   6.936   5.067
 7547SOL     OW23539   2.703   6.499   0.692
 7547SOL    HW123540   2.681   6.560   0.768
 7547SOL    HW223541   2.800   6.474   0.696
 7548SOL     OW23542   2.582   3.813   0.889
 7548SOL    HW123543   2.626   3.852   0.809
 7548SOL    HW223544   2.614   3.720   0.904
 7549SOL     OW23545   6.163   0.125   2.612
 7549SOL    HW123546   6.199   0.032   2.616
 7549SOL    HW223547   6.152   0.159   2.705
 7550SOL     OW23548   1.161   5.382   0.507
 7550SOL    HW123549   1.101   5.403   0.430
 7550SOL    HW223550   1.256   5.378   0.476
 7551SOL     OW23551   5.086   3.626   6.155
 7551SOL    HW123552   5.155   3.696   6.137
 7551SOL    HW223553   5.062   3.581   6.069
 7552SOL     OW23554   3.738   5.957   4.096
 7552SOL    HW123555   3.826   5.966   4.047
 7552SOL    HW223556   3.695   5.871   4.070
 7553SOL     OW23557   4.365   4.019   6.047
 7553SOL    HW123558   4.374   3.977   5.957
 7553SOL    HW223559   4.430   3.976   6.110
 7554SOL     OW23560   6.934   1.505   0.909
 7554SOL    HW123561   6.874   1.576   0.945
 7554SOL    HW223562   0.012   1.529   0.928
 7555SOL     OW23563   2.001   6.394   6.153
 7555SOL    HW123564   2.066   6.372   6.226
 7555SOL    HW223565   2.040   6.367   6.065
 7556SOL     OW23566   0.009   3.438   2.472
 7556SOL    HW123567   0.055   3.477   2.552
 7556SOL    HW223568   6.985   3.350   2.497
 7557SOL     OW23569   4.264   4.241   0.776
 7557SOL    HW123570   4.164   4.235   0.770
 7557SOL    HW223571   4.304   4.153   0.748
 7558SOL     OW23572   1.703   3.244   3.967
 7558SOL    HW123573   1.766   3.269   4.041
 7558SOL    HW223574   1.746   3.261   3.879
 7559SOL     OW23575   0.847   5.018   0.159
 7559SOL    HW123576   0.817   5.034   0.065
 7559SOL    HW223577   0.946   5.004   0.161
 7560SOL     OW23578   4.248   6.744   5.866
 7560SOL    HW123579   4.275   6.692   5.948
 7560SOL    HW223580   4.178   6.811   5.891
 7561SOL     OW23581   1.412   3.035   0.119
 7561SOL    HW123582   1.336   3.009   0.178
 7561SOL    HW223583   1.474   2.957   0.108
 7562SOL     OW23584   4.245   6.243   4.953
 7562SOL    HW123585   4.250   6.313   5.024
 7562SOL    HW223586   4.171   6.265   4.890
 7563SOL     OW23587   2.219   1.609   3.881
 7563SOL    HW123588   2.260   1.605   3.972
 7563SOL    HW223589   2.267   1.677   3.826
 7564SOL     OW23590   6.093   5.666   4.348
 7564SOL    HW123591   6.087   5.624   4.438
 7564SOL    HW223592   6.056   5.759   4.352
 7565SOL     OW23593   5.204   4.763   6.236
 7565SOL    HW123594   5.245   4.806   6.316
 7565SOL    HW223595   5.107   4.748   6.251
 7566SOL     OW23596   1.714   5.240   4.053
 7566SOL    HW123597   1.777   5.246   4.131
 7566SOL    HW223598   1.755   5.285   3.974
 7567SOL     OW23599   3.087   3.707   0.291
 7567SOL    HW123600   3.088   3.782   0.224
 7567SOL    HW223601   3.174   3.703   0.339
 7568SOL     OW23602   4.133   4.768   3.939
 7568SOL    HW123603   4.213   4.789   3.882
 7568SOL    HW223604   4.157   4.783   4.035
 7569SOL     OW23605   3.929   0.169   2.874
 7569SOL    HW123606   3.935   0.267   2.855
 7569SOL    HW223607   3.876   0.125   2.801
 7570SOL     OW23608   5.580   5.034   5.063
 7570SOL    HW123609   5.525   5.020   4.981
 7570SOL    HW223610   5.527   5.004   5.143
 7571SOL     OW23611   6.568   4.157   0.107
 7571SOL    HW123612   6.543   4.061   0.100
 7571SOL    HW223613   6.532   4.207   0.028
 7572SOL     OW23614   5.970   1.423   3.374
 7572SOL    HW123615   5.976   1.513   3.331
 7572SOL    HW223616   5.974   1.434   3.474
 7573SOL     OW23617   3.114   5.112   3.988
 7573SOL    HW123618   3.120   5.086   4.084
 7573SOL    HW223619   3.079   5.206   3.982
 7574SOL     OW23620   4.064   5.954   1.414
 7574SOL    HW123621   3.966   5.950   1.431
 7574SOL    HW223622   4.106   5.867   1.438
 7575SOL     OW23623   4.875   3.330   4.290
 7575SOL    HW123624   4.825   3.251   4.325
 7575SOL    HW223625   4.896   3.316   4.193
 7576SOL     OW23626   0.300   4.642   1.511
 7576SOL    HW123627   0.236   4.638   1.435
 7576SOL    HW223628   0.285   4.563   1.571
 7577SOL     OW23629   4.126   1.532   4.184
 7577SOL    HW123630   4.057   1.583   4.133
 7577SOL    HW223631   4.163   1.588   4.257
 7578SOL     OW23632   2.432   5.358   5.433
 7578SOL    HW123633   2.399   5.263   5.440
 7578SOL    HW223634   2.359   5.420   5.460
 7579SOL     OW23635   4.550   1.963   4.455
 7579SOL    HW123636   4.627   1.967   4.390
 7579SOL    HW223637   4.578   2.003   4.542
 7580SOL     OW23638   2.065   3.262   2.126
 7580SOL    HW123639   2.109   3.322   2.059
 7580SOL    HW223640   2.088   3.294   2.218
 7581SOL     OW23641   5.616   0.969   1.114
 7581SOL    HW123642   5.523   0.941   1.092
 7581SOL    HW223643   5.615   1.033   1.190
 7582SOL     OW23644   4.084   2.902   1.422
 7582SOL    HW123645   4.106   2.859   1.334
 7582SOL    HW223646   4.030   2.985   1.406
 7583SOL     OW23647   6.209   3.946   3.571
 7583SOL    HW123648   6.185   3.961   3.667
 7583SOL    HW223649   6.304   3.971   3.556
 7584SOL     OW23650   2.000   2.491   2.243
 7584SOL    HW123651   2.058   2.525   2.168
 7584SOL    HW223652   1.928   2.434   2.205
 7585SOL     OW23653   2.613   4.119   0.787
 7585SOL    HW123654   2.688   4.060   0.759
 7585SOL    HW223655   2.542   4.119   0.717
 7586SOL     OW23656   1.678   2.323   3.131
 7586SOL    HW123657   1.754   2.316   3.195
 7586SOL    HW223658   1.595   2.287   3.173
 7587SOL     OW23659   2.975   0.637   5.806
 7587SOL    HW123660   3.055   0.604   5.856
 7587SOL    HW223661   2.981   0.736   5.793
 7588SOL     OW23662   0.454   4.997   1.151
 7588SOL    HW123663   0.429   4.903   1.178
 7588SOL    HW223664   0.388   5.061   1.189
 7589SOL     OW23665   4.774   5.708   5.963
 7589SOL    HW123666   4.702   5.671   5.904
 7589SOL    HW223667   4.749   5.696   6.059
 7590SOL     OW23668   2.324   0.789   5.030
 7590SOL    HW123669   2.338   0.771   4.933
 7590SOL    HW223670   2.394   0.853   5.063
 7591SOL     OW23671   6.319   5.560   6.221
 7591SOL    HW123672   6.390   5.607   6.273
 7591SOL    HW223673   6.235   5.555   6.276
 7592SOL     OW23674   4.455   4.803   5.824
 7592SOL    HW123675   4.455   4.703   5.816
 7592SOL    HW223676   4.536   4.832   5.875
 7593SOL     OW23677   6.751   4.898   0.151
 7593SOL    HW123678   6.758   4.873   0.248
 7593SOL    HW223679   6.659   4.880   0.118
 7594SOL     OW23680   1.207   0.124   4.570
 7594SOL    HW123681   1.166   0.141   4.481
 7594SOL    HW223682   1.211   0.025   4.587
 7595SOL     OW23683   0.020   3.802   6.577
 7595SOL    HW123684   6.989   3.744   6.511
 7595SOL    HW223685   0.065   3.744   6.645
 7596SOL     OW23686   5.184   5.162   1.994
 7596SOL    HW123687   5.276   5.154   1.955
 7596SOL    HW223688   5.191   5.162   2.094
 7597SOL     OW23689   2.128   4.106   2.327
 7597SOL    HW123690   2.198   4.162   2.282
 7597SOL    HW223691   2.099   4.034   2.264
 7598SOL     OW23692   6.603   1.599   2.757
 7598SOL    HW123693   6.512   1.573   2.727
 7598SOL    HW223694   6.640   1.668   2.694
 7599SOL     OW23695   5.474   3.958   1.905
 7599SOL    HW123696   5.531   3.916   1.976
 7599SOL    HW223697   5.378   3.937   1.923
 7600SOL     OW23698   2.303   2.232   2.640
 7600SOL    HW123699   2.238   2.163   2.610
 7600SOL    HW223700   2.365   2.193   2.708
 7601SOL     OW23701   1.925   0.882   5.465
 7601SOL    HW123702   1.925   0.793   5.510
 7601SOL    HW223703   1.833   0.919   5.464
 7602SOL     OW23704   2.072   3.169   5.810
 7602SOL    HW123705   2.072   3.247   5.747
 7602SOL    HW223706   2.044   3.199   5.901
 7603SOL     OW23707   6.610   1.589   2.255
 7603SOL    HW123708   6.520   1.546   2.256
 7603SOL    HW223709   6.627   1.628   2.165
 7604SOL     OW23710   5.546   5.509   6.465
 7604SOL    HW123711   5.525   5.605   6.449
 7604SOL    HW223712   5.469   5.464   6.509
 7605SOL     OW23713   5.085   3.682   5.543
 7605SOL    HW123714   5.078   3.697   5.445
 7605SOL    HW223715   5.137   3.757   5.584
 7606SOL     OW23716   5.913   1.382   3.662
 7606SOL    HW123717   5.867   1.295   3.678
 7606SOL    HW223718   5.936   1.424   3.750
 7607SOL     OW23719   4.954   6.270   5.877
 7607SOL    HW123720   4.977   6.343   5.813
 7607SOL    HW223721   5.024   6.264   5.948
 7608SOL     OW23722   3.620   3.605   4.926
 7608SOL    HW123723   3.546   3.547   4.893
 7608SOL    HW223724   3.589   3.700   4.929
 7609SOL     OW23725   1.302   2.785   3.013
 7609SOL    HW123726   1.328   2.712   3.076
 7609SOL    HW223727   1.334   2.763   2.921
 7610SOL     OW23728   5.581   0.247   2.426
 7610SOL    HW123729   5.667   0.225   2.473
 7610SOL    HW223730   5.545   0.333   2.461
 7611SOL     OW23731   1.356   1.427   1.910
 7611SOL    HW123732   1.335   1.470   1.997
 7611SOL    HW223733   1.317   1.335   1.908
 7612SOL     OW23734   4.226   1.199   2.721
 7612SOL    HW123735   4.170   1.246   2.789
 7612SOL    HW223736   4.180   1.201   2.633
 7613SOL     OW23737   6.609   0.748   2.157
 7613SOL    HW123738   6.699   0.715   2.128
 7613SOL    HW223739   6.594   0.725   2.253
 7614SOL     OW23740   4.290   0.624   0.794
 7614SOL    HW123741   4.200   0.655   0.827
 7614SOL    HW223742   4.319   0.682   0.719
 7615SOL     OW23743   4.028   4.563   5.749
 7615SOL    HW123744   4.016   4.482   5.806
 7615SOL    HW223745   3.970   4.556   5.668
 7616SOL     OW23746   6.921   6.093   3.671
 7616SOL    HW123747   6.994   6.026   3.687
 7616SOL    HW223748   6.912   6.152   3.751
 7617SOL     OW23749   4.174   5.480   3.285
 7617SOL    HW123750   4.273   5.490   3.277
 7617SOL    HW223751   4.137   5.453   3.196
 7618SOL     OW23752   3.280   1.724   0.415
 7618SOL    HW123753   3.326   1.638   0.437
 7618SOL    HW223754   3.182   1.707   0.402
 7619SOL     OW23755   5.580   3.412   5.933
 7619SOL    HW123756   5.649   3.342   5.952
 7619SOL    HW223757   5.536   3.392   5.845
 7620SOL     OW23758   2.453   5.565   1.696
 7620SOL    HW123759   2.504   5.606   1.772
 7620SOL    HW223760   2.388   5.498   1.731
 7621SOL     OW23761   2.795   2.838   1.306
 7621SOL    HW123762   2.813   2.930   1.271
 7621SOL    HW223763   2.804   2.772   1.232
 7622SOL     OW23764   5.205   2.233   0.831
 7622SOL    HW123765   5.107   2.255   0.831
 7622SOL    HW223766   5.222   2.159   0.896
 7623SOL     OW23767   6.890   6.827   4.686
 7623SOL    HW123768   6.808   6.770   4.677
 7623SOL    HW223769   6.863   6.921   4.706
 7624SOL     OW23770   6.780   1.581   4.766
 7624SOL    HW123771   6.699   1.524   4.754
 7624SOL    HW223772   6.809   1.577   4.862
 7625SOL     OW23773   2.326   4.704   0.441
 7625SOL    HW123774   2.313   4.726   0.538
 7625SOL    HW223775   2.270   4.765   0.385
 7626SOL     OW23776   2.598   3.893   5.331
 7626SOL    HW123777   2.669   3.822   5.324
 7626SOL    HW223778   2.559   3.910   5.241
 7627SOL     OW23779   6.774   0.505   0.204
 7627SOL    HW123780   6.724   0.592   0.204
 7627SOL    HW223781   6.710   0.429   0.203
 7628SOL     OW23782   4.337   1.504   0.337
 7628SOL    HW123783   4.299   1.544   0.420
 7628SOL    HW223784   4.400   1.430   0.361
 7629SOL     OW23785   6.179   5.473   2.535
 7629SOL    HW123786   6.089   5.511   2.553
 7629SOL    HW223787   6.218   5.437   2.620
 7630SOL     OW23788   5.294   1.442   1.963
 7630SOL    HW123789   5.303   1.537   1.991
 7630SOL    HW223790   5.306   1.435   1.864
 7631SOL     OW23791   1.167   0.181   4.302
 7631SOL    HW123792   1.233   0.219   4.236
 7631SOL    HW223793   1.114   0.109   4.258
 7632SOL     OW23794   4.402   0.742   4.555
 7632SOL    HW123795   4.498   0.715   4.549
 7632SOL    HW223796   4.396   0.841   4.566
 7633SOL     OW23797   6.007   3.376   6.196
 7633SOL    HW123798   5.930   3.316   6.218
 7633SOL    HW223799   6.058   3.396   6.279
 7634SOL     OW23800   1.246   2.343   1.657
 7634SOL    HW123801   1.161   2.315   1.702
 7634SOL    HW223802   1.294   2.261   1.625
 7635SOL     OW23803   2.052   4.657   5.471
 7635SOL    HW123804   2.140   4.637   5.512
 7635SOL    HW223805   2.064   4.677   5.373
 7636SOL     OW23806   1.055   1.322   3.555
 7636SOL    HW123807   1.132   1.367   3.601
 7636SOL    HW223808   1.068   1.326   3.456
 7637SOL     OW23809   2.909   6.008   4.155
 7637SOL    HW123810   2.944   6.051   4.238
 7637SOL    HW223811   2.983   5.956   4.111
 7638SOL     OW23812   4.731   4.855   1.833
 7638SOL    HW123813   4.695   4.821   1.920
 7638SOL    HW223814   4.670   4.925   1.796
 7639SOL     OW23815   1.027   2.148   4.503
 7639SOL    HW123816   1.021   2.239   4.462
 7639SOL    HW223817   1.085   2.152   4.584
 7640SOL     OW23818   2.012   2.818   6.151
 7640SOL    HW123819   2.061   2.791   6.068
 7640SOL    HW223820   2.027   2.915   6.168
 7641SOL     OW23821   5.945   3.444   1.904
 7641SOL    HW123822   5.938   3.359   1.955
 7641SOL    HW223823   5.865   3.454   1.844
 7642SOL     OW23824   1.030   2.556   2.652
 7642SOL    HW123825   1.083   2.520   2.575
 7642SOL    HW223826   1.085   2.625   2.700
 7643SOL     OW23827   5.540   3.710   3.589
 7643SOL    HW123828   5.548   3.778   3.515
 7643SOL    HW223829   5.623   3.654   3.592
 7644SOL     OW23830   5.931   2.518   3.511
 7644SOL    HW123831   5.940   2.419   3.500
 7644SOL    HW223832   6.001   2.564   3.456
 7645SOL     OW23833   4.258   3.021   0.589
 7645SOL    HW123834   4.325   3.094   0.604
 7645SOL    HW223835   4.228   3.023   0.493
 7646SOL     OW23836   0.922   0.522   2.414
 7646SOL    HW123837   1.007   0.535   2.362
 7646SOL    HW223838   0.943   0.472   2.499
 7647SOL     OW23839   2.368   4.235   6.740
 7647SOL    HW123840   2.455   4.284   6.737
 7647SOL    HW223841   2.345   4.214   6.835
 7648SOL     OW23842   2.369   0.524   3.649
 7648SOL    HW123843   2.363   0.621   3.676
 7648SOL    HW223844   2.411   0.472   3.722
 7649SOL     OW23845   3.626   2.025   1.264
 7649SOL    HW123846   3.722   2.007   1.285
 7649SOL    HW223847   3.593   2.100   1.321
 7650SOL     OW23848   0.085   4.914   0.565
 7650SOL    HW123849   0.124   4.954   0.647
 7650SOL    HW223850   0.075   4.985   0.495
 7651SOL     OW23851   5.477   1.997   5.863
 7651SOL    HW123852   5.433   2.078   5.902
 7651SOL    HW223853   5.525   2.022   5.779
 7652SOL     OW23854   0.619   3.185   2.464
 7652SOL    HW123855   0.637   3.230   2.552
 7652SOL    HW223856   0.673   3.101   2.458
 7653SOL     OW23857   4.564   2.509   1.795
 7653SOL    HW123858   4.648   2.552   1.761
 7653SOL    HW223859   4.485   2.543   1.744
 7654SOL     OW23860   5.482   3.899   5.393
 7654SOL    HW123861   5.490   3.990   5.433
 7654SOL    HW223862   5.472   3.908   5.294
 7655SOL     OW23863   4.943   4.821   6.319
 7655SOL    HW123864   4.848   4.800   6.295
 7655SOL    HW223865   4.952   4.822   6.418
 7656SOL     OW23866   0.150   0.723   5.227
 7656SOL    HW123867   0.190   0.686   5.143
 7656SOL    HW223868   0.222   0.758   5.286
 7657SOL     OW23869   3.569   2.072   3.674
 7657SOL    HW123870   3.627   1.991   3.681
 7657SOL    HW223871   3.546   2.088   3.578
 7658SOL     OW23872   4.141   0.874   5.728
 7658SOL    HW123873   4.086   0.882   5.644
 7658SOL    HW223874   4.119   0.949   5.790
 7659SOL     OW23875   5.123   6.125   6.043
 7659SOL    HW123876   5.205   6.069   6.055
 7659SOL    HW223877   5.042   6.066   6.044
 7660SOL     OW23878   5.296   5.352   3.382
 7660SOL    HW123879   5.383   5.392   3.411
 7660SOL    HW223880   5.255   5.304   3.459
 7661SOL     OW23881   5.957   3.160   3.483
 7661SOL    HW123882   5.873   3.180   3.532
 7661SOL    HW223883   6.009   3.244   3.468
 7662SOL     OW23884   6.080   5.658   3.286
 7662SOL    HW123885   6.164   5.645   3.339
 7662SOL    HW223886   6.029   5.572   3.283
 7663SOL     OW23887   0.955   6.378   6.561
 7663SOL    HW123888   1.044   6.383   6.517
 7663SOL    HW223889   0.895   6.450   6.525
 7664SOL     OW23890   4.319   5.130   4.819
 7664SOL    HW123891   4.343   5.041   4.781
 7664SOL    HW223892   4.265   5.117   4.902
 7665SOL     OW23893   2.003   5.397   3.420
 7665SOL    HW123894   1.972   5.492   3.416
 7665SOL    HW223895   2.082   5.390   3.482
 7666SOL     OW23896   2.210   0.341   2.707
 7666SOL    HW123897   2.289   0.315   2.651
 7666SOL    HW223898   2.241   0.379   2.794
 7667SOL     OW23899   5.620   7.011   5.701
 7667SOL    HW123900   5.557   6.975   5.769
 7667SOL    HW223901   5.684   0.056   5.746
 7668SOL     OW23902   3.102   3.003   2.705
 7668SOL    HW123903   3.049   2.931   2.662
 7668SOL    HW223904   3.198   2.996   2.676
 7669SOL     OW23905   4.737   6.594   5.105
 7669SOL    HW123906   4.758   6.525   5.036
 7669SOL    HW223907   4.723   6.683   5.060
 7670SOL     OW23908   1.584   6.048   1.227
 7670SOL    HW123909   1.607   5.967   1.172
 7670SOL    HW223910   1.566   6.125   1.166
 7671SOL     OW23911   4.529   2.445   4.753
 7671SOL    HW123912   4.450   2.423   4.695
 7671SOL    HW223913   4.499   2.456   4.847
 7672SOL     OW23914   5.681   6.911   1.923
 7672SOL    HW123915   5.694   7.007   1.949
 7672SOL    HW223916   5.706   6.852   2.000
 7673SOL     OW23917   1.997   3.892   0.213
 7673SOL    HW123918   2.054   3.973   0.225
 7673SOL    HW223919   1.914   3.917   0.163
 7674SOL     OW23920   6.157   1.231   5.311
 7674SOL    HW123921   6.167   1.296   5.386
 7674SOL    HW223922   6.228   1.249   5.242
 7675SOL     OW23923   5.456   0.239   3.339
 7675SOL    HW123924   5.407   0.312   3.387
 7675SOL    HW223925   5.390   0.179   3.294
 7676SOL     OW23926   2.310   0.137   1.235
 7676SOL    HW123927   2.256   0.077   1.294
 7676SOL    HW223928   2.279   0.232   1.246
 7677SOL     OW23929   1.704   2.768   2.444
 7677SOL    HW123930   1.719   2.861   2.411
 7677SOL    HW223931   1.768   2.705   2.399
 7678SOL     OW23932   4.875   6.733   5.570
 7678SOL    HW123933   4.923   6.818   5.547
 7678SOL    HW223934   4.841   6.690   5.487
 7679SOL     OW23935   1.714   4.887   4.747
 7679SOL    HW123936   1.643   4.918   4.810
 7679SOL    HW223937   1.672   4.853   4.663
 7680SOL     OW23938   4.216   0.358   0.701
 7680SOL    HW123939   4.228   0.441   0.755
 7680SOL    HW223940   4.264   0.367   0.614
 7681SOL     OW23941   4.055   2.118   5.776
 7681SOL    HW123942   4.091   2.039   5.725
 7681SOL    HW223943   3.955   2.122   5.765
 7682SOL     OW23944   3.110   0.945   0.033
 7682SOL    HW123945   3.204   0.977   0.016
 7682SOL    HW223946   3.055   0.957   6.969
 7683SOL     OW23947   0.049   3.166   3.109
 7683SOL    HW123948   0.051   3.072   3.076
 7683SOL    HW223949   6.995   3.175   3.178
 7684SOL     OW23950   4.110   1.768   6.103
 7684SOL    HW123951   4.034   1.831   6.089
 7684SOL    HW223952   4.098   1.687   6.046
 7685SOL     OW23953   4.318   4.889   1.428
 7685SOL    HW123954   4.361   4.883   1.338
 7685SOL    HW223955   4.345   4.975   1.472
 7686SOL     OW23956   2.014   0.664   2.356
 7686SOL    HW123957   1.959   0.747   2.349
 7686SOL    HW223958   2.030   0.627   2.264
 7687SOL     OW23959   4.770   4.126   5.535
 7687SOL    HW123960   4.682   4.129   5.582
 7687SOL    HW223961   4.755   4.123   5.436
 7688SOL     OW23962   6.624   0.899   3.424
 7688SOL    HW123963   6.631   0.995   3.396
 7688SOL    HW223964   6.583   0.893   3.515
 7689SOL     OW23965   3.263   6.942   5.135
 7689SOL    HW123966   3.246   6.855   5.088
 7689SOL    HW223967   3.225   7.017   5.082
 7690SOL     OW23968   1.122   5.516   3.007
 7690SOL    HW123969   1.036   5.564   3.027
 7690SOL    HW223970   1.184   5.577   2.957
 7691SOL     OW23971   6.612   3.631   5.489
 7691SOL    HW123972   6.516   3.659   5.479
 7691SOL    HW223973   6.627   3.597   5.582
 7692SOL     OW23974   1.376   6.227   1.102
 7692SOL    HW123975   1.308   6.158   1.125
 7692SOL    HW223976   1.388   6.232   1.003
 7693SOL     OW23977   4.449   0.763   0.624
 7693SOL    HW123978   4.488   0.853   0.602
 7693SOL    HW223979   4.516   0.709   0.674
 7694SOL     OW23980   5.798   5.290   3.954
 7694SOL    HW123981   5.741   5.319   3.877
 7694SOL    HW223982   5.823   5.194   3.941
 7695SOL     OW23983   4.817   0.057   6.488
 7695SOL    HW123984   4.895   0.082   6.431
 7695SOL    HW223985   4.734   0.055   6.431
 7696SOL     OW23986   1.213   4.180   5.219
 7696SOL    HW123987   1.298   4.223   5.249
 7696SOL    HW223988   1.169   4.136   5.298
 7697SOL     OW23989   4.417   0.461   2.553
 7697SOL    HW123990   4.482   0.436   2.624
 7697SOL    HW223991   4.450   0.542   2.504
 7698SOL     OW23992   0.218   1.826   6.393
 7698SOL    HW123993   0.174   1.892   6.453
 7698SOL    HW223994   0.279   1.874   6.329
 7699SOL     OW23995   3.281   3.301   1.417
 7699SOL    HW123996   3.282   3.207   1.452
 7699SOL    HW223997   3.190   3.340   1.431
 7700SOL     OW23998   5.109   0.610   5.160
 7700SOL    HW123999   5.105   0.582   5.064
 7700SOL    HW224000   5.043   0.683   5.176
 7701SOL     OW24001   6.258   2.338   5.003
 7701SOL    HW124002   6.342   2.391   4.990
 7701SOL    HW224003   6.249   2.271   4.929
 7702SOL     OW24004   1.459   6.449   6.920
 7702SOL    HW124005   1.495   6.542   6.912
 7702SOL    HW224006   1.396   6.432   6.845
 7703SOL     OW24007   0.685   2.352   6.928
 7703SOL    HW124008   0.771   2.355   6.979
 7703SOL    HW224009   0.703   2.375   6.832
 7704SOL     OW24010   3.766   4.054   1.537
 7704SOL    HW124011   3.769   4.152   1.518
 7704SOL    HW224012   3.808   4.036   1.626
 7705SOL     OW24013   4.006   3.854   4.625
 7705SOL    HW124014   4.053   3.792   4.688
 7705SOL    HW224015   4.073   3.891   4.560
 7706SOL     OW24016   5.939   1.165   5.776
 7706SOL    HW124017   5.945   1.257   5.738
 7706SOL    HW224018   5.942   1.098   5.702
 7707SOL     OW24019   0.037   4.789   6.366
 7707SOL    HW124020   6.962   4.826   6.363
 7707SOL    HW224021   0.034   4.693   6.396
 7708SOL     OW24022   4.386   1.286   4.930
 7708SOL    HW124023   4.403   1.380   4.960
 7708SOL    HW224024   4.438   1.223   4.988
 7709SOL     OW24025   3.498   2.608   1.245
 7709SOL    HW124026   3.546   2.570   1.167
 7709SOL    HW224027   3.419   2.661   1.213
 7710SOL     OW24028   3.617   1.778   6.696
 7710SOL    HW124029   3.608   1.839   6.618
 7710SOL    HW224030   3.614   1.831   6.781
 7711SOL     OW24031   4.525   6.301   4.830
 7711SOL    HW124032   4.475   6.328   4.748
 7711SOL    HW224033   4.461   6.292   4.906
 7712SOL     OW24034   6.417   4.266   5.974
 7712SOL    HW124035   6.436   4.179   6.019
 7712SOL    HW224036   6.497   4.294   5.921
 7713SOL     OW24037   0.460   5.111   6.240
 7713SOL    HW124038   0.471   5.206   6.268
 7713SOL    HW224039   0.377   5.074   6.281
 7714SOL     OW24040   5.489   4.842   4.823
 7714SOL    HW124041   5.456   4.752   4.851
 7714SOL    HW224042   5.418   4.911   4.841
 7715SOL     OW24043   3.761   2.150   1.597
 7715SOL    HW124044   3.804   2.155   1.687
 7715SOL    HW224045   3.662   2.139   1.607
 7716SOL     OW24046   4.016   2.214   4.633
 7716SOL    HW124047   4.003   2.233   4.731
 7716SOL    HW224048   3.979   2.123   4.612
 7717SOL     OW24049   2.952   6.682   6.963
 7717SOL    HW124050   3.034   6.708   6.913
 7717SOL    HW224051   2.885   6.756   6.958
 7718SOL     OW24052   1.722   6.282   3.248
 7718SOL    HW124053   1.780   6.222   3.303
 7718SOL    HW224054   1.627   6.274   3.279
 7719SOL     OW24055   5.543   2.378   5.568
 7719SOL    HW124056   5.596   2.459   5.541
 7719SOL    HW224057   5.446   2.396   5.551
 7720SOL     OW24058   4.769   6.404   1.570
 7720SOL    HW124059   4.708   6.330   1.600
 7720SOL    HW224060   4.741   6.435   1.479
 7721SOL     OW24061   0.943   5.061   2.948
 7721SOL    HW124062   0.864   5.120   2.935
 7721SOL    HW224063   0.913   4.973   2.985
 7722SOL     OW24064   0.587   5.660   3.645
 7722SOL    HW124065   0.604   5.616   3.557
 7722SOL    HW224066   0.523   5.736   3.633
 7723SOL     OW24067   6.915   1.954   6.126
 7723SOL    HW124068   6.892   1.958   6.224
 7723SOL    HW224069   7.009   1.987   6.113
 7724SOL     OW24070   2.718   6.251   6.611
 7724SOL    HW124071   2.664   6.191   6.670
 7724SOL    HW224072   2.703   6.347   6.637
 7725SOL     OW24073   5.064   4.275   3.556
 7725SOL    HW124074   5.156   4.238   3.550
 7725SOL    HW224075   5.065   4.357   3.613
 7726SOL     OW24076   5.405   5.686   3.601
 7726SOL    HW124077   5.375   5.711   3.693
 7726SOL    HW224078   5.333   5.633   3.556
 7727SOL     OW24079   5.984   3.765   2.058
 7727SOL    HW124080   6.055   3.717   2.006
 7727SOL    HW224081   5.959   3.709   2.137
 7728SOL     OW24082   2.136   3.140   3.002
 7728SOL    HW124083   2.094   3.078   3.068
 7728SOL    HW224084   2.179   3.087   2.929
 7729SOL     OW24085   5.443   1.694   6.195
 7729SOL    HW124086   5.501   1.763   6.151
 7729SOL    HW224087   5.435   1.614   6.135
 7730SOL     OW24088   4.540   6.456   2.537
 7730SOL    HW124089   4.610   6.479   2.469
 7730SOL    HW224090   4.577   6.472   2.629
 7731SOL     OW24091   6.130   1.617   4.042
 7731SOL    HW124092   6.128   1.681   3.965
 7731SOL    HW224093   6.094   1.663   4.123
 7732SOL     OW24094   4.475   4.508   1.108
 7732SOL    HW124095   4.552   4.486   1.169
 7732SOL    HW224096   4.397   4.536   1.164
 7733SOL     OW24097   3.516   5.708   1.273
 7733SOL    HW124098   3.599   5.666   1.307
 7733SOL    HW224099   3.436   5.667   1.317
 7734SOL     OW24100   1.360   3.073   1.734
 7734SOL    HW124101   1.357   3.051   1.832
 7734SOL    HW224102   1.392   3.167   1.722
 7735SOL     OW24103   5.780   4.146   0.435
 7735SOL    HW124104   5.702   4.086   0.452
 7735SOL    HW224105   5.758   4.239   0.464
 7736SOL     OW24106   5.944   4.438   6.389
 7736SOL    HW124107   5.950   4.399   6.481
 7736SOL    HW224108   5.929   4.365   6.322
 7737SOL     OW24109   4.952   2.577   0.413
 7737SOL    HW124110   4.998   2.585   0.324
 7737SOL    HW224111   4.984   2.494   0.459
 7738SOL     OW24112   1.702   4.863   6.571
 7738SOL    HW124113   1.692   4.810   6.487
 7738SOL    HW224114   1.732   4.956   6.548
 7739SOL     OW24115   5.889   4.141   1.942
 7739SOL    HW124116   5.798   4.175   1.915
 7739SOL    HW224117   5.915   4.065   1.883
 7740SOL     OW24118   6.744   5.997   3.466
 7740SOL    HW124119   6.786   5.907   3.450
 7740SOL    HW224120   6.789   6.041   3.544
 7741SOL     OW24121   2.985   5.101   3.688
 7741SOL    HW124122   3.028   5.159   3.758
 7741SOL    HW224123   3.050   5.031   3.659
 7742SOL     OW24124   7.004   0.594   4.621
 7742SOL    HW124125   6.962   0.589   4.712
 7742SOL    HW224126   6.950   0.654   4.563
 7743SOL     OW24127   4.963   3.221   1.968
 7743SOL    HW124128   4.866   3.209   1.946
 7743SOL    HW224129   4.976   3.209   2.066
 7744SOL     OW24130   0.213   6.702   4.999
 7744SOL    HW124131   0.142   6.769   5.021
 7744SOL    HW224132   0.180   6.610   5.019
 7745SOL     OW24133   5.674   2.621   5.559
 7745SOL    HW124134   5.630   2.701   5.600
 7745SOL    HW224135   5.773   2.633   5.559
 7746SOL     OW24136   2.040   0.586   6.487
 7746SOL    HW124137   1.968   0.554   6.425
 7746SOL    HW224138   2.120   0.526   6.479
 7747SOL     OW24139   4.963   5.601   0.392
 7747SOL    HW124140   4.952   5.630   0.297
 7747SOL    HW224141   4.975   5.502   0.395
 7748SOL     OW24142   2.100   3.660   6.632
 7748SOL    HW124143   2.039   3.735   6.604
 7748SOL    HW224144   2.080   3.635   6.726
 7749SOL     OW24145   5.772   3.200   5.940
 7749SOL    HW124146   5.746   3.106   5.918
 7749SOL    HW224147   5.817   3.242   5.861
 7750SOL     OW24148   4.385   5.500   2.930
 7750SOL    HW124149   4.370   5.552   2.846
 7750SOL    HW224150   4.456   5.432   2.915
 7751SOL     OW24151   0.928   2.406   1.334
 7751SOL    HW124152   0.977   2.493   1.343
 7751SOL    HW224153   0.898   2.376   1.425
 7752SOL     OW24154   3.122   0.953   2.796
 7752SOL    HW124155   3.129   1.041   2.748
 7752SOL    HW224156   3.084   0.884   2.735
 7753SOL     OW24157   4.062   0.620   5.410
 7753SOL    HW124158   3.991   0.551   5.426
 7753SOL    HW224159   4.136   0.607   5.476
 7754SOL     OW24160   4.465   5.827   1.368
 7754SOL    HW124161   4.480   5.925   1.382
 7754SOL    HW224162   4.476   5.779   1.455
 7755SOL     OW24163   1.097   3.348   5.862
 7755SOL    HW124164   1.146   3.435   5.865
 7755SOL    HW224165   1.110   3.299   5.948
 7756SOL     OW24166   1.380   3.748   2.033
 7756SOL    HW124167   1.437   3.827   2.052
 7756SOL    HW224168   1.403   3.711   1.942
 7757SOL     OW24169   1.384   4.422   0.440
 7757SOL    HW124170   1.325   4.478   0.382
 7757SOL    HW224171   1.387   4.461   0.532
 7758SOL     OW24172   0.027   1.153   5.416
 7758SOL    HW124173   0.060   1.133   5.507
 7758SOL    HW224174   0.100   1.194   5.362
 7759SOL     OW24175   3.648   1.321   3.027
 7759SOL    HW124176   3.708   1.334   2.949
 7759SOL    HW224177   3.560   1.365   3.009
 7760SOL     OW24178   5.181   3.094   0.312
 7760SOL    HW124179   5.136   3.096   0.222
 7760SOL    HW224180   5.250   3.022   0.312
 7761SOL     OW24181   5.386   5.452   2.770
 7761SOL    HW124182   5.394   5.418   2.864
 7761SOL    HW224183   5.453   5.406   2.712
 7762SOL     OW24184   4.526   1.729   0.487
 7762SOL    HW124185   4.440   1.725   0.537
 7762SOL    HW224186   4.529   1.813   0.432
 7763SOL     OW24187   1.629   0.630   3.426
 7763SOL    HW124188   1.712   0.576   3.431
 7763SOL    HW224189   1.641   0.715   3.476
 7764SOL     OW24190   3.823   4.486   5.356
 7764SOL    HW124191   3.835   4.573   5.403
 7764SOL    HW224192   3.909   4.437   5.354
 7765SOL     OW24193   6.632   4.176   4.385
 7765SOL    HW124194   6.690   4.145   4.460
 7765SOL    HW224195   6.689   4.223   4.317
 7766SOL     OW24196   6.754   2.403   5.575
 7766SOL    HW124197   6.711   2.323   5.618
 7766SOL    HW224198   6.818   2.372   5.504
 7767SOL     OW24199   3.949   0.533   3.714
 7767SOL    HW124200   4.023   0.549   3.649
 7767SOL    HW224201   3.940   0.435   3.732
 7768SOL     OW24202   3.791   6.061   3.715
 7768SOL    HW124203   3.732   6.094   3.641
 7768SOL    HW224204   3.886   6.084   3.695
 7769SOL     OW24205   3.617   2.001   6.248
 7769SOL    HW124206   3.693   1.951   6.205
 7769SOL    HW224207   3.639   2.018   6.344
 7770SOL     OW24208   1.428   3.226   3.816
 7770SOL    HW124209   1.367   3.151   3.840
 7770SOL    HW224210   1.497   3.238   3.888
 7771SOL     OW24211   0.958   4.073   5.017
 7771SOL    HW124212   1.034   4.007   5.022
 7771SOL    HW224213   0.873   4.027   5.040
 7772SOL     OW24214   4.917   5.084   1.986
 7772SOL    HW124215   5.015   5.096   2.002
 7772SOL    HW224216   4.903   5.029   1.904
 7773SOL     OW24217   2.951   6.598   6.313
 7773SOL    HW124218   3.037   6.645   6.334
 7773SOL    HW224219   2.947   6.512   6.362
 7774SOL     OW24220   5.140   0.861   2.802
 7774SOL    HW124221   5.130   0.955   2.768
 7774SOL    HW224222   5.073   0.845   2.875
 7775SOL     OW24223   3.889   1.748   1.223
 7775SOL    HW124224   3.878   1.837   1.266
 7775SOL    HW224225   3.806   1.724   1.174
 7776SOL     OW24226   2.912   1.701   3.811
 7776SOL    HW124227   2.848   1.668   3.879
 7776SOL    HW224228   2.950   1.789   3.840
 7777SOL     OW24229   5.201   5.212   3.159
 7777SOL    HW124230   5.104   5.197   3.178
 7777SOL    HW224231   5.242   5.262   3.235
 7778SOL     OW24232   0.791   2.991   1.323
 7778SOL    HW124233   0.693   2.989   1.300
 7778SOL    HW224234   0.812   2.915   1.384
 7779SOL     OW24235   2.534   0.882   3.604
 7779SOL    HW124236   2.573   0.973   3.592
 7779SOL    HW224237   2.508   0.845   3.515
 7780SOL     OW24238   6.501   5.868   4.199
 7780SOL    HW124239   6.541   5.783   4.165
 7780SOL    HW224240   6.566   5.913   4.260
 7781SOL     OW24241   3.432   3.056   1.474
 7781SOL    HW124242   3.517   3.102   1.497
 7781SOL    HW224243   3.386   3.026   1.558
 7782SOL     OW24244   5.529   5.060   3.443
 7782SOL    HW124245   5.458   5.005   3.486
 7782SOL    HW224246   5.513   5.063   3.344
 7783SOL     OW24247   0.505   6.216   3.997
 7783SOL    HW124248   0.584   6.169   4.035
 7783SOL    HW224249   0.535   6.299   3.950
 7784SOL     OW24250   1.162   2.658   2.180
 7784SOL    HW124251   1.240   2.696   2.230
 7784SOL    HW224252   1.091   2.727   2.171
 7785SOL     OW24253   5.950   6.806   2.676
 7785SOL    HW124254   5.931   6.791   2.773
 7785SOL    HW224255   5.882   6.868   2.638
 7786SOL     OW24256   5.638   0.687   6.679
 7786SOL    HW124257   5.594   0.626   6.613
 7786SOL    HW224258   5.639   0.643   6.769
 7787SOL     OW24259   1.110   2.380   0.912
 7787SOL    HW124260   1.178   2.453   0.917
 7787SOL    HW224261   1.034   2.401   0.973
 7788SOL     OW24262   1.019   4.108   2.022
 7788SOL    HW124263   1.049   4.033   1.964
 7788SOL    HW224264   0.941   4.079   2.077
 7789SOL     OW24265   3.641   0.165   6.221
 7789SOL    HW124266   3.562   0.118   6.181
 7789SOL    HW224267   3.680   0.229   6.154
 7790SOL     OW24268   4.008   5.329   4.452
 7790SOL    HW124269   3.922   5.287   4.422
 7790SOL    HW224270   4.005   5.427   4.433
 7791SOL     OW24271   2.305   6.766   1.389
 7791SOL    HW124272   2.350   6.726   1.309
 7791SOL    HW224273   2.231   6.706   1.419
 7792SOL     OW24274   1.527   1.458   2.213
 7792SOL    HW124275   1.465   1.455   2.292
 7792SOL    HW224276   1.614   1.497   2.241
 7793SOL     OW24277   5.441   1.528   0.780
 7793SOL    HW124278   5.414   1.445   0.828
 7793SOL    HW224279   5.508   1.505   0.709
 7794SOL     OW24280   1.171   1.560   2.645
 7794SOL    HW124281   1.178   1.577   2.743
 7794SOL    HW224282   1.111   1.629   2.603
 7795SOL     OW24283   4.630   3.848   0.832
 7795SOL    HW124284   4.703   3.780   0.834
 7795SOL    HW224285   4.566   3.825   0.759
 7796SOL     OW24286   4.088   1.174   0.599
 7796SOL    HW124287   4.031   1.179   0.681
 7796SOL    HW224288   4.168   1.232   0.610
 7797SOL     OW24289   1.294   6.103   3.198
 7797SOL    HW124290   1.361   6.037   3.232
 7797SOL    HW224291   1.339   6.171   3.141
 7798SOL     OW24292   1.991   3.219   0.981
 7798SOL    HW124293   1.903   3.265   0.970
 7798SOL    HW224294   2.054   3.280   1.030
 7799SOL     OW24295   1.961   5.871   4.215
 7799SOL    HW124296   2.057   5.901   4.219
 7799SOL    HW224297   1.957   5.772   4.230
 7800SOL     OW24298   0.705   0.548   2.269
 7800SOL    HW124299   0.756   0.605   2.204
 7800SOL    HW224300   0.762   0.530   2.349
 7801SOL     OW24301   2.594   2.006   0.736
 7801SOL    HW124302   2.556   2.003   0.643
 7801SOL    HW224303   2.647   1.923   0.753
 7802SOL     OW24304   6.625   4.892   3.654
 7802SOL    HW124305   6.527   4.910   3.651
 7802SOL    HW224306   6.668   4.955   3.719
 7803SOL     OW24307   3.276   2.404   6.166
 7803SOL    HW124308   3.321   2.491   6.185
 7803SOL    HW224309   3.318   2.332   6.222
 7804SOL     OW24310   2.984   0.973   5.305
 7804SOL    HW124311   2.946   0.885   5.278
 7804SOL    HW224312   3.047   0.960   5.382
 7805SOL     OW24313   6.656   1.939   6.886
 7805SOL    HW124314   6.750   1.951   6.916
 7805SOL    HW224315   6.639   1.995   6.805
 7806SOL     OW24316   6.011   2.425   4.893
 7806SOL    HW124317   6.103   2.405   4.926
 7806SOL    HW224318   5.971   2.499   4.948
 7807SOL     OW24319   1.857   5.848   5.260
 7807SOL    HW124320   1.831   5.792   5.182
 7807SOL    HW224321   1.925   5.916   5.230
 7808SOL     OW24322   0.035   3.017   4.335
 7808SOL    HW124323   0.066   2.974   4.420
 7808SOL    HW224324   0.016   2.946   4.266
 7809SOL     OW24325   3.071   0.509   3.029
 7809SOL    HW124326   3.108   0.485   2.939
 7809SOL    HW224327   3.143   0.550   3.085
 7810SOL     OW24328   2.725   6.691   5.843
 7810SOL    HW124329   2.690   6.639   5.765
 7810SOL    HW224330   2.711   6.637   5.927
 7811SOL     OW24331   1.307   4.897   3.223
 7811SOL    HW124332   1.393   4.927   3.264
 7811SOL    HW224333   1.230   4.939   3.271
 7812SOL     OW24334   3.247   0.527   6.210
 7812SOL    HW124335   3.324   0.475   6.246
 7812SOL    HW224336   3.166   0.511   6.267
 7813SOL     OW24337   5.701   1.066   0.717
 7813SOL    HW124338   5.750   1.026   0.794
 7813SOL    HW224339   5.630   1.128   0.750
 7814SOL     OW24340   0.188   2.449   1.603
 7814SOL    HW124341   0.241   2.513   1.546
 7814SOL    HW224342   0.205   2.356   1.573
 7815SOL     OW24343   4.711   6.293   3.616
 7815SOL    HW124344   4.736   6.326   3.525
 7815SOL    HW224345   4.611   6.288   3.623
 7816SOL     OW24346   1.545   1.522   5.456
 7816SOL    HW124347   1.491   1.571   5.525
 7816SOL    HW224348   1.484   1.464   5.402
 7817SOL     OW24349   4.411   1.103   5.685
 7817SOL    HW124350   4.466   1.105   5.601
 7817SOL    HW224351   4.429   1.017   5.734
 7818SOL     OW24352   4.490   0.726   2.919
 7818SOL    HW124353   4.495   0.632   2.885
 7818SOL    HW224354   4.442   0.784   2.852
 7819SOL     OW24355   2.591   2.495   4.550
 7819SOL    HW124356   2.539   2.552   4.612
 7819SOL    HW224357   2.583   2.531   4.457
 7820SOL     OW24358   1.994   0.642   6.761
 7820SOL    HW124359   2.010   0.632   6.663
 7820SOL    HW224360   1.926   0.573   6.790
 7821SOL     OW24361   3.279   5.852   6.707
 7821SOL    HW124362   3.183   5.831   6.694
 7821SOL    HW224363   3.302   5.937   6.659
 7822SOL     OW24364   0.821   1.135   4.614
 7822SOL    HW124365   0.729   1.132   4.653
 7822SOL    HW224366   0.864   1.045   4.623
 7823SOL     OW24367   2.149   2.709   5.500
 7823SOL    HW124368   2.148   2.643   5.425
 7823SOL    HW224369   2.184   2.666   5.583
 7824SOL     OW24370   6.303   3.920   2.563
 7824SOL    HW124371   6.217   3.971   2.568
 7824SOL    HW224372   6.324   3.901   2.467
 7825SOL     OW24373   3.273   2.959   3.974
 7825SOL    HW124374   3.235   2.956   4.066
 7825SOL    HW224375   3.238   3.040   3.926
 7826SOL     OW24376   6.288   6.268   1.294
 7826SOL    HW124377   6.229   6.304   1.366
 7826SOL    HW224378   6.238   6.201   1.240
 7827SOL     OW24379   5.136   3.680   0.494
 7827SOL    HW124380   5.055   3.656   0.549
 7827SOL    HW224381   5.115   3.669   0.397
 7828SOL     OW24382   0.970   5.902   0.295
 7828SOL    HW124383   0.964   5.819   0.241
 7828SOL    HW224384   0.912   5.973   0.255
 7829SOL     OW24385   3.207   4.102   2.754
 7829SOL    HW124386   3.135   4.033   2.750
 7829SOL    HW224387   3.185   4.169   2.825
 7830SOL     OW24388   6.832   4.698   6.565
 7830SOL    HW124389   6.895   4.627   6.535
 7830SOL    HW224390   6.879   4.762   6.626
 7831SOL     OW24391   3.443   2.932   0.214
 7831SOL    HW124392   3.524   2.990   0.206
 7831SOL    HW224393   3.471   2.837   0.221
 7832SOL     OW24394   3.854   2.755   5.725
 7832SOL    HW124395   3.843   2.661   5.756
 7832SOL    HW224396   3.778   2.811   5.757
 7833SOL     OW24397   6.226   6.958   1.701
 7833SOL    HW124398   6.291   6.940   1.775
 7833SOL    HW224399   6.218   0.039   1.687
 7834SOL     OW24400   5.413   0.959   1.649
 7834SOL    HW124401   5.372   1.050   1.648
 7834SOL    HW224402   5.343   0.891   1.625
 7835SOL     OW24403   2.546   2.344   4.273
 7835SOL    HW124404   2.554   2.442   4.254
 7835SOL    HW224405   2.477   2.330   4.344
 7836SOL     OW24406   2.580   0.600   6.846
 7836SOL    HW124407   2.667   0.618   6.892
 7836SOL    HW224408   2.533   0.687   6.828
 7837SOL     OW24409   5.259   6.393   2.232
 7837SOL    HW124410   5.283   6.336   2.311
 7837SOL    HW224411   5.300   6.355   2.149
 7838SOL     OW24412   3.631   5.702   4.029
 7838SOL    HW124413   3.656   5.742   3.941
 7838SOL    HW224414   3.591   5.612   4.014
 7839SOL     OW24415   6.892   5.844   2.898
 7839SOL    HW124416   6.960   5.906   2.937
 7839SOL    HW224417   6.852   5.788   2.970
 7840SOL     OW24418   4.123   2.861   6.341
 7840SOL    HW124419   4.125   2.778   6.285
 7840SOL    HW224420   4.058   2.926   6.301
 7841SOL     OW24421   1.235   2.057   5.938
 7841SOL    HW124422   1.147   2.030   5.899
 7841SOL    HW224423   1.243   2.021   6.031
 7842SOL     OW24424   1.850   1.218   2.327
 7842SOL    HW124425   1.780   1.262   2.383
 7842SOL    HW224426   1.927   1.189   2.385
 7843SOL     OW24427   0.154   2.128   1.688
 7843SOL    HW124428   0.076   2.186   1.712
 7843SOL    HW224429   0.175   2.068   1.765
 7844SOL     OW24430   3.401   2.149   3.141
 7844SOL    HW124431   3.474   2.176   3.078
 7844SOL    HW224432   3.373   2.055   3.121
 7845SOL     OW24433   1.247   1.088   4.270
 7845SOL    HW124434   1.312   1.152   4.228
 7845SOL    HW224435   1.284   0.995   4.265
 7846SOL     OW24436   4.988   6.708   3.010
 7846SOL    HW124437   5.019   6.624   3.054
 7846SOL    HW224438   4.917   6.752   3.065
 7847SOL     OW24439   0.677   6.644   6.078
 7847SOL    HW124440   0.587   6.620   6.115
 7847SOL    HW224441   0.746   6.635   6.150
 7848SOL     OW24442   4.526   3.698   1.279
 7848SOL    HW124443   4.492   3.604   1.276
 7848SOL    HW224444   4.589   3.709   1.356
 7849SOL     OW24445   5.802   4.516   5.086
 7849SOL    HW124446   5.866   4.540   5.159
 7849SOL    HW224447   5.772   4.598   5.038
 7850SOL     OW24448   1.228   3.029   4.733
 7850SOL    HW124449   1.199   3.103   4.794
 7850SOL    HW224450   1.291   2.968   4.782
 7851SOL     OW24451   2.947   6.775   1.091
 7851SOL    HW124452   2.880   6.835   1.135
 7851SOL    HW224453   3.033   6.781   1.140
 7852SOL     OW24454   2.253   6.642   0.813
 7852SOL    HW124455   2.204   6.710   0.867
 7852SOL    HW224456   2.351   6.649   0.830
 7853SOL     OW24457   2.274   1.529   7.000
 7853SOL    HW124458   2.193   1.476   0.006
 7853SOL    HW224459   2.329   1.478   6.933
 7854SOL     OW24460   3.793   4.087   4.755
 7854SOL    HW124461   3.719   4.154   4.757
 7854SOL    HW224462   3.825   4.075   4.661
 7855SOL     OW24463   2.813   6.653   4.632
 7855SOL    HW124464   2.878   6.620   4.564
 7855SOL    HW224465   2.814   6.592   4.711
 7856SOL     OW24466   2.899   3.157   5.777
 7856SOL    HW124467   2.914   3.137   5.874
 7856SOL    HW224468   2.863   3.076   5.731
 7857SOL     OW24469   0.410   2.754   4.871
 7857SOL    HW124470   0.389   2.850   4.886
 7857SOL    HW224471   0.506   2.744   4.845
 7858SOL     OW24472   5.083   2.797   3.468
 7858SOL    HW124473   5.081   2.754   3.378
 7858SOL    HW224474   5.176   2.828   3.488
 7859SOL     OW24475   6.699   6.996   0.395
 7859SOL    HW124476   6.610   7.013   0.353
 7859SOL    HW224477   6.685   6.950   0.484
 7860SOL     OW24478   4.618   6.209   0.989
 7860SOL    HW124479   4.561   6.137   0.949
 7860SOL    HW224480   4.567   6.295   0.991
 7861SOL     OW24481   6.767   3.563   0.142
 7861SOL    HW124482   6.672   3.581   0.116
 7861SOL    HW224483   6.772   3.475   0.189
 7862SOL     OW24484   2.743   4.374   1.668
 7862SOL    HW124485   2.808   4.422   1.726
 7862SOL    HW224486   2.694   4.305   1.721
 7863SOL     OW24487   4.343   5.770   2.472
 7863SOL    HW124488   4.341   5.870   2.469
 7863SOL    HW224489   4.437   5.738   2.475
 7864SOL     OW24490   1.616   5.861   5.404
 7864SOL    HW124491   1.713   5.860   5.378
 7864SOL    HW224492   1.594   5.950   5.443
 7865SOL     OW24493   4.439   0.599   3.340
 7865SOL    HW124494   4.423   0.641   3.429
 7865SOL    HW224495   4.510   0.529   3.348
 7866SOL     OW24496   2.857   0.344   5.975
 7866SOL    HW124497   2.843   0.246   5.990
 7866SOL    HW224498   2.926   0.358   5.904
 7867SOL     OW24499   6.823   3.142   0.729
 7867SOL    HW124500   6.914   3.129   0.689
 7867SOL    HW224501   6.766   3.194   0.665
 7868SOL     OW24502   5.298   6.632   1.072
 7868SOL    HW124503   5.319   6.604   0.978
 7868SOL    HW224504   5.258   6.724   1.070
 7869SOL     OW24505   6.030   1.834   4.235
 7869SOL    HW124506   6.100   1.899   4.206
 7869SOL    HW224507   5.955   1.833   4.169
 7870SOL     OW24508   6.732   0.161   3.355
 7870SOL    HW124509   6.777   0.219   3.424
 7870SOL    HW224510   6.724   0.211   3.269
 7871SOL     OW24511   5.581   2.891   3.209
 7871SOL    HW124512   5.584   2.854   3.302
 7871SOL    HW224513   5.674   2.907   3.177
 7872SOL     OW24514   5.979   3.943   4.067
 7872SOL    HW124515   5.890   3.899   4.078
 7872SOL    HW224516   5.969   4.043   4.074
 7873SOL     OW24517   6.689   6.092   5.140
 7873SOL    HW124518   6.595   6.084   5.175
 7873SOL    HW224519   6.752   6.048   5.204
 7874SOL     OW24520   6.126   6.621   0.132
 7874SOL    HW124521   6.076   6.538   0.155
 7874SOL    HW224522   6.077   6.671   0.060
 7875SOL     OW24523   5.696   2.661   0.430
 7875SOL    HW124524   5.749   2.745   0.428
 7875SOL    HW224525   5.606   2.679   0.470
 7876SOL     OW24526   6.853   2.042   4.801
 7876SOL    HW124527   6.893   1.956   4.769
 7876SOL    HW224528   6.778   2.068   4.740
 7877SOL     OW24529   5.913   3.779   1.588
 7877SOL    HW124530   5.922   3.762   1.686
 7877SOL    HW224531   6.002   3.767   1.544
 7878SOL     OW24532   3.164   3.900   2.376
 7878SOL    HW124533   3.237   3.953   2.420
 7878SOL    HW224534   3.108   3.856   2.446
 7879SOL     OW24535   0.042   1.652   4.915
 7879SOL    HW124536   0.011   1.725   4.854
 7879SOL    HW224537   6.980   1.600   4.947
 7880SOL     OW24538   2.159   6.128   6.786
 7880SOL    HW124539   2.182   6.045   6.735
 7880SOL    HW224540   2.060   6.137   6.793
 7881SOL     OW24541   0.500   4.693   5.381
 7881SOL    HW124542   0.593   4.671   5.409
 7881SOL    HW224543   0.487   4.792   5.385
 7882SOL     OW24544   1.407   5.039   0.869
 7882SOL    HW124545   1.457   5.098   0.933
 7882SOL    HW224546   1.326   5.002   0.915
 7883SOL     OW24547   2.738   2.197   2.713
 7883SOL    HW124548   2.816   2.180   2.652
 7883SOL    HW224549   2.662   2.236   2.660
 7884SOL     OW24550   0.320   2.110   5.424
 7884SOL    HW124551   0.274   2.046   5.362
 7884SOL    HW224552   0.252   2.160   5.477
 7885SOL     OW24553   5.619   4.907   2.796
 7885SOL    HW124554   5.658   4.907   2.704
 7885SOL    HW224555   5.530   4.953   2.794
 7886SOL     OW24556   3.810   4.876   2.756
 7886SOL    HW124557   3.804   4.963   2.805
 7886SOL    HW224558   3.722   4.857   2.712
 7887SOL     OW24559   0.062   3.052   0.602
 7887SOL    HW124560   0.074   2.964   0.556
 7887SOL    HW224561   0.143   3.108   0.589
 7888SOL     OW24562   0.601   1.769   5.173
 7888SOL    HW124563   0.545   1.711   5.113
 7888SOL    HW224564   0.683   1.798   5.124
 7889SOL     OW24565   5.417   4.913   0.229
 7889SOL    HW124566   5.336   4.955   0.269
 7889SOL    HW224567   5.498   4.967   0.252
 7890SOL     OW24568   1.300   2.614   1.711
 7890SOL    HW124569   1.259   2.526   1.736
 7890SOL    HW224570   1.234   2.669   1.660
 7891SOL     OW24571   5.946   1.146   4.354
 7891SOL    HW124572   5.909   1.126   4.264
 7891SOL    HW224573   5.882   1.113   4.424
 7892SOL     OW24574   1.082   1.876   4.459
 7892SOL    HW124575   1.063   1.972   4.477
 7892SOL    HW224576   1.016   1.818   4.506
 7893SOL     OW24577   5.420   6.011   0.455
 7893SOL    HW124578   5.515   5.994   0.483
 7893SOL    HW224579   5.415   6.098   0.406
 7894SOL     OW24580   3.234   6.944   6.655
 7894SOL    HW124581   3.299   6.968   6.583
 7894SOL    HW224582   3.142   6.968   6.625
 7895SOL     OW24583   5.177   6.556   2.751
 7895SOL    HW124584   5.135   6.583   2.664
 7895SOL    HW224585   5.246   6.624   2.777
 7896SOL     OW24586   3.210   2.318   1.109
 7896SOL    HW124587   3.244   2.275   1.026
 7896SOL    HW224588   3.114   2.293   1.123
 7897SOL     OW24589   5.218   0.737   1.631
 7897SOL    HW124590   5.180   0.650   1.597
 7897SOL    HW224591   5.203   0.743   1.730
 7898SOL     OW24592   4.258   6.656   2.848
 7898SOL    HW124593   4.334   6.653   2.913
 7898SOL    HW224594   4.173   6.631   2.895
 7899SOL     OW24595   6.382   4.886   2.767
 7899SOL    HW124596   6.469   4.908   2.723
 7899SOL    HW224597   6.400   4.826   2.846
 7900SOL     OW24598   0.404   3.940   0.705
 7900SOL    HW124599   0.498   3.953   0.735
 7900SOL    HW224600   0.354   3.888   0.774
 7901SOL     OW24601   0.346   2.178   6.309
 7901SOL    HW124602   0.437   2.214   6.331
 7901SOL    HW224603   0.290   2.176   6.391
 7902SOL     OW24604   1.529   0.353   1.419
 7902SOL    HW124605   1.582   0.420   1.367
 7902SOL    HW224606   1.519   0.269   1.365
 7903SOL     OW24607   3.354   2.034   5.486
 7903SOL    HW124608   3.327   2.129   5.502
 7903SOL    HW224609   3.272   1.976   5.483
 7904SOL     OW24610   5.519   3.225   2.771
 7904SOL    HW124611   5.543   3.246   2.866
 7904SOL    HW224612   5.439   3.165   2.769
 7905SOL     OW24613   5.829   1.876   1.393
 7905SOL    HW124614   5.866   1.886   1.300
 7905SOL    HW224615   5.738   1.834   1.389
 7906SOL     OW24616   6.783   6.366   5.914
 7906SOL    HW124617   6.854   6.307   5.876
 7906SOL    HW224618   6.818   6.459   5.923
 7907SOL     OW24619   5.768   6.048   3.190
 7907SOL    HW124620   5.850   6.064   3.244
 7907SOL    HW224621   5.699   6.002   3.247
 7908SOL     OW24622   1.800   6.797   6.344
 7908SOL    HW124623   1.825   6.880   6.393
 7908SOL    HW224624   1.866   6.781   6.270
 7909SOL     OW24625   0.047   4.328   2.278
 7909SOL    HW124626   0.145   4.335   2.257
 7909SOL    HW224627   0.021   4.232   2.282
 7910SOL     OW24628   1.230   4.391   4.802
 7910SOL    HW124629   1.223   4.458   4.728
 7910SOL    HW224630   1.157   4.408   4.868
 7911SOL     OW24631   6.167   3.331   5.988
 7911SOL    HW124632   6.126   3.360   6.075
 7911SOL    HW224633   6.104   3.351   5.913
 7912SOL     OW24634   5.253   5.767   1.921
 7912SOL    HW124635   5.315   5.845   1.912
 7912SOL    HW224636   5.245   5.721   1.832
 7913SOL     OW24637   1.387   4.395   6.662
 7913SOL    HW124638   1.408   4.434   6.572
 7913SOL    HW224639   1.457   4.423   6.728
 7914SOL     OW24640   1.260   0.278   5.000
 7914SOL    HW124641   1.248   0.268   5.099
 7914SOL    HW224642   1.218   0.364   4.970
 7915SOL     OW24643   3.038   6.246   1.953
 7915SOL    HW124644   3.066   6.197   2.035
 7915SOL    HW224645   3.101   6.322   1.936
 7916SOL     OW24646   2.037   0.879   3.702
 7916SOL    HW124647   1.981   0.962   3.712
 7916SOL    HW224648   2.128   0.904   3.669
 7917SOL     OW24649   4.884   1.700   2.653
 7917SOL    HW124650   4.831   1.775   2.693
 7917SOL    HW224651   4.948   1.736   2.585
 7918SOL     OW24652   1.496   2.188   2.458
 7918SOL    HW124653   1.548   2.270   2.482
 7918SOL    HW224654   1.438   2.162   2.535
 7919SOL     OW24655   0.873   0.141   5.214
 7919SOL    HW124656   0.899   0.229   5.174
 7919SOL    HW224657   0.774   0.132   5.212
 7920SOL     OW24658   5.363   6.935   1.362
 7920SOL    HW124659   5.342   6.838   1.377
 7920SOL    HW224660   5.454   6.943   1.321
 7921SOL     OW24661   6.146   3.509   0.799
 7921SOL    HW124662   6.113   3.602   0.779
 7921SOL    HW224663   6.096   3.443   0.743
 7922SOL     OW24664   2.189   6.100   3.551
 7922SOL    HW124665   2.176   6.011   3.506
 7922SOL    HW224666   2.284   6.129   3.539
 7923SOL     OW24667   5.063   0.411   1.099
 7923SOL    HW124668   5.135   0.372   1.156
 7923SOL    HW224669   4.975   0.398   1.143
 7924SOL     OW24670   5.459   6.159   0.199
 7924SOL    HW124671   5.499   6.250   0.208
 7924SOL    HW224672   5.532   6.091   0.188
 7925SOL     OW24673   2.201   4.914   5.959
 7925SOL    HW124674   2.268   4.983   5.985
 7925SOL    HW224675   2.206   4.897   5.861
 7926SOL     OW24676   4.390   5.901   6.524
 7926SOL    HW124677   4.348   5.947   6.603
 7926SOL    HW224678   4.402   5.804   6.545
 7927SOL     OW24679   5.146   6.993   3.532
 7927SOL    HW124680   5.072   0.018   3.585
 7927SOL    HW224681   5.232   7.004   3.581
 7928SOL     OW24682   5.804   1.874   3.983
 7928SOL    HW124683   5.828   1.882   3.886
 7928SOL    HW224684   5.737   1.945   4.006
 7929SOL     OW24685   4.687   3.798   5.294
 7929SOL    HW124686   4.672   3.766   5.388
 7929SOL    HW224687   4.695   3.719   5.234
 7930SOL     OW24688   3.993   5.381   0.788
 7930SOL    HW124689   3.932   5.451   0.824
 7930SOL    HW224690   4.004   5.395   0.689
 7931SOL     OW24691   4.858   0.590   0.582
 7931SOL    HW124692   4.896   0.609   0.492
 7931SOL    HW224693   4.929   0.602   0.651
 7932SOL     OW24694   0.925   3.984   0.681
 7932SOL    HW124695   0.938   3.889   0.653
 7932SOL    HW224696   0.976   4.002   0.765
 7933SOL     OW24697   1.408   1.065   0.139
 7933SOL    HW124698   1.356   1.149   0.159
 7933SOL    HW224699   1.432   1.063   0.042
 7934SOL     OW24700   6.773   5.532   0.259
 7934SOL    HW124701   6.828   5.610   0.292
 7934SOL    HW224702   6.724   5.492   0.337
 7935SOL     OW24703   6.282   3.586   3.528
 7935SOL    HW124704   6.242   3.498   3.555
 7935SOL    HW224705   6.381   3.581   3.539
 7936SOL     OW24706   2.386   5.704   3.286
 7936SOL    HW124707   2.298   5.663   3.262
 7936SOL    HW224708   2.371   5.798   3.315
 7937SOL     OW24709   3.702   1.131   1.285
 7937SOL    HW124710   3.763   1.201   1.322
 7937SOL    HW224711   3.622   1.174   1.244
 7938SOL     OW24712   2.089   6.500   3.261
 7938SOL    HW124713   2.025   6.569   3.226
 7938SOL    HW224714   2.117   6.525   3.353
 7939SOL     OW24715   1.936   0.027   3.291
 7939SOL    HW124716   1.877   6.966   3.276
 7939SOL    HW224717   2.025   7.014   3.325
 7940SOL     OW24718   6.812   1.567   5.041
 7940SOL    HW124719   6.805   1.468   5.050
 7940SOL    HW224720   6.779   1.610   5.126
 7941SOL     OW24721   3.040   0.454   1.150
 7941SOL    HW124722   3.018   0.384   1.218
 7941SOL    HW224723   3.043   0.414   1.059
 7942SOL     OW24724   1.211   4.062   1.417
 7942SOL    HW124725   1.304   4.091   1.440
 7942SOL    HW224726   1.177   3.998   1.486
 7943SOL     OW24727   1.888   5.616   6.972
 7943SOL    HW124728   1.927   5.548   0.015
 7943SOL    HW224729   1.956   5.687   6.952
 7944SOL     OW24730   1.477   2.163   0.771
 7944SOL    HW124731   1.552   2.115   0.725
 7944SOL    HW224732   1.404   2.183   0.706
 7945SOL     OW24733   6.358   4.650   3.635
 7945SOL    HW124734   6.333   4.739   3.674
 7945SOL    HW224735   6.293   4.627   3.563
 7946SOL     OW24736   4.777   1.547   5.910
 7946SOL    HW124737   4.870   1.576   5.934
 7946SOL    HW224738   4.746   1.478   5.976
 7947SOL     OW24739   0.796   4.408   0.041
 7947SOL    HW124740   0.746   4.357   6.989
 7947SOL    HW224741   0.732   4.443   0.110
 7948SOL     OW24742   1.619   5.717   1.800
 7948SOL    HW124743   1.625   5.664   1.715
 7948SOL    HW224744   1.652   5.661   1.876
 7949SOL     OW24745   3.367   5.520   4.796
 7949SOL    HW124746   3.407   5.484   4.711
 7949SOL    HW224747   3.421   5.488   4.874
 7950SOL     OW24748   6.477   2.572   5.942
 7950SOL    HW124749   6.406   2.517   5.985
 7950SOL    HW224750   6.521   2.629   6.011
 7951SOL     OW24751   3.347   0.797   2.772
 7951SOL    HW124752   3.280   0.869   2.789
 7951SOL    HW224753   3.309   0.731   2.707
 7952SOL     OW24754   0.062   3.379   5.403
 7952SOL    HW124755   0.091   3.303   5.461
 7952SOL    HW224756   7.005   3.350   5.345
 7953SOL     OW24757   0.805   0.827   0.607
 7953SOL    HW124758   0.859   0.886   0.547
 7953SOL    HW224759   0.740   0.775   0.553
 7954SOL     OW24760   3.663   2.945   0.616
 7954SOL    HW124761   3.723   2.940   0.537
 7954SOL    HW224762   3.696   2.883   0.688
 7955SOL     OW24763   6.468   0.405   6.175
 7955SOL    HW124764   6.557   0.381   6.214
 7955SOL    HW224765   6.459   0.505   6.173
 7956SOL     OW24766   0.090   0.218   0.777
 7956SOL    HW124767   0.075   0.119   0.768
 7956SOL    HW224768   0.104   0.258   0.687
 7957SOL     OW24769   5.584   1.875   6.073
 7957SOL    HW124770   5.543   1.925   5.997
 7957SOL    HW224771   5.643   1.803   6.038
 7958SOL     OW24772   4.657   2.547   6.727
 7958SOL    HW124773   4.743   2.576   6.686
 7958SOL    HW224774   4.583   2.607   6.695
 7959SOL     OW24775   5.331   2.828   6.961
 7959SOL    HW124776   5.261   2.825   6.889
 7959SOL    HW224777   5.393   2.905   6.944
 7960SOL     OW24778   1.064   2.431   4.936
 7960SOL    HW124779   1.043   2.524   4.905
 7960SOL    HW224780   0.992   2.369   4.906
 7961SOL     OW24781   6.065   0.219   6.085
 7961SOL    HW124782   5.968   0.226   6.105
 7961SOL    HW224783   6.098   0.305   6.044
 7962SOL     OW24784   5.318   0.180   4.798
 7962SOL    HW124785   5.349   0.172   4.892
 7962SOL    HW224786   5.222   0.152   4.792
 7963SOL     OW24787   5.895   6.189   2.660
 7963SOL    HW124788   5.972   6.150   2.710
 7963SOL    HW224789   5.875   6.280   2.695
 7964SOL     OW24790   0.330   4.111   1.679
 7964SOL    HW124791   0.362   4.205   1.664
 7964SOL    HW224792   0.284   4.078   1.597
 7965SOL     OW24793   4.218   1.637   6.504
 7965SOL    HW124794   4.142   1.587   6.546
 7965SOL    HW224795   4.285   1.571   6.470
 7966SOL     OW24796   6.114   3.669   5.333
 7966SOL    HW124797   6.073   3.701   5.248
 7966SOL    HW224798   6.042   3.645   5.398
 7967SOL     OW24799   2.146   4.205   1.427
 7967SOL    HW124800   2.081   4.130   1.431
 7967SOL    HW224801   2.236   4.170   1.403
 7968SOL     OW24802   2.263   2.231   3.765
 7968SOL    HW124803   2.305   2.246   3.675
 7968SOL    HW224804   2.167   2.258   3.762
 7969SOL     OW24805   2.988   4.090   6.425
 7969SOL    HW124806   2.898   4.046   6.433
 7969SOL    HW224807   3.056   4.033   6.471
 7970SOL     OW24808   6.520   3.083   2.810
 7970SOL    HW124809   6.507   3.138   2.727
 7970SOL    HW224810   6.511   3.142   2.891
 7971SOL     OW24811   2.671   0.386   0.060
 7971SOL    HW124812   2.652   0.331   6.997
 7971SOL    HW224813   2.716   0.471   0.032
 7972SOL     OW24814   4.149   3.370   4.564
 7972SOL    HW124815   4.071   3.421   4.528
 7972SOL    HW224816   4.187   3.312   4.493
 7973SOL     OW24817   0.443   5.319   2.093
 7973SOL    HW124818   0.350   5.283   2.094
 7973SOL    HW224819   0.455   5.384   2.168
 7974SOL     OW24820   6.753   2.862   4.276
 7974SOL    HW124821   6.790   2.953   4.259
 7974SOL    HW224822   6.778   2.833   4.369
 7975SOL     OW24823   3.986   0.684   6.718
 7975SOL    HW124824   4.007   0.689   6.620
 7975SOL    HW224825   3.965   0.589   6.743
 7976SOL     OW24826   0.373   0.362   0.533
 7976SOL    HW124827   0.350   0.385   0.627
 7976SOL    HW224828   0.465   0.396   0.512
 7977SOL     OW24829   5.006   4.792   2.588
 7977SOL    HW124830   4.953   4.714   2.555
 7977SOL    HW224831   4.979   4.875   2.539
 7978SOL     OW24832   0.390   4.199   0.858
 7978SOL    HW124833   0.310   4.187   0.800
 7978SOL    HW224834   0.460   4.250   0.808
 7979SOL     OW24835   3.521   2.328   5.714
 7979SOL    HW124836   3.452   2.399   5.726
 7979SOL    HW224837   3.498   2.272   5.635
 7980SOL     OW24838   4.329   5.718   2.765
 7980SOL    HW124839   4.342   5.813   2.791
 7980SOL    HW224840   4.379   5.699   2.680
 7981SOL     OW24841   1.007   2.738   4.087
 7981SOL    HW124842   1.030   2.835   4.077
 7981SOL    HW224843   0.920   2.729   4.136
 7982SOL     OW24844   6.289   6.858   0.512
 7982SOL    HW124845   6.364   6.799   0.482
 7982SOL    HW224846   6.227   6.874   0.435
 7983SOL     OW24847   3.369   1.618   1.504
 7983SOL    HW124848   3.325   1.533   1.476
 7983SOL    HW224849   3.301   1.691   1.506
 7984SOL     OW24850   6.331   2.534   2.971
 7984SOL    HW124851   6.338   2.480   2.887
 7984SOL    HW224852   6.237   2.529   3.006
 7985SOL     OW24853   3.103   3.570   5.745
 7985SOL    HW124854   3.020   3.521   5.770
 7985SOL    HW224855   3.180   3.506   5.740
 7986SOL     OW24856   2.247   1.017   3.564
 7986SOL    HW124857   2.193   1.074   3.503
 7986SOL    HW224858   2.313   0.964   3.510
 7987SOL     OW24859   1.263   3.346   6.613
 7987SOL    HW124860   1.324   3.341   6.534
 7987SOL    HW224861   1.173   3.312   6.587
 7988SOL     OW24862   6.219   0.188   1.601
 7988SOL    HW124863   6.318   0.202   1.603
 7988SOL    HW224864   6.176   0.248   1.669
 7989SOL     OW24865   0.749   4.988   1.186
 7989SOL    HW124866   0.651   5.006   1.183
 7989SOL    HW224867   0.792   5.047   1.254
 7990SOL     OW24868   4.369   5.211   5.502
 7990SOL    HW124869   4.398   5.118   5.526
 7990SOL    HW224870   4.441   5.276   5.528
 7991SOL     OW24871   5.210   0.937   4.340
 7991SOL    HW124872   5.175   0.954   4.248
 7991SOL    HW224873   5.271   1.012   4.366
 7992SOL     OW24874   2.534   0.522   0.258
 7992SOL    HW124875   2.552   0.461   0.181
 7992SOL    HW224876   2.595   0.601   0.254
 7993SOL     OW24877   6.307   5.460   0.677
 7993SOL    HW124878   6.407   5.468   0.676
 7993SOL    HW224879   6.270   5.496   0.591
 7994SOL     OW24880   0.751   1.458   5.144
 7994SOL    HW124881   0.653   1.473   5.156
 7994SOL    HW224882   0.798   1.546   5.142
 7995SOL     OW24883   0.325   6.266   0.758
 7995SOL    HW124884   0.353   6.188   0.701
 7995SOL    HW224885   0.276   6.232   0.838
 7996SOL     OW24886   1.786   6.488   3.946
 7996SOL    HW124887   1.855   6.485   3.873
 7996SOL    HW224888   1.710   6.546   3.918
 7997SOL     OW24889   2.569   0.339   5.806
 7997SOL    HW124890   2.624   0.416   5.773
 7997SOL    HW224891   2.490   0.326   5.746
 7998SOL     OW24892   1.903   1.686   1.592
 7998SOL    HW124893   1.883   1.647   1.502
 7998SOL    HW224894   1.817   1.698   1.642
 7999SOL     OW24895   7.000   0.730   2.534
 7999SOL    HW124896   6.938   0.746   2.612
 7999SOL    HW224897   6.975   0.644   2.490
 8000SOL     OW24898   4.503   5.972   0.909
 8000SOL    HW124899   4.503   5.885   0.958
 8000SOL    HW224900   4.555   5.962   0.824
 8001SOL     OW24901   5.401   5.043   2.804
 8001SOL    HW124902   5.369   4.954   2.836
 8001SOL    HW224903   5.404   5.107   2.880
 8002SOL     OW24904   1.187   0.530   4.988
 8002SOL    HW124905   1.252   0.530   5.064
 8002SOL    HW224906   1.106   0.583   5.012
 8003SOL     OW24907   2.475   5.501   2.914
 8003SOL    HW124908   2.537   5.491   2.836
 8003SOL    HW224909   2.518   5.559   2.983
 8004SOL     OW24910   2.085   3.652   4.012
 8004SOL    HW124911   2.123   3.610   4.095
 8004SOL    HW224912   2.050   3.581   3.952
 8005SOL     OW24913   2.813   0.335   4.679
 8005SOL    HW124914   2.718   0.310   4.663
 8005SOL    HW224915   2.849   0.385   4.600
 8006SOL     OW24916   4.566   5.156   6.243
 8006SOL    HW124917   4.640   5.153   6.177
 8006SOL    HW224918   4.602   5.186   6.332
 8007SOL     OW24919   6.957   0.610   1.051
 8007SOL    HW124920   0.002   0.575   1.121
 8007SOL    HW224921   6.982   0.704   1.027
 8008SOL     OW24922   5.282   5.295   1.291
 8008SOL    HW124923   5.368   5.276   1.242
 8008SOL    HW224924   5.206   5.255   1.240
 8009SOL     OW24925   6.169   0.333   1.062
 8009SOL    HW124926   6.208   0.275   0.991
 8009SOL    HW224927   6.153   0.279   1.145
 8010SOL     OW24928   2.839   0.196   0.212
 8010SOL    HW124929   2.809   0.268   0.149
 8010SOL    HW224930   2.785   0.201   0.296
 8011SOL     OW24931   3.875   2.105   1.861
 8011SOL    HW124932   3.869   2.018   1.910
 8011SOL    HW224933   3.803   2.166   1.894
 8012SOL     OW24934   5.733   0.611   5.362
 8012SOL    HW124935   5.688   0.638   5.276
 8012SOL    HW224936   5.712   0.515   5.381
 8013SOL     OW24937   3.527   0.130   3.413
 8013SOL    HW124938   3.593   0.079   3.468
 8013SOL    HW224939   3.509   0.219   3.455
 8014SOL     OW24940   2.343   2.831   3.349
 8014SOL    HW124941   2.427   2.832   3.402
 8014SOL    HW224942   2.342   2.751   3.289
 8015SOL     OW24943   3.431   5.823   4.784
 8015SOL    HW124944   3.515   5.773   4.763
 8015SOL    HW224945   3.352   5.764   4.766
 8016SOL     OW24946   2.913   3.292   4.904
 8016SOL    HW124947   2.923   3.371   4.964
 8016SOL    HW224948   2.836   3.236   4.935
 8017SOL     OW24949   5.368   6.275   1.997
 8017SOL    HW124950   5.309   6.197   2.019
 8017SOL    HW224951   5.335   6.318   1.913
 8018SOL     OW24952   3.168   2.801   1.296
 8018SOL    HW124953   3.121   2.888   1.312
 8018SOL    HW224954   3.182   2.788   1.198
 8019SOL     OW24955   3.062   3.459   1.446
 8019SOL    HW124956   3.027   3.388   1.508
 8019SOL    HW224957   3.073   3.544   1.497
 8020SOL     OW24958   0.904   6.868   0.153
 8020SOL    HW124959   0.836   6.934   0.122
 8020SOL    HW224960   0.884   6.779   0.112
 8021SOL     OW24961   1.199   2.442   0.586
 8021SOL    HW124962   1.183   2.539   0.567
 8021SOL    HW224963   1.202   2.428   0.685
 8022SOL     OW24964   4.519   0.450   2.904
 8022SOL    HW124965   4.449   0.380   2.890
 8022SOL    HW224966   4.607   0.406   2.925
 8023SOL     OW24967   3.482   4.901   2.296
 8023SOL    HW124968   3.522   4.841   2.228
 8023SOL    HW224969   3.384   4.912   2.277
 8024SOL     OW24970   3.000   0.389   6.270
 8024SOL    HW124971   2.945   0.443   6.206
 8024SOL    HW224972   2.939   0.339   6.331
 8025SOL     OW24973   1.107   6.812   1.341
 8025SOL    HW124974   1.190   6.803   1.396
 8025SOL    HW224975   1.075   6.721   1.315
 8026SOL     OW24976   0.527   6.661   5.545
 8026SOL    HW124977   0.437   6.653   5.504
 8026SOL    HW224978   0.579   6.577   5.531
 8027SOL     OW24979   4.139   6.505   6.628
 8027SOL    HW124980   4.176   6.552   6.548
 8027SOL    HW224981   4.066   6.559   6.668
 8028SOL     OW24982   3.953   5.702   6.657
 8028SOL    HW124983   3.937   5.659   6.568
 8028SOL    HW224984   3.960   5.801   6.645
 8029SOL     OW24985   1.177   6.741   1.842
 8029SOL    HW124986   1.193   6.839   1.832
 8029SOL    HW224987   1.243   6.691   1.786
 8030SOL     OW24988   0.575   3.694   0.944
 8030SOL    HW124989   0.657   3.744   0.973
 8030SOL    HW224990   0.590   3.596   0.954
 8031SOL     OW24991   0.744   1.078   3.946
 8031SOL    HW124992   0.671   1.009   3.949
 8031SOL    HW224993   0.759   1.106   3.851
 8032SOL     OW24994   0.052   3.386   1.377
 8032SOL    HW124995   0.151   3.394   1.379
 8032SOL    HW224996   0.025   3.314   1.314
 8033SOL     OW24997   4.330   4.840   1.013
 8033SOL    HW124998   4.338   4.778   0.935
 8033SOL    HW224999   4.233   4.861   1.029
 8034SOL     OW25000   1.507   1.244   4.916
 8034SOL    HW125001   1.516   1.282   4.824
 8034SOL    HW225002   1.597   1.220   4.951
 8035SOL     OW25003   5.228   0.392   4.636
 8035SOL    HW125004   5.296   0.464   4.625
 8035SOL    HW225005   5.268   0.316   4.688
 8036SOL     OW25006   5.380   4.765   5.166
 8036SOL    HW125007   5.361   4.861   5.189
 8036SOL    HW225008   5.294   4.716   5.153
 8037SOL     OW25009   2.900   1.202   6.384
 8037SOL    HW125010   2.820   1.262   6.382
 8037SOL    HW225011   2.980   1.254   6.416
 8038SOL     OW25012   5.938   5.763   1.653
 8038SOL    HW125013   5.968   5.724   1.739
 8038SOL    HW225014   6.017   5.776   1.593
 8039SOL     OW25015   1.769   2.946   4.858
 8039SOL    HW125016   1.819   2.977   4.778
 8039SOL    HW225017   1.821   2.874   4.905
 8040SOL     OW25018   0.514   6.903   5.648
 8040SOL    HW125019   0.517   6.815   5.599
 8040SOL    HW225020   0.602   6.949   5.640
 8041SOL     OW25021   3.133   1.779   2.872
 8041SOL    HW125022   3.037   1.807   2.877
 8041SOL    HW225023   3.156   1.756   2.778
 8042SOL     OW25024   4.487   3.925   6.282
 8042SOL    HW125025   4.410   3.918   6.344
 8042SOL    HW225026   4.541   3.841   6.286
 8043SOL     OW25027   5.490   5.625   6.809
 8043SOL    HW125028   5.479   5.629   6.908
 8043SOL    HW225029   5.556   5.554   6.786
 8044SOL     OW25030   1.213   2.466   1.425
 8044SOL    HW125031   1.171   2.384   1.384
 8044SOL    HW225032   1.242   2.445   1.518
 8045SOL     OW25033   5.583   3.296   4.966
 8045SOL    HW125034   5.646   3.299   5.044
 8045SOL    HW225035   5.621   3.350   4.891
 8046SOL     OW25036   0.702   4.285   1.288
 8046SOL    HW125037   0.667   4.335   1.209
 8046SOL    HW225038   0.627   4.240   1.337
 8047SOL     OW25039   3.133   6.330   6.644
 8047SOL    HW125040   3.046   6.376   6.624
 8047SOL    HW225041   3.193   6.338   6.565
 8048SOL     OW25042   4.632   1.958   6.769
 8048SOL    HW125043   4.588   2.029   6.824
 8048SOL    HW225044   4.731   1.968   6.775
 8049SOL     OW25045   2.239   1.398   1.037
 8049SOL    HW125046   2.245   1.305   1.001
 8049SOL    HW225047   2.238   1.463   0.961
 8050SOL     OW25048   6.401   5.012   5.661
 8050SOL    HW125049   6.457   4.934   5.691
 8050SOL    HW225050   6.311   5.007   5.703
 8051SOL     OW25051   4.018   6.735   3.529
 8051SOL    HW125052   4.014   6.792   3.611
 8051SOL    HW225053   3.959   6.774   3.459
 8052SOL     OW25054   2.236   1.468   2.964
 8052SOL    HW125055   2.313   1.406   2.955
 8052SOL    HW225056   2.206   1.496   2.873
 8053SOL     OW25057   1.518   1.150   6.513
 8053SOL    HW125058   1.422   1.160   6.536
 8053SOL    HW225059   1.561   1.241   6.508
 8054SOL     OW25060   5.093   3.640   5.005
 8054SOL    HW125061   5.093   3.739   4.993
 8054SOL    HW225062   5.038   3.597   4.933
 8055SOL     OW25063   6.839   0.757   6.770
 8055SOL    HW125064   6.798   0.756   6.679
 8055SOL    HW225065   6.816   0.844   6.815
 8056SOL     OW25066   1.915   3.006   2.574
 8056SOL    HW125067   1.932   2.908   2.573
 8056SOL    HW225068   1.999   3.055   2.599
 8057SOL     OW25069   3.186   1.794   1.445
 8057SOL    HW125070   3.093   1.812   1.412
 8057SOL    HW225071   3.249   1.858   1.402
 8058SOL     OW25072   3.405   6.291   2.132
 8058SOL    HW125073   3.488   6.321   2.178
 8058SOL    HW225074   3.429   6.235   2.052
 8059SOL     OW25075   4.704   4.063   5.259
 8059SOL    HW125076   4.681   3.968   5.279
 8059SOL    HW225077   4.621   4.117   5.246
 8060SOL     OW25078   0.308   1.423   5.256
 8060SOL    HW125079   0.388   1.461   5.209
 8060SOL    HW225080   0.231   1.421   5.193
 8061SOL     OW25081   6.711   0.902   0.838
 8061SOL    HW125082   6.670   0.919   0.748
 8061SOL    HW225083   6.699   0.982   0.896
 8062SOL     OW25084   4.729   4.766   6.144
 8062SOL    HW125085   4.630   4.759   6.154
 8062SOL    HW225086   4.750   4.834   6.073
 8063SOL     OW25087   2.403   4.356   2.425
 8063SOL    HW125088   2.347   4.420   2.478
 8063SOL    HW225089   2.493   4.397   2.408
 8064SOL     OW25090   6.866   2.697   0.336
 8064SOL    HW125091   6.931   2.661   0.269
 8064SOL    HW225092   6.795   2.750   0.289
 8065SOL     OW25093   4.301   0.478   6.744
 8065SOL    HW125094   4.243   0.477   6.662
 8065SOL    HW225095   4.319   0.573   6.770
 8066SOL     OW25096   6.222   1.089   5.840
 8066SOL    HW125097   6.274   1.039   5.770
 8066SOL    HW225098   6.125   1.085   5.818
 8067SOL     OW25099   5.366   0.223   4.340
 8067SOL    HW125100   5.298   0.296   4.333
 8067SOL    HW225101   5.457   0.264   4.343
 8068SOL     OW25102   0.426   4.162   0.551
 8068SOL    HW125103   0.507   4.154   0.492
 8068SOL    HW225104   0.415   4.078   0.603
 8069SOL     OW25105   0.925   2.785   1.793
 8069SOL    HW125106   0.964   2.695   1.813
 8069SOL    HW225107   0.987   2.835   1.732
 8070SOL     OW25108   5.106   4.089   1.770
 8070SOL    HW125109   5.117   4.169   1.711
 8070SOL    HW225110   5.055   4.114   1.852
 8071SOL     OW25111   1.870   0.081   6.222
 8071SOL    HW125112   1.868   0.122   6.314
 8071SOL    HW225113   1.777   0.058   6.194
 8072SOL     OW25114   2.717   2.120   5.503
 8072SOL    HW125115   2.787   2.176   5.548
 8072SOL    HW225116   2.746   2.024   5.505
 8073SOL     OW25117   5.502   6.552   0.028
 8073SOL    HW125118   5.484   6.611   0.107
 8073SOL    HW225119   5.438   6.575   6.972
 8074SOL     OW25120   6.411   0.517   1.046
 8074SOL    HW125121   6.312   0.501   1.052
 8074SOL    HW225122   6.460   0.443   1.091
 8075SOL     OW25123   0.449   6.903   1.021
 8075SOL    HW125124   0.449   7.000   1.048
 8075SOL    HW225125   0.529   6.884   0.964
 8076SOL     OW25126   6.724   5.761   0.594
 8076SOL    HW125127   6.628   5.753   0.567
 8076SOL    HW225128   6.782   5.735   0.517
 8077SOL     OW25129   6.254   4.536   0.828
 8077SOL    HW125130   6.203   4.452   0.848
 8077SOL    HW225131   6.232   4.605   0.896
 8078SOL     OW25132   5.610   1.926   1.784
 8078SOL    HW125133   5.673   1.849   1.777
 8078SOL    HW225134   5.641   1.989   1.855
 8079SOL     OW25135   6.894   0.543   6.907
 8079SOL    HW125136   6.824   0.544   6.978
 8079SOL    HW225137   6.882   0.623   6.848
 8080SOL     OW25138   6.843   3.385   3.798
 8080SOL    HW125139   6.888   3.468   3.834
 8080SOL    HW225140   6.873   3.370   3.704
 8081SOL     OW25141   5.353   0.696   5.352
 8081SOL    HW125142   5.372   0.789   5.320
 8081SOL    HW225143   5.267   0.664   5.311
 8082SOL     OW25144   4.488   1.793   4.841
 8082SOL    HW125145   4.533   1.749   4.763
 8082SOL    HW225146   4.505   1.891   4.838
 8083SOL     OW25147   6.845   2.628   3.809
 8083SOL    HW125148   6.787   2.604   3.732
 8083SOL    HW225149   6.939   2.643   3.777
 8084SOL     OW25150   5.672   1.578   0.176
 8084SOL    HW125151   5.608   1.647   0.142
 8084SOL    HW225152   5.719   1.613   0.257
 8085SOL     OW25153   1.600   5.862   4.261
 8085SOL    HW125154   1.698   5.840   4.256
 8085SOL    HW225155   1.567   5.886   4.169
 8086SOL     OW25156   6.932   2.048   1.917
 8086SOL    HW125157   6.987   1.980   1.868
 8086SOL    HW225158   6.959   2.048   2.014
 8087SOL     OW25159   6.150   1.149   6.242
 8087SOL    HW125160   6.181   1.236   6.281
 8087SOL    HW225161   6.224   1.107   6.190
 8088SOL     OW25162   6.463   0.235   5.148
 8088SOL    HW125163   6.434   0.235   5.053
 8088SOL    HW225164   6.471   0.140   5.181
 8089SOL     OW25165   6.407   0.585   0.335
 8089SOL    HW125166   6.331   0.550   0.280
 8089SOL    HW225167   6.386   0.575   0.432
 8090SOL     OW25168   4.249   1.935   4.511
 8090SOL    HW125169   4.190   2.011   4.483
 8090SOL    HW225170   4.343   1.955   4.484
 8091SOL     OW25171   0.820   3.507   5.217
 8091SOL    HW125172   0.913   3.516   5.181
 8091SOL    HW225173   0.775   3.596   5.215
 8092SOL     OW25174   3.740   7.014   5.369
 8092SOL    HW125175   3.688   6.936   5.334
 8092SOL    HW225176   3.810   0.023   5.303
 8093SOL     OW25177   3.902   0.248   3.153
 8093SOL    HW125178   3.835   0.275   3.085
 8093SOL    HW225179   3.993   0.244   3.111
 8094SOL     OW25180   2.090   4.863   3.266
 8094SOL    HW125181   2.049   4.917   3.192
 8094SOL    HW225182   2.169   4.912   3.303
 8095SOL     OW25183   0.994   5.741   4.629
 8095SOL    HW125184   1.022   5.699   4.543
 8095SOL    HW225185   0.895   5.733   4.640
 8096SOL     OW25186   0.933   4.954   0.682
 8096SOL    HW125187   0.838   4.983   0.690
 8096SOL    HW225188   0.988   5.031   0.648
 8097SOL     OW25189   4.427   0.354   0.241
 8097SOL    HW125190   4.421   0.316   0.149
 8097SOL    HW225191   4.484   0.437   0.239
 8098SOL     OW25192   2.407   6.256   5.403
 8098SOL    HW125193   2.390   6.315   5.482
 8098SOL    HW225194   2.359   6.294   5.323
 8099SOL     OW25195   2.102   3.976   3.108
 8099SOL    HW125196   2.108   3.880   3.081
 8099SOL    HW225197   2.010   4.010   3.089
 8100SOL     OW25198   0.002   6.241   0.052
 8100SOL    HW125199   0.067   6.169   0.029
 8100SOL    HW225200   0.022   6.276   0.143
 8101SOL     OW25201   3.014   4.899   6.817
 8101SOL    HW125202   2.986   4.830   6.751
 8101SOL    HW225203   3.105   4.876   6.853
 8102SOL     OW25204   1.481   4.307   3.947
 8102SOL    HW125205   1.531   4.241   3.890
 8102SOL    HW225206   1.426   4.257   4.015
 8103SOL     OW25207   4.749   0.770   1.973
 8103SOL    HW125208   4.698   0.855   1.984
 8103SOL    HW225209   4.686   0.694   1.962
 8104SOL     OW25210   1.174   6.694   0.303
 8104SOL    HW125211   1.136   6.740   0.223
 8104SOL    HW225212   1.183   6.596   0.285
 8105SOL     OW25213   0.069   0.011   2.639
 8105SOL    HW125214   0.010   0.030   2.561
 8105SOL    HW225215   0.071   0.091   2.699
 8106SOL     OW25216   3.967   6.261   6.982
 8106SOL    HW125217   3.995   6.315   0.044
 8106SOL    HW225218   3.875   6.288   6.955
 8107SOL     OW25219   0.872   6.153   0.253
 8107SOL    HW125220   0.932   6.219   0.209
 8107SOL    HW225221   0.795   6.132   0.193
 8108SOL     OW25222   1.370   0.986   1.210
 8108SOL    HW125223   1.385   1.014   1.115
 8108SOL    HW225224   1.272   0.989   1.231
 8109SOL     OW25225   6.950   4.134   1.978
 8109SOL    HW125226   0.022   4.094   1.959
 8109SOL    HW225227   6.937   4.140   2.077
 8110SOL     OW25228   4.520   4.560   0.153
 8110SOL    HW125229   4.428   4.524   0.141
 8110SOL    HW225230   4.560   4.522   0.236
 8111SOL     OW25231   5.376   2.041   2.167
 8111SOL    HW125232   5.389   2.138   2.145
 8111SOL    HW225233   5.295   2.030   2.225
 8112SOL     OW25234   1.933   4.630   6.614
 8112SOL    HW125235   1.947   4.567   6.538
 8112SOL    HW225236   1.842   4.617   6.653
 8113SOL     OW25237   5.338   5.343   6.515
 8113SOL    HW125238   5.250   5.316   6.554
 8113SOL    HW225239   5.399   5.264   6.513
 8114SOL     OW25240   2.164   2.923   2.833
 8114SOL    HW125241   2.136   2.858   2.763
 8114SOL    HW225242   2.240   2.884   2.886
 8115SOL     OW25243   2.408   1.423   6.252
 8115SOL    HW125244   2.495   1.471   6.245
 8115SOL    HW225245   2.333   1.483   6.224
 8116SOL     OW25246   4.099   3.376   2.302
 8116SOL    HW125247   4.193   3.346   2.317
 8116SOL    HW225248   4.036   3.302   2.326
 8117SOL     OW25249   0.844   0.664   3.624
 8117SOL    HW125250   0.917   0.731   3.623
 8117SOL    HW225251   0.771   0.694   3.685
 8118SOL     OW25252   6.597   2.483   6.472
 8118SOL    HW125253   6.593   2.459   6.375
 8118SOL    HW225254   6.517   2.447   6.520
 8119SOL     OW25255   5.417   5.037   6.785
 8119SOL    HW125256   5.320   5.027   6.806
 8119SOL    HW225257   5.456   5.111   6.840
 8120SOL     OW25258   1.956   6.195   2.511
 8120SOL    HW125259   2.028   6.209   2.578
 8120SOL    HW225260   1.921   6.101   2.518
 8121SOL     OW25261   1.397   2.489   3.096
 8121SOL    HW125262   1.328   2.474   3.025
 8121SOL    HW225263   1.381   2.426   3.172
 8122SOL     OW25264   0.970   5.209   0.892
 8122SOL    HW125265   0.978   5.111   0.914
 8122SOL    HW225266   0.901   5.251   0.952
 8123SOL     OW25267   6.544   0.837   6.058
 8123SOL    HW125268   6.620   0.786   6.098
 8123SOL    HW225269   6.539   0.819   5.960
 8124SOL     OW25270   6.021   6.241   5.664
 8124SOL    HW125271   5.962   6.315   5.699
 8124SOL    HW225272   6.114   6.275   5.653
 8125SOL     OW25273   0.728   5.953   2.285
 8125SOL    HW125274   0.743   6.014   2.207
 8125SOL    HW225275   0.787   5.980   2.360
 8126SOL     OW25276   3.364   5.597   4.282
 8126SOL    HW125277   3.434   5.583   4.212
 8126SOL    HW225278   3.351   5.695   4.297
 8127SOL     OW25279   4.425   1.543   6.017
 8127SOL    HW125280   4.503   1.506   6.068
 8127SOL    HW225281   4.350   1.562   6.080
 8128SOL     OW25282   3.600   3.588   0.963
 8128SOL    HW125283   3.663   3.606   0.887
 8128SOL    HW225284   3.649   3.600   1.050
 8129SOL     OW25285   6.284   2.475   3.253
 8129SOL    HW125286   6.327   2.505   3.167
 8129SOL    HW225287   6.215   2.542   3.280
 8130SOL     OW25288   0.044   6.016   6.755
 8130SOL    HW125289   6.971   6.036   6.794
 8130SOL    HW225290   0.066   6.084   6.686
 8131SOL     OW25291   2.187   2.700   0.450
 8131SOL    HW125292   2.277   2.711   0.409
 8131SOL    HW225293   2.154   2.788   0.482
 8132SOL     OW25294   5.883   1.627   4.349
 8132SOL    HW125295   5.817   1.664   4.416
 8132SOL    HW225296   5.942   1.701   4.318
 8133SOL     OW25297   4.088   5.491   1.075
 8133SOL    HW125298   4.025   5.473   1.000
 8133SOL    HW225299   4.050   5.456   1.160
 8134SOL     OW25300   6.493   1.558   6.902
 8134SOL    HW125301   6.463   1.653   6.909
 8134SOL    HW225302   6.535   1.544   6.812
 8135SOL     OW25303   2.398   6.074   2.057
 8135SOL    HW125304   2.469   6.051   2.123
 8135SOL    HW225305   2.329   6.001   2.055
 8136SOL     OW25306   4.625   4.591   2.339
 8136SOL    HW125307   4.666   4.520   2.281
 8136SOL    HW225308   4.549   4.633   2.289
 8137SOL     OW25309   3.901   1.100   5.693
 8137SOL    HW125310   3.910   1.005   5.722
 8137SOL    HW225311   3.886   1.103   5.594
 8138SOL     OW25312   6.317   0.379   2.718
 8138SOL    HW125313   6.242   0.410   2.660
 8138SOL    HW225314   6.294   0.290   2.758
 8139SOL     OW25315   1.030   1.304   4.593
 8139SOL    HW125316   0.940   1.266   4.612
 8139SOL    HW225317   1.095   1.275   4.663
 8140SOL     OW25318   4.672   2.625   2.931
 8140SOL    HW125319   4.656   2.639   3.028
 8140SOL    HW225320   4.714   2.708   2.892
 8141SOL     OW25321   5.686   4.071   3.627
 8141SOL    HW125322   5.637   4.147   3.670
 8141SOL    HW225323   5.758   4.038   3.688
 8142SOL     OW25324   0.855   5.954   0.527
 8142SOL    HW125325   0.897   5.923   0.442
 8142SOL    HW225326   0.757   5.967   0.514
 8143SOL     OW25327   6.860   2.607   6.249
 8143SOL    HW125328   6.790   2.648   6.190
 8143SOL    HW225329   6.835   2.621   6.345
 8144SOL     OW25330   4.828   6.346   0.232
 8144SOL    HW125331   4.835   6.351   0.133
 8144SOL    HW225332   4.733   6.354   0.260
 8145SOL     OW25333   4.551   6.551   4.368
 8145SOL    HW125334   4.551   6.498   4.283
 8145SOL    HW225335   4.487   6.627   4.361
 8146SOL     OW25336   3.294   1.913   3.024
 8146SOL    HW125337   3.211   1.882   2.979
 8146SOL    HW225338   3.335   1.837   3.074
 8147SOL     OW25339   5.118   1.398   3.309
 8147SOL    HW125340   5.175   1.457   3.252
 8147SOL    HW225341   5.072   1.331   3.251
 8148SOL     OW25342   0.712   3.466   2.981
 8148SOL    HW125343   0.762   3.495   3.063
 8148SOL    HW225344   0.658   3.543   2.947
 8149SOL     OW25345   4.011   5.352   4.151
 8149SOL    HW125346   3.954   5.306   4.219
 8149SOL    HW225347   4.023   5.293   4.072
 8150SOL     OW25348   1.222   5.726   0.939
 8150SOL    HW125349   1.305   5.674   0.961
 8150SOL    HW225350   1.146   5.663   0.928
 8151SOL     OW25351   1.145   1.434   5.047
 8151SOL    HW125352   1.161   1.471   4.956
 8151SOL    HW225353   1.180   1.498   5.116
 8152SOL     OW25354   0.714   0.877   3.210
 8152SOL    HW125355   0.696   0.792   3.161
 8152SOL    HW225356   0.655   0.950   3.174
 8153SOL     OW25357   2.361   6.089   0.070
 8153SOL    HW125358   2.449   6.119   0.034
 8153SOL    HW225359   2.304   6.054   7.013
 8154SOL     OW25360   1.816   6.174   3.596
 8154SOL    HW125361   1.879   6.167   3.673
 8154SOL    HW225362   1.858   6.225   3.521
 8155SOL     OW25363   3.772   3.720   4.655
 8155SOL    HW125364   3.719   3.737   4.572
 8155SOL    HW225365   3.863   3.760   4.646
 8156SOL     OW25366   0.499   6.764   5.163
 8156SOL    HW125367   0.534   6.710   5.087
 8156SOL    HW225368   0.439   6.836   5.128
 8157SOL     OW25369   5.821   2.345   6.904
 8157SOL    HW125370   5.832   2.284   6.825
 8157SOL    HW225371   5.788   2.292   6.982
 8158SOL     OW25372   1.011   5.957   2.856
 8158SOL    HW125373   0.932   5.965   2.916
 8158SOL    HW225374   0.985   5.908   2.773
 8159SOL     OW25375   0.485   6.176   0.249
 8159SOL    HW125376   0.406   6.116   0.233
 8159SOL    HW225377   0.550   6.167   0.174
 8160SOL     OW25378   5.478   2.311   0.931
 8160SOL    HW125379   5.532   2.235   0.967
 8160SOL    HW225380   5.395   2.275   0.888
 8161SOL     OW25381   4.210   3.761   1.480
 8161SOL    HW125382   4.196   3.855   1.450
 8161SOL    HW225383   4.208   3.700   1.401
 8162SOL     OW25384   6.224   0.760   1.442
 8162SOL    HW125385   6.318   0.727   1.446
 8162SOL    HW225386   6.221   0.849   1.398
 8163SOL     OW25387   2.250   3.168   5.340
 8163SOL    HW125388   2.324   3.227   5.371
 8163SOL    HW225389   2.287   3.081   5.308
 8164SOL     OW25390   5.802   4.680   1.514
 8164SOL    HW125391   5.840   4.599   1.559
 8164SOL    HW225392   5.798   4.755   1.579
 8165SOL     OW25393   1.340   3.231   1.360
 8165SOL    HW125394   1.250   3.214   1.319
 8165SOL    HW225395   1.377   3.316   1.322
 8166SOL     OW25396   2.556   0.026   2.467
 8166SOL    HW125397   2.555   0.055   2.371
 8166SOL    HW225398   2.643   0.050   2.509
 8167SOL     OW25399   5.492   2.651   4.484
 8167SOL    HW125400   5.438   2.699   4.553
 8167SOL    HW225401   5.436   2.637   4.402
 8168SOL     OW25402   2.759   1.706   2.345
 8168SOL    HW125403   2.704   1.693   2.262
 8168SOL    HW225404   2.843   1.651   2.338
 8169SOL     OW25405   5.497   3.898   5.673
 8169SOL    HW125406   5.474   3.878   5.578
 8169SOL    HW225407   5.423   3.951   5.715
 8170SOL     OW25408   0.894   5.200   4.055
 8170SOL    HW125409   0.886   5.280   4.114
 8170SOL    HW225410   0.855   5.220   3.965
 8171SOL     OW25411   1.774   0.569   6.904
 8171SOL    HW125412   1.808   0.517   6.983
 8171SOL    HW225413   1.682   0.538   6.882
 8172SOL     OW25414   6.880   6.126   1.827
 8172SOL    HW125415   6.887   6.118   1.926
 8172SOL    HW225416   6.955   6.076   1.784
 8173SOL     OW25417   6.879   3.253   0.185
 8173SOL    HW125418   6.941   3.287   0.115
 8173SOL    HW225419   6.899   3.158   0.206
 8174SOL     OW25420   4.912   6.344   2.786
 8174SOL    HW125421   4.992   6.390   2.825
 8174SOL    HW225422   4.829   6.393   2.812
 8175SOL     OW25423   1.349   2.329   3.290
 8175SOL    HW125424   1.414   2.253   3.299
 8175SOL    HW225425   1.335   2.372   3.379
 8176SOL     OW25426   4.327   5.160   3.174
 8176SOL    HW125427   4.385   5.127   3.099
 8176SOL    HW225428   4.264   5.229   3.139
 8177SOL     OW25429   2.369   6.572   6.233
 8177SOL    HW125430   2.315   6.569   6.317
 8177SOL    HW225431   2.361   6.663   6.192
 8178SOL     OW25432   1.699   5.990   6.412
 8178SOL    HW125433   1.793   6.021   6.405
 8178SOL    HW225434   1.652   6.042   6.484
 8179SOL     OW25435   4.157   0.576   6.203
 8179SOL    HW125436   4.155   0.597   6.105
 8179SOL    HW225437   4.180   0.480   6.216
 8180SOL     OW25438   4.798   4.037   4.533
 8180SOL    HW125439   4.740   4.103   4.582
 8180SOL    HW225440   4.874   4.010   4.592
 8181SOL     OW25441   2.280   2.130   2.299
 8181SOL    HW125442   2.344   2.088   2.362
 8181SOL    HW225443   2.238   2.211   2.342
 8182SOL     OW25444   5.510   2.861   5.820
 8182SOL    HW125445   5.600   2.904   5.812
 8182SOL    HW225446   5.520   2.763   5.831
 8183SOL     OW25447   1.851   3.609   3.309
 8183SOL    HW125448   1.946   3.581   3.323
 8183SOL    HW225449   1.849   3.700   3.269
 8184SOL     OW25450   6.563   6.076   4.788
 8184SOL    HW125451   6.479   6.119   4.821
 8184SOL    HW225452   6.588   6.001   4.850
 8185SOL     OW25453   0.799   2.522   3.371
 8185SOL    HW125454   0.849   2.493   3.289
 8185SOL    HW225455   0.701   2.509   3.356
 8186SOL     OW25456   4.766   3.227   6.513
 8186SOL    HW125457   4.849   3.245   6.460
 8186SOL    HW225458   4.687   3.223   6.451
 8187SOL     OW25459   1.899   1.693   5.762
 8187SOL    HW125460   1.983   1.748   5.770
 8187SOL    HW225461   1.922   1.601   5.732
 8188SOL     OW25462   5.195   3.422   2.950
 8188SOL    HW125463   5.161   3.383   2.864
 8188SOL    HW225464   5.226   3.348   3.010
 8189SOL     OW25465   6.784   5.116   3.225
 8189SOL    HW125466   6.749   5.193   3.277
 8189SOL    HW225467   6.780   5.136   3.127
 8190SOL     OW25468   5.661   3.328   2.969
 8190SOL    HW125469   5.700   3.292   3.054
 8190SOL    HW225470   5.636   3.424   2.981
 8191SOL     OW25471   6.072   4.684   1.144
 8191SOL    HW125472   6.109   4.680   1.236
 8191SOL    HW225473   6.080   4.595   1.100
 8192SOL     OW25474   1.689   2.050   0.635
 8192SOL    HW125475   1.774   2.100   0.615
 8192SOL    HW225476   1.711   1.956   0.661
 8193SOL     OW25477   3.976   6.054   6.016
 8193SOL    HW125478   4.061   6.105   6.024
 8193SOL    HW225479   3.901   6.117   5.998
 8194SOL     OW25480   1.530   0.935   2.607
 8194SOL    HW125481   1.506   0.866   2.540
 8194SOL    HW225482   1.589   0.895   2.677
 8195SOL     OW25483   5.982   1.056   1.562
 8195SOL    HW125484   5.948   1.036   1.470
 8195SOL    HW225485   5.906   1.053   1.626
 8196SOL     OW25486   2.806   0.597   1.235
 8196SOL    HW125487   2.875   0.532   1.202
 8196SOL    HW225488   2.841   0.690   1.225
 8197SOL     OW25489   0.165   6.760   0.523
 8197SOL    HW125490   0.186   6.845   0.571
 8197SOL    HW225491   0.249   6.717   0.492
 8198SOL     OW25492   2.638   1.269   2.814
 8198SOL    HW125493   2.687   1.335   2.871
 8198SOL    HW225494   2.542   1.295   2.808
 8199SOL     OW25495   5.566   4.592   1.037
 8199SOL    HW125496   5.632   4.545   1.095
 8199SOL    HW225497   5.482   4.538   1.032
 8200SOL     OW25498   3.717   4.333   1.523
 8200SOL    HW125499   3.654   4.305   1.596
 8200SOL    HW225500   3.790   4.390   1.561
 8201SOL     OW25501   0.781   1.322   4.900
 8201SOL    HW125502   0.783   1.338   4.998
 8201SOL    HW225503   0.850   1.254   4.876
 8202SOL     OW25504   1.776   3.270   4.259
 8202SOL    HW125505   1.742   3.181   4.229
 8202SOL    HW225506   1.780   3.273   4.359
 8203SOL     OW25507   6.699   4.138   6.209
 8203SOL    HW125508   6.755   4.130   6.127
 8203SOL    HW225509   6.744   4.092   6.285
 8204SOL     OW25510   3.256   6.822   1.603
 8204SOL    HW125511   3.355   6.820   1.588
 8204SOL    HW225512   3.216   6.899   1.554
 8205SOL     OW25513   3.942   6.875   2.907
 8205SOL    HW125514   3.973   6.964   2.873
 8205SOL    HW225515   3.926   6.813   2.830
 8206SOL     OW25516   3.674   2.163   4.407
 8206SOL    HW125517   3.688   2.260   4.430
 8206SOL    HW225518   3.703   2.147   4.313
 8207SOL     OW25519   2.584   6.344   0.209
 8207SOL    HW125520   2.527   6.424   0.227
 8207SOL    HW225521   2.652   6.366   0.140
 8208SOL     OW25522   1.306   5.812   0.689
 8208SOL    HW125523   1.268   5.771   0.607
 8208SOL    HW225524   1.276   5.761   0.770
 8209SOL     OW25525   0.797   5.644   4.890
 8209SOL    HW125526   0.809   5.545   4.883
 8209SOL    HW225527   0.762   5.680   4.803
 8210SOL     OW25528   2.330   0.688   1.354
 8210SOL    HW125529   2.238   0.665   1.387
 8210SOL    HW225530   2.389   0.608   1.363
 8211SOL     OW25531   3.152   4.083   4.229
 8211SOL    HW125532   3.200   4.082   4.141
 8211SOL    HW225533   3.151   4.176   4.266
 8212SOL     OW25534   4.028   5.188   0.050
 8212SOL    HW125535   4.028   5.241   0.135
 8212SOL    HW225536   4.078   5.102   0.064
 8213SOL     OW25537   4.856   4.020   2.126
 8213SOL    HW125538   4.892   4.044   2.216
 8213SOL    HW225539   4.847   4.102   2.071
 8214SOL     OW25540   4.329   5.134   3.664
 8214SOL    HW125541   4.247   5.111   3.610
 8214SOL    HW225542   4.353   5.229   3.647
 8215SOL     OW25543   2.581   6.250   5.124
 8215SOL    HW125544   2.633   6.254   5.210
 8215SOL    HW225545   2.487   6.279   5.141
 8216SOL     OW25546   6.216   4.881   6.956
 8216SOL    HW125547   6.137   4.851   7.010
 8216SOL    HW225548   6.253   4.803   6.905
 8217SOL     OW25549   3.666   6.378   3.728
 8217SOL    HW125550   3.711   6.356   3.641
 8217SOL    HW225551   3.603   6.304   3.753
 8218SOL     OW25552   2.320   6.078   3.851
 8218SOL    HW125553   2.374   6.093   3.768
 8218SOL    HW225554   2.265   5.996   3.841
 8219SOL     OW25555   3.287   3.786   4.313
 8219SOL    HW125556   3.370   3.837   4.289
 8219SOL    HW225557   3.211   3.850   4.324
 8220SOL     OW25558   4.414   4.293   6.010
 8220SOL    HW125559   4.492   4.300   6.074
 8220SOL    HW225560   4.374   4.202   6.016
 8221SOL     OW25561   6.592   3.958   4.039
 8221SOL    HW125562   6.575   4.018   3.961
 8221SOL    HW225563   6.506   3.918   4.070
 8222SOL     OW25564   5.181   2.365   6.317
 8222SOL    HW125565   5.158   2.420   6.237
 8222SOL    HW225566   5.277   2.336   6.312
 8223SOL     OW25567   1.126   6.392   5.615
 8223SOL    HW125568   1.186   6.314   5.634
 8223SOL    HW225569   1.068   6.370   5.536
 8224SOL     OW25570   5.175   1.194   5.432
 8224SOL    HW125571   5.150   1.237   5.519
 8224SOL    HW225572   5.227   1.260   5.376
 8225SOL     OW25573   6.141   2.381   7.004
 8225SOL    HW125574   6.072   2.365   0.057
 8225SOL    HW225575   6.226   2.414   0.029
 8226SOL     OW25576   3.595   0.825   6.862
 8226SOL    HW125577   3.625   0.733   6.838
 8226SOL    HW225578   3.671   0.875   6.902
 8227SOL     OW25579   5.931   3.519   2.257
 8227SOL    HW125580   5.927   3.450   2.185
 8227SOL    HW225581   5.845   3.571   2.259
 8228SOL     OW25582   2.911   1.541   4.626
 8228SOL    HW125583   2.958   1.615   4.577
 8228SOL    HW225584   2.819   1.572   4.652
 8229SOL     OW25585   4.387   3.834   0.379
 8229SOL    HW125586   4.454   3.888   0.328
 8229SOL    HW225587   4.341   3.894   0.445
 8230SOL     OW25588   6.144   0.824   6.316
 8230SOL    HW125589   6.174   0.745   6.262
 8230SOL    HW225590   6.169   0.908   6.269
 8231SOL     OW25591   3.536   1.836   1.478
 8231SOL    HW125592   3.455   1.777   1.478
 8231SOL    HW225593   3.554   1.866   1.385
 8232SOL     OW25594   3.576   6.347   4.049
 8232SOL    HW125595   3.559   6.444   4.065
 8232SOL    HW225596   3.526   6.317   3.967
 8233SOL     OW25597   3.224   0.627   6.613
 8233SOL    HW125598   3.244   0.724   6.627
 8233SOL    HW225599   3.125   0.614   6.606
 8234SOL     OW25600   0.710   2.312   6.394
 8234SOL    HW125601   0.725   2.408   6.417
 8234SOL    HW225602   0.692   2.260   6.477
 8235SOL     OW25603   1.207   6.439   0.258
 8235SOL    HW125604   1.163   6.434   0.168
 8235SOL    HW225605   1.306   6.434   0.247
 8236SOL     OW25606   0.906   0.308   0.340
 8236SOL    HW125607   0.894   0.211   0.361
 8236SOL    HW225608   0.868   0.364   0.414
 8237SOL     OW25609   4.268   4.499   5.646
 8237SOL    HW125610   4.246   4.493   5.548
 8237SOL    HW225611   4.187   4.530   5.696
 8238SOL     OW25612   6.700   5.223   6.473
 8238SOL    HW125613   6.630   5.185   6.535
 8238SOL    HW225614   6.789   5.221   6.519
 8239SOL     OW25615   4.567   2.539   3.774
 8239SOL    HW125616   4.613   2.455   3.743
 8239SOL    HW225617   4.557   2.536   3.873
 8240SOL     OW25618   3.711   3.671   5.210
 8240SOL    HW125619   3.667   3.752   5.169
 8240SOL    HW225620   3.793   3.699   5.259
 8241SOL     OW25621   0.623   3.070   5.874
 8241SOL    HW125622   0.567   3.137   5.825
 8241SOL    HW225623   0.708   3.113   5.905
 8242SOL     OW25624   0.761   3.788   3.183
 8242SOL    HW125625   0.733   3.808   3.089
 8242SOL    HW225626   0.775   3.873   3.233
 8243SOL     OW25627   2.195   5.845   3.794
 8243SOL    HW125628   2.287   5.815   3.769
 8243SOL    HW225629   2.164   5.794   3.874
 8244SOL     OW25630   5.529   0.135   4.646
 8244SOL    HW125631   5.491   0.109   4.557
 8244SOL    HW225632   5.455   0.141   4.713
 8245SOL     OW25633   5.542   4.144   2.479
 8245SOL    HW125634   5.460   4.193   2.511
 8245SOL    HW225635   5.610   4.143   2.552
 8246SOL     OW25636   2.172   4.699   0.121
 8246SOL    HW125637   2.136   4.661   0.036
 8246SOL    HW225638   2.201   4.794   0.106
 8247SOL     OW25639   2.106   4.418   3.315
 8247SOL    HW125640   2.045   4.497   3.314
 8247SOL    HW225641   2.068   4.347   3.374
 8248SOL     OW25642   6.702   0.365   2.340
 8248SOL    HW125643   6.702   0.436   2.411
 8248SOL    HW225644   6.675   0.278   2.381
 8249SOL     OW25645   3.525   6.719   5.805
 8249SOL    HW125646   3.578   6.688   5.726
 8249SOL    HW225647   3.517   6.819   5.802
 8250SOL     OW25648   1.363   1.480   6.702
 8250SOL    HW125649   1.331   1.390   6.674
 8250SOL    HW225650   1.293   1.548   6.680
 8251SOL     OW25651   1.506   1.410   6.432
 8251SOL    HW125652   1.406   1.416   6.432
 8251SOL    HW225653   1.545   1.493   6.472
 8252SOL     OW25654   1.023   1.078   6.371
 8252SOL    HW125655   1.095   1.110   6.310
 8252SOL    HW225656   0.935   1.113   6.340
 8253SOL     OW25657   6.958   3.828   5.070
 8253SOL    HW125658   6.877   3.885   5.079
 8253SOL    HW225659   7.013   3.860   4.992
 8254SOL     OW25660   4.740   4.241   0.097
 8254SOL    HW125661   4.682   4.258   0.018
 8254SOL    HW225662   4.825   4.293   0.088
 8255SOL     OW25663   1.616   6.157   5.500
 8255SOL    HW125664   1.583   6.245   5.534
 8255SOL    HW225665   1.620   6.091   5.575
 8256SOL     OW25666   1.707   5.705   2.808
 8256SOL    HW125667   1.790   5.760   2.806
 8256SOL    HW225668   1.726   5.616   2.766
 8257SOL     OW25669   4.666   4.551   3.519
 8257SOL    HW125670   4.672   4.452   3.510
 8257SOL    HW225671   4.758   4.588   3.537
 8258SOL     OW25672   0.161   3.073   4.610
 8258SOL    HW125673   0.187   2.985   4.650
 8258SOL    HW225674   0.241   3.115   4.567
 8259SOL     OW25675   5.621   3.768   4.219
 8259SOL    HW125676   5.543   3.810   4.171
 8259SOL    HW225677   5.625   3.671   4.196
 8260SOL     OW25678   4.923   2.595   6.648
 8260SOL    HW125679   4.971   2.507   6.644
 8260SOL    HW225680   4.925   2.638   6.558
 8261SOL     OW25681   5.387   2.438   2.703
 8261SOL    HW125682   5.292   2.464   2.689
 8261SOL    HW225683   5.447   2.508   2.663
 8262SOL     OW25684   5.142   4.288   2.006
 8262SOL    HW125685   5.207   4.216   2.033
 8262SOL    HW225686   5.184   4.377   2.021
 8263SOL     OW25687   6.867   1.268   0.066
 8263SOL    HW125688   6.914   1.355   0.061
 8263SOL    HW225689   6.844   1.248   0.161
 8264SOL     OW25690   3.158   1.608   1.780
 8264SOL    HW125691   3.102   1.620   1.698
 8264SOL    HW225692   3.179   1.697   1.820
 8265SOL     OW25693   5.174   5.479   6.735
 8265SOL    HW125694   5.189   5.572   6.767
 8265SOL    HW225695   5.261   5.439   6.706
 8266SOL     OW25696   4.522   2.462   2.776
 8266SOL    HW125697   4.538   2.486   2.680
 8266SOL    HW225698   4.559   2.534   2.835
 8267SOL     OW25699   2.082   3.335   2.776
 8267SOL    HW125700   2.085   3.319   2.875
 8267SOL    HW225701   2.146   3.272   2.731
 8268SOL     OW25702   2.477   5.032   1.052
 8268SOL    HW125703   2.412   5.028   0.976
 8268SOL    HW225704   2.569   5.049   1.015
 8269SOL     OW25705   6.917   2.086   3.371
 8269SOL    HW125706   6.935   2.046   3.282
 8269SOL    HW225707   6.831   2.138   3.368
 8270SOL     OW25708   4.175   4.972   0.069
 8270SOL    HW125709   4.128   4.914   0.135
 8270SOL    HW225710   4.273   4.972   0.090
 8271SOL     OW25711   2.426   6.808   5.376
 8271SOL    HW125712   2.331   6.814   5.345
 8271SOL    HW225713   2.453   6.893   5.421
 8272SOL     OW25714   0.438   0.640   1.980
 8272SOL    HW125715   0.465   0.709   2.047
 8272SOL    HW225716   0.350   0.600   2.007
 8273SOL     OW25717   5.049   0.223   5.971
 8273SOL    HW125718   5.076   0.296   6.033
 8273SOL    HW225719   5.091   0.237   5.882
 8274SOL     OW25720   5.760   6.707   3.878
 8274SOL    HW125721   5.801   6.641   3.815
 8274SOL    HW225722   5.704   6.772   3.826
 8275SOL     OW25723   4.955   0.531   4.161
 8275SOL    HW125724   4.907   0.472   4.095
 8275SOL    HW225725   4.889   0.592   4.204
 8276SOL     OW25726   5.096   2.559   0.898
 8276SOL    HW125727   5.002   2.537   0.875
 8276SOL    HW225728   5.120   2.514   0.985
 8277SOL     OW25729   0.916   6.844   1.738
 8277SOL    HW125730   0.889   6.754   1.704
 8277SOL    HW225731   1.008   6.840   1.776
 8278SOL     OW25732   1.662   0.704   1.466
 8278SOL    HW125733   1.722   0.781   1.443
 8278SOL    HW225734   1.576   0.713   1.416
 8279SOL     OW25735   6.006   4.270   5.445
 8279SOL    HW125736   6.066   4.239   5.519
 8279SOL    HW225737   5.913   4.239   5.462
 8280SOL     OW25738   0.195   4.756   6.960
 8280SOL    HW125739   0.200   4.657   6.969
 8280SOL    HW225740   0.100   4.785   6.961
 8281SOL     OW25741   2.559   4.925   6.985
 8281SOL    HW125742   2.476   4.920   6.930
 8281SOL    HW225743   2.635   4.884   6.935
 8282SOL     OW25744   4.559   3.231   0.970
 8282SOL    HW125745   4.550   3.144   1.018
 8282SOL    HW225746   4.647   3.234   0.922
 8283SOL     OW25747   0.970   2.064   3.831
 8283SOL    HW125748   1.059   2.029   3.802
 8283SOL    HW225749   0.952   2.152   3.787
 8284SOL     OW25750   4.780   2.508   1.111
 8284SOL    HW125751   4.784   2.590   1.054
 8284SOL    HW225752   4.709   2.521   1.181
 8285SOL     OW25753   0.306   4.930   6.799
 8285SOL    HW125754   0.244   4.878   6.858
 8285SOL    HW225755   0.287   4.907   6.703
 8286SOL     OW25756   6.188   2.036   6.886
 8286SOL    HW125757   6.253   2.082   6.947
 8286SOL    HW225758   6.096   2.071   6.902
 8287SOL     OW25759   0.709   1.698   3.016
 8287SOL    HW125760   0.692   1.764   2.942
 8287SOL    HW225761   0.674   1.735   3.102
 8288SOL     OW25762   2.299   6.609   2.732
 8288SOL    HW125763   2.365   6.666   2.683
 8288SOL    HW225764   2.349   6.539   2.784
 8289SOL     OW25765   6.026   7.010   0.661
 8289SOL    HW125766   6.109   0.034   0.699
 8289SOL    HW225767   5.988   0.051   0.590
 8290SOL     OW25768   4.635   2.848   1.702
 8290SOL    HW125769   4.607   2.885   1.614
 8290SOL    HW225770   4.629   2.919   1.772
 8291SOL     OW25771   5.695   5.317   5.077
 8291SOL    HW125772   5.629   5.242   5.073
 8291SOL    HW225773   5.765   5.305   5.007
 8292SOL     OW25774   6.879   3.922   5.693
 8292SOL    HW125775   6.816   3.854   5.732
 8292SOL    HW225776   6.966   3.917   5.742
 8293SOL     OW25777   3.034   5.290   4.268
 8293SOL    HW125778   2.984   5.343   4.337
 8293SOL    HW225779   3.090   5.352   4.213
 8294SOL     OW25780   6.603   3.530   5.747
 8294SOL    HW125781   6.565   3.463   5.811
 8294SOL    HW225782   6.637   3.609   5.799
 8295SOL     OW25783   4.367   4.474   1.372
 8295SOL    HW125784   4.439   4.405   1.380
 8295SOL    HW225785   4.348   4.513   1.462
 8296SOL     OW25786   3.119   0.277   1.986
 8296SOL    HW125787   3.145   0.197   2.040
 8296SOL    HW225788   3.027   0.263   1.948
 8297SOL     OW25789   6.102   4.607   1.751
 8297SOL    HW125790   6.125   4.689   1.699
 8297SOL    HW225791   6.130   4.620   1.846
 8298SOL     OW25792   0.038   6.215   0.630
 8298SOL    HW125793   0.129   6.220   0.671
 8298SOL    HW225794   0.041   6.160   0.547
 8299SOL     OW25795   1.249   1.475   6.990
 8299SOL    HW125796   1.191   1.506   6.914
 8299SOL    HW225797   1.337   1.445   6.954
 8300SOL     OW25798   4.334   6.718   4.318
 8300SOL    HW125799   4.372   6.800   4.275
 8300SOL    HW225800   4.255   6.687   4.265
 8301SOL     OW25801   6.219   4.813   6.437
 8301SOL    HW125802   6.234   4.806   6.339
 8301SOL    HW225803   6.228   4.723   6.479
 8302SOL     OW25804   3.614   5.935   5.987
 8302SOL    HW125805   3.621   6.033   5.969
 8302SOL    HW225806   3.682   5.908   6.054
 8303SOL     OW25807   6.928   4.514   4.196
 8303SOL    HW125808   6.842   4.561   4.215
 8303SOL    HW225809   6.999   4.545   4.260
 8304SOL     OW25810   5.896   2.975   4.036
 8304SOL    HW125811   5.860   2.929   4.117
 8304SOL    HW225812   5.821   2.997   3.974
 8305SOL     OW25813   4.235   6.416   6.098
 8305SOL    HW125814   4.328   6.408   6.136
 8305SOL    HW225815   4.240   6.416   5.999
 8306SOL     OW25816   5.552   1.403   3.575
 8306SOL    HW125817   5.609   1.485   3.577
 8306SOL    HW225818   5.475   1.414   3.638
 8307SOL     OW25819   0.041   4.658   4.596
 8307SOL    HW125820   0.068   4.600   4.673
 8307SOL    HW225821   6.996   4.607   4.537
 8308SOL     OW25822   2.292   5.194   0.431
 8308SOL    HW125823   2.321   5.224   0.340
 8308SOL    HW225824   2.223   5.122   0.421
 8309SOL     OW25825   5.658   5.022   2.509
 8309SOL    HW125826   5.601   4.970   2.445
 8309SOL    HW225827   5.671   5.114   2.474
 8310SOL     OW25828   1.971   5.821   2.768
 8310SOL    HW125829   1.980   5.762   2.688
 8310SOL    HW225830   1.999   5.770   2.850
 8311SOL     OW25831   4.889   6.691   2.563
 8311SOL    HW125832   4.987   6.689   2.541
 8311SOL    HW225833   4.838   6.727   2.485
 8312SOL     OW25834   6.629   7.004   0.746
 8312SOL    HW125835   6.597   6.911   0.725
 8312SOL    HW225836   6.550   0.046   0.756
 8313SOL     OW25837   4.644   2.530   5.955
 8313SOL    HW125838   4.667   2.611   5.902
 8313SOL    HW225839   4.546   2.529   5.975
 8314SOL     OW25840   5.484   6.239   5.038
 8314SOL    HW125841   5.458   6.305   4.968
 8314SOL    HW225842   5.441   6.263   5.125
 8315SOL     OW25843   3.672   1.579   0.528
 8315SOL    HW125844   3.642   1.658   0.475
 8315SOL    HW225845   3.735   1.523   0.473
 8316SOL     OW25846   1.592   1.359   4.688
 8316SOL    HW125847   1.562   1.326   4.598
 8316SOL    HW225848   1.550   1.448   4.706
 8317SOL     OW25849   2.349   1.769   6.307
 8317SOL    HW125850   2.448   1.756   6.317
 8317SOL    HW225851   2.318   1.722   6.224
 8318SOL     OW25852   4.151   6.424   5.136
 8318SOL    HW125853   4.073   6.445   5.077
 8318SOL    HW225854   4.120   6.367   5.212
 8319SOL     OW25855   2.792   5.967   6.240
 8319SOL    HW125856   2.811   5.920   6.154
 8319SOL    HW225857   2.700   6.005   6.238
 8320SOL     OW25858   3.926   5.583   5.106
 8320SOL    HW125859   3.916   5.631   5.019
 8320SOL    HW225860   4.023   5.582   5.133
 8321SOL     OW25861   0.486   0.151   0.250
 8321SOL    HW125862   0.389   0.174   0.257
 8321SOL    HW225863   0.521   0.181   0.161
 8322SOL     OW25864   2.389   0.279   2.127
 8322SOL    HW125865   2.400   0.308   2.032
 8322SOL    HW225866   2.471   0.233   2.158
 8323SOL     OW25867   6.143   5.604   6.443
 8323SOL    HW125868   6.152   5.545   6.524
 8323SOL    HW225869   6.135   5.699   6.472
 8324SOL     OW25870   6.769   6.268   5.598
 8324SOL    HW125871   6.758   6.182   5.647
 8324SOL    HW225872   6.854   6.266   5.546
 8325SOL     OW25873   1.249   5.692   5.340
 8325SOL    HW125874   1.247   5.669   5.243
 8325SOL    HW225875   1.290   5.782   5.353
 8326SOL     OW25876   2.868   0.850   6.588
 8326SOL    HW125877   2.944   0.847   6.523
 8326SOL    HW225878   2.865   0.764   6.640
 8327SOL     OW25879   0.438   6.413   5.848
 8327SOL    HW125880   0.495   6.485   5.807
 8327SOL    HW225881   0.384   6.369   5.776
 8328SOL     OW25882   0.702   6.925   0.544
 8328SOL    HW125883   0.627   6.889   0.489
 8328SOL    HW225884   0.781   6.864   0.537
 8329SOL     OW25885   1.562   2.270   5.513
 8329SOL    HW125886   1.514   2.239   5.595
 8329SOL    HW225887   1.594   2.364   5.526
 8330SOL     OW25888   3.641   6.737   6.722
 8330SOL    HW125889   3.620   6.829   6.754
 8330SOL    HW225890   3.578   6.671   6.763
 8331SOL     OW25891   1.646   2.546   5.488
 8331SOL    HW125892   1.571   2.561   5.423
 8331SOL    HW225893   1.663   2.631   5.538
 8332SOL     OW25894   5.505   4.144   0.998
 8332SOL    HW125895   5.573   4.217   1.002
 8332SOL    HW225896   5.505   4.103   0.907
 8333SOL     OW25897   2.524   4.518   6.030
 8333SOL    HW125898   2.605   4.490   6.082
 8333SOL    HW225899   2.535   4.612   5.999
 8334SOL     OW25900   3.000   2.909   5.292
 8334SOL    HW125901   3.036   2.820   5.266
 8334SOL    HW225902   3.036   2.936   5.381
 8335SOL     OW25903   6.178   3.072   0.142
 8335SOL    HW125904   6.255   3.111   0.092
 8335SOL    HW225905   6.128   3.145   0.189
 8336SOL     OW25906   0.583   4.540   3.802
 8336SOL    HW125907   0.485   4.560   3.811
 8336SOL    HW225908   0.600   4.445   3.827
 8337SOL     OW25909   6.440   6.715   4.489
 8337SOL    HW125910   6.523   6.710   4.434
 8337SOL    HW225911   6.457   6.772   4.570
 8338SOL     OW25912   2.291   4.777   0.702
 8338SOL    HW125913   2.298   4.695   0.759
 8338SOL    HW225914   2.198   4.814   0.709
 8339SOL     OW25915   6.847   0.210   1.653
 8339SOL    HW125916   6.899   0.126   1.638
 8339SOL    HW225917   6.807   0.240   1.566
 8340SOL     OW25918   5.991   2.321   6.274
 8340SOL    HW125919   6.050   2.241   6.287
 8340SOL    HW225920   5.912   2.314   6.336
 8341SOL     OW25921   3.549   0.091   1.147
 8341SOL    HW125922   3.520   0.186   1.153
 8341SOL    HW225923   3.601   0.076   1.063
 8342SOL     OW25924   3.853   0.858   1.696
 8342SOL    HW125925   3.801   0.874   1.612
 8342SOL    HW225926   3.920   0.931   1.708
 8343SOL     OW25927   4.460   6.367   2.961
 8343SOL    HW125928   4.399   6.367   3.040
 8343SOL    HW225929   4.498   6.276   2.948
 8344SOL     OW25930   2.270   4.167   4.752
 8344SOL    HW125931   2.291   4.128   4.842
 8344SOL    HW225932   2.262   4.093   4.685
 8345SOL     OW25933   6.909   0.032   4.171
 8345SOL    HW125934   6.917   0.009   4.268
 8345SOL    HW225935   6.944   6.974   4.116
 8346SOL     OW25936   5.677   4.319   3.002
 8346SOL    HW125937   5.595   4.330   2.946
 8346SOL    HW225938   5.652   4.326   3.099
 8347SOL     OW25939   0.974   0.958   6.983
 8347SOL    HW125940   1.069   0.987   6.973
 8347SOL    HW225941   0.964   0.863   6.954
 8348SOL     OW25942   2.558   6.633   0.495
 8348SOL    HW125943   2.613   6.581   0.560
 8348SOL    HW225944   2.585   6.729   0.496
 8349SOL     OW25945   4.728   5.679   1.069
 8349SOL    HW125946   4.635   5.717   1.068
 8349SOL    HW225947   4.783   5.727   1.138
 8350SOL     OW25948   2.286   0.660   6.680
 8350SOL    HW125949   2.196   0.657   6.725
 8350SOL    HW225950   2.336   0.576   6.701
 8351SOL     OW25951   6.997   3.988   3.102
 8351SOL    HW125952   6.981   3.903   3.153
 8351SOL    HW225953   0.022   3.966   3.014
 8352SOL     OW25954   2.198   0.120   6.445
 8352SOL    HW125955   2.150   0.057   6.506
 8352SOL    HW225956   2.132   0.184   6.406
 8353SOL     OW25957   0.822   5.802   2.569
 8353SOL    HW125958   0.759   5.774   2.497
 8353SOL    HW225959   0.854   5.895   2.553
 8354SOL     OW25960   5.251   2.612   3.952
 8354SOL    HW125961   5.203   2.697   3.973
 8354SOL    HW225962   5.349   2.630   3.945
 8355SOL     OW25963   3.505   4.758   5.841
 8355SOL    HW125964   3.413   4.778   5.872
 8355SOL    HW225965   3.536   4.830   5.778
 8356SOL     OW25966   3.212   3.282   2.401
 8356SOL    HW125967   3.191   3.377   2.424
 8356SOL    HW225968   3.132   3.225   2.418
 8357SOL     OW25969   2.932   6.488   5.201
 8357SOL    HW125970   2.920   6.549   5.280
 8357SOL    HW225971   2.943   6.394   5.234
 8358SOL     OW25972   0.413   0.400   4.622
 8358SOL    HW125973   0.315   0.384   4.631
 8358SOL    HW225974   0.458   0.314   4.595
 8359SOL     OW25975   4.998   2.454   5.081
 8359SOL    HW125976   4.991   2.354   5.086
 8359SOL    HW225977   4.907   2.493   5.064
 8360SOL     OW25978   3.154   0.130   2.475
 8360SOL    HW125979   3.118   0.224   2.468
 8360SOL    HW225980   3.162   0.091   2.383
 8361SOL     OW25981   4.554   1.495   6.964
 8361SOL    HW125982   4.580   1.403   6.996
 8361SOL    HW225983   4.563   1.560   0.022
 8362SOL     OW25984   0.708   4.440   1.843
 8362SOL    HW125985   0.651   4.388   1.779
 8362SOL    HW225986   0.675   4.534   1.848
 8363SOL     OW25987   3.511   2.285   1.383
 8363SOL    HW125988   3.447   2.361   1.379
 8363SOL    HW225989   3.604   2.320   1.391
 8364SOL     OW25990   0.860   1.597   3.416
 8364SOL    HW125991   0.774   1.549   3.430
 8364SOL    HW225992   0.861   1.681   3.471
 8365SOL     OW25993   2.262   2.528   1.199
 8365SOL    HW125994   2.257   2.578   1.112
 8365SOL    HW225995   2.355   2.497   1.214
 8366SOL     OW25996   4.837   5.971   1.644
 8366SOL    HW125997   4.908   6.040   1.654
 8366SOL    HW225998   4.869   5.884   1.683
 8367SOL     OW25999   1.495   4.760   3.991
 8367SOL    HW126000   1.533   4.846   4.024
 8367SOL    HW226001   1.422   4.730   4.054
 8368SOL     OW26002   0.653   3.183   6.338
 8368SOL    HW126003   0.740   3.135   6.327
 8368SOL    HW226004   0.583   3.138   6.283
 8369SOL     OW26005   0.811   0.874   0.872
 8369SOL    HW126006   0.809   0.830   0.783
 8369SOL    HW226007   0.719   0.873   0.912
 8370SOL     OW26008   2.435   3.115   1.289
 8370SOL    HW126009   2.532   3.099   1.270
 8370SOL    HW226010   2.410   3.070   1.375
 8371SOL     OW26011   2.877   4.184   5.504
 8371SOL    HW126012   2.934   4.102   5.507
 8371SOL    HW226013   2.785   4.163   5.537
 8372SOL     OW26014   1.766   6.660   2.896
 8372SOL    HW126015   1.858   6.644   2.859
 8372SOL    HW226016   1.762   6.751   2.938
 8373SOL     OW26017   6.043   0.513   4.415
 8373SOL    HW126018   6.081   0.556   4.333
 8373SOL    HW226019   6.009   0.584   4.476
 8374SOL     OW26020   0.701   2.475   4.025
 8374SOL    HW126021   0.727   2.534   3.948
 8374SOL    HW226022   0.633   2.523   4.081
 8375SOL     OW26023   1.969   2.880   5.355
 8375SOL    HW126024   1.980   2.972   5.393
 8375SOL    HW226025   2.026   2.816   5.407
 8376SOL     OW26026   0.733   1.604   3.923
 8376SOL    HW126027   0.829   1.632   3.926
 8376SOL    HW226028   0.721   1.521   3.977
 8377SOL     OW26029   4.333   5.308   1.402
 8377SOL    HW126030   4.429   5.315   1.428
 8377SOL    HW226031   4.323   5.246   1.324
 8378SOL     OW26032   4.188   6.063   5.665
 8378SOL    HW126033   4.264   6.040   5.726
 8378SOL    HW226034   4.111   6.001   5.683
 8379SOL     OW26035   5.924   2.561   1.976
 8379SOL    HW126036   6.004   2.565   2.037
 8379SOL    HW226037   5.934   2.484   1.913
 8380SOL     OW26038   1.217   4.761   2.547
 8380SOL    HW126039   1.181   4.851   2.520
 8380SOL    HW226040   1.292   4.773   2.612
 8381SOL     OW26041   0.922   2.527   2.927
 8381SOL    HW126042   0.862   2.607   2.931
 8381SOL    HW226043   0.991   2.540   2.856
 8382SOL     OW26044   1.135   0.028   1.876
 8382SOL    HW126045   1.063   0.086   1.835
 8382SOL    HW226046   1.203   0.086   1.920
 8383SOL     OW26047   1.895   6.696   4.754
 8383SOL    HW126048   1.851   6.643   4.826
 8383SOL    HW226049   1.994   6.678   4.755
 8384SOL     OW26050   0.467   4.261   3.800
 8384SOL    HW126051   0.456   4.203   3.720
 8384SOL    HW226052   0.393   4.328   3.803
 8385SOL     OW26053   4.578   2.446   2.092
 8385SOL    HW126054   4.622   2.536   2.100
 8385SOL    HW226055   4.555   2.429   1.997
 8386SOL     OW26056   6.736   5.498   2.454
 8386SOL    HW126057   6.655   5.555   2.436
 8386SOL    HW226058   6.749   5.490   2.553
 8387SOL     OW26059   0.508   2.548   3.320
 8387SOL    HW126060   0.430   2.486   3.319
 8387SOL    HW226061   0.491   2.621   3.387
 8388SOL     OW26062   3.346   6.025   1.670
 8388SOL    HW126063   3.253   6.048   1.699
 8388SOL    HW226064   3.412   6.063   1.735
 8389SOL     OW26065   1.532   2.478   4.198
 8389SOL    HW126066   1.500   2.491   4.104
 8389SOL    HW226067   1.494   2.550   4.256
 8390SOL     OW26068   1.294   6.359   6.712
 8390SOL    HW126069   1.309   6.261   6.727
 8390SOL    HW226070   1.240   6.371   6.628
 8391SOL     OW26071   4.766   6.202   0.774
 8391SOL    HW126072   4.723   6.218   0.863
 8391SOL    HW226073   4.815   6.283   0.745
 8392SOL     OW26074   3.234   5.987   0.713
 8392SOL    HW126075   3.285   5.919   0.765
 8392SOL    HW226076   3.203   5.946   0.627
 8393SOL     OW26077   1.807   6.413   1.961
 8393SOL    HW126078   1.832   6.382   1.869
 8393SOL    HW226079   1.776   6.508   1.956
 8394SOL     OW26080   1.931   1.328   3.563
 8394SOL    HW126081   1.940   1.427   3.577
 8394SOL    HW226082   1.841   1.308   3.526
 8395SOL     OW26083   1.978   6.073   6.396
 8395SOL    HW126084   2.001   6.035   6.485
 8395SOL    HW226085   2.034   6.154   6.379
 8396SOL     OW26086   4.794   1.634   0.494
 8396SOL    HW126087   4.708   1.685   0.489
 8396SOL    HW226088   4.788   1.565   0.566
 8397SOL     OW26089   0.332   4.186   3.312
 8397SOL    HW126090   0.318   4.159   3.407
 8397SOL    HW226091   0.249   4.230   3.277
 8398SOL     OW26092   5.467   1.673   6.471
 8398SOL    HW126093   5.434   1.675   6.376
 8398SOL    HW226094   5.453   1.582   6.509
 8399SOL     OW26095   5.648   6.400   5.440
 8399SOL    HW126096   5.664   6.440   5.530
 8399SOL    HW226097   5.685   6.307   5.438
 8400SOL     OW26098   6.136   6.060   3.143
 8400SOL    HW126099   6.116   5.989   3.076
 8400SOL    HW226100   6.228   6.096   3.129
 8401SOL     OW26101   2.640   3.503   5.328
 8401SOL    HW126102   2.563   3.562   5.351
 8401SOL    HW226103   2.625   3.412   5.368
 8402SOL     OW26104   4.724   1.242   4.709
 8402SOL    HW126105   4.643   1.297   4.688
 8402SOL    HW226106   4.782   1.235   4.628
 8403SOL     OW26107   0.609   1.622   6.178
 8403SOL    HW126108   0.686   1.676   6.214
 8403SOL    HW226109   0.634   1.585   6.088
 8404SOL     OW26110   4.893   5.026   5.017
 8404SOL    HW126111   4.909   5.098   4.950
 8404SOL    HW226112   4.891   4.937   4.970
 8405SOL     OW26113   0.605   2.389   6.156
 8405SOL    HW126114   0.659   2.472   6.140
 8405SOL    HW226115   0.611   2.364   6.252
 8406SOL     OW26116   5.993   4.045   1.336
 8406SOL    HW126117   6.075   4.058   1.392
 8406SOL    HW226118   5.956   3.954   1.351
 8407SOL     OW26119   5.568   3.418   2.588
 8407SOL    HW126120   5.505   3.491   2.613
 8407SOL    HW226121   5.573   3.350   2.661
 8408SOL     OW26122   4.751   4.440   4.196
 8408SOL    HW126123   4.677   4.490   4.241
 8408SOL    HW226124   4.715   4.395   4.113
 8409SOL     OW26125   1.269   1.900   4.065
 8409SOL    HW126126   1.347   1.937   4.115
 8409SOL    HW226127   1.185   1.941   4.100
 8410SOL     OW26128   2.219   5.315   2.571
 8410SOL    HW126129   2.275   5.356   2.499
 8410SOL    HW226130   2.139   5.373   2.588
 8411SOL     OW26131   1.803   3.222   3.215
 8411SOL    HW126132   1.739   3.265   3.151
 8411SOL    HW226133   1.879   3.284   3.234
 8412SOL     OW26134   5.424   2.174   2.561
 8412SOL    HW126135   5.438   2.242   2.633
 8412SOL    HW226136   5.328   2.174   2.533
 8413SOL     OW26137   1.666   5.319   2.130
 8413SOL    HW126138   1.594   5.340   2.197
 8413SOL    HW226139   1.692   5.223   2.139
 8414SOL     OW26140   6.323   0.041   4.493
 8414SOL    HW126141   6.254   0.096   4.540
 8414SOL    HW226142   6.287   0.010   4.405
 8415SOL     OW26143   0.509   5.181   0.955
 8415SOL    HW126144   0.519   5.206   1.051
 8415SOL    HW226145   0.491   5.082   0.948
 8416SOL     OW26146   4.210   4.803   2.968
 8416SOL    HW126147   4.163   4.826   2.883
 8416SOL    HW226148   4.169   4.854   3.043
 8417SOL     OW26149   0.779   5.580   0.295
 8417SOL    HW126150   0.764   5.666   0.345
 8417SOL    HW226151   0.690   5.540   0.272
 8418SOL     OW26152   5.321   6.194   2.830
 8418SOL    HW126153   5.276   6.238   2.752
 8418SOL    HW226154   5.379   6.119   2.796
 8419SOL     OW26155   2.971   1.294   3.118
 8419SOL    HW126156   3.007   1.215   3.169
 8419SOL    HW226157   3.041   1.327   3.056
 8420SOL     OW26158   4.768   1.744   5.448
 8420SOL    HW126159   4.765   1.669   5.514
 8420SOL    HW226160   4.811   1.711   5.363
 8421SOL     OW26161   0.273   0.892   0.420
 8421SOL    HW126162   0.199   0.925   0.478
 8421SOL    HW226163   0.248   0.903   0.324
 8422SOL     OW26164   2.825   0.871   1.191
 8422SOL    HW126165   2.737   0.881   1.144
 8422SOL    HW226166   2.890   0.938   1.155
 8423SOL     OW26167   1.910   4.529   1.259
 8423SOL    HW126168   1.961   4.612   1.240
 8423SOL    HW226169   1.812   4.549   1.261
 8424SOL     OW26170   2.644   2.201   1.991
 8424SOL    HW126171   2.743   2.194   1.996
 8424SOL    HW226172   2.618   2.270   1.922
 8425SOL     OW26173   0.359   5.057   5.741
 8425SOL    HW126174   0.383   5.090   5.833
 8425SOL    HW226175   0.301   4.976   5.749
 8426SOL     OW26176   3.844   3.778   2.065
 8426SOL    HW126177   3.816   3.735   2.151
 8426SOL    HW226178   3.940   3.805   2.072
 8427SOL     OW26179   2.407   1.099   6.981
 8427SOL    HW126180   2.488   1.044   6.959
 8427SOL    HW226181   2.436   1.192   7.004
 8428SOL     OW26182   6.152   3.760   1.449
 8428SOL    HW126183   6.159   3.764   1.349
 8428SOL    HW226184   6.219   3.695   1.485
 8429SOL     OW26185   1.373   6.724   2.915
 8429SOL    HW126186   1.438   6.796   2.941
 8429SOL    HW226187   1.321   6.754   2.835
 8430SOL     OW26188   3.837   6.255   2.779
 8430SOL    HW126189   3.826   6.166   2.823
 8430SOL    HW226190   3.852   6.325   2.849
 8431SOL     OW26191   2.969   3.144   2.397
 8431SOL    HW126192   3.027   3.089   2.336
 8431SOL    HW226193   2.872   3.127   2.375
 8432SOL     OW26194   4.932   5.652   0.103
 8432SOL    HW126195   4.904   5.731   0.047
 8432SOL    HW226196   5.017   5.614   0.068
 8433SOL     OW26197   0.130   1.389   3.978
 8433SOL    HW126198   0.207   1.370   4.038
 8433SOL    HW226199   0.098   1.304   3.936
 8434SOL     OW26200   5.225   6.599   6.894
 8434SOL    HW126201   5.195   6.519   6.947
 8434SOL    HW226202   5.162   6.613   6.818
 8435SOL     OW26203   4.974   3.590   0.716
 8435SOL    HW126204   4.882   3.610   0.684
 8435SOL    HW226205   4.986   3.627   0.808
 8436SOL     OW26206   3.337   4.108   1.673
 8436SOL    HW126207   3.399   4.125   1.596
 8436SOL    HW226208   3.390   4.107   1.758
 8437SOL     OW26209   0.331   2.555   0.588
 8437SOL    HW126210   0.266   2.480   0.580
 8437SOL    HW226211   0.352   2.572   0.684
 8438SOL     OW26212   2.190   5.446   1.464
 8438SOL    HW126213   2.180   5.528   1.408
 8438SOL    HW226214   2.109   5.435   1.521
 8439SOL     OW26215   5.333   0.245   1.955
 8439SOL    HW126216   5.234   0.235   1.945
 8439SOL    HW226217   5.359   0.218   2.048
 8440SOL     OW26218   1.038   4.146   3.864
 8440SOL    HW126219   1.108   4.202   3.820
 8440SOL    HW226220   1.036   4.056   3.820
 8441SOL     OW26221   3.729   5.612   1.390
 8441SOL    HW126222   3.765   5.599   1.482
 8441SOL    HW226223   3.800   5.655   1.333
 8442SOL     OW26224   2.460   3.129   0.742
 8442SOL    HW126225   2.461   3.133   0.841
 8442SOL    HW226226   2.547   3.164   0.706
 8443SOL     OW26227   0.146   2.503   0.965
 8443SOL    HW126228   0.095   2.569   0.911
 8443SOL    HW226229   0.174   2.426   0.908
 8444SOL     OW26230   4.922   2.548   3.420
 8444SOL    HW126231   4.841   2.602   3.442
 8444SOL    HW226232   4.985   2.603   3.365
 8445SOL     OW26233   3.735   5.552   2.381
 8445SOL    HW126234   3.799   5.597   2.443
 8445SOL    HW226235   3.763   5.457   2.367
 8446SOL     OW26236   5.868   3.603   2.916
 8446SOL    HW126237   5.776   3.616   2.953
 8446SOL    HW226238   5.881   3.507   2.892
 8447SOL     OW26239   5.440   4.642   1.495
 8447SOL    HW126240   5.373   4.589   1.443
 8447SOL    HW226241   5.532   4.613   1.472
 8448SOL     OW26242   1.792   4.609   5.748
 8448SOL    HW126243   1.857   4.641   5.818
 8448SOL    HW226244   1.698   4.624   5.781
 8449SOL     OW26245   1.496   0.412   5.494
 8449SOL    HW126246   1.575   0.407   5.434
 8449SOL    HW226247   1.480   0.507   5.522
 8450SOL     OW26248   1.630   5.967   0.823
 8450SOL    HW126249   1.576   5.932   0.900
 8450SOL    HW226250   1.699   5.900   0.797
 8451SOL     OW26251   2.714   3.962   1.446
 8451SOL    HW126252   2.657   3.897   1.496
 8451SOL    HW226253   2.712   3.940   1.348
 8452SOL     OW26254   6.727   6.117   2.450
 8452SOL    HW126255   6.645   6.061   2.458
 8452SOL    HW226256   6.759   6.142   2.542
 8453SOL     OW26257   0.661   4.470   5.246
 8453SOL    HW126258   0.594   4.457   5.320
 8453SOL    HW226259   0.688   4.566   5.242
 8454SOL     OW26260   1.774   6.664   5.547
 8454SOL    HW126261   1.779   6.616   5.459
 8454SOL    HW226262   1.775   6.762   5.531
 8455SOL     OW26263   6.001   2.325   0.214
 8455SOL    HW126264   5.947   2.376   0.281
 8455SOL    HW226265   6.064   2.264   0.262
 8456SOL     OW26266   6.223   4.250   3.508
 8456SOL    HW126267   6.318   4.271   3.489
 8456SOL    HW226268   6.165   4.290   3.437
 8457SOL     OW26269   5.793   6.131   5.986
 8457SOL    HW126270   5.744   6.103   6.069
 8457SOL    HW226271   5.871   6.069   5.972
 8458SOL     OW26272   0.972   1.643   1.522
 8458SOL    HW126273   0.988   1.584   1.602
 8458SOL    HW226274   0.875   1.639   1.497
 8459SOL     OW26275   2.696   4.754   2.991
 8459SOL    HW126276   2.728   4.685   3.057
 8459SOL    HW226277   2.769   4.772   2.925
 8460SOL     OW26278   3.726   1.002   0.940
 8460SOL    HW126279   3.757   1.004   1.035
 8460SOL    HW226280   3.649   0.938   0.932
 8461SOL     OW26281   5.772   4.772   3.252
 8461SOL    HW126282   5.753   4.698   3.186
 8461SOL    HW226283   5.714   4.760   3.332
 8462SOL     OW26284   2.200   3.622   0.699
 8462SOL    HW126285   2.243   3.710   0.720
 8462SOL    HW226286   2.108   3.636   0.665
 8463SOL     OW26287   0.198   6.333   1.107
 8463SOL    HW126288   0.148   6.361   1.025
 8463SOL    HW226289   0.135   6.328   1.185
 8464SOL     OW26290   0.385   3.377   6.590
 8464SOL    HW126291   0.362   3.446   6.521
 8464SOL    HW226292   0.483   3.359   6.586
 8465SOL     OW26293   5.968   3.952   0.356
 8465SOL    HW126294   6.061   3.939   0.392
 8465SOL    HW226295   5.924   4.027   0.404
 8466SOL     OW26296   0.444   1.271   4.926
 8466SOL    HW126297   0.384   1.193   4.943
 8466SOL    HW226298   0.524   1.242   4.874
 8467SOL     OW26299   3.251   1.695   1.178
 8467SOL    HW126300   3.227   1.692   1.275
 8467SOL    HW226301   3.336   1.746   1.166
 8468SOL     OW26302   6.364   3.638   1.528
 8468SOL    HW126303   6.414   3.716   1.565
 8468SOL    HW226304   6.407   3.608   1.443
 8469SOL     OW26305   3.323   2.882   5.339
 8469SOL    HW126306   3.333   2.865   5.437
 8469SOL    HW226307   3.400   2.840   5.290
 8470SOL     OW26308   2.186   5.603   1.211
 8470SOL    HW126309   2.122   5.536   1.173
 8470SOL    HW226310   2.278   5.584   1.178
 8471SOL     OW26311   4.185   2.328   3.905
 8471SOL    HW126312   4.203   2.331   3.807
 8471SOL    HW226313   4.261   2.371   3.954
 8472SOL     OW26314   6.220   1.400   6.948
 8472SOL    HW126315   6.150   1.397   6.878
 8472SOL    HW226316   6.308   1.423   6.907
 8473SOL     OW26317   4.860   5.008   5.339
 8473SOL    HW126318   4.874   4.998   5.241
 8473SOL    HW226319   4.804   5.090   5.356
 8474SOL     OW26320   3.416   3.992   6.277
 8474SOL    HW126321   3.489   3.942   6.324
 8474SOL    HW226322   3.443   4.008   6.182
 8475SOL     OW26323   0.454   2.157   2.792
 8475SOL    HW126324   0.502   2.211   2.861
 8475SOL    HW226325   0.465   2.200   2.703
 8476SOL     OW26326   6.711   0.959   2.353
 8476SOL    HW126327   6.659   0.897   2.412
 8476SOL    HW226328   6.677   0.953   2.259
 8477SOL     OW26329   5.556   6.535   1.191
 8477SOL    HW126330   5.491   6.605   1.221
 8477SOL    HW226331   5.510   6.470   1.130
 8478SOL     OW26332   1.804   6.607   6.737
 8478SOL    HW126333   1.889   6.565   6.769
 8478SOL    HW226334   1.787   6.580   6.642
 8479SOL     OW26335   0.915   2.337   0.049
 8479SOL    HW126336   0.945   2.360   0.142
 8479SOL    HW226337   0.976   2.268   0.010
 8480SOL     OW26338   3.049   4.339   1.706
 8480SOL    HW126339   2.995   4.388   1.774
 8480SOL    HW226340   3.058   4.243   1.732
 8481SOL     OW26341   5.283   3.520   2.212
 8481SOL    HW126342   5.220   3.505   2.289
 8481SOL    HW226343   5.257   3.460   2.136
 8482SOL     OW26344   4.737   0.260   5.666
 8482SOL    HW126345   4.797   0.192   5.710
 8482SOL    HW226346   4.735   0.243   5.567
 8483SOL     OW26347   4.664   5.378   3.826
 8483SOL    HW126348   4.763   5.391   3.824
 8483SOL    HW226349   4.641   5.290   3.785
 8484SOL     OW26350   6.022   6.993   5.436
 8484SOL    HW126351   5.935   0.020   5.455
 8484SOL    HW226352   6.018   6.948   5.347
 8485SOL     OW26353   3.711   0.266   5.871
 8485SOL    HW126354   3.611   0.261   5.875
 8485SOL    HW226355   3.742   0.354   5.908
 8486SOL     OW26356   4.802   2.888   4.731
 8486SOL    HW126357   4.737   2.812   4.721
 8486SOL    HW226358   4.791   2.952   4.655
 8487SOL     OW26359   0.073   1.312   5.117
 8487SOL    HW126360   0.103   1.247   5.047
 8487SOL    HW226361   6.991   1.304   5.129
 8488SOL     OW26362   4.788   5.537   3.046
 8488SOL    HW126363   4.715   5.498   2.990
 8488SOL    HW226364   4.798   5.634   3.025
 8489SOL     OW26365   6.286   2.243   1.970
 8489SOL    HW126366   6.268   2.340   1.956
 8489SOL    HW226367   6.325   2.203   1.887
 8490SOL     OW26368   4.103   6.808   0.344
 8490SOL    HW126369   4.146   6.748   0.412
 8490SOL    HW226370   4.088   6.898   0.384
 8491SOL     OW26371   3.067   6.071   1.724
 8491SOL    HW126372   3.035   6.131   1.798
 8491SOL    HW226373   3.010   6.085   1.643
 8492SOL     OW26374   5.977   6.848   4.251
 8492SOL    HW126375   6.056   6.803   4.292
 8492SOL    HW226376   5.973   6.824   4.154
 8493SOL     OW26377   5.124   0.295   5.729
 8493SOL    HW126378   5.112   0.257   5.637
 8493SOL    HW226379   5.151   0.391   5.722
 8494SOL     OW26380   0.116   3.610   2.248
 8494SOL    HW126381   0.038   3.594   2.188
 8494SOL    HW226382   0.085   3.606   2.344
 8495SOL     OW26383   4.840   6.017   4.909
 8495SOL    HW126384   4.787   5.987   4.830
 8495SOL    HW226385   4.903   6.090   4.881
 8496SOL     OW26386   3.779   1.881   2.370
 8496SOL    HW126387   3.838   1.842   2.300
 8496SOL    HW226388   3.735   1.964   2.335
 8497SOL     OW26389   6.718   0.788   3.085
 8497SOL    HW126390   6.728   0.718   3.156
 8497SOL    HW226391   6.633   0.838   3.100
 8498SOL     OW26392   5.636   6.493   5.161
 8498SOL    HW126393   5.652   6.494   5.260
 8498SOL    HW226394   5.637   6.399   5.128
 8499SOL     OW26395   6.244   7.016   6.186
 8499SOL    HW126396   6.154   0.027   6.153
 8499SOL    HW226397   6.233   6.938   6.248
 8500SOL     OW26398   0.953   0.827   6.065
 8500SOL    HW126399   0.856   0.851   6.072
 8500SOL    HW226400   0.990   0.815   6.157
 8501SOL     OW26401   3.464   0.153   5.158
 8501SOL    HW126402   3.501   0.155   5.251
 8501SOL    HW226403   3.485   0.239   5.112
 8502SOL     OW26404   6.251   2.921   0.445
 8502SOL    HW126405   6.242   2.821   0.451
 8502SOL    HW226406   6.346   2.945   0.426
 8503SOL     OW26407   4.772   2.003   6.286
 8503SOL    HW126408   4.832   2.083   6.288
 8503SOL    HW226409   4.748   1.981   6.191
 8504SOL     OW26410   1.498   0.914   3.219
 8504SOL    HW126411   1.574   0.864   3.178
 8504SOL    HW226412   1.439   0.952   3.148
 8505SOL     OW26413   6.122   1.743   2.870
 8505SOL    HW126414   6.046   1.780   2.923
 8505SOL    HW226415   6.166   1.817   2.818
 8506SOL     OW26416   1.712   1.145   4.065
 8506SOL    HW126417   1.676   1.233   4.032
 8506SOL    HW226418   1.673   1.071   4.010
 8507SOL     OW26419   4.481   5.256   0.065
 8507SOL    HW126420   4.551   5.197   0.024
 8507SOL    HW226421   4.403   5.264   0.002
 8508SOL     OW26422   4.060   0.966   6.330
 8508SOL    HW126423   3.999   0.898   6.289
 8508SOL    HW226424   4.048   0.965   6.429
 8509SOL     OW26425   4.386   1.877   2.256
 8509SOL    HW126426   4.316   1.921   2.311
 8509SOL    HW226427   4.376   1.905   2.161
 8510SOL     OW26428   0.511   2.103   4.977
 8510SOL    HW126429   0.565   2.138   5.054
 8510SOL    HW226430   0.568   2.043   4.921
 8511SOL     OW26431   5.716   2.148   4.059
 8511SOL    HW126432   5.628   2.112   4.089
 8511SOL    HW226433   5.709   2.181   3.965
 8512SOL     OW26434   2.517   6.337   6.337
 8512SOL    HW126435   2.554   6.367   6.426
 8512SOL    HW226436   2.469   6.414   6.295
 8513SOL     OW26437   3.776   5.823   6.921
 8513SOL    HW126438   3.803   5.843   7.016
 8513SOL    HW226439   3.824   5.741   6.890
 8514SOL     OW26440   4.448   5.422   4.404
 8514SOL    HW126441   4.401   5.503   4.369
 8514SOL    HW226442   4.527   5.402   4.346
 8515SOL     OW26443   5.292   3.002   1.738
 8515SOL    HW126444   5.195   3.011   1.714
 8515SOL    HW226445   5.341   2.959   1.662
 8516SOL     OW26446   6.646   2.435   1.438
 8516SOL    HW126447   6.702   2.417   1.518
 8516SOL    HW226448   6.702   2.428   1.355
 8517SOL     OW26449   0.971   3.698   4.432
 8517SOL    HW126450   0.952   3.663   4.524
 8517SOL    HW226451   1.068   3.722   4.424
 8518SOL     OW26452   3.862   5.729   1.180
 8518SOL    HW126453   3.805   5.795   1.131
 8518SOL    HW226454   3.958   5.746   1.158
 8519SOL     OW26455   2.716   5.456   3.462
 8519SOL    HW126456   2.811   5.471   3.434
 8519SOL    HW226457   2.670   5.397   3.395
 8520SOL     OW26458   3.345   5.610   0.284
 8520SOL    HW126459   3.297   5.639   0.367
 8520SOL    HW226460   3.410   5.538   0.308
 8521SOL     OW26461   1.057   1.006   3.056
 8521SOL    HW126462   1.027   1.099   3.077
 8521SOL    HW226463   1.027   0.944   3.130
 8522SOL     OW26464   2.471   5.816   3.742
 8522SOL    HW126465   2.490   5.726   3.702
 8522SOL    HW226466   2.525   5.828   3.825
 8523SOL     OW26467   1.982   5.472   6.638
 8523SOL    HW126468   1.960   5.547   6.700
 8523SOL    HW226469   1.976   5.385   6.687
 8524SOL     OW26470   1.704   1.652   6.505
 8524SOL    HW126471   1.741   1.636   6.597
 8524SOL    HW226472   1.779   1.658   6.439
 8525SOL     OW26473   5.339   4.418   4.326
 8525SOL    HW126474   5.279   4.347   4.289
 8525SOL    HW226475   5.424   4.421   4.273
 8526SOL     OW26476   6.965   3.067   1.807
 8526SOL    HW126477   6.979   3.133   1.733
 8526SOL    HW226478   6.988   3.110   1.894
 8527SOL     OW26479   4.895   0.843   5.233
 8527SOL    HW126480   4.888   0.853   5.333
 8527SOL    HW226481   4.805   0.821   5.196
 8528SOL     OW26482   5.276   0.157   0.355
 8528SOL    HW126483   5.227   0.243   0.344
 8528SOL    HW226484   5.264   0.123   0.448
 8529SOL     OW26485   6.837   0.738   4.460
 8529SOL    HW126486   6.811   0.831   4.433
 8529SOL    HW226487   6.913   0.707   4.403
 8530SOL     OW26488   1.887   5.083   5.945
 8530SOL    HW126489   1.922   5.000   5.903
 8530SOL    HW226490   1.961   5.150   5.955
 8531SOL     OW26491   3.415   5.596   2.796
 8531SOL    HW126492   3.411   5.672   2.732
 8531SOL    HW226493   3.414   5.510   2.745
 8532SOL     OW26494   1.198   3.754   6.969
 8532SOL    HW126495   1.166   3.685   6.904
 8532SOL    HW226496   1.257   3.710   0.019
 8533SOL     OW26497   3.374   0.067   6.228
 8533SOL    HW126498   3.292   0.120   6.209
 8533SOL    HW226499   3.366   6.994   6.187
 8534SOL     OW26500   2.932   2.690   0.939
 8534SOL    HW126501   2.846   2.709   0.987
 8534SOL    HW226502   2.925   2.722   0.844
 8535SOL     OW26503   0.229   2.214   5.860
 8535SOL    HW126504   0.207   2.175   5.950
 8535SOL    HW226505   0.321   2.254   5.863
 8536SOL     OW26506   6.460   0.546   6.553
 8536SOL    HW126507   6.504   0.457   6.539
 8536SOL    HW226508   6.368   0.544   6.516
 8537SOL     OW26509   4.091   5.796   2.723
 8537SOL    HW126510   4.186   5.766   2.713
 8537SOL    HW226511   4.087   5.876   2.783
 8538SOL     OW26512   4.035   1.255   5.070
 8538SOL    HW126513   4.093   1.275   5.148
 8538SOL    HW226514   4.006   1.341   5.027
 8539SOL     OW26515   0.471   3.318   2.938
 8539SOL    HW126516   0.558   3.353   2.974
 8539SOL    HW226517   0.400   3.333   3.007
 8540SOL     OW26518   4.580   5.972   6.069
 8540SOL    HW126519   4.520   5.931   6.001
 8540SOL    HW226520   4.599   5.905   6.141
 8541SOL     OW26521   3.384   5.724   5.620
 8541SOL    HW126522   3.378   5.723   5.520
 8541SOL    HW226523   3.443   5.649   5.650
 8542SOL     OW26524   1.816   5.392   5.404
 8542SOL    HW126525   1.720   5.415   5.394
 8542SOL    HW226526   1.836   5.373   5.500
 8543SOL     OW26527   3.452   1.661   5.701
 8543SOL    HW126528   3.445   1.573   5.747
 8543SOL    HW226529   3.451   1.647   5.602
 8544SOL     OW26530   4.998   3.758   5.291
 8544SOL    HW126531   4.901   3.781   5.297
 8544SOL    HW226532   5.053   3.837   5.317
 8545SOL     OW26533   2.061   0.302   6.316
 8545SOL    HW126534   1.972   0.331   6.280
 8545SOL    HW226535   2.133   0.361   6.280
 8546SOL     OW26536   2.722   1.373   3.962
 8546SOL    HW126537   2.660   1.304   3.924
 8546SOL    HW226538   2.724   1.363   4.062
 8547SOL     OW26539   5.899   4.776   5.737
 8547SOL    HW126540   5.845   4.839   5.681
 8547SOL    HW226541   5.840   4.702   5.770
 8548SOL     OW26542   1.556   4.085   4.106
 8548SOL    HW126543   1.604   4.003   4.076
 8548SOL    HW226544   1.457   4.067   4.107
 8549SOL     OW26545   3.327   0.385   3.739
 8549SOL    HW126546   3.346   0.423   3.829
 8549SOL    HW226547   3.289   0.292   3.749
 8550SOL     OW26548   0.526   3.508   4.867
 8550SOL    HW126549   0.583   3.468   4.795
 8550SOL    HW226550   0.499   3.437   4.932
 8551SOL     OW26551   3.656   1.824   3.878
 8551SOL    HW126552   3.601   1.903   3.904
 8551SOL    HW226553   3.745   1.830   3.924
 8552SOL     OW26554   4.040   1.119   2.182
 8552SOL    HW126555   4.003   1.200   2.136
 8552SOL    HW226556   4.030   1.039   2.122
 8553SOL     OW26557   5.574   3.017   0.794
 8553SOL    HW126558   5.599   3.042   0.888
 8553SOL    HW226559   5.484   2.974   0.794
 8554SOL     OW26560   0.423   1.200   6.728
 8554SOL    HW126561   0.347   1.139   6.708
 8554SOL    HW226562   0.412   1.238   6.820
 8555SOL     OW26563   3.563   2.085   3.937
 8555SOL    HW126564   3.479   2.122   3.977
 8555SOL    HW226565   3.559   2.095   3.837
 8556SOL     OW26566   0.966   4.252   6.015
 8556SOL    HW126567   0.938   4.272   6.110
 8556SOL    HW226568   1.018   4.166   6.013
 8557SOL     OW26569   6.055   0.472   0.684
 8557SOL    HW126570   6.115   0.552   0.694
 8557SOL    HW226571   5.986   0.474   0.757
 8558SOL     OW26572   3.030   5.987   3.607
 8558SOL    HW126573   2.998   6.041   3.529
 8558SOL    HW226574   2.952   5.948   3.655
 8559SOL     OW26575   1.595   3.060   3.296
 8559SOL    HW126576   1.564   3.110   3.377
 8559SOL    HW226577   1.661   3.116   3.245
 8560SOL     OW26578   3.276   4.426   1.590
 8560SOL    HW126579   3.341   4.480   1.645
 8560SOL    HW226580   3.204   4.390   1.650
 8561SOL     OW26581   3.604   0.695   2.525
 8561SOL    HW126582   3.634   0.689   2.620
 8561SOL    HW226583   3.566   0.786   2.508
 8562SOL     OW26584   5.330   3.508   6.227
 8562SOL    HW126585   5.234   3.538   6.223
 8562SOL    HW226586   5.384   3.564   6.164
 8563SOL     OW26587   0.522   4.150   3.132
 8563SOL    HW126588   0.462   4.153   3.212
 8563SOL    HW226589   0.472   4.113   3.054
 8564SOL     OW26590   4.213   6.270   6.762
 8564SOL    HW126591   4.134   6.243   6.816
 8564SOL    HW226592   4.188   6.348   6.704
 8565SOL     OW26593   0.915   5.217   0.605
 8565SOL    HW126594   0.987   5.251   0.545
 8565SOL    HW226595   0.938   5.238   0.700
 8566SOL     OW26596   2.434   0.789   3.384
 8566SOL    HW126597   2.339   0.760   3.371
 8566SOL    HW226598   2.485   0.774   3.299
 8567SOL     OW26599   1.690   3.721   0.261
 8567SOL    HW126600   1.678   3.817   0.284
 8567SOL    HW226601   1.612   3.668   0.295
 8568SOL     OW26602   5.548   7.000   6.618
 8568SOL    HW126603   5.453   0.011   6.609
 8568SOL    HW226604   5.606   0.038   6.558
 8569SOL     OW26605   4.164   1.834   6.351
 8569SOL    HW126606   4.124   1.798   6.266
 8569SOL    HW226607   4.167   1.762   6.420
 8570SOL     OW26608   1.949   2.384   4.285
 8570SOL    HW126609   2.032   2.393   4.230
 8570SOL    HW226610   1.924   2.474   4.322
 8571SOL     OW26611   1.670   0.473   3.819
 8571SOL    HW126612   1.710   0.559   3.852
 8571SOL    HW226613   1.739   0.401   3.823
 8572SOL     OW26614   2.629   3.251   6.200
 8572SOL    HW126615   2.580   3.186   6.257
 8572SOL    HW226616   2.576   3.336   6.193
 8573SOL     OW26617   1.985   6.003   5.932
 8573SOL    HW126618   2.024   5.972   6.019
 8573SOL    HW226619   1.912   5.942   5.904
 8574SOL     OW26620   6.114   2.425   5.624
 8574SOL    HW126621   6.110   2.340   5.676
 8574SOL    HW226622   6.158   2.496   5.679
 8575SOL     OW26623   2.185   6.641   3.922
 8575SOL    HW126624   2.138   6.626   4.009
 8575SOL    HW226625   2.210   6.553   3.882
 8576SOL     OW26626   1.205   3.804   4.208
 8576SOL    HW126627   1.254   3.739   4.150
 8576SOL    HW226628   1.227   3.788   4.304
 8577SOL     OW26629   1.947   1.210   0.817
 8577SOL    HW126630   1.887   1.278   0.859
 8577SOL    HW226631   2.021   1.188   0.880
 8578SOL     OW26632   1.606   0.573   5.920
 8578SOL    HW126633   1.701   0.593   5.945
 8578SOL    HW226634   1.573   0.642   5.856
 8579SOL     OW26635   2.778   0.043   2.627
 8579SOL    HW126636   2.779   6.971   2.672
 8579SOL    HW226637   2.777   0.115   2.697
 8580SOL     OW26638   1.060   0.324   1.920
 8580SOL    HW126639   1.029   0.370   1.837
 8580SOL    HW226640   1.160   0.325   1.923
 8581SOL     OW26641   3.878   3.584   3.948
 8581SOL    HW126642   3.874   3.486   3.931
 8581SOL    HW226643   3.926   3.601   4.034
 8582SOL     OW26644   5.372   5.525   6.011
 8582SOL    HW126645   5.445   5.550   6.074
 8582SOL    HW226646   5.285   5.521   6.060
 8583SOL     OW26647   3.346   0.654   2.214
 8583SOL    HW126648   3.389   0.576   2.259
 8583SOL    HW226649   3.261   0.676   2.261
 8584SOL     OW26650   5.277   2.572   5.805
 8584SOL    HW126651   5.364   2.604   5.842
 8584SOL    HW226652   5.293   2.527   5.717
 8585SOL     OW26653   4.645   2.675   3.187
 8585SOL    HW126654   4.695   2.755   3.220
 8585SOL    HW226655   4.644   2.604   3.258
 8586SOL     OW26656   5.867   0.072   5.845
 8586SOL    HW126657   5.876   6.991   5.858
 8586SOL    HW226658   5.950   0.107   5.802
 8587SOL     OW26659   6.802   6.666   1.109
 8587SOL    HW126660   6.724   6.723   1.135
 8587SOL    HW226661   6.850   6.707   1.031
 8588SOL     OW26662   2.048   2.343   5.756
 8588SOL    HW126663   2.073   2.440   5.761
 8588SOL    HW226664   2.078   2.305   5.669
 8589SOL     OW26665   6.262   3.369   6.607
 8589SOL    HW126666   6.195   3.408   6.671
 8589SOL    HW226667   6.248   3.270   6.602
 8590SOL     OW26668   0.837   1.419   2.863
 8590SOL    HW126669   0.804   1.491   2.801
 8590SOL    HW226670   0.764   1.395   2.927
 8591SOL     OW26671   0.590   4.301   5.861
 8591SOL    HW126672   0.562   4.218   5.909
 8591SOL    HW226673   0.628   4.367   5.926
 8592SOL     OW26674   0.068   2.487   4.541
 8592SOL    HW126675   0.083   2.444   4.630
 8592SOL    HW226676   0.083   2.419   4.469
 8593SOL     OW26677   6.375   0.926   0.414
 8593SOL    HW126678   6.318   0.846   0.397
 8593SOL    HW226679   6.377   0.946   0.512
 8594SOL     OW26680   6.285   2.605   6.717
 8594SOL    HW126681   6.242   2.567   6.636
 8594SOL    HW226682   6.217   2.614   6.790
 8595SOL     OW26683   5.622   6.351   2.064
 8595SOL    HW126684   5.537   6.317   2.023
 8595SOL    HW226685   5.630   6.314   2.157
 8596SOL     OW26686   0.679   2.703   5.634
 8596SOL    HW126687   0.630   2.735   5.714
 8596SOL    HW226688   0.614   2.674   5.564
 8597SOL     OW26689   6.307   2.264   5.484
 8597SOL    HW126690   6.245   2.329   5.527
 8597SOL    HW226691   6.392   2.259   5.537
 8598SOL     OW26692   6.293   0.674   5.425
 8598SOL    HW126693   6.239   0.726   5.360
 8598SOL    HW226694   6.305   0.580   5.391
 8599SOL     OW26695   5.572   4.398   5.237
 8599SOL    HW126696   5.657   4.440   5.206
 8599SOL    HW226697   5.557   4.311   5.190
 8600SOL     OW26698   3.738   3.011   2.035
 8600SOL    HW126699   3.642   3.036   2.048
 8600SOL    HW226700   3.748   2.962   1.948
 8601SOL     OW26701   5.134   4.719   1.493
 8601SOL    HW126702   5.179   4.652   1.434
 8601SOL    HW226703   5.056   4.677   1.538
 8602SOL     OW26704   1.871   6.125   5.363
 8602SOL    HW126705   1.772   6.139   5.376
 8602SOL    HW226706   1.905   6.062   5.432
 8603SOL     OW26707   0.333   1.366   0.405
 8603SOL    HW126708   0.249   1.420   0.399
 8603SOL    HW226709   0.374   1.358   0.315
 8604SOL     OW26710   2.178   5.699   5.777
 8604SOL    HW126711   2.169   5.699   5.678
 8604SOL    HW226712   2.127   5.622   5.816
 8605SOL     OW26713   6.665   4.605   4.002
 8605SOL    HW126714   6.604   4.640   4.074
 8605SOL    HW226715   6.612   4.550   3.938
 8606SOL     OW26716   0.894   0.299   6.436
 8606SOL    HW126717   0.932   0.307   6.528
 8606SOL    HW226718   0.942   0.226   6.386
 8607SOL     OW26719   3.248   2.822   2.060
 8607SOL    HW126720   3.197   2.737   2.074
 8607SOL    HW226721   3.287   2.823   1.967
 8608SOL     OW26722   1.520   5.232   2.485
 8608SOL    HW126723   1.533   5.144   2.438
 8608SOL    HW226724   1.433   5.229   2.536
 8609SOL     OW26725   4.827   2.308   4.000
 8609SOL    HW126726   4.882   2.256   4.066
 8609SOL    HW226727   4.875   2.392   3.976
 8610SOL     OW26728   0.240   5.395   2.336
 8610SOL    HW126729   0.151   5.406   2.381
 8610SOL    HW226730   0.238   5.312   2.280
 8611SOL     OW26731   2.266   1.682   5.366
 8611SOL    HW126732   2.180   1.731   5.383
 8611SOL    HW226733   2.340   1.749   5.355
 8612SOL     OW26734   3.455   3.138   5.852
 8612SOL    HW126735   3.368   3.121   5.805
 8612SOL    HW226736   3.437   3.165   5.946
 8613SOL     OW26737   3.563   3.193   3.312
 8613SOL    HW126738   3.579   3.291   3.321
 8613SOL    HW226739   3.481   3.176   3.258
 8614SOL     OW26740   0.204   3.285   3.914
 8614SOL    HW126741   0.202   3.367   3.858
 8614SOL    HW226742   0.111   3.261   3.942
 8615SOL     OW26743   3.828   0.620   5.143
 8615SOL    HW126744   3.820   0.523   5.166
 8615SOL    HW226745   3.875   0.630   5.056
 8616SOL     OW26746   5.814   4.164   5.125
 8616SOL    HW126747   5.803   4.258   5.094
 8616SOL    HW226748   5.910   4.137   5.117
 8617SOL     OW26749   0.838   0.105   4.367
 8617SOL    HW126750   0.802   0.188   4.324
 8617SOL    HW226751   0.869   0.126   4.459
 8618SOL     OW26752   6.862   5.253   0.210
 8618SOL    HW126753   6.801   5.331   0.216
 8618SOL    HW226754   6.833   5.182   0.274
 8619SOL     OW26755   5.840   4.816   6.656
 8619SOL    HW126756   5.883   4.759   6.586
 8619SOL    HW226757   5.880   4.908   6.653
 8620SOL     OW26758   1.130   6.022   4.081
 8620SOL    HW126759   1.148   6.109   4.036
 8620SOL    HW226760   1.148   5.947   4.018
 8621SOL     OW26761   6.258   3.386   1.442
 8621SOL    HW126762   6.334   3.434   1.488
 8621SOL    HW226763   6.235   3.304   1.493
 8622SOL     OW26764   1.074   6.391   1.676
 8622SOL    HW126765   1.161   6.344   1.691
 8622SOL    HW226766   1.001   6.324   1.669
 8623SOL     OW26767   2.160   2.176   3.495
 8623SOL    HW126768   2.155   2.185   3.395
 8623SOL    HW226769   2.200   2.087   3.518
 8624SOL     OW26770   3.224   3.731   5.986
 8624SOL    HW126771   3.269   3.819   5.977
 8624SOL    HW226772   3.142   3.729   5.930
 8625SOL     OW26773   4.684   3.487   6.501
 8625SOL    HW126774   4.754   3.416   6.504
 8625SOL    HW226775   4.598   3.449   6.468
 8626SOL     OW26776   5.277   1.084   0.129
 8626SOL    HW126777   5.259   1.103   0.032
 8626SOL    HW226778   5.219   1.144   0.185
 8627SOL     OW26779   0.110   0.091   2.227
 8627SOL    HW126780   0.186   0.094   2.292
 8627SOL    HW226781   0.120   0.165   2.161
 8628SOL     OW26782   1.227   6.393   0.543
 8628SOL    HW126783   1.191   6.405   0.450
 8628SOL    HW226784   1.190   6.308   0.581
 8629SOL     OW26785   0.026   1.171   4.400
 8629SOL    HW126786   0.037   1.102   4.472
 8629SOL    HW226787   0.077   1.253   4.423
 8630SOL     OW26788   4.948   3.089   1.681
 8630SOL    HW126789   4.877   3.159   1.692
 8630SOL    HW226790   4.962   3.042   1.768
 8631SOL     OW26791   1.650   6.192   0.250
 8631SOL    HW126792   1.628   6.095   0.246
 8631SOL    HW226793   1.716   6.209   0.323
 8632SOL     OW26794   6.428   5.784   3.494
 8632SOL    HW126795   6.470   5.819   3.578
 8632SOL    HW226796   6.332   5.763   3.512
 8633SOL     OW26797   6.509   3.908   5.718
 8633SOL    HW126798   6.506   3.840   5.645
 8633SOL    HW226799   6.495   3.999   5.679
 8634SOL     OW26800   4.468   4.653   6.918
 8634SOL    HW126801   4.481   4.621   7.012
 8634SOL    HW226802   4.533   4.606   6.858
 8635SOL     OW26803   5.495   1.762   0.071
 8635SOL    HW126804   5.476   1.823   0.148
 8635SOL    HW226805   5.439   1.790   7.010
 8636SOL     OW26806   4.556   5.877   0.079
 8636SOL    HW126807   4.590   5.922   7.014
 8636SOL    HW226808   4.614   5.902   0.157
 8637SOL     OW26809   3.195   2.752   1.017
 8637SOL    HW126810   3.109   2.700   1.010
 8637SOL    HW226811   3.270   2.697   0.982
 8638SOL     OW26812   4.734   1.997   4.229
 8638SOL    HW126813   4.804   2.053   4.273
 8638SOL    HW226814   4.768   1.903   4.219
 8639SOL     OW26815   3.963   4.164   0.392
 8639SOL    HW126816   3.968   4.240   0.327
 8639SOL    HW226817   3.868   4.150   0.420
 8640SOL     OW26818   3.130   2.519   6.579
 8640SOL    HW126819   3.192   2.441   6.571
 8640SOL    HW226820   3.063   2.500   6.651
 8641SOL     OW26821   3.363   5.166   3.074
 8641SOL    HW126822   3.360   5.264   3.057
 8641SOL    HW226823   3.312   5.118   3.002
 8642SOL     OW26824   2.416   6.294   3.033
 8642SOL    HW126825   2.473   6.356   2.980
 8642SOL    HW226826   2.402   6.331   3.125
 8643SOL     OW26827   3.596   6.125   1.101
 8643SOL    HW126828   3.661   6.195   1.131
 8643SOL    HW226829   3.557   6.151   1.013
 8644SOL     OW26830   5.607   2.553   6.836
 8644SOL    HW126831   5.661   2.508   6.907
 8644SOL    HW226832   5.519   2.581   6.874
 8645SOL     OW26833   5.129   5.584   2.718
 8645SOL    HW126834   5.128   5.662   2.780
 8645SOL    HW226835   5.222   5.547   2.714
 8646SOL     OW26836   6.346   1.682   3.691
 8646SOL    HW126837   6.257   1.694   3.734
 8646SOL    HW226838   6.397   1.767   3.696
 8647SOL     OW26839   1.815   4.357   2.087
 8647SOL    HW126840   1.890   4.361   2.153
 8647SOL    HW226841   1.833   4.421   2.012
 8648SOL     OW26842   5.794   5.664   6.070
 8648SOL    HW126843   5.768   5.611   6.151
 8648SOL    HW226844   5.713   5.708   6.031
 8649SOL     OW26845   5.393   2.771   2.229
 8649SOL    HW126846   5.380   2.722   2.143
 8649SOL    HW226847   5.313   2.828   2.248
 8650SOL     OW26848   1.035   1.110   4.928
 8650SOL    HW126849   1.026   1.062   5.015
 8650SOL    HW226850   1.042   1.044   4.854
 8651SOL     OW26851   4.727   1.205   1.640
 8651SOL    HW126852   4.741   1.112   1.608
 8651SOL    HW226853   4.732   1.208   1.739
 8652SOL     OW26854   6.386   3.266   4.999
 8652SOL    HW126855   6.326   3.206   4.946
 8652SOL    HW226856   6.400   3.351   4.947
 8653SOL     OW26857   4.699   1.036   6.864
 8653SOL    HW126858   4.759   1.115   6.879
 8653SOL    HW226859   4.744   0.972   6.801
 8654SOL     OW26860   6.833   4.367   3.313
 8654SOL    HW126861   6.779   4.450   3.299
 8654SOL    HW226862   6.801   4.295   3.251
 8655SOL     OW26863   1.427   6.675   5.105
 8655SOL    HW126864   1.454   6.638   5.016
 8655SOL    HW226865   1.336   6.716   5.098
 8656SOL     OW26866   3.498   6.471   0.106
 8656SOL    HW126867   3.399   6.479   0.119
 8656SOL    HW226868   3.544   6.548   0.151
 8657SOL     OW26869   3.166   1.976   2.583
 8657SOL    HW126870   3.227   2.024   2.646
 8657SOL    HW226871   3.216   1.901   2.540
 8658SOL     OW26872   5.918   4.103   0.953
 8658SOL    HW126873   5.975   4.024   0.975
 8658SOL    HW226874   5.849   4.077   0.886
 8659SOL     OW26875   3.305   6.881   3.686
 8659SOL    HW126876   3.234   6.853   3.751
 8659SOL    HW226877   3.369   6.943   3.732
 8660SOL     OW26878   6.974   4.819   0.960
 8660SOL    HW126879   6.903   4.890   0.959
 8660SOL    HW226880   6.932   4.730   0.946
 8661SOL     OW26881   5.607   3.072   1.058
 8661SOL    HW126882   5.600   3.172   1.064
 8661SOL    HW226883   5.691   3.042   1.102
 8662SOL     OW26884   1.772   2.919   1.944
 8662SOL    HW126885   1.786   2.823   1.968
 8662SOL    HW226886   1.710   2.962   2.010
 8663SOL     OW26887   2.983   5.338   1.853
 8663SOL    HW126888   2.931   5.402   1.909
 8663SOL    HW226889   2.974   5.363   1.756
 8664SOL     OW26890   3.354   5.876   4.290
 8664SOL    HW126891   3.259   5.889   4.263
 8664SOL    HW226892   3.405   5.960   4.273
 8665SOL     OW26893   0.667   3.401   6.624
 8665SOL    HW126894   0.698   3.400   6.529
 8665SOL    HW226895   0.636   3.493   6.648
 8666SOL     OW26896   4.800   0.053   2.997
 8666SOL    HW126897   4.737   6.994   2.988
 8666SOL    HW226898   4.869   0.048   2.925
 8667SOL     OW26899   4.281   2.321   2.124
 8667SOL    HW126900   4.309   2.345   2.031
 8667SOL    HW226901   4.198   2.265   2.120
 8668SOL     OW26902   3.856   2.016   3.491
 8668SOL    HW126903   3.829   1.924   3.518
 8668SOL    HW226904   3.808   2.042   3.407
 8669SOL     OW26905   0.495   6.029   5.825
 8669SOL    HW126906   0.535   5.971   5.896
 8669SOL    HW226907   0.562   6.097   5.796
 8670SOL     OW26908   6.993   5.043   4.928
 8670SOL    HW126909   0.068   5.007   4.918
 8670SOL    HW226910   6.983   5.085   5.019
 8671SOL     OW26911   0.035   3.708   3.494
 8671SOL    HW126912   0.129   3.710   3.528
 8671SOL    HW226913   7.009   3.796   3.513
 8672SOL     OW26914   6.528   1.309   2.580
 8672SOL    HW126915   6.614   1.328   2.533
 8672SOL    HW226916   6.477   1.394   2.593
 8673SOL     OW26917   0.304   1.106   1.721
 8673SOL    HW126918   0.243   1.055   1.660
 8673SOL    HW226919   0.253   1.179   1.766
 8674SOL     OW26920   0.545   2.846   4.181
 8674SOL    HW126921   0.489   2.926   4.199
 8674SOL    HW226922   0.495   2.783   4.121
 8675SOL     OW26923   5.407   2.641   4.983
 8675SOL    HW126924   5.435   2.667   5.076
 8675SOL    HW226925   5.316   2.599   4.986
 8676SOL     OW26926   4.978   2.852   0.888
 8676SOL    HW126927   5.012   2.811   0.973
 8676SOL    HW226928   5.036   2.823   0.812
 8677SOL     OW26929   2.961   1.671   7.004
 8677SOL    HW126930   2.903   1.752   7.004
 8677SOL    HW226931   2.905   1.590   6.986
 8678SOL     OW26932   2.570   1.565   0.084
 8678SOL    HW126933   2.507   1.642   0.078
 8678SOL    HW226934   2.615   1.552   7.013
 8679SOL     OW26935   2.044   1.927   6.650
 8679SOL    HW126936   2.092   1.840   6.651
 8679SOL    HW226937   1.952   1.914   6.612
 8680SOL     OW26938   0.202   0.166   1.267
 8680SOL    HW126939   0.225   0.087   1.325
 8680SOL    HW226940   0.156   0.235   1.323
 8681SOL     OW26941   5.538   5.525   0.819
 8681SOL    HW126942   5.447   5.524   0.778
 8681SOL    HW226943   5.557   5.616   0.857
 8682SOL     OW26944   1.753   1.913   1.977
 8682SOL    HW126945   1.768   1.993   1.919
 8682SOL    HW226946   1.760   1.830   1.923
 8683SOL     OW26947   2.602   4.551   4.297
 8683SOL    HW126948   2.548   4.602   4.363
 8683SOL    HW226949   2.645   4.473   4.342
 8684SOL     OW26950   2.098   3.960   3.454
 8684SOL    HW126951   2.173   4.025   3.441
 8684SOL    HW226952   2.118   3.875   3.404
 8685SOL     OW26953   4.888   3.181   5.580
 8685SOL    HW126954   4.882   3.280   5.587
 8685SOL    HW226955   4.879   3.140   5.671
 8686SOL     OW26956   0.883   4.894   2.246
 8686SOL    HW126957   0.948   4.969   2.228
 8686SOL    HW226958   0.791   4.932   2.258
 8687SOL     OW26959   5.665   3.326   5.459
 8687SOL    HW126960   5.631   3.419   5.472
 8687SOL    HW226961   5.765   3.327   5.456
 8688SOL     OW26962   1.366   3.331   4.207
 8688SOL    HW126963   1.304   3.285   4.270
 8688SOL    HW226964   1.432   3.265   4.170
 8689SOL     OW26965   5.323   3.466   1.228
 8689SOL    HW126966   5.313   3.398   1.155
 8689SOL    HW226967   5.409   3.450   1.277
 8690SOL     OW26968   1.390   2.422   2.277
 8690SOL    HW126969   1.414   2.460   2.188
 8690SOL    HW226970   1.393   2.322   2.272
 8691SOL     OW26971   3.244   1.485   6.918
 8691SOL    HW126972   3.144   1.492   6.922
 8691SOL    HW226973   3.280   1.552   6.852
 8692SOL     OW26974   5.358   2.318   4.279
 8692SOL    HW126975   5.433   2.288   4.338
 8692SOL    HW226976   5.394   2.371   4.202
 8693SOL     OW26977   0.746   0.265   5.472
 8693SOL    HW126978   0.649   0.262   5.451
 8693SOL    HW226979   0.799   0.279   5.388
 8694SOL     OW26980   3.683   3.632   5.949
 8694SOL    HW126981   3.673   3.611   5.852
 8694SOL    HW226982   3.770   3.678   5.965
 8695SOL     OW26983   3.707   4.257   1.210
 8695SOL    HW126984   3.689   4.161   1.232
 8695SOL    HW226985   3.783   4.262   1.145
 8696SOL     OW26986   2.718   4.546   6.465
 8696SOL    HW126987   2.628   4.504   6.458
 8696SOL    HW226988   2.789   4.476   6.465
 8697SOL     OW26989   0.843   3.142   4.267
 8697SOL    HW126990   0.915   3.209   4.280
 8697SOL    HW226991   0.841   3.079   4.345
 8698SOL     OW26992   5.534   4.512   6.836
 8698SOL    HW126993   5.572   4.586   6.891
 8698SOL    HW226994   5.493   4.550   6.753
 8699SOL     OW26995   2.168   1.931   1.420
 8699SOL    HW126996   2.112   1.983   1.355
 8699SOL    HW226997   2.140   1.952   1.513
 8700SOL     OW26998   0.454   2.469   4.645
 8700SOL    HW126999   0.522   2.398   4.628
 8700SOL    HW227000   0.425   2.466   4.741
 8701SOL     OW27001   2.787   2.905   6.976
 8701SOL    HW127002   2.837   2.916   0.044
 8701SOL    HW227003   2.699   2.951   6.982
 8702SOL     OW27004   5.482   4.316   0.747
 8702SOL    HW127005   5.386   4.332   0.772
 8702SOL    HW227006   5.503   4.219   0.756
 8703SOL     OW27007   2.636   5.334   0.722
 8703SOL    HW127008   2.640   5.332   0.622
 8703SOL    HW227009   2.557   5.389   0.750
 8704SOL     OW27010   6.883   1.280   3.443
 8704SOL    HW127011   6.896   1.307   3.538
 8704SOL    HW227012   6.905   1.183   3.432
 8705SOL     OW27013   3.578   1.887   0.163
 8705SOL    HW127014   3.521   1.809   0.137
 8705SOL    HW227015   3.616   1.871   0.254
 8706SOL     OW27016   4.571   2.808   5.237
 8706SOL    HW127017   4.511   2.883   5.263
 8706SOL    HW227018   4.638   2.841   5.170
 8707SOL     OW27019   1.817   0.880   3.913
 8707SOL    HW127020   1.906   0.895   3.869
 8707SOL    HW227021   1.807   0.783   3.936
 8708SOL     OW27022   5.733   2.307   0.752
 8708SOL    HW127023   5.695   2.380   0.808
 8708SOL    HW227024   5.777   2.239   0.811
 8709SOL     OW27025   6.401   6.232   4.163
 8709SOL    HW127026   6.359   6.144   4.183
 8709SOL    HW227027   6.495   6.232   4.197
 8710SOL     OW27028   2.256   2.920   3.713
 8710SOL    HW127029   2.290   2.871   3.792
 8710SOL    HW227030   2.222   2.855   3.645
 8711SOL     OW27031   0.830   2.177   2.438
 8711SOL    HW127032   0.800   2.228   2.358
 8711SOL    HW227033   0.803   2.081   2.429
 8712SOL     OW27034   1.548   3.771   4.239
 8712SOL    HW127035   1.591   3.797   4.153
 8712SOL    HW227036   1.594   3.817   4.315
 8713SOL     OW27037   7.014   4.845   4.156
 8713SOL    HW127038   0.095   4.857   4.167
 8713SOL    HW227039   6.978   4.797   4.236
 8714SOL     OW27040   1.021   4.302   6.287
 8714SOL    HW127041   0.952   4.343   6.347
 8714SOL    HW227042   1.054   4.216   6.328
 8715SOL     OW27043   1.999   4.986   1.428
 8715SOL    HW127044   2.074   5.048   1.449
 8715SOL    HW227045   1.973   4.935   1.510
 8716SOL     OW27046   5.190   6.859   3.085
 8716SOL    HW127047   5.105   6.810   3.066
 8716SOL    HW227048   5.257   6.839   3.014
 8717SOL     OW27049   4.413   2.041   0.046
 8717SOL    HW127050   4.389   2.120   7.007
 8717SOL    HW227051   4.400   1.957   7.012
 8718SOL     OW27052   2.699   5.444   6.037
 8718SOL    HW127053   2.715   5.460   6.134
 8718SOL    HW227054   2.786   5.448   5.988
 8719SOL     OW27055   3.202   2.196   4.531
 8719SOL    HW127056   3.153   2.207   4.618
 8719SOL    HW227057   3.296   2.170   4.549
 8720SOL     OW27058   0.194   6.893   5.356
 8720SOL    HW127059   0.222   6.941   5.273
 8720SOL    HW227060   0.234   6.939   5.436
 8721SOL     OW27061   0.540   0.348   1.973
 8721SOL    HW127062   0.636   0.369   1.958
 8721SOL    HW227063   0.516   0.365   2.068
 8722SOL     OW27064   3.777   1.083   0.233
 8722SOL    HW127065   3.869   1.122   0.230
 8722SOL    HW227066   3.783   0.983   0.235
 8723SOL     OW27067   3.579   6.824   2.641
 8723SOL    HW127068   3.498   6.874   2.611
 8723SOL    HW227069   3.553   6.755   2.709
 8724SOL     OW27070   5.248   0.233   5.444
 8724SOL    HW127071   5.299   0.307   5.487
 8724SOL    HW227072   5.218   0.262   5.353
 8725SOL     OW27073   6.920   1.188   2.364
 8725SOL    HW127074   6.890   1.252   2.434
 8725SOL    HW227075   6.861   1.107   2.364
 8726SOL     OW27076   0.083   0.874   0.658
 8726SOL    HW127077   0.125   0.956   0.698
 8726SOL    HW227078   7.002   0.889   0.650
 8727SOL     OW27079   5.153   5.271   5.899
 8727SOL    HW127080   5.204   5.304   5.819
 8727SOL    HW227081   5.181   5.177   5.919
 8728SOL     OW27082   5.422   6.749   4.152
 8728SOL    HW127083   5.518   6.751   4.125
 8728SOL    HW227084   5.407   6.676   4.219
 8729SOL     OW27085   5.690   5.978   6.205
 8729SOL    HW127086   5.603   5.953   6.162
 8729SOL    HW227087   5.671   6.033   6.286
 8730SOL     OW27088   4.118   4.962   1.757
 8730SOL    HW127089   4.086   4.962   1.852
 8730SOL    HW227090   4.190   5.031   1.746
 8731SOL     OW27091   0.007   2.799   4.120
 8731SOL    HW127092   6.961   2.723   4.137
 8731SOL    HW227093   0.099   2.763   4.108
 8732SOL     OW27094   5.537   6.519   5.719
 8732SOL    HW127095   5.507   6.424   5.721
 8732SOL    HW227096   5.589   6.540   5.802
 8733SOL     OW27097   5.795   4.088   2.214
 8733SOL    HW127098   5.797   4.112   2.117
 8733SOL    HW227099   5.822   4.168   2.268
 8734SOL     OW27100   0.086   6.296   1.605
 8734SOL    HW127101   0.105   6.273   1.509
 8734SOL    HW227102   0.094   6.395   1.617
 8735SOL     OW27103   1.621   2.201   0.002
 8735SOL    HW127104   1.619   2.290   6.976
 8735SOL    HW227105   1.582   2.207   0.094
 8736SOL     OW27106   0.898   5.956   3.917
 8736SOL    HW127107   0.898   5.882   3.850
 8736SOL    HW227108   0.954   5.930   3.995
 8737SOL     OW27109   0.669   5.614   6.855
 8737SOL    HW127110   0.616   5.671   6.792
 8737SOL    HW227111   0.608   5.580   6.927
 8738SOL     OW27112   1.717   2.430   2.516
 8738SOL    HW127113   1.730   2.489   2.595
 8738SOL    HW227114   1.782   2.354   2.520
 8739SOL     OW27115   4.474   4.756   3.484
 8739SOL    HW127116   4.539   4.680   3.486
 8739SOL    HW227117   4.438   4.766   3.391
 8740SOL     OW27118   1.864   0.863   3.464
 8740SOL    HW127119   1.885   0.952   3.424
 8740SOL    HW227120   1.945   0.828   3.512
 8741SOL     OW27121   1.846   2.372   2.901
 8741SOL    HW127122   1.940   2.376   2.937
 8741SOL    HW227123   1.782   2.363   2.977
 8742SOL     OW27124   1.726   3.159   0.778
 8742SOL    HW127125   1.697   3.215   0.700
 8742SOL    HW227126   1.645   3.125   0.826
 8743SOL     OW27127   1.914   2.876   0.186
 8743SOL    HW127128   1.901   2.966   0.229
 8743SOL    HW227129   1.926   2.807   0.257
 8744SOL     OW27130   2.625   3.702   5.780
 8744SOL    HW127131   2.622   3.802   5.771
 8744SOL    HW227132   2.695   3.665   5.718
 8745SOL     OW27133   5.442   1.040   6.774
 8745SOL    HW127134   5.415   0.951   6.738
 8745SOL    HW227135   5.525   1.071   6.728
 8746SOL     OW27136   4.555   4.999   4.036
 8746SOL    HW127137   4.588   4.905   4.035
 8746SOL    HW227138   4.462   5.001   4.071
 8747SOL     OW27139   0.110   6.600   1.435
 8747SOL    HW127140   0.015   6.590   1.463
 8747SOL    HW227141   0.127   6.695   1.407
 8748SOL     OW27142   6.032   1.947   4.762
 8748SOL    HW127143   6.058   1.869   4.819
 8748SOL    HW227144   6.023   1.918   4.667
 8749SOL     OW27145   2.350   1.520   4.155
 8749SOL    HW127146   2.409   1.565   4.222
 8749SOL    HW227147   2.406   1.478   4.084
 8750SOL     OW27148   4.040   3.666   2.333
 8750SOL    HW127149   3.941   3.681   2.329
 8750SOL    HW227150   4.060   3.568   2.330
 8751SOL     OW27151   2.201   6.342   6.953
 8751SOL    HW127152   2.194   6.274   6.880
 8751SOL    HW227153   2.183   6.298   0.024
 8752SOL     OW27154   1.350   2.834   6.912
 8752SOL    HW127155   1.418   2.807   6.981
 8752SOL    HW227156   1.306   2.919   6.939
 8753SOL     OW27157   2.181   2.116   0.937
 8753SOL    HW127158   2.148   2.166   1.017
 8753SOL    HW227159   2.110   2.114   0.867
 8754SOL     OW27160   1.876   6.211   6.905
 8754SOL    HW127161   1.781   6.187   6.891
 8754SOL    HW227162   1.882   6.295   6.960
 8755SOL     OW27163   0.173   1.308   1.890
 8755SOL    HW127164   0.217   1.315   1.980
 8755SOL    HW227165   0.133   1.397   1.866
 8756SOL     OW27166   2.063   1.564   2.122
 8756SOL    HW127167   1.988   1.556   2.188
 8756SOL    HW227168   2.095   1.659   2.119
 8757SOL     OW27169   5.571   5.842   5.589
 8757SOL    HW127170   5.521   5.797   5.663
 8757SOL    HW227171   5.604   5.773   5.525
 8758SOL     OW27172   3.509   5.075   6.443
 8758SOL    HW127173   3.416   5.087   6.410
 8758SOL    HW227174   3.531   5.146   6.510
 8759SOL     OW27175   6.505   0.946   1.314
 8759SOL    HW127176   6.600   0.962   1.287
 8759SOL    HW227177   6.478   1.013   1.383
 8760SOL     OW27178   1.705   2.573   4.586
 8760SOL    HW127179   1.629   2.508   4.585
 8760SOL    HW227180   1.670   2.665   4.567
 8761SOL     OW27181   5.034   2.789   4.001
 8761SOL    HW127182   4.937   2.812   4.008
 8761SOL    HW227183   5.071   2.829   3.917
 8762SOL     OW27184   3.960   6.009   1.999
 8762SOL    HW127185   3.867   6.010   1.965
 8762SOL    HW227186   4.002   5.921   1.979
 8763SOL     OW27187   0.151   1.891   5.355
 8763SOL    HW127188   0.162   1.820   5.424
 8763SOL    HW227189   0.180   1.856   5.266
 8764SOL     OW27190   2.381   5.775   5.975
 8764SOL    HW127191   2.302   5.764   5.914
 8764SOL    HW227192   2.408   5.686   6.012
 8765SOL     OW27193   4.329   0.305   3.614
 8765SOL    HW127194   4.255   0.265   3.668
 8765SOL    HW227195   4.417   0.269   3.647
 8766SOL     OW27196   6.381   0.201   4.852
 8766SOL    HW127197   6.314   0.144   4.899
 8766SOL    HW227198   6.348   0.295   4.850
 8767SOL     OW27199   2.063   1.117   4.835
 8767SOL    HW127200   2.011   1.184   4.782
 8767SOL    HW227201   2.124   1.165   4.899
 8768SOL     OW27202   6.623   2.238   0.842
 8768SOL    HW127203   6.684   2.166   0.809
 8768SOL    HW227204   6.550   2.198   0.897
 8769SOL     OW27205   6.837   0.214   0.404
 8769SOL    HW127206   6.895   0.230   0.324
 8769SOL    HW227207   6.797   0.123   0.398
 8770SOL     OW27208   4.665   1.893   0.761
 8770SOL    HW127209   4.665   1.793   0.767
 8770SOL    HW227210   4.743   1.922   0.705
 8771SOL     OW27211   1.040   2.424   6.525
 8771SOL    HW127212   1.037   2.474   6.438
 8771SOL    HW227213   1.065   2.487   6.598
 8772SOL     OW27214   0.632   6.845   3.631
 8772SOL    HW127215   0.540   6.824   3.662
 8772SOL    HW227216   0.628   6.912   3.556
 8773SOL     OW27217   6.579   1.672   4.118
 8773SOL    HW127218   6.578   1.599   4.186
 8773SOL    HW227219   6.567   1.760   4.164
 8774SOL     OW27220   0.585   2.014   6.658
 8774SOL    HW127221   0.578   2.109   6.690
 8774SOL    HW227222   0.669   2.002   6.606
 8775SOL     OW27223   4.475   1.663   2.440
 8775SOL    HW127224   4.557   1.615   2.411
 8775SOL    HW227225   4.456   1.739   2.378
 8776SOL     OW27226   5.750   3.166   1.325
 8776SOL    HW127227   5.674   3.102   1.327
 8776SOL    HW227228   5.716   3.260   1.320
 8777SOL     OW27229   6.581   2.207   4.166
 8777SOL    HW127230   6.514   2.280   4.170
 8777SOL    HW227231   6.674   2.245   4.167
 8778SOL     OW27232   2.007   4.410   5.983
 8778SOL    HW127233   1.983   4.506   6.000
 8778SOL    HW227234   2.104   4.396   5.998
 8779SOL     OW27235   3.488   6.677   3.360
 8779SOL    HW127236   3.533   6.640   3.441
 8779SOL    HW227237   3.397   6.710   3.385
 8780SOL     OW27238   1.044   3.354   4.240
 8780SOL    HW127239   1.070   3.321   4.149
 8780SOL    HW227240   0.987   3.436   4.231
 8781SOL     OW27241   3.760   1.150   2.361
 8781SOL    HW127242   3.769   1.058   2.322
 8781SOL    HW227243   3.847   1.179   2.400
 8782SOL     OW27244   6.999   2.570   0.131
 8782SOL    HW127245   0.029   2.485   0.108
 8782SOL    HW227246   6.970   2.616   0.047
 8783SOL     OW27247   3.681   4.174   6.288
 8783SOL    HW127248   3.651   4.231   6.365
 8783SOL    HW227249   3.692   4.080   6.319
 8784SOL     OW27250   4.347   1.875   5.940
 8784SOL    HW127251   4.284   1.836   6.008
 8784SOL    HW227252   4.433   1.823   5.941
 8785SOL     OW27253   6.502   0.355   5.858
 8785SOL    HW127254   6.578   0.413   5.889
 8785SOL    HW227255   6.491   0.279   5.921
 8786SOL     OW27256   5.079   2.287   3.017
 8786SOL    HW127257   5.042   2.328   2.934
 8786SOL    HW227258   5.179   2.287   3.012
 8787SOL     OW27259   2.953   5.426   2.481
 8787SOL    HW127260   2.945   5.458   2.575
 8787SOL    HW227261   3.040   5.457   2.442
 8788SOL     OW27262   0.391   6.877   3.975
 8788SOL    HW127263   0.386   6.880   3.875
 8788SOL    HW227264   0.394   6.970   4.011
 8789SOL     OW27265   2.654   3.598   0.254
 8789SOL    HW127266   2.731   3.601   0.318
 8789SOL    HW227267   2.571   3.628   0.300
 8790SOL     OW27268   4.930   3.046   5.167
 8790SOL    HW127269   4.983   3.131   5.167
 8790SOL    HW227270   4.936   3.003   5.257
 8791SOL     OW27271   3.870   6.935   5.606
 8791SOL    HW127272   3.815   6.862   5.645
 8791SOL    HW227273   3.831   6.964   5.518
 8792SOL     OW27274   5.211   4.443   0.888
 8792SOL    HW127275   5.217   4.526   0.833
 8792SOL    HW227276   5.117   4.409   0.887
 8793SOL     OW27277   6.141   0.813   5.232
 8793SOL    HW127278   6.237   0.819   5.203
 8793SOL    HW227279   6.092   0.753   5.169
 8794SOL     OW27280   0.975   2.985   2.902
 8794SOL    HW127281   0.904   3.001   2.970
 8794SOL    HW227282   0.935   2.990   2.810
 8795SOL     OW27283   1.858   0.268   6.574
 8795SOL    HW127284   1.955   0.287   6.563
 8795SOL    HW227285   1.810   0.354   6.594
 8796SOL     OW27286   5.970   5.037   3.935
 8796SOL    HW127287   6.058   5.082   3.922
 8796SOL    HW227288   5.973   4.944   3.899
 8797SOL     OW27289   5.687   5.671   5.390
 8797SOL    HW127290   5.694   5.583   5.436
 8797SOL    HW227291   5.625   5.663   5.312
 8798SOL     OW27292   1.716   5.321   0.181
 8798SOL    HW127293   1.706   5.386   0.257
 8798SOL    HW227294   1.801   5.340   0.132
 8799SOL     OW27295   1.533   6.250   1.893
 8799SOL    HW127296   1.614   6.299   1.927
 8799SOL    HW227297   1.562   6.164   1.851
 8800SOL     OW27298   6.821   6.294   4.989
 8800SOL    HW127299   6.752   6.274   5.059
 8800SOL    HW227300   6.854   6.208   4.950
 8801SOL     OW27301   5.429   2.932   6.574
 8801SOL    HW127302   5.481   3.013   6.545
 8801SOL    HW227303   5.332   2.955   6.578
 8802SOL     OW27304   1.103   7.008   0.007
 8802SOL    HW127305   1.038   6.966   0.070
 8802SOL    HW227306   1.064   0.074   6.987
 8803SOL     OW27307   4.383   5.117   5.191
 8803SOL    HW127308   4.479   5.107   5.165
 8803SOL    HW227309   4.377   5.138   5.289
 8804SOL     OW27310   2.237   6.295   1.306
 8804SOL    HW127311   2.296   6.258   1.234
 8804SOL    HW227312   2.292   6.349   1.370
 8805SOL     OW27313   5.199   5.298   0.825
 8805SOL    HW127314   5.209   5.394   0.850
 8805SOL    HW227315   5.258   5.277   0.746
 8806SOL     OW27316   1.853   1.484   1.942
 8806SOL    HW127317   1.881   1.388   1.929
 8806SOL    HW227318   1.914   1.528   2.007
 8807SOL     OW27319   5.090   1.818   1.826
 8807SOL    HW127320   5.167   1.861   1.873
 8807SOL    HW227321   5.017   1.798   1.892
 8808SOL     OW27322   1.773   1.350   1.123
 8808SOL    HW127323   1.789   1.441   1.086
 8808SOL    HW227324   1.682   1.346   1.164
 8809SOL     OW27325   0.975   3.311   3.044
 8809SOL    HW127326   1.056   3.264   3.009
 8809SOL    HW227327   0.939   3.372   2.973
 8810SOL     OW27328   6.202   2.886   3.736
 8810SOL    HW127329   6.213   2.978   3.773
 8810SOL    HW227330   6.148   2.830   3.799
 8811SOL     OW27331   3.674   5.820   2.603
 8811SOL    HW127332   3.740   5.745   2.590
 8811SOL    HW227333   3.713   5.904   2.566
 8812SOL     OW27334   5.473   0.757   0.542
 8812SOL    HW127335   5.428   0.746   0.454
 8812SOL    HW227336   5.530   0.840   0.541
 8813SOL     OW27337   1.643   2.836   0.984
 8813SOL    HW127338   1.639   2.769   1.058
 8813SOL    HW227339   1.676   2.923   1.019
 8814SOL     OW27340   5.951   6.883   4.936
 8814SOL    HW127341   5.858   6.882   4.899
 8814SOL    HW227342   6.016   6.892   4.861
 8815SOL     OW27343   4.503   0.288   1.238
 8815SOL    HW127344   4.504   0.357   1.167
 8815SOL    HW227345   4.409   0.255   1.251
 8816SOL     OW27346   0.482   1.050   2.574
 8816SOL    HW127347   0.574   1.061   2.610
 8816SOL    HW227348   0.487   1.029   2.476
 8817SOL     OW27349   1.118   2.579   4.269
 8817SOL    HW127350   1.083   2.644   4.202
 8817SOL    HW227351   1.128   2.489   4.225
 8818SOL     OW27352   1.400   5.570   6.049
 8818SOL    HW127353   1.377   5.493   6.109
 8818SOL    HW227354   1.316   5.621   6.028
 8819SOL     OW27355   5.963   6.688   6.923
 8819SOL    HW127356   5.972   6.762   6.856
 8819SOL    HW227357   5.868   6.659   6.929
 8820SOL     OW27358   3.281   6.603   5.785
 8820SOL    HW127359   3.288   6.535   5.858
 8820SOL    HW227360   3.366   6.655   5.780
 8821SOL     OW27361   1.695   5.118   5.251
 8821SOL    HW127362   1.717   5.215   5.245
 8821SOL    HW227363   1.756   5.065   5.192
 8822SOL     OW27364   0.333   0.871   5.404
 8822SOL    HW127365   0.358   0.848   5.498
 8822SOL    HW227366   0.328   0.970   5.394
 8823SOL     OW27367   4.569   2.368   3.067
 8823SOL    HW127368   4.595   2.415   3.152
 8823SOL    HW227369   4.560   2.436   2.994
 8824SOL     OW27370   1.438   6.978   4.140
 8824SOL    HW127371   1.497   0.017   4.081
 8824SOL    HW227372   1.397   6.905   4.085
 8825SOL     OW27373   1.266   6.817   0.542
 8825SOL    HW127374   1.366   6.826   0.543
 8825SOL    HW227375   1.238   6.776   0.456
 8826SOL     OW27376   0.523   3.200   6.927
 8826SOL    HW127377   0.567   3.131   6.984
 8826SOL    HW227378   0.560   3.290   6.950
 8827SOL     OW27379   5.506   6.053   3.967
 8827SOL    HW127380   5.554   6.139   3.981
 8827SOL    HW227381   5.411   6.063   3.998
 8828SOL     OW27382   5.007   2.657   5.648
 8828SOL    HW127383   5.070   2.607   5.707
 8828SOL    HW227384   4.922   2.675   5.698
 8829SOL     OW27385   6.487   0.900   3.130
 8829SOL    HW127386   6.447   0.825   3.183
 8829SOL    HW227387   6.451   0.987   3.162
 8830SOL     OW27388   2.252   1.871   2.673
 8830SOL    HW127389   2.268   1.836   2.765
 8830SOL    HW227390   2.317   1.829   2.609
 8831SOL     OW27391   0.910   2.533   2.267
 8831SOL    HW127392   0.830   2.593   2.276
 8831SOL    HW227393   0.969   2.568   2.195
 8832SOL     OW27394   6.175   6.905   4.762
 8832SOL    HW127395   6.112   6.894   4.685
 8832SOL    HW227396   6.268   6.885   4.732
 8833SOL     OW27397   4.753   2.687   0.901
 8833SOL    HW127398   4.806   2.636   0.834
 8833SOL    HW227399   4.776   2.785   0.894
 8834SOL     OW27400   6.270   4.398   5.608
 8834SOL    HW127401   6.347   4.457   5.634
 8834SOL    HW227402   6.185   4.452   5.611
 8835SOL     OW27403   6.041   1.079   4.900
 8835SOL    HW127404   6.093   1.162   4.919
 8835SOL    HW227405   5.953   1.083   4.949
 8836SOL     OW27406   4.838   1.573   0.149
 8836SOL    HW127407   4.751   1.577   0.198
 8836SOL    HW227408   4.889   1.658   0.166
 8837SOL     OW27409   5.971   5.143   0.480
 8837SOL    HW127410   6.013   5.136   0.570
 8837SOL    HW227411   6.003   5.069   0.422
 8838SOL     OW27412   1.058   3.104   1.329
 8838SOL    HW127413   1.114   3.044   1.386
 8838SOL    HW227414   0.963   3.073   1.331
 8839SOL     OW27415   4.633   4.530   1.665
 8839SOL    HW127416   4.653   4.505   1.760
 8839SOL    HW227417   4.561   4.599   1.663
 8840SOL     OW27418   0.194   6.899   1.462
 8840SOL    HW127419   0.277   6.902   1.405
 8840SOL    HW227420   0.218   6.864   1.553
 8841SOL     OW27421   4.843   1.900   0.197
 8841SOL    HW127422   4.755   1.907   0.244
 8841SOL    HW227423   4.911   1.861   0.259
 8842SOL     OW27424   3.939   3.125   3.853
 8842SOL    HW127425   3.947   3.080   3.943
 8842SOL    HW227426   3.940   3.056   3.781
 8843SOL     OW27427   2.322   6.352   5.137
 8843SOL    HW127428   2.227   6.357   5.105
 8843SOL    HW227429   2.362   6.444   5.134
 8844SOL     OW27430   3.991   2.803   5.267
 8844SOL    HW127431   4.036   2.716   5.247
 8844SOL    HW227432   3.986   2.857   5.183
 8845SOL     OW27433   0.703   3.570   2.335
 8845SOL    HW127434   0.689   3.478   2.301
 8845SOL    HW227435   0.792   3.576   2.380
 8846SOL     OW27436   5.851   5.038   4.191
 8846SOL    HW127437   5.758   5.058   4.161
 8846SOL    HW227438   5.909   5.024   4.111
 8847SOL     OW27439   1.181   2.815   3.612
 8847SOL    HW127440   1.166   2.871   3.694
 8847SOL    HW227441   1.204   2.875   3.535
 8848SOL     OW27442   5.871   2.516   1.269
 8848SOL    HW127443   5.914   2.568   1.196
 8848SOL    HW227444   5.809   2.448   1.230
 8849SOL     OW27445   3.535   5.273   4.803
 8849SOL    HW127446   3.608   5.216   4.842
 8849SOL    HW227447   3.449   5.250   4.847
 8850SOL     OW27448   4.758   1.881   1.358
 8850SOL    HW127449   4.758   1.800   1.298
 8850SOL    HW227450   4.822   1.949   1.323
 8851SOL     OW27451   6.552   5.143   2.820
 8851SOL    HW127452   6.640   5.157   2.865
 8851SOL    HW227453   6.495   5.084   2.877
 8852SOL     OW27454   5.627   4.109   4.751
 8852SOL    HW127455   5.612   4.072   4.659
 8852SOL    HW227456   5.698   4.055   4.797
 8853SOL     OW27457   4.499   1.551   4.026
 8853SOL    HW127458   4.504   1.517   4.120
 8853SOL    HW227459   4.414   1.602   4.013
 8854SOL     OW27460   2.951   0.561   6.703
 8854SOL    HW127461   2.953   0.478   6.759
 8854SOL    HW227462   2.903   0.543   6.618
 8855SOL     OW27463   6.849   4.537   5.915
 8855SOL    HW127464   6.814   4.556   5.823
 8855SOL    HW227465   6.781   4.485   5.967
 8856SOL     OW27466   5.113   2.021   5.625
 8856SOL    HW127467   5.161   1.969   5.696
 8856SOL    HW227468   5.021   1.983   5.612
 8857SOL     OW27469   1.565   2.783   4.457
 8857SOL    HW127470   1.558   2.878   4.487
 8857SOL    HW227471   1.474   2.747   4.440
 8858SOL     OW27472   0.951   3.559   5.559
 8858SOL    HW127473   0.936   3.460   5.550
 8858SOL    HW227474   1.037   3.575   5.608
 8859SOL     OW27475   2.816   5.481   5.148
 8859SOL    HW127476   2.735   5.436   5.188
 8859SOL    HW227477   2.786   5.549   5.081
 8860SOL     OW27478   2.082   1.067   1.649
 8860SOL    HW127479   2.006   1.111   1.601
 8860SOL    HW227480   2.112   1.126   1.724
 8861SOL     OW27481   2.198   1.098   6.800
 8861SOL    HW127482   2.125   1.059   6.856
 8861SOL    HW227483   2.282   1.102   6.854
 8862SOL     OW27484   0.552   3.312   3.575
 8862SOL    HW127485   0.578   3.277   3.665
 8862SOL    HW227486   0.528   3.235   3.516
 8863SOL     OW27487   1.548   5.516   5.190
 8863SOL    HW127488   1.484   5.460   5.243
 8863SOL    HW227489   1.510   5.532   5.099
 8864SOL     OW27490   1.969   4.196   5.106
 8864SOL    HW127491   1.929   4.234   5.189
 8864SOL    HW227492   2.060   4.160   5.125
 8865SOL     OW27493   2.793   2.003   5.830
 8865SOL    HW127494   2.799   1.905   5.811
 8865SOL    HW227495   2.882   2.046   5.813
 8866SOL     OW27496   5.255   0.523   5.661
 8866SOL    HW127497   5.241   0.622   5.658
 8866SOL    HW227498   5.315   0.495   5.587
 8867SOL     OW27499   5.499   0.790   2.589
 8867SOL    HW127500   5.507   0.822   2.683
 8867SOL    HW227501   5.541   0.699   2.581
 8868SOL     OW27502   5.879   3.178   0.363
 8868SOL    HW127503   5.818   3.168   0.284
 8868SOL    HW227504   5.825   3.198   0.444
 8869SOL     OW27505   1.889   1.960   4.005
 8869SOL    HW127506   1.945   1.881   3.980
 8869SOL    HW227507   1.837   1.991   3.926
 8870SOL     OW27508   3.806   6.371   1.962
 8870SOL    HW127509   3.874   6.442   1.944
 8870SOL    HW227510   3.840   6.282   1.930
 8871SOL     OW27511   1.092   2.299   4.132
 8871SOL    HW127512   1.155   2.233   4.172
 8871SOL    HW227513   1.094   2.291   4.032
 8872SOL     OW27514   1.359   1.390   2.499
 8872SOL    HW127515   1.288   1.426   2.560
 8872SOL    HW227516   1.339   1.295   2.476
 8873SOL     OW27517   0.226   5.574   4.862
 8873SOL    HW127518   0.183   5.584   4.773
 8873SOL    HW227519   0.167   5.614   4.932
 8874SOL     OW27520   1.375   1.246   5.711
 8874SOL    HW127521   1.326   1.317   5.661
 8874SOL    HW227522   1.474   1.257   5.695
 8875SOL     OW27523   1.361   1.217   4.033
 8875SOL    HW127524   1.404   1.307   4.025
 8875SOL    HW227525   1.377   1.165   3.950
 8876SOL     OW27526   2.749   1.334   4.517
 8876SOL    HW127527   2.827   1.391   4.540
 8876SOL    HW227528   2.753   1.249   4.570
 8877SOL     OW27529   2.469   6.596   5.220
 8877SOL    HW127530   2.567   6.608   5.231
 8877SOL    HW227531   2.421   6.670   5.267
 8878SOL     OW27532   4.933   4.439   5.714
 8878SOL    HW127533   4.850   4.401   5.756
 8878SOL    HW227534   4.957   4.524   5.760
 8879SOL     OW27535   6.219   5.886   4.572
 8879SOL    HW127536   6.132   5.848   4.542
 8879SOL    HW227537   6.250   5.838   4.655
 8880SOL     OW27538   1.216   6.919   5.036
 8880SOL    HW127539   1.194   6.988   4.967
 8880SOL    HW227540   1.272   6.960   5.108
 8881SOL     OW27541   6.841   1.959   2.494
 8881SOL    HW127542   6.903   1.890   2.457
 8881SOL    HW227543   6.822   2.028   2.424
 8882SOL     OW27544   5.409   1.758   0.552
 8882SOL    HW127545   5.461   1.691   0.606
 8882SOL    HW227546   5.408   1.845   0.600
 8883SOL     OW27547   6.398   1.455   5.726
 8883SOL    HW127548   6.317   1.430   5.778
 8883SOL    HW227549   6.474   1.471   5.789
 8884SOL     OW27550   0.471   1.439   6.566
 8884SOL    HW127551   0.452   1.435   6.468
 8884SOL    HW227552   0.433   1.359   6.612
 8885SOL     OW27553   6.195   4.033   1.525
 8885SOL    HW127554   6.231   4.051   1.616
 8885SOL    HW227555   6.197   3.935   1.506
 8886SOL     OW27556   3.260   6.024   6.049
 8886SOL    HW127557   3.190   6.069   5.994
 8886SOL    HW227558   3.294   5.944   6.001
 8887SOL     OW27559   1.640   0.776   0.533
 8887SOL    HW127560   1.619   0.854   0.592
 8887SOL    HW227561   1.737   0.775   0.511
 8888SOL     OW27562   2.070   2.208   3.225
 8888SOL    HW127563   2.124   2.152   3.164
 8888SOL    HW227564   2.038   2.290   3.177
 8889SOL     OW27565   3.340   1.010   5.261
 8889SOL    HW127566   3.356   0.947   5.185
 8889SOL    HW227567   3.427   1.037   5.302
 8890SOL     OW27568   6.630   5.267   3.857
 8890SOL    HW127569   6.694   5.191   3.841
 8890SOL    HW227570   6.562   5.239   3.925
 8891SOL     OW27571   3.362   2.039   6.232
 8891SOL    HW127572   3.358   2.090   6.146
 8891SOL    HW227573   3.457   2.031   6.261
 8892SOL     OW27574   1.002   0.328   3.059
 8892SOL    HW127575   1.039   0.271   2.985
 8892SOL    HW227576   0.997   0.423   3.028
 8893SOL     OW27577   0.156   0.599   0.472
 8893SOL    HW127578   0.058   0.616   0.481
 8893SOL    HW227579   0.203   0.686   0.458
 8894SOL     OW27580   4.912   2.470   5.470
 8894SOL    HW127581   4.940   2.520   5.552
 8894SOL    HW227582   4.813   2.479   5.458
 8895SOL     OW27583   1.339   1.304   3.518
 8895SOL    HW127584   1.373   1.297   3.424
 8895SOL    HW227585   1.363   1.221   3.568
 8896SOL     OW27586   1.318   4.130   4.871
 8896SOL    HW127587   1.278   4.219   4.895
 8896SOL    HW227588   1.251   4.076   4.821
 8897SOL     OW27589   0.989   1.977   1.464
 8897SOL    HW127590   1.065   2.042   1.455
 8897SOL    HW227591   0.903   2.024   1.441
 8898SOL     OW27592   0.300   2.436   5.317
 8898SOL    HW127593   0.272   2.453   5.412
 8898SOL    HW227594   0.220   2.410   5.263
 8899SOL     OW27595   4.042   6.358   2.609
 8899SOL    HW127596   4.113   6.290   2.589
 8899SOL    HW227597   3.974   6.317   2.670
 8900SOL     OW27598   6.537   1.866   3.650
 8900SOL    HW127599   6.571   1.910   3.733
 8900SOL    HW227600   6.606   1.803   3.615
 8901SOL     OW27601   1.485   0.163   2.466
 8901SOL    HW127602   1.403   0.199   2.420
 8901SOL    HW227603   1.458   0.112   2.547
 8902SOL     OW27604   3.964   6.533   6.015
 8902SOL    HW127605   3.995   6.460   5.954
 8902SOL    HW227606   3.866   6.548   6.002
 8903SOL     OW27607   6.766   1.135   3.089
 8903SOL    HW127608   6.848   1.112   3.141
 8903SOL    HW227609   6.775   1.227   3.052
 8904SOL     OW27610   1.929   3.589   3.787
 8904SOL    HW127611   1.834   3.600   3.759
 8904SOL    HW227612   1.981   3.671   3.762
 8905SOL     OW27613   2.306   4.580   4.813
 8905SOL    HW127614   2.297   4.499   4.754
 8905SOL    HW227615   2.267   4.560   4.903
 8906SOL     OW27616   1.814   4.871   4.128
 8906SOL    HW127617   1.906   4.867   4.168
 8906SOL    HW227618   1.812   4.816   4.045
 8907SOL     OW27619   3.770   3.027   6.402
 8907SOL    HW127620   3.713   3.109   6.392
 8907SOL    HW227621   3.746   2.980   6.487
 8908SOL     OW27622   0.481   3.351   2.656
 8908SOL    HW127623   0.472   3.347   2.755
 8908SOL    HW227624   0.442   3.437   2.623
 8909SOL     OW27625   3.462   6.792   4.855
 8909SOL    HW127626   3.456   6.721   4.925
 8909SOL    HW227627   3.381   6.789   4.797
 8910SOL     OW27628   4.482   2.567   0.153
 8910SOL    HW127629   4.412   2.586   0.084
 8910SOL    HW227630   4.451   2.495   0.214
 8911SOL     OW27631   5.335   3.456   4.517
 8911SOL    HW127632   5.424   3.485   4.484
 8911SOL    HW227633   5.336   3.451   4.617
 8912SOL     OW27634   3.829   0.828   0.197
 8912SOL    HW127635   3.919   0.793   0.224
 8912SOL    HW227636   3.759   0.763   0.225
 8913SOL     OW27637   3.943   3.930   1.110
 8913SOL    HW127638   3.991   3.967   1.190
 8913SOL    HW227639   3.939   3.830   1.117
 8914SOL     OW27640   5.629   3.409   3.410
 8914SOL    HW127641   5.641   3.340   3.338
 8914SOL    HW227642   5.532   3.436   3.414
 8915SOL     OW27643   0.922   5.557   1.870
 8915SOL    HW127644   0.994   5.591   1.931
 8915SOL    HW227645   0.872   5.483   1.915
 8916SOL     OW27646   5.525   3.241   1.595
 8916SOL    HW127647   5.427   3.257   1.579
 8916SOL    HW227648   5.542   3.143   1.600
 8917SOL     OW27649   5.991   3.971   5.767
 8917SOL    HW127650   5.891   3.980   5.769
 8917SOL    HW227651   6.026   3.964   5.860
 8918SOL     OW27652   4.703   4.345   5.847
 8918SOL    HW127653   4.648   4.285   5.788
 8918SOL    HW227654   4.649   4.425   5.873
 8919SOL     OW27655   1.726   3.222   1.283
 8919SOL    HW127656   1.668   3.301   1.304
 8919SOL    HW227657   1.689   3.141   1.328
 8920SOL     OW27658   6.018   5.999   5.835
 8920SOL    HW127659   6.003   5.910   5.792
 8920SOL    HW227660   6.006   6.072   5.767
 8921SOL     OW27661   0.875   5.540   3.308
 8921SOL    HW127662   0.870   5.562   3.211
 8921SOL    HW227663   0.970   5.549   3.339
 8922SOL     OW27664   0.470   2.478   0.040
 8922SOL    HW127665   0.546   2.417   0.017
 8922SOL    HW227666   0.425   2.444   0.123
 8923SOL     OW27667   2.153   4.790   3.779
 8923SOL    HW127668   2.122   4.742   3.861
 8923SOL    HW227669   2.251   4.808   3.787
 8924SOL     OW27670   2.453   6.328   4.454
 8924SOL    HW127671   2.544   6.314   4.418
 8924SOL    HW227672   2.439   6.270   4.534
 8925SOL     OW27673   4.877   5.790   0.853
 8925SOL    HW127674   4.869   5.724   0.929
 8925SOL    HW227675   4.789   5.799   0.808
 8926SOL     OW27676   5.588   6.736   0.522
 8926SOL    HW127677   5.676   6.771   0.491
 8926SOL    HW227678   5.529   6.721   0.443
 8927SOL     OW27679   3.095   1.941   4.853
 8927SOL    HW127680   3.059   2.027   4.816
 8927SOL    HW227681   3.023   1.872   4.855
 8928SOL     OW27682   1.952   0.355   5.373
 8928SOL    HW127683   1.971   0.356   5.472
 8928SOL    HW227684   2.024   0.405   5.325
 8929SOL     OW27685   4.860   4.838   2.839
 8929SOL    HW127686   4.776   4.783   2.833
 8929SOL    HW227687   4.927   4.803   2.774
 8930SOL     OW27688   6.979   5.364   5.499
 8930SOL    HW127689   6.972   5.409   5.410
 8930SOL    HW227690   0.051   5.384   5.539
 8931SOL     OW27691   5.234   1.147   1.751
 8931SOL    HW127692   5.224   1.146   1.851
 8931SOL    HW227693   5.167   1.085   1.710
 8932SOL     OW27694   4.093   0.847   6.904
 8932SOL    HW127695   4.156   0.788   6.954
 8932SOL    HW227696   4.051   0.795   6.829
 8933SOL     OW27697   1.908   6.737   5.806
 8933SOL    HW127698   1.860   6.684   5.735
 8933SOL    HW227699   1.864   6.826   5.816
 8934SOL     OW27700   2.988   6.456   3.862
 8934SOL    HW127701   2.946   6.511   3.790
 8934SOL    HW227702   2.918   6.399   3.906
 8935SOL     OW27703   5.793   2.161   2.183
 8935SOL    HW127704   5.718   2.107   2.221
 8935SOL    HW227705   5.799   2.248   2.232
 8936SOL     OW27706   0.888   3.770   2.223
 8936SOL    HW127707   0.837   3.685   2.214
 8936SOL    HW227708   0.986   3.750   2.222
 8937SOL     OW27709   3.260   6.331   5.185
 8937SOL    HW127710   3.166   6.302   5.202
 8937SOL    HW227711   3.284   6.314   5.090
 8938SOL     OW27712   4.770   6.799   2.360
 8938SOL    HW127713   4.679   6.774   2.330
 8938SOL    HW227714   4.791   6.892   2.330
 8939SOL     OW27715   6.618   2.860   5.312
 8939SOL    HW127716   6.564   2.935   5.273
 8939SOL    HW227717   6.557   2.794   5.354
 8940SOL     OW27718   6.430   3.772   2.783
 8940SOL    HW127719   6.373   3.766   2.865
 8940SOL    HW227720   6.376   3.808   2.707
 8941SOL     OW27721   5.424   2.076   3.632
 8941SOL    HW127722   5.406   2.163   3.585
 8941SOL    HW227723   5.338   2.034   3.660
 8942SOL     OW27724   5.111   6.128   4.795
 8942SOL    HW127725   5.127   6.120   4.894
 8942SOL    HW227726   5.170   6.199   4.758
 8943SOL     OW27727   4.537   3.654   0.208
 8943SOL    HW127728   4.604   3.601   0.155
 8943SOL    HW227729   4.577   3.742   0.233
 8944SOL     OW27730   4.624   5.865   5.584
 8944SOL    HW127731   4.648   5.922   5.505
 8944SOL    HW227732   4.657   5.772   5.569
 8945SOL     OW27733   6.612   4.396   2.122
 8945SOL    HW127734   6.583   4.306   2.090
 8945SOL    HW227735   6.619   4.396   2.221
 8946SOL     OW27736   3.956   2.123   3.739
 8946SOL    HW127737   4.034   2.178   3.709
 8946SOL    HW227738   3.896   2.104   3.662
 8947SOL     OW27739   2.964   5.428   0.635
 8947SOL    HW127740   2.960   5.358   0.564
 8947SOL    HW227741   2.997   5.514   0.596
 8948SOL     OW27742   6.159   0.213   2.870
 8948SOL    HW127743   6.221   0.173   2.938
 8948SOL    HW227744   6.090   0.269   2.916
 8949SOL     OW27745   4.017   6.350   1.237
 8949SOL    HW127746   4.078   6.278   1.204
 8949SOL    HW227747   4.038   6.436   1.190
 8950SOL     OW27748   3.300   3.676   3.661
 8950SOL    HW127749   3.232   3.743   3.691
 8950SOL    HW227750   3.389   3.721   3.655
 8951SOL     OW27751   1.108   1.082   3.674
 8951SOL    HW127752   1.119   1.091   3.773
 8951SOL    HW227753   1.087   1.171   3.634
 8952SOL     OW27754   1.633   3.954   4.472
 8952SOL    HW127755   1.715   3.998   4.508
 8952SOL    HW227756   1.553   4.006   4.500
 8953SOL     OW27757   1.595   5.650   0.501
 8953SOL    HW127758   1.512   5.613   0.544
 8953SOL    HW227759   1.627   5.729   0.554
 8954SOL     OW27760   2.385   4.181   5.614
 8954SOL    HW127761   2.460   4.183   5.547
 8954SOL    HW227762   2.395   4.257   5.677
 8955SOL     OW27763   6.324   2.383   6.038
 8955SOL    HW127764   6.238   2.433   6.048
 8955SOL    HW227765   6.307   2.285   6.042
 8956SOL     OW27766   0.681   6.659   1.071
 8956SOL    HW127767   0.607   6.599   1.040
 8956SOL    HW227768   0.762   6.643   1.016
 8957SOL     OW27769   0.444   0.408   4.009
 8957SOL    HW127770   0.522   0.371   3.960
 8957SOL    HW227771   0.367   0.344   4.003
 8958SOL     OW27772   6.781   2.824   4.581
 8958SOL    HW127773   6.772   2.748   4.646
 8958SOL    HW227774   6.727   2.902   4.613
 8959SOL     OW27775   5.347   1.375   3.766
 8959SOL    HW127776   5.324   1.323   3.848
 8959SOL    HW227777   5.295   1.339   3.688
 8960SOL     OW27778   3.746   6.094   1.859
 8960SOL    HW127779   3.742   6.090   1.759
 8960SOL    HW227780   3.654   6.103   1.896
 8961SOL     OW27781   2.662   2.537   5.551
 8961SOL    HW127782   2.618   2.519   5.639
 8961SOL    HW227783   2.598   2.519   5.477
 8962SOL     OW27784   6.596   6.124   1.335
 8962SOL    HW127785   6.574   6.041   1.386
 8962SOL    HW227786   6.594   6.105   1.237
 8963SOL     OW27787   2.352   5.140   6.013
 8963SOL    HW127788   2.450   5.150   5.997
 8963SOL    HW227789   2.336   5.125   6.111
 8964SOL     OW27790   0.976   3.573   3.921
 8964SOL    HW127791   1.059   3.549   3.871
 8964SOL    HW227792   0.990   3.555   4.019
 8965SOL     OW27793   3.396   6.136   6.616
 8965SOL    HW127794   3.357   6.143   6.707
 8965SOL    HW227795   3.441   6.222   6.592
 8966SOL     OW27796   5.058   6.450   5.309
 8966SOL    HW127797   4.987   6.514   5.338
 8966SOL    HW227798   5.105   6.413   5.389
 8967SOL     OW27799   1.810   0.187   3.101
 8967SOL    HW127800   1.880   0.136   3.151
 8967SOL    HW227801   1.854   0.258   3.045
 8968SOL     OW27802   2.781   5.634   2.363
 8968SOL    HW127803   2.836   5.687   2.298
 8968SOL    HW227804   2.841   5.574   2.416
 8969SOL     OW27805   6.700   1.062   1.488
 8969SOL    HW127806   6.751   1.130   1.539
 8969SOL    HW227807   6.604   1.090   1.481
 8970SOL     OW27808   2.704   2.254   4.636
 8970SOL    HW127809   2.637   2.188   4.603
 8970SOL    HW227810   2.669   2.347   4.623
 8971SOL     OW27811   3.099   5.768   1.290
 8971SOL    HW127812   3.057   5.807   1.208
 8971SOL    HW227813   3.122   5.672   1.273
 8972SOL     OW27814   6.554   3.461   6.174
 8972SOL    HW127815   6.498   3.394   6.222
 8972SOL    HW227816   6.650   3.432   6.177
 8973SOL     OW27817   2.378   1.695   3.410
 8973SOL    HW127818   2.462   1.727   3.366
 8973SOL    HW227819   2.353   1.605   3.373
 8974SOL     OW27820   1.047   4.636   5.766
 8974SOL    HW127821   1.125   4.646   5.705
 8974SOL    HW227822   1.026   4.724   5.808
 8975SOL     OW27823   0.794   3.874   6.144
 8975SOL    HW127824   0.887   3.898   6.116
 8975SOL    HW227825   0.729   3.903   6.074
 8976SOL     OW27826   5.580   6.963   1.574
 8976SOL    HW127827   5.482   6.946   1.591
 8976SOL    HW227828   5.594   0.042   1.551
 8977SOL     OW27829   0.416   5.443   5.924
 8977SOL    HW127830   0.378   5.506   5.856
 8977SOL    HW227831   0.515   5.434   5.909
 8978SOL     OW27832   6.713   4.970   4.923
 8978SOL    HW127833   6.674   4.885   4.890
 8978SOL    HW227834   6.811   4.972   4.902
 8979SOL     OW27835   1.690   4.159   2.911
 8979SOL    HW127836   1.706   4.115   2.823
 8979SOL    HW227837   1.773   4.154   2.967
 8980SOL     OW27838   4.743   0.892   0.532
 8980SOL    HW127839   4.818   0.951   0.501
 8980SOL    HW227840   4.780   0.803   0.558
 8981SOL     OW27841   4.161   2.344   0.088
 8981SOL    HW127842   4.125   2.282   0.158
 8981SOL    HW227843   4.201   2.291   0.014
 8982SOL     OW27844   0.680   0.562   3.398
 8982SOL    HW127845   0.661   0.494   3.469
 8982SOL    HW227846   0.744   0.629   3.433
 8983SOL     OW27847   1.358   6.367   2.079
 8983SOL    HW127848   1.265   6.331   2.076
 8983SOL    HW227849   1.413   6.325   2.007
 8984SOL     OW27850   6.013   1.073   3.638
 8984SOL    HW127851   6.068   1.101   3.716
 8984SOL    HW227852   6.033   0.977   3.616
 8985SOL     OW27853   4.724   1.000   0.873
 8985SOL    HW127854   4.633   0.975   0.906
 8985SOL    HW227855   4.754   0.935   0.803
 8986SOL     OW27856   1.182   6.945   6.372
 8986SOL    HW127857   1.119   6.876   6.336
 8986SOL    HW227858   1.198   6.928   6.469
 8987SOL     OW27859   3.149   6.483   2.755
 8987SOL    HW127860   3.192   6.493   2.844
 8987SOL    HW227861   3.178   6.557   2.695
 8988SOL     OW27862   2.169   6.866   1.027
 8988SOL    HW127863   2.255   6.910   1.052
 8988SOL    HW227864   2.102   6.935   1.000
 8989SOL     OW27865   6.598   1.776   2.469
 8989SOL    HW127866   6.601   1.716   2.389
 8989SOL    HW227867   6.689   1.816   2.485
 8990SOL     OW27868   3.826   1.752   3.152
 8990SOL    HW127869   3.748   1.767   3.213
 8990SOL    HW227870   3.911   1.770   3.202
 8991SOL     OW27871   1.556   1.769   1.016
 8991SOL    HW127872   1.636   1.824   0.992
 8991SOL    HW227873   1.474   1.825   1.013
 8992SOL     OW27874   0.975   5.423   5.327
 8992SOL    HW127875   0.979   5.500   5.391
 8992SOL    HW227876   0.910   5.355   5.360
 8993SOL     OW27877   5.458   4.427   3.395
 8993SOL    HW127878   5.517   4.496   3.437
 8993SOL    HW227879   5.390   4.473   3.337
 8994SOL     OW27880   1.243   6.453   2.341
 8994SOL    HW127881   1.281   6.522   2.403
 8994SOL    HW227882   1.299   6.447   2.258
 8995SOL     OW27883   1.728   4.362   3.617
 8995SOL    HW127884   1.815   4.314   3.603
 8995SOL    HW227885   1.746   4.451   3.659
 8996SOL     OW27886   2.746   3.697   1.749
 8996SOL    HW127887   2.797   3.680   1.664
 8996SOL    HW227888   2.791   3.648   1.824
 8997SOL     OW27889   3.918   1.651   4.437
 8997SOL    HW127890   3.825   1.656   4.399
 8997SOL    HW227891   3.918   1.590   4.517
 8998SOL     OW27892   1.243   1.230   6.606
 8998SOL    HW127893   1.178   1.161   6.635
 8998SOL    HW227894   1.216   1.266   6.516
 8999SOL     OW27895   6.134   2.799   5.413
 8999SOL    HW127896   6.163   2.752   5.330
 8999SOL    HW227897   6.176   2.890   5.417
 9000SOL     OW27898   4.323   5.099   1.227
 9000SOL    HW127899   4.263   5.085   1.149
 9000SOL    HW227900   4.407   5.046   1.214
 9001SOL     OW27901   0.591   3.206   4.318
 9001SOL    HW127902   0.683   3.169   4.303
 9001SOL    HW227903   0.579   3.288   4.262
 9002SOL     OW27904   4.721   3.091   6.242
 9002SOL    HW127905   4.637   3.116   6.193
 9002SOL    HW227906   4.746   2.997   6.219
 9003SOL     OW27907   0.512   3.924   0.089
 9003SOL    HW127908   0.442   3.852   0.087
 9003SOL    HW227909   0.572   3.909   0.167
 9004SOL     OW27910   5.198   5.512   0.058
 9004SOL    HW127911   5.204   5.561   6.988
 9004SOL    HW227912   5.239   5.568   0.130
 9005SOL     OW27913   4.884   4.134   4.034
 9005SOL    HW127914   4.848   4.121   4.126
 9005SOL    HW227915   4.966   4.078   4.022
 9006SOL     OW27916   3.500   6.101   2.492
 9006SOL    HW127917   3.405   6.091   2.521
 9006SOL    HW227918   3.537   6.187   2.527
 9007SOL     OW27919   2.087   6.563   5.770
 9007SOL    HW127920   2.154   6.553   5.844
 9007SOL    HW227921   1.999   6.591   5.808
 9008SOL     OW27922   0.532   4.729   1.388
 9008SOL    HW127923   0.460   4.700   1.450
 9008SOL    HW227924   0.585   4.803   1.431
 9009SOL     OW27925   3.863   6.964   0.103
 9009SOL    HW127926   3.910   6.883   0.137
 9009SOL    HW227927   3.773   6.937   0.069
 9010SOL     OW27928   0.034   6.255   5.147
 9010SOL    HW127929   6.960   6.228   5.118
 9010SOL    HW227930   0.029   6.341   5.196
 9011SOL     OW27931   4.681   2.727   2.589
 9011SOL    HW127932   4.598   2.673   2.578
 9011SOL    HW227933   4.730   2.732   2.502
 9012SOL     OW27934   3.807   4.801   2.427
 9012SOL    HW127935   3.780   4.728   2.490
 9012SOL    HW227936   3.854   4.873   2.478
 9013SOL     OW27937   3.578   6.389   1.363
 9013SOL    HW127938   3.487   6.354   1.340
 9013SOL    HW227939   3.643   6.364   1.291
 9014SOL     OW27940   2.183   1.473   1.867
 9014SOL    HW127941   2.158   1.509   1.957
 9014SOL    HW227942   2.206   1.549   1.806
 9015SOL     OW27943   5.967   2.215   4.558
 9015SOL    HW127944   5.872   2.238   4.537
 9015SOL    HW227945   6.022   2.298   4.556
 9016SOL     OW27946   0.484   4.663   6.467
 9016SOL    HW127947   0.436   4.667   6.555
 9016SOL    HW227948   0.516   4.754   6.442
 9017SOL     OW27949   6.049   2.494   2.665
 9017SOL    HW127950   6.066   2.586   2.700
 9017SOL    HW227951   5.987   2.499   2.587
 9018SOL     OW27952   5.326   1.829   6.873
 9018SOL    HW127953   5.260   1.754   6.867
 9018SOL    HW227954   5.308   1.895   6.800
 9019SOL     OW27955   2.008   5.985   0.358
 9019SOL    HW127956   2.105   6.006   0.342
 9019SOL    HW227957   1.974   6.041   0.433
 9020SOL     OW27958   0.613   5.094   4.707
 9020SOL    HW127959   0.528   5.115   4.658
 9020SOL    HW227960   0.658   5.179   4.734
 9021SOL     OW27961   6.720   5.263   5.008
 9021SOL    HW127962   6.719   5.180   4.953
 9021SOL    HW227963   6.727   5.343   4.948
 9022SOL     OW27964   0.832   6.921   6.015
 9022SOL    HW127965   0.778   6.937   6.098
 9022SOL    HW227966   0.848   6.823   6.004
 9023SOL     OW27967   3.641   4.138   4.125
 9023SOL    HW127968   3.664   4.163   4.220
 9023SOL    HW227969   3.718   4.088   4.085
 9024SOL     OW27970   1.634   0.084   0.326
 9024SOL    HW127971   1.581   0.154   0.277
 9024SOL    HW227972   1.589   7.013   0.316
 9025SOL     OW27973   0.361   2.619   0.850
 9025SOL    HW127974   0.282   2.576   0.892
 9025SOL    HW227975   0.349   2.718   0.848
 9026SOL     OW27976   2.837   4.042   5.777
 9026SOL    HW127977   2.742   4.073   5.785
 9026SOL    HW227978   2.843   3.969   5.709
 9027SOL     OW27979   0.803   3.132   1.916
 9027SOL    HW127980   0.735   3.127   1.843
 9027SOL    HW227981   0.832   3.227   1.929
 9028SOL     OW27982   1.461   4.411   4.950
 9028SOL    HW127983   1.399   4.388   4.875
 9028SOL    HW227984   1.547   4.447   4.914
 9029SOL     OW27985   5.491   5.303   2.995
 9029SOL    HW127986   5.482   5.386   3.050
 9029SOL    HW227987   5.505   5.224   3.055
 9030SOL     OW27988   4.909   2.567   2.779
 9030SOL    HW127989   4.825   2.562   2.832
 9030SOL    HW227990   4.899   2.636   2.707
 9031SOL     OW27991   3.015   0.998   2.387
 9031SOL    HW127992   2.971   0.965   2.471
 9031SOL    HW227993   3.041   1.094   2.398
 9032SOL     OW27994   0.132   3.889   2.504
 9032SOL    HW127995   0.156   3.882   2.407
 9032SOL    HW227996   0.212   3.921   2.556
 9033SOL     OW27997   0.950   2.817   2.122
 9033SOL    HW127998   0.932   2.813   2.024
 9033SOL    HW227999   0.962   2.913   2.149
 9034SOL     OW28000   0.904   6.529   0.393
 9034SOL    HW128001   0.857   6.445   0.420
 9034SOL    HW228002   0.985   6.506   0.339
 9035SOL     OW28003   6.017   1.587   4.613
 9035SOL    HW128004   6.028   1.488   4.626
 9035SOL    HW228005   5.982   1.604   4.520
 9036SOL     OW28006   0.196   1.369   4.473
 9036SOL    HW128007   0.245   1.454   4.453
 9036SOL    HW228008   0.185   1.359   4.572
 9037SOL     OW28009   2.465   4.407   6.421
 9037SOL    HW128010   2.507   4.322   6.387
 9037SOL    HW228011   2.373   4.415   6.381
 9038SOL     OW28012   3.960   6.010   5.464
 9038SOL    HW128013   3.894   5.960   5.521
 9038SOL    HW228014   3.923   6.100   5.444
 9039SOL     OW28015   2.743   4.804   0.163
 9039SOL    HW128016   2.692   4.758   0.236
 9039SOL    HW228017   2.680   4.856   0.106
 9040SOL     OW28018   3.475   1.581   2.606
 9040SOL    HW128019   3.531   1.631   2.672
 9040SOL    HW228020   3.506   1.487   2.601
 9041SOL     OW28021   2.436   2.546   5.054
 9041SOL    HW128022   2.395   2.637   5.057
 9041SOL    HW228023   2.368   2.477   5.081
 9042SOL     OW28024   1.805   4.990   2.422
 9042SOL    HW128025   1.839   5.064   2.363
 9042SOL    HW228026   1.874   4.918   2.429
 9043SOL     OW28027   0.032   1.666   0.118
 9043SOL    HW128028   0.088   1.614   0.054
 9043SOL    HW228029   0.089   1.699   0.193
 9044SOL     OW28030   1.042   4.041   0.427
 9044SOL    HW128031   1.015   4.036   0.523
 9044SOL    HW228032   1.042   4.136   0.396
 9045SOL     OW28033   2.113   4.742   5.225
 9045SOL    HW128034   2.203   4.741   5.268
 9045SOL    HW228035   2.109   4.670   5.155
 9046SOL     OW28036   3.745   4.263   6.041
 9046SOL    HW128037   3.701   4.224   6.122
 9046SOL    HW228038   3.835   4.222   6.029
 9047SOL     OW28039   0.948   4.849   4.238
 9047SOL    HW128040   1.001   4.863   4.155
 9047SOL    HW228041   0.949   4.752   4.263
 9048SOL     OW28042   1.211   2.392   5.283
 9048SOL    HW128043   1.222   2.480   5.238
 9048SOL    HW228044   1.222   2.403   5.382
 9049SOL     OW28045   4.361   5.867   5.420
 9049SOL    HW128046   4.457   5.852   5.441
 9049SOL    HW228047   4.347   5.961   5.390
 9050SOL     OW28048   0.152   3.854   6.841
 9050SOL    HW128049   0.088   3.830   6.767
 9050SOL    HW228050   0.143   3.951   6.862
 9051SOL     OW28051   0.196   5.974   6.168
 9051SOL    HW128052   0.103   5.999   6.142
 9051SOL    HW228053   0.234   5.911   6.100
 9052SOL     OW28054   2.407   4.711   4.413
 9052SOL    HW128055   2.461   4.708   4.497
 9052SOL    HW228056   2.368   4.802   4.401
 9053SOL     OW28057   1.591   0.023   2.208
 9053SOL    HW128058   1.655   6.971   2.242
 9053SOL    HW228059   1.554   0.074   2.285
 9054SOL     OW28060   1.224   6.962   2.165
 9054SOL    HW128061   1.206   6.933   2.071
 9054SOL    HW228062   1.302   0.008   2.166
 9055SOL     OW28063   1.457   2.655   4.893
 9055SOL    HW128064   1.406   2.677   4.810
 9055SOL    HW228065   1.471   2.739   4.946
 9056SOL     OW28066   5.113   2.278   1.355
 9056SOL    HW128067   5.086   2.323   1.441
 9056SOL    HW228068   5.054   2.198   1.340
 9057SOL     OW28069   3.516   6.615   6.111
 9057SOL    HW128070   3.434   6.562   6.088
 9057SOL    HW228071   3.522   6.628   6.210
 9058SOL     OW28072   2.073   3.214   4.078
 9058SOL    HW128073   2.079   3.206   3.979
 9058SOL    HW228074   2.155   3.174   4.120
 9059SOL     OW28075   0.278   0.610   2.652
 9059SOL    HW128076   0.340   0.680   2.687
 9059SOL    HW228077   0.208   0.590   2.720
 9060SOL     OW28078   0.479   5.140   6.750
 9060SOL    HW128079   0.450   5.178   6.838
 9060SOL    HW228080   0.432   5.054   6.734
 9061SOL     OW28081   3.548   4.867   2.621
 9061SOL    HW128082   3.473   4.932   2.630
 9061SOL    HW228083   3.548   4.828   2.528
 9062SOL     OW28084   0.114   6.014   2.972
 9062SOL    HW128085   0.212   6.019   2.992
 9062SOL    HW228086   0.100   6.016   2.873
 9063SOL     OW28087   6.361   6.574   1.331
 9063SOL    HW128088   6.390   6.510   1.260
 9063SOL    HW228089   6.262   6.571   1.342
 9064SOL     OW28090   1.315   5.552   2.789
 9064SOL    HW128091   1.250   5.522   2.720
 9064SOL    HW228092   1.327   5.651   2.783
 9065SOL     OW28093   3.190   4.138   6.688
 9065SOL    HW128094   3.112   4.198   6.707
 9065SOL    HW228095   3.233   4.167   6.602
 9066SOL     OW28096   5.724   5.219   3.374
 9066SOL    HW128097   5.732   5.224   3.275
 9066SOL    HW228098   5.661   5.145   3.398
 9067SOL     OW28099   1.991   0.281   4.054
 9067SOL    HW128100   2.014   0.184   4.049
 9067SOL    HW228101   1.994   0.321   3.962
 9068SOL     OW28102   5.028   0.578   5.447
 9068SOL    HW128103   5.052   0.517   5.372
 9068SOL    HW228104   5.013   0.524   5.530
 9069SOL     OW28105   4.603   2.248   1.844
 9069SOL    HW128106   4.556   2.179   1.789
 9069SOL    HW228107   4.573   2.339   1.815
 9070SOL     OW28108   0.913   0.702   6.913
 9070SOL    HW128109   0.954   0.644   6.984
 9070SOL    HW228110   0.813   0.693   6.916
 9071SOL     OW28111   5.841   2.838   0.241
 9071SOL    HW128112   5.836   2.893   0.159
 9071SOL    HW228113   5.769   2.768   0.239
 9072SOL     OW28114   6.213   1.032   1.692
 9072SOL    HW128115   6.135   1.010   1.634
 9072SOL    HW228116   6.284   0.962   1.680
 9073SOL     OW28117   4.926   2.537   6.389
 9073SOL    HW128118   4.885   2.565   6.302
 9073SOL    HW228119   4.927   2.437   6.394
 9074SOL     OW28120   1.920   0.497   3.454
 9074SOL    HW128121   1.944   0.555   3.532
 9074SOL    HW228122   1.978   0.519   3.376
 9075SOL     OW28123   5.061   5.642   1.045
 9075SOL    HW128124   5.104   5.732   1.046
 9075SOL    HW228125   5.061   5.604   1.137
 9076SOL     OW28126   0.957   6.475   2.757
 9076SOL    HW128127   0.948   6.508   2.663
 9076SOL    HW228128   0.968   6.375   2.756
 9077SOL     OW28129   6.507   0.966   6.561
 9077SOL    HW128130   6.522   1.037   6.492
 9077SOL    HW228131   6.430   0.993   6.620
 9078SOL     OW28132   5.190   6.854   6.434
 9078SOL    HW128133   5.285   6.870   6.408
 9078SOL    HW228134   5.162   6.923   6.501
 9079SOL     OW28135   2.197   1.995   6.327
 9079SOL    HW128136   2.154   2.010   6.238
 9079SOL    HW228137   2.271   1.928   6.318
 9080SOL     OW28138   6.601   4.890   0.768
 9080SOL    HW128139   6.515   4.877   0.718
 9080SOL    HW228140   6.677   4.853   0.715
 9081SOL     OW28141   4.638   1.209   6.506
 9081SOL    HW128142   4.737   1.200   6.512
 9081SOL    HW228143   4.605   1.271   6.577
 9082SOL     OW28144   3.164   4.491   6.555
 9082SOL    HW128145   3.160   4.590   6.545
 9082SOL    HW228146   3.241   4.455   6.502
 9083SOL     OW28147   3.861   0.266   1.094
 9083SOL    HW128148   3.823   0.288   1.184
 9083SOL    HW228149   3.790   0.226   1.037
 9084SOL     OW28150   6.711   4.817   4.574
 9084SOL    HW128151   6.612   4.813   4.589
 9084SOL    HW228152   6.758   4.772   4.650
 9085SOL     OW28153   3.213   4.829   1.703
 9085SOL    HW128154   3.303   4.800   1.671
 9085SOL    HW228155   3.146   4.756   1.684
 9086SOL     OW28156   6.711   1.572   0.416
 9086SOL    HW128157   6.808   1.563   0.399
 9086SOL    HW228158   6.659   1.543   0.336
 9087SOL     OW28159   4.684   1.261   0.592
 9087SOL    HW128160   4.626   1.182   0.611
 9087SOL    HW228161   4.666   1.295   0.500
 9088SOL     OW28162   5.165   6.659   0.646
 9088SOL    HW128163   5.242   6.596   0.661
 9088SOL    HW228164   5.136   6.697   0.734
 9089SOL     OW28165   5.370   5.756   2.980
 9089SOL    HW128166   5.408   5.832   2.928
 9089SOL    HW228167   5.422   5.744   3.064
 9090SOL     OW28168   6.037   5.083   5.050
 9090SOL    HW128169   6.063   5.000   4.999
 9090SOL    HW228170   6.120   5.127   5.086
 9091SOL     OW28171   1.921   2.245   1.625
 9091SOL    HW128172   1.927   2.337   1.662
 9091SOL    HW228173   1.891   2.249   1.529
 9092SOL     OW28174   3.171   1.810   5.448
 9092SOL    HW128175   3.093   1.781   5.392
 9092SOL    HW228176   3.157   1.780   5.542
 9093SOL     OW28177   2.038   3.739   0.490
 9093SOL    HW128178   2.054   3.705   0.397
 9093SOL    HW228179   1.946   3.712   0.519
 9094SOL     OW28180   6.955   2.391   6.628
 9094SOL    HW128181   6.961   2.333   6.547
 9094SOL    HW228182   0.015   2.372   6.689
 9095SOL     OW28183   2.534   2.621   0.255
 9095SOL    HW128184   2.488   2.535   0.233
 9095SOL    HW228185   2.517   2.688   0.183
 9096SOL     OW28186   7.012   4.424   2.568
 9096SOL    HW128187   6.963   4.505   2.534
 9096SOL    HW228188   0.010   4.360   2.493
 9097SOL     OW28189   6.652   6.156   6.077
 9097SOL    HW128190   6.695   6.218   6.011
 9097SOL    HW228191   6.722   6.121   6.140
 9098SOL     OW28192   3.748   3.405   5.589
 9098SOL    HW128193   3.694   3.322   5.575
 9098SOL    HW228194   3.818   3.387   5.658
 9099SOL     OW28195   1.942   2.689   6.717
 9099SOL    HW128196   1.856   2.717   6.674
 9099SOL    HW228197   1.939   2.708   6.815
 9100SOL     OW28198   1.720   2.642   0.582
 9100SOL    HW128199   1.786   2.697   0.530
 9100SOL    HW228200   1.751   2.547   0.585
 9101SOL     OW28201   2.509   2.042   0.442
 9101SOL    HW128202   2.524   2.141   0.438
 9101SOL    HW228203   2.449   2.014   0.366
 9102SOL     OW28204   4.415   6.065   2.500
 9102SOL    HW128205   4.413   6.164   2.514
 9102SOL    HW228206   4.510   6.033   2.502
 9103SOL     OW28207   1.407   4.164   6.367
 9103SOL    HW128208   1.326   4.122   6.407
 9103SOL    HW228209   1.409   4.145   6.268
 9104SOL     OW28210   4.506   6.707   3.003
 9104SOL    HW128211   4.541   6.777   2.942
 9104SOL    HW228212   4.502   6.742   3.097
 9105SOL     OW28213   3.395   2.630   6.175
 9105SOL    HW128214   3.435   2.697   6.237
 9105SOL    HW228215   3.439   2.638   6.085
 9106SOL     OW28216   6.485   5.669   0.888
 9106SOL    HW128217   6.559   5.705   0.945
 9106SOL    HW228218   6.400   5.716   0.911
 9107SOL     OW28219   4.649   6.632   6.732
 9107SOL    HW128220   4.678   6.583   6.649
 9107SOL    HW228221   4.573   6.692   6.710
 9108SOL     OW28222   3.537   5.704   0.991
 9108SOL    HW128223   3.538   5.604   0.980
 9108SOL    HW228224   3.514   5.726   1.086
 9109SOL     OW28225   3.283   1.832   4.314
 9109SOL    HW128226   3.253   1.919   4.276
 9109SOL    HW228227   3.383   1.830   4.318
 9110SOL     OW28228   0.318   3.984   3.869
 9110SOL    HW128229   0.372   3.915   3.916
 9110SOL    HW228230   0.307   4.064   3.929
 9111SOL     OW28231   3.593   4.253   1.765
 9111SOL    HW128232   3.543   4.178   1.808
 9111SOL    HW228233   3.642   4.305   1.835
 9112SOL     OW28234   1.055   6.731   2.290
 9112SOL    HW128235   1.140   6.752   2.338
 9112SOL    HW228236   1.076   6.693   2.200
 9113SOL     OW28237   2.308   5.831   0.140
 9113SOL    HW128238   2.372   5.766   0.183
 9113SOL    HW228239   2.354   5.919   0.127
 9114SOL     OW28240   2.618   3.413   1.759
 9114SOL    HW128241   2.699   3.442   1.812
 9114SOL    HW228242   2.536   3.434   1.812
 9115SOL     OW28243   1.281   4.301   4.483
 9115SOL    HW128244   1.318   4.297   4.390
 9115SOL    HW228245   1.265   4.396   4.509
 9116SOL     OW28246   3.569   2.255   6.802
 9116SOL    HW128247   3.503   2.299   6.740
 9116SOL    HW228248   3.524   2.235   6.889
 9117SOL     OW28249   0.869   2.706   6.806
 9117SOL    HW128250   0.783   2.654   6.804
 9117SOL    HW228251   0.852   2.799   6.774
 9118SOL     OW28252   0.747   6.676   1.350
 9118SOL    HW128253   0.679   6.642   1.415
 9118SOL    HW228254   0.710   6.674   1.258
 9119SOL     OW28255   5.841   6.839   1.068
 9119SOL    HW128256   5.749   6.875   1.084
 9119SOL    HW228257   5.839   6.739   1.067
 9120SOL     OW28258   5.972   0.182   0.455
 9120SOL    HW128259   6.014   0.258   0.504
 9120SOL    HW228260   5.873   0.186   0.467
 9121SOL     OW28261   1.630   0.876   6.552
 9121SOL    HW128262   1.609   0.971   6.533
 9121SOL    HW228263   1.546   0.823   6.560
 9122SOL     OW28264   0.504   3.257   0.991
 9122SOL    HW128265   0.511   3.254   1.091
 9122SOL    HW228266   0.500   3.164   0.956
 9123SOL     OW28267   1.486   6.529   6.181
 9123SOL    HW128268   1.518   6.452   6.235
 9123SOL    HW228269   1.414   6.577   6.230
 9124SOL     OW28270   0.179   4.089   4.579
 9124SOL    HW128271   0.116   4.166   4.591
 9124SOL    HW228272   0.151   4.034   4.501
 9125SOL     OW28273   4.902   5.797   1.239
 9125SOL    HW128274   4.942   5.887   1.222
 9125SOL    HW228275   4.908   5.776   1.336
 9126SOL     OW28276   5.635   0.587   3.380
 9126SOL    HW128277   5.551   0.547   3.416
 9126SOL    HW228278   5.701   0.515   3.359
 9127SOL     OW28279   5.882   5.238   5.713
 9127SOL    HW128280   5.857   5.230   5.617
 9127SOL    HW228281   5.972   5.282   5.720
 9128SOL     OW28282   5.132   2.853   5.064
 9128SOL    HW128283   5.051   2.907   5.088
 9128SOL    HW228284   5.191   2.844   5.145
 9129SOL     OW28285   2.987   1.150   0.542
 9129SOL    HW128286   2.959   1.214   0.614
 9129SOL    HW228287   2.948   1.179   0.455
 9130SOL     OW28288   5.793   5.453   0.648
 9130SOL    HW128289   5.735   5.417   0.720
 9130SOL    HW228290   5.840   5.535   0.680
 9131SOL     OW28291   1.001   4.798   3.867
 9131SOL    HW128292   0.906   4.827   3.851
 9131SOL    HW228293   1.053   4.875   3.903
 9132SOL     OW28294   1.374   2.893   4.050
 9132SOL    HW128295   1.296   2.947   4.082
 9132SOL    HW228296   1.347   2.797   4.044
 9133SOL     OW28297   1.399   5.244   0.659
 9133SOL    HW128298   1.392   5.149   0.690
 9133SOL    HW228299   1.330   5.300   0.705
 9134SOL     OW28300   3.026   4.987   6.438
 9134SOL    HW128301   3.013   5.012   6.342
 9134SOL    HW228302   2.950   4.928   6.467
 9135SOL     OW28303   1.109   6.551   3.209
 9135SOL    HW128304   1.111   6.554   3.110
 9135SOL    HW228305   1.171   6.620   3.246
 9136SOL     OW28306   3.785   5.107   5.247
 9136SOL    HW128307   3.858   5.128   5.312
 9136SOL    HW228308   3.738   5.023   5.275
 9137SOL     OW28309   3.712   0.271   2.580
 9137SOL    HW128310   3.706   0.171   2.568
 9137SOL    HW228311   3.803   0.302   2.552
 9138SOL     OW28312   3.238   4.642   1.136
 9138SOL    HW128313   3.211   4.667   1.229
 9138SOL    HW228314   3.221   4.545   1.121
 9139SOL     OW28315   3.576   0.467   5.488
 9139SOL    HW128316   3.591   0.428   5.397
 9139SOL    HW228317   3.644   0.538   5.505
 9140SOL     OW28318   6.374   2.357   3.500
 9140SOL    HW128319   6.435   2.431   3.528
 9140SOL    HW228320   6.319   2.386   3.422
 9141SOL     OW28321   5.310   1.225   5.684
 9141SOL    HW128322   5.240   1.200   5.751
 9141SOL    HW228323   5.392   1.170   5.700
 9142SOL     OW28324   1.789   3.639   0.019
 9142SOL    HW128325   1.754   3.657   0.111
 9142SOL    HW228326   1.715   3.608   6.978
 9143SOL     OW28327   6.267   4.423   0.234
 9143SOL    HW128328   6.273   4.523   0.241
 9143SOL    HW228329   6.192   4.398   0.172
 9144SOL     OW28330   1.103   5.450   4.279
 9144SOL    HW128331   1.149   5.421   4.196
 9144SOL    HW228332   1.118   5.548   4.293
 9145SOL     OW28333   1.586   3.452   6.927
 9145SOL    HW128334   1.565   3.365   6.971
 9145SOL    HW228335   1.517   3.520   6.953
 9146SOL     OW28336   1.065   1.796   1.272
 9146SOL    HW128337   1.043   1.852   1.352
 9146SOL    HW228338   1.095   1.705   1.303
 9147SOL     OW28339   3.842   5.374   6.507
 9147SOL    HW128340   3.763   5.348   6.563
 9147SOL    HW228341   3.917   5.311   6.525
 9148SOL     OW28342   3.326   4.988   2.834
 9148SOL    HW128343   3.320   4.997   2.735
 9148SOL    HW228344   3.247   4.937   2.868
 9149SOL     OW28345   5.949   3.054   5.204
 9149SOL    HW128346   5.882   2.991   5.245
 9149SOL    HW228347   5.990   3.010   5.124
 9150SOL     OW28348   4.091   1.302   2.932
 9150SOL    HW128349   4.088   1.242   3.011
 9150SOL    HW228350   4.111   1.396   2.962
 9151SOL     OW28351   6.038   3.074   2.255
 9151SOL    HW128352   5.995   3.117   2.176
 9151SOL    HW228353   5.986   2.994   2.282
 9152SOL     OW28354   2.081   5.030   2.810
 9152SOL    HW128355   1.999   5.011   2.756
 9152SOL    HW228356   2.071   5.118   2.856
 9153SOL     OW28357   2.428   2.858   0.108
 9153SOL    HW128358   2.478   2.933   0.064
 9153SOL    HW228359   2.344   2.893   0.149
 9154SOL     OW28360   0.908   5.520   0.646
 9154SOL    HW128361   0.820   5.478   0.666
 9154SOL    HW228362   0.946   5.480   0.562
 9155SOL     OW28363   1.739   4.922   0.239
 9155SOL    HW128364   1.708   4.914   0.334
 9155SOL    HW228365   1.775   4.834   0.208
 9156SOL     OW28366   4.808   2.608   1.725
 9156SOL    HW128367   4.905   2.631   1.710
 9156SOL    HW228368   4.752   2.689   1.708
 9157SOL     OW28369   5.741   3.777   5.407
 9157SOL    HW128370   5.812   3.837   5.444
 9157SOL    HW228371   5.656   3.827   5.398
 9158SOL     OW28372   0.964   4.318   3.433
 9158SOL    HW128373   0.909   4.299   3.352
 9158SOL    HW228374   0.992   4.232   3.475
 9159SOL     OW28375   0.085   5.605   1.766
 9159SOL    HW128376   0.122   5.580   1.677
 9159SOL    HW228377   0.154   5.591   1.837
 9160SOL     OW28378   0.649   6.824   0.860
 9160SOL    HW128379   0.717   6.810   0.788
 9160SOL    HW228380   0.676   6.773   0.941
 9161SOL     OW28381   5.513   3.702   2.130
 9161SOL    HW128382   5.551   3.685   2.039
 9161SOL    HW228383   5.447   3.631   2.153
 9162SOL     OW28384   4.783   2.705   3.693
 9162SOL    HW128385   4.792   2.745   3.784
 9162SOL    HW228386   4.698   2.653   3.687
 9163SOL     OW28387   3.535   0.790   4.771
 9163SOL    HW128388   3.548   0.824   4.678
 9163SOL    HW228389   3.624   0.787   4.818
 9164SOL     OW28390   2.638   0.609   0.865
 9164SOL    HW128391   2.664   0.687   0.923
 9164SOL    HW228392   2.714   0.584   0.805
 9165SOL     OW28393   5.105   6.232   1.096
 9165SOL    HW128394   5.135   6.279   1.013
 9165SOL    HW228395   5.042   6.158   1.071
 9166SOL     OW28396   3.024   5.309   1.091
 9166SOL    HW128397   2.987   5.372   1.023
 9166SOL    HW228398   3.013   5.215   1.060
 9167SOL     OW28399   0.386   3.752   4.470
 9167SOL    HW128400   0.393   3.683   4.398
 9167SOL    HW228401   0.458   3.737   4.537
 9168SOL     OW28402   3.951   0.379   0.638
 9168SOL    HW128403   3.917   0.440   0.709
 9168SOL    HW228404   4.049   0.362   0.651
 9169SOL     OW28405   0.572   6.682   4.051
 9169SOL    HW128406   0.521   6.741   3.988
 9169SOL    HW228407   0.571   6.588   4.017
 9170SOL     OW28408   6.359   5.586   6.958
 9170SOL    HW128409   6.433   5.642   6.922
 9170SOL    HW228410   6.271   5.633   6.944
 9171SOL     OW28411   3.641   5.701   4.690
 9171SOL    HW128412   3.682   5.745   4.611
 9171SOL    HW228413   3.659   5.602   4.687
 9172SOL     OW28414   2.377   2.335   3.988
 9172SOL    HW128415   2.345   2.289   3.906
 9172SOL    HW228416   2.346   2.285   4.069
 9173SOL     OW28417   6.954   5.099   5.261
 9173SOL    HW128418   0.035   5.114   5.266
 9173SOL    HW228419   6.906   5.183   5.288
 9174SOL     OW28420   6.930   5.571   6.181
 9174SOL    HW128421   6.872   5.515   6.241
 9174SOL    HW228422   6.883   5.656   6.159
 9175SOL     OW28423   2.398   6.274   6.007
 9175SOL    HW128424   2.414   6.203   6.076
 9175SOL    HW228425   2.318   6.250   5.952
 9176SOL     OW28426   1.406   2.657   5.581
 9176SOL    HW128427   1.463   2.632   5.659
 9176SOL    HW228428   1.448   2.734   5.532
 9177SOL     OW28429   1.576   3.875   2.843
 9177SOL    HW128430   1.599   3.952   2.783
 9177SOL    HW228431   1.659   3.829   2.873
 9178SOL     OW28432   2.194   4.135   0.280
 9178SOL    HW128433   2.174   4.219   0.229
 9178SOL    HW228434   2.280   4.096   0.248
 9179SOL     OW28435   2.946   4.507   5.459
 9179SOL    HW128436   2.953   4.413   5.494
 9179SOL    HW228437   2.940   4.505   5.360
 9180SOL     OW28438   4.888   1.779   1.989
 9180SOL    HW128439   4.788   1.782   2.000
 9180SOL    HW228440   4.927   1.723   2.062
 9181SOL     OW28441   3.982   1.078   2.525
 9181SOL    HW128442   3.925   1.046   2.602
 9181SOL    HW228443   4.018   0.999   2.475
 9182SOL     OW28444   2.479   6.852   1.756
 9182SOL    HW128445   2.446   6.864   1.662
 9182SOL    HW228446   2.502   6.756   1.771
 9183SOL     OW28447   5.209   5.307   5.627
 9183SOL    HW128448   5.289   5.354   5.590
 9183SOL    HW228449   5.174   5.241   5.561
 9184SOL     OW28450   4.772   0.077   0.221
 9184SOL    HW128451   4.812   0.069   0.130
 9184SOL    HW228452   4.686   0.026   0.224
 9185SOL     OW28453   4.993   1.011   5.044
 9185SOL    HW128454   4.922   1.079   5.025
 9185SOL    HW228455   4.969   0.959   5.126
 9186SOL     OW28456   5.203   0.886   5.946
 9186SOL    HW128457   5.190   0.856   5.851
 9186SOL    HW228458   5.191   0.986   5.951
 9187SOL     OW28459   2.408   5.985   3.343
 9187SOL    HW128460   2.476   6.048   3.307
 9187SOL    HW228461   2.326   5.988   3.285
 9188SOL     OW28462   2.991   5.067   0.586
 9188SOL    HW128463   2.940   4.981   0.579
 9188SOL    HW228464   2.956   5.120   0.663
 9189SOL     OW28465   5.661   4.552   1.931
 9189SOL    HW128466   5.564   4.562   1.911
 9189SOL    HW228467   5.704   4.495   1.860
 9190SOL     OW28468   1.329   6.066   6.468
 9190SOL    HW128469   1.303   6.089   6.374
 9190SOL    HW228470   1.427   6.078   6.479
 9191SOL     OW28471   6.800   0.775   6.105
 9191SOL    HW128472   6.822   0.782   6.008
 9191SOL    HW228473   6.868   0.826   6.159
 9192SOL     OW28474   1.063   3.165   5.389
 9192SOL    HW128475   0.974   3.209   5.393
 9192SOL    HW228476   1.100   3.153   5.481
 9193SOL     OW28477   3.665   4.200   0.764
 9193SOL    HW128478   3.651   4.174   0.668
 9193SOL    HW228479   3.744   4.151   0.800
 9194SOL     OW28480   3.295   0.787   4.079
 9194SOL    HW128481   3.394   0.782   4.085
 9194SOL    HW228482   3.264   0.746   3.992
 9195SOL     OW28483   1.962   1.121   3.780
 9195SOL    HW128484   2.048   1.150   3.822
 9195SOL    HW228485   1.952   1.164   3.690
 9196SOL     OW28486   4.791   1.282   6.122
 9196SOL    HW128487   4.728   1.205   6.113
 9196SOL    HW228488   4.885   1.248   6.127
 9197SOL     OW28489   2.778   3.536   0.526
 9197SOL    HW128490   2.824   3.467   0.470
 9197SOL    HW228491   2.792   3.626   0.486
 9198SOL     OW28492   0.858   4.630   4.994
 9198SOL    HW128493   0.823   4.628   4.900
 9198SOL    HW228494   0.901   4.542   5.014
 9199SOL     OW28495   5.764   4.791   4.979
 9199SOL    HW128496   5.718   4.794   5.068
 9199SOL    HW228497   5.695   4.797   4.907
 9200SOL     OW28498   2.949   6.830   0.306
 9200SOL    HW128499   3.004   6.913   0.308
 9200SOL    HW228500   2.864   6.845   0.357
 9201SOL     OW28501   2.297   4.371   0.715
 9201SOL    HW128502   2.298   4.444   0.784
 9201SOL    HW228503   2.260   4.287   0.755
 9202SOL     OW28504   2.809   1.083   3.353
 9202SOL    HW128505   2.833   1.144   3.429
 9202SOL    HW228506   2.714   1.096   3.328
 9203SOL     OW28507   0.003   6.440   0.927
 9203SOL    HW128508   0.014   6.499   0.847
 9203SOL    HW228509   6.926   6.408   0.932
 9204SOL     OW28510   5.705   0.780   5.594
 9204SOL    HW128511   5.710   0.718   5.515
 9204SOL    HW228512   5.685   0.727   5.676
 9205SOL     OW28513   0.471   5.380   2.495
 9205SOL    HW128514   0.471   5.294   2.547
 9205SOL    HW228515   0.394   5.381   2.432
 9206SOL     OW28516   3.837   0.158   0.506
 9206SOL    HW128517   3.871   0.167   0.412
 9206SOL    HW228518   3.858   0.242   0.557
 9207SOL     OW28519   5.565   5.818   5.969
 9207SOL    HW128520   5.514   5.902   5.986
 9207SOL    HW228521   5.519   5.765   5.898
 9208SOL     OW28522   1.197   3.491   2.368
 9208SOL    HW128523   1.294   3.465   2.370
 9208SOL    HW228524   1.141   3.409   2.363
 9209SOL     OW28525   2.528   5.794   6.354
 9209SOL    HW128526   2.577   5.717   6.313
 9209SOL    HW228527   2.559   5.879   6.312
 9210SOL     OW28528   6.369   0.524   4.255
 9210SOL    HW128529   6.307   0.482   4.189
 9210SOL    HW228530   6.458   0.538   4.212
 9211SOL     OW28531   0.925   1.566   3.126
 9211SOL    HW128532   0.935   1.591   3.222
 9211SOL    HW228533   0.846   1.614   3.087
 9212SOL     OW28534   4.080   5.162   4.680
 9212SOL    HW128535   4.046   5.238   4.624
 9212SOL    HW228536   4.175   5.179   4.705
 9213SOL     OW28537   6.079   3.637   0.070
 9213SOL    HW128538   6.128   3.664   7.005
 9213SOL    HW228539   5.982   3.658   0.060
 9214SOL     OW28540   0.270   5.203   0.066
 9214SOL    HW128541   0.179   5.198   0.024
 9214SOL    HW228542   0.297   5.113   0.098
 9215SOL     OW28543   0.972   1.385   0.938
 9215SOL    HW128544   1.048   1.425   0.990
 9215SOL    HW228545   0.987   1.287   0.929
 9216SOL     OW28546   2.217   6.897   3.856
 9216SOL    HW128547   2.161   6.914   3.775
 9216SOL    HW228548   2.199   6.804   3.890
 9217SOL     OW28549   0.545   2.210   0.772
 9217SOL    HW128550   0.630   2.249   0.735
 9217SOL    HW228551   0.568   2.135   0.834
 9218SOL     OW28552   2.591   1.221   1.057
 9218SOL    HW128553   2.555   1.305   1.018
 9218SOL    HW228554   2.647   1.173   0.988
 9219SOL     OW28555   6.308   1.438   0.542
 9219SOL    HW128556   6.225   1.448   0.597
 9219SOL    HW228557   6.309   1.505   0.469
 9220SOL     OW28558   3.187   6.661   0.594
 9220SOL    HW128559   3.158   6.586   0.654
 9220SOL    HW228560   3.234   6.623   0.515
 9221SOL     OW28561   2.865   4.793   4.801
 9221SOL    HW128562   2.869   4.722   4.871
 9221SOL    HW228563   2.809   4.869   4.834
 9222SOL     OW28564   3.211   2.312   0.060
 9222SOL    HW128565   3.296   2.269   0.032
 9222SOL    HW228566   3.188   2.385   7.013
 9223SOL     OW28567   2.797   3.075   5.350
 9223SOL    HW128568   2.862   2.999   5.343
 9223SOL    HW228569   2.724   3.063   5.282
 9224SOL     OW28570   2.480   4.503   5.141
 9224SOL    HW128571   2.400   4.447   5.119
 9224SOL    HW228572   2.459   4.599   5.126
 9225SOL     OW28573   1.571   6.187   6.899
 9225SOL    HW128574   1.580   6.117   6.970
 9225SOL    HW228575   1.499   6.252   6.926
 9226SOL     OW28576   4.684   6.078   1.251
 9226SOL    HW128577   4.663   6.112   1.159
 9226SOL    HW228578   4.600   6.074   1.305
 9227SOL     OW28579   1.352   6.269   1.449
 9227SOL    HW128580   1.363   6.330   1.372
 9227SOL    HW228581   1.433   6.212   1.459
 9228SOL     OW28582   0.473   6.462   6.116
 9228SOL    HW128583   0.476   6.439   6.019
 9228SOL    HW228584   0.450   6.379   6.168
 9229SOL     OW28585   0.905   5.961   5.368
 9229SOL    HW128586   0.829   5.999   5.315
 9229SOL    HW228587   0.924   5.867   5.337
 9230SOL     OW28588   4.995   1.613   3.438
 9230SOL    HW128589   5.035   1.604   3.529
 9230SOL    HW228590   5.020   1.534   3.382
 9231SOL     OW28591   2.158   3.304   3.421
 9231SOL    HW128592   2.161   3.204   3.422
 9231SOL    HW228593   2.122   3.337   3.509
 9232SOL     OW28594   4.261   5.217   0.961
 9232SOL    HW128595   4.249   5.316   0.963
 9232SOL    HW228596   4.359   5.196   0.951
 9233SOL     OW28597   5.858   4.553   0.159
 9233SOL    HW128598   5.914   4.616   0.105
 9233SOL    HW228599   5.824   4.599   0.241
 9234SOL     OW28600   1.867   5.897   3.931
 9234SOL    HW128601   1.906   5.985   3.903
 9234SOL    HW228602   1.872   5.888   4.030
 9235SOL     OW28603   1.003   2.475   3.199
 9235SOL    HW128604   0.977   2.482   3.102
 9235SOL    HW228605   1.067   2.400   3.211
 9236SOL     OW28606   3.524   2.692   6.425
 9236SOL    HW128607   3.476   2.771   6.464
 9236SOL    HW228608   3.529   2.619   6.493
 9237SOL     OW28609   1.422   3.483   2.968
 9237SOL    HW128610   1.389   3.578   2.972
 9237SOL    HW228611   1.367   3.432   2.902
 9238SOL     OW28612   4.187   3.601   6.699
 9238SOL    HW128613   4.178   3.580   6.601
 9238SOL    HW228614   4.250   3.535   6.741
 9239SOL     OW28615   2.214   2.987   6.376
 9239SOL    HW128616   2.174   3.049   6.309
 9239SOL    HW228617   2.163   2.994   6.462
 9240SOL     OW28618   4.533   0.703   2.462
 9240SOL    HW128619   4.524   0.781   2.524
 9240SOL    HW228620   4.619   0.710   2.412
 9241SOL     OW28621   0.321   5.659   5.451
 9241SOL    HW128622   0.381   5.698   5.521
 9241SOL    HW228623   0.340   5.704   5.364
 9242SOL     OW28624   4.919   6.718   2.071
 9242SOL    HW128625   4.868   6.783   2.127
 9242SOL    HW228626   4.949   6.641   2.128
 9243SOL     OW28627   5.733   0.341   4.647
 9243SOL    HW128628   5.829   0.322   4.628
 9243SOL    HW228629   5.681   0.255   4.640
 9244SOL     OW28630   3.775   6.312   0.790
 9244SOL    HW128631   3.872   6.289   0.790
 9244SOL    HW228632   3.721   6.230   0.806
 9245SOL     OW28633   0.591   6.988   1.607
 9245SOL    HW128634   0.585   6.890   1.629
 9245SOL    HW228635   0.644   7.001   1.524
 9246SOL     OW28636   6.779   5.044   3.828
 9246SOL    HW128637   6.866   5.003   3.800
 9246SOL    HW228638   6.775   5.044   3.928
 9247SOL     OW28639   1.253   0.695   2.989
 9247SOL    HW128640   1.216   0.696   3.082
 9247SOL    HW228641   1.281   0.787   2.963
 9248SOL     OW28642   4.429   1.852   6.286
 9248SOL    HW128643   4.487   1.885   6.361
 9248SOL    HW228644   4.336   1.839   6.319
 9249SOL     OW28645   4.017   6.401   3.854
 9249SOL    HW128646   3.996   6.409   3.757
 9249SOL    HW228647   3.936   6.423   3.908
 9250SOL     OW28648   4.923   3.658   3.058
 9250SOL    HW128649   4.916   3.559   3.047
 9250SOL    HW228650   4.892   3.684   3.150
 9251SOL     OW28651   3.652   1.724   2.102
 9251SOL    HW128652   3.606   1.637   2.082
 9251SOL    HW228653   3.642   1.745   2.200
 9252SOL     OW28654   1.658   6.736   4.637
 9252SOL    HW128655   1.621   6.643   4.636
 9252SOL    HW228656   1.757   6.732   4.651
 9253SOL     OW28657   1.297   6.656   6.304
 9253SOL    HW128658   1.365   6.724   6.331
 9253SOL    HW228659   1.214   6.702   6.272
 9254SOL     OW28660   4.694   2.057   1.013
 9254SOL    HW128661   4.792   2.042   1.007
 9254SOL    HW228662   4.646   1.984   0.965
 9255SOL     OW28663   7.014   5.172   7.006
 9255SOL    HW128664   6.993   5.077   6.984
 9255SOL    HW228665   6.957   5.203   0.064
 9256SOL     OW28666   4.209   5.265   2.757
 9256SOL    HW128667   4.118   5.307   2.752
 9256SOL    HW228668   4.211   5.184   2.698
 9257SOL     OW28669   0.394   3.393   0.785
 9257SOL    HW128670   0.313   3.451   0.790
 9257SOL    HW228671   0.411   3.353   0.876
 9258SOL     OW28672   3.534   2.863   4.643
 9258SOL    HW128673   3.604   2.838   4.710
 9258SOL    HW228674   3.493   2.951   4.669
 9259SOL     OW28675   1.556   2.449   0.321
 9259SOL    HW128676   1.526   2.355   0.308
 9259SOL    HW228677   1.484   2.512   0.293
 9260SOL     OW28678   6.843   3.837   0.108
 9260SOL    HW128679   6.793   3.753   0.129
 9260SOL    HW228680   6.939   3.825   0.134
 9261SOL     OW28681   2.477   6.976   5.876
 9261SOL    HW128682   2.433   6.950   5.790
 9261SOL    HW228683   2.476   6.898   5.938
 9262SOL     OW28684   6.152   0.307   6.323
 9262SOL    HW128685   6.103   0.258   6.250
 9262SOL    HW228686   6.240   0.262   6.339
 9263SOL     OW28687   6.058   4.017   2.500
 9263SOL    HW128688   6.045   3.930   2.451
 9263SOL    HW228689   5.987   4.026   2.570
 9264SOL     OW28690   5.629   2.284   0.177
 9264SOL    HW128691   5.674   2.263   0.265
 9264SOL    HW228692   5.601   2.199   0.133
 9265SOL     OW28693   1.736   2.302   5.127
 9265SOL    HW128694   1.661   2.236   5.126
 9265SOL    HW228695   1.807   2.273   5.063
 9266SOL     OW28696   2.957   6.553   2.409
 9266SOL    HW128697   2.934   6.557   2.312
 9266SOL    HW228698   2.913   6.473   2.450
 9267SOL     OW28699   2.924   5.057   6.166
 9267SOL    HW128700   2.895   4.977   6.113
 9267SOL    HW228701   2.849   5.087   6.225
 9268SOL     OW28702   1.318   0.977   3.052
 9268SOL    HW128703   1.352   1.029   2.974
 9268SOL    HW228704   1.218   0.981   3.053
 9269SOL     OW28705   4.185   1.280   5.289
 9269SOL    HW128706   4.242   1.198   5.285
 9269SOL    HW228707   4.235   1.354   5.333
 9270SOL     OW28708   1.971   0.379   5.640
 9270SOL    HW128709   2.041   0.308   5.628
 9270SOL    HW228710   1.908   0.350   5.711
 9271SOL     OW28711   0.475   5.214   5.544
 9271SOL    HW128712   0.454   5.170   5.631
 9271SOL    HW228713   0.433   5.305   5.542
 9272SOL     OW28714   2.267   5.064   6.342
 9272SOL    HW128715   2.232   4.974   6.370
 9272SOL    HW228716   2.306   5.110   6.421
 9273SOL     OW28717   3.590   5.513   6.657
 9273SOL    HW128718   3.607   5.576   6.582
 9273SOL    HW228719   3.568   5.565   6.740
 9274SOL     OW28720   4.976   2.022   2.085
 9274SOL    HW128721   4.897   2.084   2.088
 9274SOL    HW228722   4.950   1.938   2.038
 9275SOL     OW28723   6.772   0.489   5.920
 9275SOL    HW128724   6.827   0.565   5.954
 9275SOL    HW228725   6.830   0.427   5.868
 9276SOL     OW28726   4.763   6.881   4.307
 9276SOL    HW128727   4.782   6.800   4.363
 9276SOL    HW228728   4.769   6.963   4.365
 9277SOL     OW28729   4.687   2.636   6.994
 9277SOL    HW128730   4.671   2.587   6.908
 9277SOL    HW228731   4.630   2.596   0.048
 9278SOL     OW28732   1.585   2.576   1.124
 9278SOL    HW128733   1.575   2.501   1.057
 9278SOL    HW228734   1.496   2.596   1.164
 9279SOL     OW28735   2.157   6.601   0.319
 9279SOL    HW128736   2.151   6.700   0.302
 9279SOL    HW228737   2.145   6.584   0.417
 9280SOL     OW28738   1.825   0.751   2.597
 9280SOL    HW128739   1.762   0.697   2.542
 9280SOL    HW228740   1.888   0.801   2.537
 9281SOL     OW28741   2.075   2.400   0.169
 9281SOL    HW128742   2.110   2.434   0.082
 9281SOL    HW228743   1.975   2.392   0.164
 9282SOL     OW28744   3.944   1.293   6.364
 9282SOL    HW128745   3.899   1.204   6.367
 9282SOL    HW228746   4.002   1.299   6.283
 9283SOL     OW28747   5.387   2.673   3.237
 9283SOL    HW128748   5.415   2.752   3.182
 9283SOL    HW228749   5.288   2.672   3.245
 9284SOL     OW28750   4.130   3.809   1.798
 9284SOL    HW128751   4.218   3.789   1.755
 9284SOL    HW228752   4.137   3.791   1.896
 9285SOL     OW28753   6.581   2.771   6.450
 9285SOL    HW128754   6.605   2.840   6.519
 9285SOL    HW228755   6.600   2.680   6.486
 9286SOL     OW28756   5.517   5.437   3.839
 9286SOL    HW128757   5.486   5.524   3.877
 9286SOL    HW228758   5.463   5.362   3.878
 9287SOL     OW28759   3.366   7.004   2.594
 9287SOL    HW128760   3.273   0.013   2.567
 9287SOL    HW228761   3.399   0.050   2.664
 9288SOL     OW28762   4.385   2.334   6.677
 9288SOL    HW128763   4.444   2.270   6.627
 9288SOL    HW228764   4.311   2.364   6.617
 9289SOL     OW28765   5.513   3.872   2.864
 9289SOL    HW128766   5.523   3.862   2.964
 9289SOL    HW228767   5.600   3.850   2.820
 9290SOL     OW28768   4.127   2.196   4.383
 9290SOL    HW128769   4.073   2.200   4.468
 9290SOL    HW228770   4.187   2.275   4.378
 9291SOL     OW28771   1.090   2.797   5.149
 9291SOL    HW128772   1.146   2.748   5.082
 9291SOL    HW228773   1.117   2.894   5.149
 9292SOL     OW28774   0.643   3.907   0.362
 9292SOL    HW128775   0.734   3.880   0.332
 9292SOL    HW228776   0.646   4.000   0.398
 9293SOL     OW28777   5.782   3.989   6.322
 9293SOL    HW128778   5.711   3.942   6.375
 9293SOL    HW228779   5.861   3.929   6.312
 9294SOL     OW28780   5.637   5.797   6.462
 9294SOL    HW128781   5.698   5.717   6.468
 9294SOL    HW228782   5.667   5.865   6.529
 9295SOL     OW28783   4.774   2.882   3.249
 9295SOL    HW128784   4.831   2.907   3.170
 9295SOL    HW228785   4.812   2.924   3.331
 9296SOL     OW28786   5.922   0.697   5.033
 9296SOL    HW128787   5.953   0.609   4.997
 9296SOL    HW228788   5.893   0.756   4.958
 9297SOL     OW28789   0.422   0.420   1.727
 9297SOL    HW128790   0.429   0.344   1.662
 9297SOL    HW228791   0.457   0.390   1.816
 9298SOL     OW28792   0.827   6.555   4.890
 9298SOL    HW128793   0.903   6.540   4.953
 9298SOL    HW228794   0.826   6.483   4.821
 9299SOL     OW28795   1.873   2.478   4.775
 9299SOL    HW128796   1.812   2.525   4.711
 9299SOL    HW228797   1.819   2.441   4.851
 9300SOL     OW28798   5.905   4.600   3.538
 9300SOL    HW128799   5.963   4.679   3.559
 9300SOL    HW228800   5.947   4.546   3.465
 9301SOL     OW28801   0.043   5.041   1.426
 9301SOL    HW128802   0.105   4.995   1.489
 9301SOL    HW228803   6.990   4.978   1.396
 9302SOL     OW28804   1.601   2.248   2.139
 9302SOL    HW128805   1.663   2.208   2.207
 9302SOL    HW228806   1.526   2.185   2.120
 9303SOL     OW28807   4.680   4.159   0.475
 9303SOL    HW128808   4.695   4.163   0.574
 9303SOL    HW228809   4.764   4.184   0.427
 9304SOL     OW28810   4.756   4.105   0.764
 9304SOL    HW128811   4.836   4.124   0.821
 9304SOL    HW228812   4.707   4.026   0.800
 9305SOL     OW28813   4.701   4.166   1.775
 9305SOL    HW128814   4.750   4.244   1.811
 9305SOL    HW228815   4.604   4.173   1.800
 9306SOL     OW28816   6.879   5.768   3.382
 9306SOL    HW128817   6.825   5.741   3.302
 9306SOL    HW228818   6.953   5.702   3.397
 9307SOL     OW28819   2.298   0.540   5.895
 9307SOL    HW128820   2.264   0.596   5.819
 9307SOL    HW228821   2.244   0.456   5.902
 9308SOL     OW28822   6.948   2.564   0.556
 9308SOL    HW128823   6.872   2.520   0.604
 9308SOL    HW228824   6.913   2.624   0.484
 9309SOL     OW28825   5.159   2.980   6.534
 9309SOL    HW128826   5.140   2.905   6.471
 9309SOL    HW228827   5.081   2.993   6.595
 9310SOL     OW28828   3.834   6.565   1.588
 9310SOL    HW128829   3.848   6.471   1.555
 9310SOL    HW228830   3.839   6.565   1.688
 9311SOL     OW28831   0.102   3.848   1.605
 9311SOL    HW128832   0.009   3.849   1.569
 9311SOL    HW228833   0.168   3.861   1.531
 9312SOL     OW28834   1.832   4.089   4.583
 9312SOL    HW128835   1.852   4.068   4.679
 9312SOL    HW228836   1.822   4.188   4.573
 9313SOL     OW28837   6.190   6.860   2.626
 9313SOL    HW128838   6.098   6.838   2.657
 9313SOL    HW228839   6.201   6.832   2.530
 9314SOL     OW28840   6.849   4.124   0.171
 9314SOL    HW128841   6.889   4.044   0.127
 9314SOL    HW228842   6.752   4.132   0.146
 9315SOL     OW28843   0.453   5.708   6.327
 9315SOL    HW128844   0.521   5.640   6.356
 9315SOL    HW228845   0.371   5.662   6.295
 9316SOL     OW28846   2.991   5.308   4.745
 9316SOL    HW128847   2.995   5.276   4.839
 9316SOL    HW228848   2.907   5.274   4.701
 9317SOL     OW28849   4.397   3.884   5.828
 9317SOL    HW128850   4.344   3.801   5.813
 9317SOL    HW228851   4.482   3.880   5.775
 9318SOL     OW28852   6.457   6.739   6.097
 9318SOL    HW128853   6.374   6.695   6.132
 9318SOL    HW228854   6.498   6.681   6.026
 9319SOL     OW28855   5.824   3.963   4.839
 9319SOL    HW128856   5.814   3.871   4.801
 9319SOL    HW228857   5.790   3.964   4.933
 9320SOL     OW28858   4.044   3.076   5.765
 9320SOL    HW128859   4.057   3.016   5.686
 9320SOL    HW228860   4.042   3.021   5.848
 9321SOL     OW28861   5.642   6.801   4.415
 9321SOL    HW128862   5.693   6.886   4.411
 9321SOL    HW228863   5.666   6.743   4.337
 9322SOL     OW28864   1.195   6.042   0.853
 9322SOL    HW128865   1.278   6.095   0.866
 9322SOL    HW228866   1.217   5.944   0.849
 9323SOL     OW28867   0.862   1.272   6.011
 9323SOL    HW128868   0.843   1.238   6.103
 9323SOL    HW228869   0.917   1.206   5.961
 9324SOL     OW28870   1.322   5.478   6.727
 9324SOL    HW128871   1.360   5.518   6.644
 9324SOL    HW228872   1.347   5.535   6.806
 9325SOL     OW28873   0.619   2.643   6.703
 9325SOL    HW128874   0.527   2.627   6.667
 9325SOL    HW228875   0.685   2.641   6.627
 9326SOL     OW28876   2.086   5.912   1.596
 9326SOL    HW128877   2.165   5.973   1.590
 9326SOL    HW228878   2.116   5.821   1.624
 9327SOL     OW28879   2.310   1.918   4.165
 9327SOL    HW128880   2.288   1.981   4.091
 9327SOL    HW228881   2.403   1.935   4.198
 9328SOL     OW28882   2.584   1.263   2.351
 9328SOL    HW128883   2.622   1.338   2.404
 9328SOL    HW228884   2.495   1.290   2.313
 9329SOL     OW28885   0.768   3.595   1.663
 9329SOL    HW128886   0.837   3.524   1.679
 9329SOL    HW228887   0.810   3.685   1.670
 9330SOL     OW28888   5.365   6.310   6.777
 9330SOL    HW128889   5.268   6.300   6.755
 9330SOL    HW228890   5.379   6.395   6.827
 9331SOL     OW28891   1.028   1.387   0.388
 9331SOL    HW128892   1.067   1.337   0.466
 9331SOL    HW228893   1.003   1.323   0.316
 9332SOL     OW28894   3.739   4.059   5.280
 9332SOL    HW128895   3.830   4.062   5.322
 9332SOL    HW228896   3.701   4.151   5.276
 9333SOL     OW28897   4.978   6.060   1.299
 9333SOL    HW128898   4.878   6.055   1.294
 9333SOL    HW228899   5.009   6.144   1.257
 9334SOL     OW28900   2.199   6.928   4.535
 9334SOL    HW128901   2.143   6.913   4.453
 9334SOL    HW228902   2.243   0.000   4.529
 9335SOL     OW28903   0.259   1.766   2.096
 9335SOL    HW128904   0.311   1.761   2.182
 9335SOL    HW228905   0.164   1.788   2.117
 9336SOL     OW28906   2.824   6.881   5.173
 9336SOL    HW128907   2.917   6.904   5.201
 9336SOL    HW228908   2.783   6.820   5.241
 9337SOL     OW28909   4.507   6.813   3.254
 9337SOL    HW128910   4.517   6.842   3.349
 9337SOL    HW228911   4.413   6.785   3.237
 9338SOL     OW28912   2.192   6.564   2.471
 9338SOL    HW128913   2.238   6.506   2.404
 9338SOL    HW228914   2.245   6.567   2.555
 9339SOL     OW28915   3.636   5.449   1.806
 9339SOL    HW128916   3.558   5.406   1.762
 9339SOL    HW228917   3.604   5.506   1.882
 9340SOL     OW28918   6.544   2.901   0.464
 9340SOL    HW128919   6.543   2.835   0.539
 9340SOL    HW228920   6.600   2.867   0.389
 9341SOL     OW28921   0.834   4.225   5.768
 9341SOL    HW128922   0.865   4.248   5.860
 9341SOL    HW228923   0.734   4.233   5.764
 9342SOL     OW28924   1.555   0.681   0.272
 9342SOL    HW128925   1.563   0.707   0.368
 9342SOL    HW228926   1.633   0.625   0.245
 9343SOL     OW28927   6.104   6.395   3.555
 9343SOL    HW128928   6.182   6.332   3.557
 9343SOL    HW228929   6.026   6.353   3.602
 9344SOL     OW28930   5.350   6.451   0.679
 9344SOL    HW128931   5.447   6.455   0.704
 9344SOL    HW228932   5.342   6.430   0.582
 9345SOL     OW28933   0.889   2.204   0.577
 9345SOL    HW128934   0.869   2.293   0.620
 9345SOL    HW228935   0.965   2.160   0.625
 9346SOL     OW28936   5.950   0.480   0.944
 9346SOL    HW128937   5.945   0.568   0.991
 9346SOL    HW228938   6.008   0.417   0.996
 9347SOL     OW28939   1.678   6.416   2.433
 9347SOL    HW128940   1.777   6.428   2.434
 9347SOL    HW228941   1.646   6.390   2.524
 9348SOL     OW28942   3.006   4.750   0.210
 9348SOL    HW128943   2.910   4.776   0.199
 9348SOL    HW228944   3.027   4.675   0.148
 9349SOL     OW28945   1.031   6.203   2.703
 9349SOL    HW128946   1.051   6.135   2.775
 9349SOL    HW228947   0.932   6.213   2.694
 9350SOL     OW28948   0.233   3.141   5.490
 9350SOL    HW128949   0.317   3.123   5.440
 9350SOL    HW228950   0.186   3.054   5.510
 9351SOL     OW28951   3.184   6.764   6.865
 9351SOL    HW128952   3.205   6.667   6.870
 9351SOL    HW228953   3.241   6.807   6.795
 9352SOL     OW28954   2.618   5.084   5.698
 9352SOL    HW128955   2.545   5.016   5.706
 9352SOL    HW228956   2.707   5.039   5.703
 9353SOL     OW28957   6.352   0.962   0.991
 9353SOL    HW128958   6.274   0.904   0.970
 9353SOL    HW228959   6.420   0.910   1.042
 9354SOL     OW28960   1.205   1.001   5.699
 9354SOL    HW128961   1.237   0.910   5.672
 9354SOL    HW228962   1.279   1.067   5.689
 9355SOL     OW28963   1.225   1.663   5.437
 9355SOL    HW128964   1.255   1.653   5.342
 9355SOL    HW228965   1.230   1.760   5.463
 9356SOL     OW28966   3.511   0.016   3.811
 9356SOL    HW128967   3.571   0.026   3.890
 9356SOL    HW228968   3.559   0.050   3.729
 9357SOL     OW28969   2.143   2.426   0.477
 9357SOL    HW128970   2.077   2.418   0.403
 9357SOL    HW228971   2.202   2.505   0.460
 9358SOL     OW28972   1.355   2.147   0.999
 9358SOL    HW128973   1.410   2.155   0.916
 9358SOL    HW228974   1.281   2.215   0.997
 9359SOL     OW28975   0.833   0.759   5.404
 9359SOL    HW128976   0.910   0.718   5.356
 9359SOL    HW228977   0.753   0.761   5.344
 9360SOL     OW28978   6.669   0.458   5.515
 9360SOL    HW128979   6.728   0.397   5.568
 9360SOL    HW228980   6.575   0.449   5.546
 9361SOL     OW28981   2.192   5.625   4.030
 9361SOL    HW128982   2.275   5.681   4.023
 9361SOL    HW228983   2.145   5.646   4.116
 9362SOL     OW28984   1.881   0.355   2.519
 9362SOL    HW128985   1.798   0.410   2.532
 9362SOL    HW228986   1.874   0.305   2.432
 9363SOL     OW28987   1.987   2.806   2.311
 9363SOL    HW128988   1.993   2.870   2.234
 9363SOL    HW228989   2.017   2.715   2.280
 9364SOL     OW28990   0.315   1.935   6.716
 9364SOL    HW128991   0.299   1.885   6.631
 9364SOL    HW228992   0.411   1.960   6.723
 9365SOL     OW28993   2.729   1.537   5.460
 9365SOL    HW128994   2.652   1.497   5.511
 9365SOL    HW228995   2.713   1.523   5.362
 9366SOL     OW28996   3.170   6.764   2.364
 9366SOL    HW128997   3.153   6.843   2.306
 9366SOL    HW228998   3.106   6.691   2.341
 9367SOL     OW28999   6.855   6.957   1.424
 9367SOL    HW129000   6.912   6.974   1.504
 9367SOL    HW229001   6.912   6.924   1.349
 9368SOL     OW29002   2.120   0.585   3.273
 9368SOL    HW129003   2.105   0.680   3.246
 9368SOL    HW229004   2.158   0.534   3.196
 9369SOL     OW29005   4.078   4.998   0.985
 9369SOL    HW129006   4.118   5.083   0.951
 9369SOL    HW229007   4.001   4.971   0.927
 9370SOL     OW29008   4.581   2.549   5.342
 9370SOL    HW129009   4.559   2.638   5.301
 9370SOL    HW229010   4.633   2.494   5.277
 9371SOL     OW29011   4.267   4.897   0.503
 9371SOL    HW129012   4.287   4.960   0.578
 9371SOL    HW229013   4.328   4.818   0.508
 9372SOL     OW29014   4.769   6.611   1.147
 9372SOL    HW129015   4.717   6.696   1.137
 9372SOL    HW229016   4.843   6.625   1.213
 9373SOL     OW29017   0.270   1.859   1.581
 9373SOL    HW129018   0.256   1.953   1.613
 9373SOL    HW229019   0.228   1.848   1.491
 9374SOL     OW29020   6.958   5.073   6.223
 9374SOL    HW129021   0.000   5.085   6.144
 9374SOL    HW229022   6.913   5.160   6.245
 9375SOL     OW29023   1.924   1.530   6.710
 9375SOL    HW129024   1.839   1.497   6.752
 9375SOL    HW229025   1.996   1.463   6.726
 9376SOL     OW29026   3.576   3.904   0.383
 9376SOL    HW129027   3.552   3.898   0.286
 9376SOL    HW229028   3.501   3.867   0.438
 9377SOL     OW29029   1.087   0.951   3.367
 9377SOL    HW129030   1.068   1.000   3.452
 9377SOL    HW229031   1.185   0.948   3.351
 9378SOL     OW29032   3.924   1.188   5.416
 9378SOL    HW129033   3.851   1.242   5.373
 9378SOL    HW229034   4.013   1.227   5.392
 9379SOL     OW29035   3.737   0.078   4.919
 9379SOL    HW129036   3.722   0.171   4.884
 9379SOL    HW229037   3.649   0.034   4.935
 9380SOL     OW29038   5.161   6.445   1.238
 9380SOL    HW129039   5.206   6.508   1.175
 9380SOL    HW229040   5.126   6.366   1.188
 9381SOL     OW29041   4.674   0.792   5.031
 9381SOL    HW129042   4.726   0.780   4.946
 9381SOL    HW229043   4.599   0.856   5.015
 9382SOL     OW29044   2.875   5.366   6.522
 9382SOL    HW129045   2.957   5.317   6.551
 9382SOL    HW229046   2.804   5.300   6.497
 9383SOL     OW29047   5.923   4.217   1.593
 9383SOL    HW129048   5.852   4.146   1.600
 9383SOL    HW229049   6.001   4.181   1.542
 9384SOL     OW29050   4.127   0.211   0.949
 9384SOL    HW129051   4.037   0.179   0.920
 9384SOL    HW229052   4.172   0.259   0.873
 9385SOL     OW29053   4.054   2.149   4.100
 9385SOL    HW129054   4.079   2.189   4.188
 9385SOL    HW229055   4.102   2.197   4.027
 9386SOL     OW29056   5.601   6.968   1.216
 9386SOL    HW129057   5.666   7.011   1.278
 9386SOL    HW229058   5.563   0.019   1.154
 9387SOL     OW29059   2.629   2.178   6.703
 9387SOL    HW129060   2.577   2.096   6.682
 9387SOL    HW229061   2.648   2.181   6.801
 9388SOL     OW29062   2.134   6.739   5.009
 9388SOL    HW129063   2.132   6.656   4.953
 9388SOL    HW229064   2.220   6.788   4.993
 9389SOL     OW29065   2.127   3.785   1.879
 9389SOL    HW129066   2.095   3.690   1.885
 9389SOL    HW229067   2.096   3.825   1.793
 9390SOL     OW29068   5.999   5.439   4.235
 9390SOL    HW129069   5.934   5.451   4.160
 9390SOL    HW229070   6.027   5.528   4.270
 9391SOL     OW29071   0.367   4.952   3.833
 9391SOL    HW129072   0.322   5.004   3.760
 9391SOL    HW229073   0.461   4.984   3.843
 9392SOL     OW29074   3.313   5.169   2.181
 9392SOL    HW129075   3.370   5.142   2.103
 9392SOL    HW229076   3.231   5.215   2.148
 9393SOL     OW29077   1.979   5.082   0.113
 9393SOL    HW129078   1.905   5.035   0.162
 9393SOL    HW229079   1.988   5.043   0.021
 9394SOL     OW29080   4.668   0.454   6.699
 9394SOL    HW129081   4.615   0.376   6.667
 9394SOL    HW229082   4.609   0.518   6.747
 9395SOL     OW29083   0.757   1.243   1.205
 9395SOL    HW129084   0.816   1.286   1.137
 9395SOL    HW229085   0.774   1.145   1.207
 9396SOL     OW29086   1.038   1.018   6.643
 9396SOL    HW129087   1.046   1.042   6.547
 9396SOL    HW229088   0.949   1.050   6.678
 9397SOL     OW29089   3.462   1.375   5.716
 9397SOL    HW129090   3.367   1.386   5.743
 9397SOL    HW229091   3.508   1.314   5.781
 9398SOL     OW29092   6.779   2.408   6.831
 9398SOL    HW129093   6.833   2.396   6.748
 9398SOL    HW229094   6.803   2.495   6.874
 9399SOL     OW29095   1.356   2.391   4.671
 9399SOL    HW129096   1.374   2.354   4.580
 9399SOL    HW229097   1.430   2.365   4.733
 9400SOL     OW29098   6.014   1.369   1.214
 9400SOL    HW129099   5.970   1.284   1.185
 9400SOL    HW229100   6.105   1.349   1.250
 9401SOL     OW29101   0.007   1.930   3.565
 9401SOL    HW129102   6.974   1.974   3.490
 9401SOL    HW229103   0.066   1.998   3.609
 9402SOL     OW29104   3.711   5.889   5.560
 9402SOL    HW129105   3.690   5.829   5.484
 9402SOL    HW229106   3.641   5.961   5.566
 9403SOL     OW29107   5.623   2.116   1.053
 9403SOL    HW129108   5.583   2.049   1.116
 9403SOL    HW229109   5.711   2.082   1.020
 9404SOL     OW29110   2.680   2.808   0.623
 9404SOL    HW129111   2.779   2.792   0.630
 9404SOL    HW229112   2.660   2.852   0.536
 9405SOL     OW29113   6.021   5.540   4.956
 9405SOL    HW129114   6.083   5.531   5.034
 9405SOL    HW229115   6.000   5.450   4.919
 9406SOL     OW29116   1.562   1.005   0.671
 9406SOL    HW129117   1.597   1.089   0.711
 9406SOL    HW229118   1.517   1.025   0.584
 9407SOL     OW29119   2.073   4.652   4.635
 9407SOL    HW129120   2.142   4.601   4.687
 9407SOL    HW229121   2.057   4.606   4.547
 9408SOL     OW29122   6.155   5.255   3.484
 9408SOL    HW129123   6.080   5.233   3.547
 9408SOL    HW229124   6.165   5.180   3.418
 9409SOL     OW29125   5.852   5.183   1.242
 9409SOL    HW129126   5.834   5.228   1.155
 9409SOL    HW229127   5.791   5.105   1.252
 9410SOL     OW29128   4.256   0.169   0.347
 9410SOL    HW129129   4.312   0.109   0.403
 9410SOL    HW229130   4.310   0.248   0.318
 9411SOL     OW29131   3.622   3.859   4.862
 9411SOL    HW129132   3.604   3.955   4.840
 9411SOL    HW229133   3.682   3.820   4.792
 9412SOL     OW29134   3.977   6.601   1.906
 9412SOL    HW129135   3.923   6.686   1.912
 9412SOL    HW229136   4.072   6.621   1.929
 9413SOL     OW29137   4.119   4.938   3.190
 9413SOL    HW129138   4.097   4.890   3.274
 9413SOL    HW229139   4.179   5.016   3.210
 9414SOL     OW29140   1.873   0.915   2.371
 9414SOL    HW129141   1.795   0.962   2.330
 9414SOL    HW229142   1.919   0.977   2.435
 9415SOL     OW29143   5.064   0.671   0.733
 9415SOL    HW129144   5.067   0.769   0.712
 9415SOL    HW229145   5.074   0.658   0.831
 9416SOL     OW29146   6.483   4.558   5.633
 9416SOL    HW129147   6.462   4.572   5.537
 9416SOL    HW229148   6.575   4.521   5.642
 9417SOL     OW29149   3.971   6.006   3.063
 9417SOL    HW129150   3.945   5.975   2.971
 9417SOL    HW229151   4.029   5.936   3.106
 9418SOL     OW29152   2.767   2.147   4.877
 9418SOL    HW129153   2.751   2.214   4.950
 9418SOL    HW229154   2.746   2.188   4.789
 9419SOL     OW29155   3.024   2.716   6.199
 9419SOL    HW129156   2.967   2.639   6.229
 9419SOL    HW229157   3.103   2.725   6.259
 9420SOL     OW29158   5.222   3.375   5.898
 9420SOL    HW129159   5.259   3.297   5.948
 9420SOL    HW229160   5.281   3.396   5.820
 9421SOL     OW29161   3.900   6.682   0.188
 9421SOL    HW129162   3.906   6.588   0.154
 9421SOL    HW229163   3.982   6.704   0.239
 9422SOL     OW29164   2.115   6.264   5.945
 9422SOL    HW129165   2.137   6.288   5.850
 9422SOL    HW229166   2.084   6.170   5.949
 9423SOL     OW29167   4.929   5.242   0.705
 9423SOL    HW129168   5.002   5.286   0.757
 9423SOL    HW229169   4.913   5.150   0.740
 9424SOL     OW29170   6.197   6.944   3.812
 9424SOL    HW129171   6.244   6.867   3.768
 9424SOL    HW229172   6.254   6.981   3.885
 9425SOL     OW29173   6.949   5.728   1.557
 9425SOL    HW129174   6.994   5.674   1.629
 9425SOL    HW229175   7.004   5.810   1.538
 9426SOL     OW29176   4.653   1.509   6.195
 9426SOL    HW129177   4.651   1.552   6.285
 9426SOL    HW229178   4.724   1.438   6.193
 9427SOL     OW29179   3.299   5.522   2.167
 9427SOL    HW129180   3.225   5.457   2.151
 9427SOL    HW229181   3.262   5.614   2.179
 9428SOL     OW29182   0.175   6.436   4.981
 9428SOL    HW129183   0.145   6.354   5.030
 9428SOL    HW229184   0.267   6.462   5.010
 9429SOL     OW29185   3.019   2.211   4.071
 9429SOL    HW129186   3.034   2.230   3.974
 9429SOL    HW229187   2.921   2.222   4.091
 9430SOL     OW29188   1.353   6.955   3.815
 9430SOL    HW129189   1.347   6.866   3.768
 9430SOL    HW229190   1.448   6.986   3.815
 9431SOL     OW29191   1.427   5.078   5.311
 9431SOL    HW129192   1.373   5.023   5.246
 9431SOL    HW229193   1.524   5.061   5.294
 9432SOL     OW29194   6.776   1.819   2.736
 9432SOL    HW129195   6.798   1.883   2.662
 9432SOL    HW229196   6.769   1.870   2.822
 9433SOL     OW29197   4.112   5.537   1.610
 9433SOL    HW129198   4.030   5.497   1.649
 9433SOL    HW229199   4.189   5.523   1.672
 9434SOL     OW29200   4.996   5.881   5.097
 9434SOL    HW129201   4.901   5.900   5.075
 9434SOL    HW229202   5.055   5.953   5.059
 9435SOL     OW29203   6.635   3.616   6.555
 9435SOL    HW129204   6.570   3.540   6.562
 9435SOL    HW229205   6.652   3.653   6.646
 9436SOL     OW29206   2.932   1.799   2.612
 9436SOL    HW129207   2.957   1.860   2.537
 9436SOL    HW229208   2.891   1.853   2.686
 9437SOL     OW29209   4.513   1.314   3.850
 9437SOL    HW129210   4.433   1.353   3.896
 9437SOL    HW229211   4.496   1.219   3.826
 9438SOL     OW29212   4.951   0.252   3.270
 9438SOL    HW129213   4.987   0.232   3.179
 9438SOL    HW229214   5.001   0.328   3.310
 9439SOL     OW29215   1.562   4.838   1.306
 9439SOL    HW129216   1.503   4.812   1.229
 9439SOL    HW229217   1.613   4.920   1.282
 9440SOL     OW29218   1.894   5.260   4.258
 9440SOL    HW129219   1.896   5.314   4.342
 9440SOL    HW229220   1.976   5.279   4.204
 9441SOL     OW29221   6.691   6.274   4.616
 9441SOL    HW129222   6.790   6.278   4.607
 9441SOL    HW229223   6.666   6.204   4.682
 9442SOL     OW29224   6.735   2.667   1.007
 9442SOL    HW129225   6.730   2.737   0.937
 9442SOL    HW229226   6.794   2.698   1.082
 9443SOL     OW29227   1.801   4.760   1.584
 9443SOL    HW129228   1.732   4.789   1.517
 9443SOL    HW229229   1.786   4.664   1.608
 9444SOL     OW29230   2.285   5.650   5.439
 9444SOL    HW129231   2.252   5.736   5.476
 9444SOL    HW229232   2.208   5.586   5.428
 9445SOL     OW29233   0.936   1.357   3.922
 9445SOL    HW129234   0.981   1.269   3.936
 9445SOL    HW229235   1.005   1.430   3.920
 9446SOL     OW29236   5.684   5.435   3.590
 9446SOL    HW129237   5.711   5.342   3.614
 9446SOL    HW229238   5.657   5.485   3.673
 9447SOL     OW29239   5.675   5.261   2.320
 9447SOL    HW129240   5.602   5.329   2.332
 9447SOL    HW229241   5.678   5.231   2.225
 9448SOL     OW29242   4.923   2.785   6.998
 9448SOL    HW129243   4.900   2.882   6.999
 9448SOL    HW229244   4.839   2.731   6.995
 9449SOL     OW29245   4.408   6.909   3.639
 9449SOL    HW129246   4.464   6.931   3.719
 9449SOL    HW229247   4.459   6.933   3.555
 9450SOL     OW29248   0.592   0.013   2.307
 9450SOL    HW129249   0.629   0.100   2.340
 9450SOL    HW229250   0.664   6.962   2.306
 9451SOL     OW29251   4.473   5.824   0.382
 9451SOL    HW129252   4.570   5.815   0.358
 9451SOL    HW229253   4.455   5.773   0.465
 9452SOL     OW29254   6.299   2.744   6.198
 9452SOL    HW129255   6.274   2.793   6.115
 9452SOL    HW229256   6.294   2.807   6.276
 9453SOL     OW29257   6.619   4.604   2.730
 9453SOL    HW129258   6.657   4.546   2.802
 9453SOL    HW229259   6.625   4.557   2.642
 9454SOL     OW29260   5.623   5.079   0.301
 9454SOL    HW129261   5.645   5.129   0.385
 9454SOL    HW229262   5.705   5.070   0.245
 9455SOL     OW29263   4.496   0.990   1.580
 9455SOL    HW129264   4.485   1.083   1.614
 9455SOL    HW229265   4.593   0.969   1.569
 9456SOL     OW29266   6.497   2.838   2.124
 9456SOL    HW129267   6.537   2.900   2.055
 9456SOL    HW229268   6.416   2.880   2.163
 9457SOL     OW29269   6.602   6.313   4.355
 9457SOL    HW129270   6.512   6.337   4.390
 9457SOL    HW229271   6.669   6.318   4.429
 9458SOL     OW29272   7.003   4.575   0.050
 9458SOL    HW129273   6.989   4.673   0.043
 9458SOL    HW229274   6.915   4.528   0.037
 9459SOL     OW29275   5.488   4.611   4.979
 9459SOL    HW129276   5.463   4.675   5.051
 9459SOL    HW229277   5.520   4.525   5.020
 9460SOL     OW29278   2.057   3.366   3.158
 9460SOL    HW129279   2.079   3.306   3.081
 9460SOL    HW229280   2.121   3.350   3.232
 9461SOL     OW29281   1.821   1.863   1.347
 9461SOL    HW129282   1.855   1.774   1.315
 9461SOL    HW229283   1.881   1.936   1.312
 9462SOL     OW29284   6.749   1.211   5.368
 9462SOL    HW129285   6.687   1.140   5.401
 9462SOL    HW229286   6.844   1.182   5.381
 9463SOL     OW29287   0.071   5.097   0.359
 9463SOL    HW129288   0.059   5.065   0.265
 9463SOL    HW229289   0.109   5.190   0.357
 9464SOL     OW29290   1.101   0.542   2.181
 9464SOL    HW129291   1.020   0.585   2.143
 9464SOL    HW229292   1.179   0.558   2.120
 9465SOL     OW29293   0.655   5.833   0.332
 9465SOL    HW129294   0.578   5.775   0.358
 9465SOL    HW229295   0.644   5.923   0.374
 9466SOL     OW29296   3.645   4.139   5.591
 9466SOL    HW129297   3.674   4.235   5.586
 9466SOL    HW229298   3.617   4.118   5.684
 9467SOL     OW29299   1.293   3.796   1.353
 9467SOL    HW129300   1.387   3.825   1.337
 9467SOL    HW229301   1.230   3.864   1.316
 9468SOL     OW29302   6.289   1.892   1.359
 9468SOL    HW129303   6.387   1.907   1.347
 9468SOL    HW229304   6.242   1.980   1.365
 9469SOL     OW29305   6.190   6.513   2.142
 9469SOL    HW129306   6.201   6.556   2.052
 9469SOL    HW229307   6.280   6.487   2.178
 9470SOL     OW29308   3.530   3.753   0.705
 9470SOL    HW129309   3.562   3.796   0.790
 9470SOL    HW229310   3.477   3.671   0.726
 9471SOL     OW29311   6.686   2.874   4.991
 9471SOL    HW129312   6.733   2.962   4.982
 9471SOL    HW229313   6.607   2.884   5.052
 9472SOL     OW29314   2.035   4.332   5.716
 9472SOL    HW129315   2.029   4.360   5.812
 9472SOL    HW229316   1.944   4.333   5.675
 9473SOL     OW29317   2.717   3.391   1.493
 9473SOL    HW129318   2.650   3.415   1.563
 9473SOL    HW229319   2.747   3.474   1.446
 9474SOL     OW29320   6.048   4.319   0.827
 9474SOL    HW129321   5.973   4.260   0.858
 9474SOL    HW229322   6.043   4.329   0.728
 9475SOL     OW29323   6.083   3.322   6.914
 9475SOL    HW129324   6.053   3.291   7.004
 9475SOL    HW229325   6.019   3.291   6.844
 9476SOL     OW29326   3.683   3.996   1.229
 9476SOL    HW129327   3.753   3.945   1.179
 9476SOL    HW229328   3.656   3.945   1.310
 9477SOL     OW29329   1.205   5.328   0.829
 9477SOL    HW129330   1.113   5.290   0.838
 9477SOL    HW229331   1.244   5.342   0.920
 9478SOL     OW29332   6.852   3.021   5.370
 9478SOL    HW129333   6.788   3.087   5.407
 9478SOL    HW229334   6.802   2.943   5.331
 9479SOL     OW29335   4.287   0.883   2.011
 9479SOL    HW129336   4.263   0.830   2.092
 9479SOL    HW229337   4.330   0.969   2.040
 9480SOL     OW29338   5.394   0.389   0.709
 9480SOL    HW129339   5.477   0.351   0.668
 9480SOL    HW229340   5.344   0.441   0.640
 9481SOL     OW29341   4.641   0.364   3.959
 9481SOL    HW129342   4.717   0.428   3.954
 9481SOL    HW229343   4.654   0.302   4.035
 9482SOL     OW29344   5.845   4.190   6.031
 9482SOL    HW129345   5.902   4.270   6.017
 9482SOL    HW229346   5.902   4.108   6.030
 9483SOL     OW29347   5.856   5.075   0.160
 9483SOL    HW129348   5.936   5.122   0.124
 9483SOL    HW229349   5.792   5.055   0.086
 9484SOL     OW29350   1.749   5.408   3.837
 9484SOL    HW129351   1.841   5.441   3.818
 9484SOL    HW229352   1.710   5.461   3.912
 9485SOL     OW29353   0.004   1.301   5.750
 9485SOL    HW129354   7.003   1.216   5.800
 9485SOL    HW229355   0.087   1.289   5.696
 9486SOL     OW29356   6.720   5.779   6.167
 9486SOL    HW129357   6.697   5.717   6.242
 9486SOL    HW229358   6.644   5.842   6.151
 9487SOL     OW29359   3.154   3.212   3.903
 9487SOL    HW129360   3.139   3.307   3.875
 9487SOL    HW229361   3.103   3.194   3.987
 9488SOL     OW29362   1.226   0.767   2.378
 9488SOL    HW129363   1.203   0.833   2.450
 9488SOL    HW229364   1.195   0.802   2.290
 9489SOL     OW29365   6.723   4.014   6.918
 9489SOL    HW129366   6.754   3.960   6.996
 9489SOL    HW229367   6.783   4.093   6.906
 9490SOL     OW29368   5.756   3.813   5.076
 9490SOL    HW129369   5.744   3.862   5.162
 9490SOL    HW229370   5.838   3.755   5.082
 9491SOL     OW29371   4.453   0.145   2.263
 9491SOL    HW129372   4.522   0.154   2.336
 9491SOL    HW229373   4.499   0.119   2.178
 9492SOL     OW29374   5.023   3.254   3.713
 9492SOL    HW129375   5.033   3.168   3.763
 9492SOL    HW229376   5.002   3.235   3.617
 9493SOL     OW29377   2.865   6.504   2.726
 9493SOL    HW129378   2.943   6.479   2.783
 9493SOL    HW229379   2.871   6.456   2.639
 9494SOL     OW29380   5.142   2.513   2.625
 9494SOL    HW129381   5.117   2.566   2.544
 9494SOL    HW229382   5.063   2.507   2.686
 9495SOL     OW29383   5.690   2.322   1.182
 9495SOL    HW129384   5.735   2.251   1.237
 9495SOL    HW229385   5.643   2.279   1.105
 9496SOL     OW29386   6.306   3.299   0.486
 9496SOL    HW129387   6.246   3.231   0.528
 9496SOL    HW229388   6.298   3.386   0.535
 9497SOL     OW29389   5.228   4.549   4.888
 9497SOL    HW129390   5.173   4.594   4.959
 9497SOL    HW229391   5.324   4.553   4.913
 9498SOL     OW29392   0.734   6.189   5.702
 9498SOL    HW129393   0.805   6.135   5.658
 9498SOL    HW229394   0.774   6.243   5.776
 9499SOL     OW29395   6.011   6.841   3.595
 9499SOL    HW129396   6.043   6.899   3.670
 9499SOL    HW229397   5.922   6.872   3.563
 9500SOL     OW29398   2.779   1.775   0.756
 9500SOL    HW129399   2.748   1.785   0.662
 9500SOL    HW229400   2.875   1.800   0.763
 9501SOL     OW29401   1.453   3.453   5.113
 9501SOL    HW129402   1.449   3.552   5.126
 9501SOL    HW229403   1.380   3.410   5.166
 9502SOL     OW29404   5.807   4.391   3.681
 9502SOL    HW129405   5.879   4.322   3.691
 9502SOL    HW229406   5.840   4.466   3.623
 9503SOL     OW29407   6.165   0.458   0.218
 9503SOL    HW129408   6.099   0.471   0.293
 9503SOL    HW229409   6.169   0.541   0.162
 9504SOL     OW29410   6.830   4.861   2.870
 9504SOL    HW129411   6.854   4.869   2.774
 9504SOL    HW229412   6.857   4.770   2.903
 9505SOL     OW29413   4.960   3.085   0.471
 9505SOL    HW129414   4.916   2.996   0.457
 9505SOL    HW229415   5.025   3.102   0.397
 9506SOL     OW29416   3.852   1.317   1.413
 9506SOL    HW129417   3.874   1.254   1.488
 9506SOL    HW229418   3.829   1.407   1.450
 9507SOL     OW29419   6.825   5.850   1.790
 9507SOL    HW129420   6.730   5.839   1.763
 9507SOL    HW229421   6.881   5.866   1.709
 9508SOL     OW29422   5.121   1.363   2.523
 9508SOL    HW129423   5.184   1.439   2.509
 9508SOL    HW229424   5.131   1.297   2.448
 9509SOL     OW29425   5.927   1.447   3.921
 9509SOL    HW129426   5.889   1.399   4.001
 9509SOL    HW229427   5.999   1.509   3.951
 9510SOL     OW29428   1.560   3.571   2.211
 9510SOL    HW129429   1.497   3.519   2.269
 9510SOL    HW229430   1.536   3.556   2.115
 9511SOL     OW29431   0.957   1.687   0.846
 9511SOL    HW129432   0.966   1.590   0.869
 9511SOL    HW229433   0.866   1.704   0.808
 9512SOL     OW29434   6.184   2.529   1.399
 9512SOL    HW129435   6.135   2.488   1.323
 9512SOL    HW229436   6.231   2.612   1.368
 9513SOL     OW29437   5.048   3.904   4.633
 9513SOL    HW129438   5.014   3.892   4.727
 9513SOL    HW229439   5.058   3.814   4.590
 9514SOL     OW29440   3.704   2.906   1.091
 9514SOL    HW129441   3.772   2.847   1.134
 9514SOL    HW229442   3.661   2.858   1.014
 9515SOL     OW29443   0.008   6.034   3.221
 9515SOL    HW129444   0.043   6.055   3.129
 9515SOL    HW229445   6.927   6.019   3.216
 9516SOL     OW29446   0.953   3.004   0.049
 9516SOL    HW129447   1.011   3.042   6.994
 9516SOL    HW229448   1.011   2.971   0.123
 9517SOL     OW29449   0.790   6.860   2.333
 9517SOL    HW129450   0.799   6.811   2.246
 9517SOL    HW229451   0.866   6.925   2.342
 9518SOL     OW29452   6.669   0.186   1.405
 9518SOL    HW129453   6.722   0.103   1.389
 9518SOL    HW229454   6.672   0.243   1.323
 9519SOL     OW29455   1.488   2.844   5.387
 9519SOL    HW129456   1.555   2.911   5.418
 9519SOL    HW229457   1.494   2.834   5.288
 9520SOL     OW29458   4.195   6.511   2.259
 9520SOL    HW129459   4.180   6.597   2.211
 9520SOL    HW229460   4.112   6.455   2.254
 9521SOL     OW29461   6.035   4.874   3.221
 9521SOL    HW129462   6.039   4.838   3.128
 9521SOL    HW229463   5.952   4.843   3.266
 9522SOL     OW29464   3.464   5.156   5.516
 9522SOL    HW129465   3.458   5.203   5.428
 9522SOL    HW229466   3.390   5.089   5.522
 9523SOL     OW29467   1.557   0.100   4.971
 9523SOL    HW129468   1.569   0.061   4.879
 9523SOL    HW229469   1.459   0.098   4.995
 9524SOL     OW29470   6.474   3.623   0.325
 9524SOL    HW129471   6.461   3.556   0.398
 9524SOL    HW229472   6.562   3.670   0.339
 9525SOL     OW29473   4.195   0.063   4.562
 9525SOL    HW129474   4.289   0.073   4.594
 9525SOL    HW229475   4.164   6.987   4.576
 9526SOL     OW29476   4.769   5.221   0.278
 9526SOL    HW129477   4.682   5.235   0.325
 9526SOL    HW229478   4.774   5.283   0.199
 9527SOL     OW29479   6.807   1.234   0.327
 9527SOL    HW129480   6.774   1.260   0.418
 9527SOL    HW229481   6.884   1.172   0.336
 9528SOL     OW29482   5.485   1.258   1.688
 9528SOL    HW129483   5.390   1.241   1.716
 9528SOL    HW229484   5.540   1.278   1.769
 9529SOL     OW29485   1.798   2.772   5.588
 9529SOL    HW129486   1.802   2.857   5.640
 9529SOL    HW229487   1.805   2.792   5.490
 9530SOL     OW29488   2.525   1.624   3.645
 9530SOL    HW129489   2.439   1.592   3.604
 9530SOL    HW229490   2.589   1.650   3.573
 9531SOL     OW29491   2.478   6.082   3.639
 9531SOL    HW129492   2.541   6.133   3.581
 9531SOL    HW229493   2.485   5.984   3.618
 9532SOL     OW29494   3.450   1.160   1.235
 9532SOL    HW129495   3.439   1.063   1.217
 9532SOL    HW229496   3.386   1.189   1.306
 9533SOL     OW29497   0.232   1.854   4.145
 9533SOL    HW129498   0.216   1.844   4.243
 9533SOL    HW229499   0.322   1.818   4.122
 9534SOL     OW29500   5.107   1.053   4.083
 9534SOL    HW129501   5.022   1.008   4.054
 9534SOL    HW229502   5.095   1.152   4.080
 9535SOL     OW29503   3.061   1.518   4.867
 9535SOL    HW129504   3.075   1.419   4.871
 9535SOL    HW229505   3.009   1.542   4.785
 9536SOL     OW29506   1.967   5.269   6.807
 9536SOL    HW129507   2.050   5.323   6.823
 9536SOL    HW229508   1.988   5.172   6.818
 9537SOL     OW29509   2.179   0.627   0.409
 9537SOL    HW129510   2.095   0.592   0.451
 9537SOL    HW229511   2.258   0.585   0.453
 9538SOL     OW29512   5.791   4.064   3.038
 9538SOL    HW129513   5.889   4.074   3.056
 9538SOL    HW229514   5.752   4.153   3.014
 9539SOL     OW29515   0.917   3.347   6.976
 9539SOL    HW129516   0.929   3.292   0.040
 9539SOL    HW229517   1.007   3.375   6.941
 9540SOL     OW29518   5.714   3.211   5.203
 9540SOL    HW129519   5.803   3.170   5.221
 9540SOL    HW229520   5.677   3.249   5.288
 9541SOL     OW29521   6.264   1.838   3.124
 9541SOL    HW129522   6.298   1.835   3.030
 9541SOL    HW229523   6.190   1.906   3.130
 9542SOL     OW29524   5.152   3.660   4.576
 9542SOL    HW129525   5.231   3.603   4.552
 9542SOL    HW229526   5.119   3.635   4.667
 9543SOL     OW29527   4.225   2.237   0.515
 9543SOL    HW129528   4.130   2.228   0.484
 9543SOL    HW229529   4.226   2.270   0.609
 9544SOL     OW29530   4.868   0.263   1.575
 9544SOL    HW129531   4.884   0.177   1.623
 9544SOL    HW229532   4.882   0.339   1.638
 9545SOL     OW29533   1.439   0.095   4.405
 9545SOL    HW129534   1.407   0.038   4.328
 9545SOL    HW229535   1.367   0.158   4.431
 9546SOL     OW29536   3.184   3.766   1.891
 9546SOL    HW129537   3.161   3.844   1.833
 9546SOL    HW229538   3.124   3.764   1.970
 9547SOL     OW29539   5.552   6.490   2.446
 9547SOL    HW129540   5.615   6.504   2.522
 9547SOL    HW229541   5.540   6.576   2.396
 9548SOL     OW29542   6.184   6.570   1.884
 9548SOL    HW129543   6.271   6.534   1.850
 9548SOL    HW229544   6.110   6.545   1.822
 9549SOL     OW29545   1.882   5.999   0.078
 9549SOL    HW129546   1.873   6.086   0.029
 9549SOL    HW229547   1.886   6.016   0.176
 9550SOL     OW29548   1.931   0.579   0.524
 9550SOL    HW129549   1.886   0.533   0.600
 9550SOL    HW229550   1.882   0.560   0.439
 9551SOL     OW29551   1.317   5.576   4.593
 9551SOL    HW129552   1.252   5.500   4.590
 9551SOL    HW229553   1.408   5.541   4.618
 9552SOL     OW29554   6.951   5.430   2.818
 9552SOL    HW129555   6.991   5.521   2.821
 9552SOL    HW229556   6.857   5.436   2.783
 9553SOL     OW29557   5.380   4.658   6.627
 9553SOL    HW129558   5.300   4.687   6.680
 9553SOL    HW229559   5.352   4.596   6.555
 9554SOL     OW29560   1.506   2.579   1.518
 9554SOL    HW129561   1.551   2.495   1.548
 9554SOL    HW229562   1.419   2.589   1.567
 9555SOL     OW29563   0.478   2.300   6.622
 9555SOL    HW129564   0.388   2.256   6.630
 9555SOL    HW229565   0.466   2.399   6.614
 9556SOL     OW29566   5.842   0.186   1.694
 9556SOL    HW129567   5.799   0.172   1.783
 9556SOL    HW229568   5.932   0.143   1.693
 9557SOL     OW29569   4.806   1.843   1.643
 9557SOL    HW129570   4.794   1.852   1.544
 9557SOL    HW229571   4.904   1.840   1.664
 9558SOL     OW29572   0.129   4.204   1.483
 9558SOL    HW129573   0.186   4.154   1.418
 9558SOL    HW229574   0.072   4.140   1.535
 9559SOL     OW29575   0.686   4.826   3.522
 9559SOL    HW129576   0.703   4.728   3.517
 9559SOL    HW229577   0.670   4.853   3.617
 9560SOL     OW29578   3.455   2.102   5.984
 9560SOL    HW129579   3.526   2.155   6.030
 9560SOL    HW229580   3.478   2.090   5.888
 9561SOL     OW29581   3.528   5.246   6.649
 9561SOL    HW129582   3.463   5.220   6.720
 9561SOL    HW229583   3.543   5.345   6.653
 9562SOL     OW29584   6.424   5.398   4.182
 9562SOL    HW129585   6.487   5.321   4.178
 9562SOL    HW229586   6.474   5.483   4.168
 9563SOL     OW29587   0.667   0.873   6.059
 9563SOL    HW129588   0.658   0.786   6.010
 9563SOL    HW229589   0.660   0.949   5.995
 9564SOL     OW29590   0.351   0.465   5.924
 9564SOL    HW129591   0.364   0.391   5.858
 9564SOL    HW229592   0.354   0.427   6.017
 9565SOL     OW29593   2.548   5.198   4.981
 9565SOL    HW129594   2.472   5.133   4.977
 9565SOL    HW229595   2.562   5.228   5.075
 9566SOL     OW29596   2.013   5.555   4.831
 9566SOL    HW129597   2.108   5.564   4.801
 9566SOL    HW229598   1.992   5.460   4.851
 9567SOL     OW29599   6.192   5.675   4.025
 9567SOL    HW129600   6.180   5.762   3.976
 9567SOL    HW229601   6.190   5.692   4.123
 9568SOL     OW29602   5.950   3.404   5.172
 9568SOL    HW129603   5.862   3.451   5.175
 9568SOL    HW229604   5.956   3.340   5.249
 9569SOL     OW29605   5.229   0.324   1.301
 9569SOL    HW129606   5.328   0.322   1.287
 9569SOL    HW229607   5.203   0.251   1.365
 9570SOL     OW29608   0.153   3.284   6.698
 9570SOL    HW129609   0.233   3.299   6.640
 9570SOL    HW229610   0.089   3.222   6.653
 9571SOL     OW29611   3.176   1.660   0.734
 9571SOL    HW129612   3.136   1.666   0.826
 9571SOL    HW229613   3.241   1.735   0.722
 9572SOL     OW29614   0.490   3.030   0.872
 9572SOL    HW129615   0.419   2.970   0.910
 9572SOL    HW229616   0.500   3.011   0.775
 9573SOL     OW29617   4.623   1.786   2.048
 9573SOL    HW129618   4.565   1.867   2.046
 9573SOL    HW229619   4.566   1.704   2.060
 9574SOL     OW29620   1.965   1.716   3.899
 9574SOL    HW129621   2.061   1.714   3.871
 9574SOL    HW229622   1.907   1.683   3.825
 9575SOL     OW29623   3.469   1.789   2.809
 9575SOL    HW129624   3.403   1.750   2.746
 9575SOL    HW229625   3.424   1.859   2.865
 9576SOL     OW29626   4.429   3.329   5.856
 9576SOL    HW129627   4.375   3.353   5.937
 9576SOL    HW229628   4.372   3.275   5.793
 9577SOL     OW29629   0.404   5.358   3.335
 9577SOL    HW129630   0.315   5.387   3.300
 9577SOL    HW229631   0.456   5.439   3.363
 9578SOL     OW29632   6.758   4.552   1.045
 9578SOL    HW129633   6.805   4.566   1.132
 9578SOL    HW229634   6.686   4.621   1.034
 9579SOL     OW29635   1.454   4.672   2.314
 9579SOL    HW129636   1.379   4.647   2.252
 9579SOL    HW229637   1.444   4.622   2.400
 9580SOL     OW29638   3.876   4.028   5.020
 9580SOL    HW129639   3.810   4.062   5.087
 9580SOL    HW229640   3.835   4.029   4.929
 9581SOL     OW29641   0.665   7.002   6.805
 9581SOL    HW129642   0.675   0.018   6.711
 9581SOL    HW229643   0.570   6.974   6.820
 9582SOL     OW29644   4.396   5.685   3.127
 9582SOL    HW129645   4.381   5.610   3.063
 9582SOL    HW229646   4.469   5.661   3.190
 9583SOL     OW29647   1.419   4.700   3.015
 9583SOL    HW129648   1.407   4.609   3.056
 9583SOL    HW229649   1.359   4.765   3.062
 9584SOL     OW29650   5.181   4.643   6.861
 9584SOL    HW129651   5.095   4.593   6.846
 9584SOL    HW229652   5.243   4.587   6.916
 9585SOL     OW29653   6.225   0.932   2.674
 9585SOL    HW129654   6.153   0.961   2.611
 9585SOL    HW229655   6.314   0.962   2.639
 9586SOL     OW29656   4.153   4.669   2.520
 9586SOL    HW129657   4.251   4.667   2.541
 9586SOL    HW229658   4.125   4.582   2.481
 9587SOL     OW29659   4.444   6.730   1.752
 9587SOL    HW129660   4.529   6.756   1.705
 9587SOL    HW229661   4.443   6.631   1.767
 9588SOL     OW29662   6.409   1.338   3.456
 9588SOL    HW129663   6.392   1.354   3.359
 9588SOL    HW229664   6.467   1.411   3.492
 9589SOL     OW29665   3.798   1.890   5.183
 9589SOL    HW129666   3.890   1.854   5.202
 9589SOL    HW229667   3.732   1.816   5.193
 9590SOL     OW29668   0.287   5.069   5.120
 9590SOL    HW129669   0.361   5.073   5.053
 9590SOL    HW229670   0.302   4.992   5.181
 9591SOL     OW29671   0.038   4.964   2.024
 9591SOL    HW129672   6.994   4.985   1.949
 9591SOL    HW229673   0.048   4.865   2.033
 9592SOL     OW29674   4.288   5.054   0.747
 9592SOL    HW129675   4.347   4.977   0.773
 9592SOL    HW229676   4.251   5.096   0.829
 9593SOL     OW29677   2.044   2.626   3.616
 9593SOL    HW129678   1.975   2.653   3.549
 9593SOL    HW229679   2.117   2.576   3.569
 9594SOL     OW29680   5.604   0.114   0.670
 9594SOL    HW129681   5.653   0.109   0.583
 9594SOL    HW229682   5.653   0.174   0.733
 9595SOL     OW29683   2.331   4.723   5.398
 9595SOL    HW129684   2.307   4.626   5.394
 9595SOL    HW229685   2.419   4.734   5.443
 9596SOL     OW29686   5.451   4.870   2.362
 9596SOL    HW129687   5.426   4.774   2.376
 9596SOL    HW229688   5.373   4.928   2.387
 9597SOL     OW29689   1.145   3.937   1.642
 9597SOL    HW129690   1.215   3.998   1.681
 9597SOL    HW229691   1.076   3.917   1.712
 9598SOL     OW29692   0.190   6.047   5.169
 9598SOL    HW129693   0.243   6.016   5.090
 9598SOL    HW229694   0.141   6.131   5.147
 9599SOL     OW29695   3.778   2.058   5.753
 9599SOL    HW129696   3.681   2.077   5.740
 9599SOL    HW229697   3.790   1.961   5.772
 9600SOL     OW29698   1.643   5.515   6.871
 9600SOL    HW129699   1.737   5.524   6.903
 9600SOL    HW229700   1.632   5.426   6.827
 9601SOL     OW29701   0.977   0.339   4.829
 9601SOL    HW129702   1.065   0.370   4.792
 9601SOL    HW229703   0.975   0.356   4.928
 9602SOL     OW29704   0.798   5.714   6.001
 9602SOL    HW129705   0.846   5.755   6.078
 9602SOL    HW229706   0.862   5.701   5.925
 9603SOL     OW29707   1.703   5.021   2.122
 9603SOL    HW129708   1.634   4.979   2.181
 9603SOL    HW229709   1.784   4.963   2.119
 9604SOL     OW29710   6.213   0.373   5.847
 9604SOL    HW129711   6.190   0.468   5.827
 9604SOL    HW229712   6.311   0.365   5.865
 9605SOL     OW29713   3.393   4.659   0.663
 9605SOL    HW129714   3.419   4.575   0.712
 9605SOL    HW229715   3.330   4.712   0.719
 9606SOL     OW29716   6.896   1.858   4.431
 9606SOL    HW129717   6.919   1.925   4.360
 9606SOL    HW229718   6.958   1.780   4.424
 9607SOL     OW29719   6.605   2.955   3.297
 9607SOL    HW129720   6.528   2.999   3.250
 9607SOL    HW229721   6.673   2.926   3.230
 9608SOL     OW29722   5.888   1.022   1.273
 9608SOL    HW129723   5.814   1.083   1.245
 9608SOL    HW229724   5.855   0.928   1.276
 9609SOL     OW29725   0.827   2.282   3.750
 9609SOL    HW129726   0.800   2.330   3.833
 9609SOL    HW229727   0.751   2.227   3.716
 9610SOL     OW29728   5.004   1.649   6.256
 9610SOL    HW129729   5.038   1.577   6.316
 9610SOL    HW229730   4.945   1.711   6.308
 9611SOL     OW29731   5.153   5.547   1.311
 9611SOL    HW129732   5.209   5.465   1.324
 9611SOL    HW229733   5.199   5.625   1.354
 9612SOL     OW29734   4.858   3.716   3.326
 9612SOL    HW129735   4.836   3.729   3.423
 9612SOL    HW229736   4.849   3.803   3.278
 9613SOL     OW29737   4.780   1.192   4.989
 9613SOL    HW129738   4.786   1.222   4.894
 9613SOL    HW229739   4.686   1.167   5.010
 9614SOL     OW29740   3.570   2.817   6.899
 9614SOL    HW129741   3.487   2.767   6.875
 9614SOL    HW229742   3.592   2.884   6.828
 9615SOL     OW29743   6.677   6.312   3.707
 9615SOL    HW129744   6.604   6.334   3.772
 9615SOL    HW229745   6.737   6.243   3.747
 9616SOL     OW29746   0.057   2.017   0.999
 9616SOL    HW129747   0.052   2.071   1.083
 9616SOL    HW229748   0.054   2.079   0.920
 9617SOL     OW29749   0.845   3.717   3.579
 9617SOL    HW129750   0.809   3.677   3.663
 9617SOL    HW229751   0.798   3.679   3.500
 9618SOL     OW29752   5.624   4.198   1.933
 9618SOL    HW129753   5.564   4.118   1.927
 9618SOL    HW229754   5.587   4.262   2.000
 9619SOL     OW29755   1.533   1.368   1.210
 9619SOL    HW129756   1.484   1.336   1.129
 9619SOL    HW229757   1.553   1.466   1.200
 9620SOL     OW29758   3.232   1.452   6.078
 9620SOL    HW129759   3.212   1.451   5.980
 9620SOL    HW229760   3.200   1.539   6.117
 9621SOL     OW29761   6.648   0.663   0.558
 9621SOL    HW129762   6.645   0.653   0.658
 9621SOL    HW229763   6.578   0.604   0.517
 9622SOL     OW29764   6.684   0.434   4.830
 9622SOL    HW129765   6.716   0.364   4.766
 9622SOL    HW229766   6.584   0.431   4.836
 9623SOL     OW29767   2.074   5.935   6.169
 9623SOL    HW129768   2.018   5.965   6.246
 9623SOL    HW229769   2.104   5.841   6.184
 9624SOL     OW29770   3.671   4.860   6.424
 9624SOL    HW129771   3.626   4.947   6.407
 9624SOL    HW229772   3.705   4.857   6.518
 9625SOL     OW29773   5.195   4.325   6.046
 9625SOL    HW129774   5.139   4.368   6.117
 9625SOL    HW229775   5.289   4.315   6.080
 9626SOL     OW29776   2.909   2.737   6.793
 9626SOL    HW129777   2.949   2.663   6.847
 9626SOL    HW229778   2.862   2.801   6.853
 9627SOL     OW29779   6.664   5.589   6.989
 9627SOL    HW129780   6.611   5.657   6.940
 9627SOL    HW229781   6.649   5.599   0.070
 9628SOL     OW29782   6.024   1.734   5.239
 9628SOL    HW129783   5.951   1.796   5.211
 9628SOL    HW229784   6.071   1.772   5.318
 9629SOL     OW29785   0.657   5.604   4.120
 9629SOL    HW129786   0.744   5.566   4.150
 9629SOL    HW229787   0.616   5.543   4.052
 9630SOL     OW29788   6.151   0.404   5.537
 9630SOL    HW129789   6.240   0.384   5.577
 9630SOL    HW229790   6.113   0.487   5.580
 9631SOL     OW29791   4.410   6.131   0.230
 9631SOL    HW129792   4.392   6.179   0.144
 9631SOL    HW229793   4.454   6.043   0.211
 9632SOL     OW29794   2.763   5.578   2.740
 9632SOL    HW129795   2.806   5.522   2.810
 9632SOL    HW229796   2.777   5.675   2.762
 9633SOL     OW29797   2.778   2.943   5.614
 9633SOL    HW129798   2.704   2.876   5.619
 9633SOL    HW229799   2.764   3.004   5.536
 9634SOL     OW29800   6.036   4.876   3.589
 9634SOL    HW129801   6.107   4.867   3.659
 9634SOL    HW229802   6.034   4.971   3.556
 9635SOL     OW29803   0.851   5.408   4.214
 9635SOL    HW129804   0.800   5.419   4.300
 9635SOL    HW229805   0.948   5.423   4.231
 9636SOL     OW29806   4.906   3.761   3.602
 9636SOL    HW129807   4.910   3.674   3.653
 9636SOL    HW229808   4.899   3.837   3.667
 9637SOL     OW29809   3.362   2.645   6.880
 9637SOL    HW129810   3.312   2.629   6.965
 9637SOL    HW229811   3.300   2.684   6.812
 9638SOL     OW29812   0.903   4.578   6.408
 9638SOL    HW129813   0.807   4.550   6.400
 9638SOL    HW229814   0.931   4.574   6.504
 9639SOL     OW29815   5.706   2.647   1.840
 9639SOL    HW129816   5.778   2.595   1.886
 9639SOL    HW229817   5.680   2.601   1.755
 9640SOL     OW29818   3.237   6.762   3.443
 9640SOL    HW129819   3.157   6.704   3.455
 9640SOL    HW229820   3.277   6.783   3.533
 9641SOL     OW29821   1.038   2.408   4.496
 9641SOL    HW129822   0.973   2.461   4.551
 9641SOL    HW229823   1.100   2.470   4.449
 9642SOL     OW29824   0.506   2.953   4.449
 9642SOL    HW129825   0.483   3.048   4.430
 9642SOL    HW229826   0.442   2.893   4.401
 9643SOL     OW29827   6.465   5.494   4.574
 9643SOL    HW129828   6.458   5.404   4.617
 9643SOL    HW229829   6.490   5.562   4.644
 9644SOL     OW29830   0.777   4.573   3.544
 9644SOL    HW129831   0.729   4.486   3.544
 9644SOL    HW229832   0.796   4.601   3.638
 9645SOL     OW29833   0.322   4.863   0.163
 9645SOL    HW129834   0.291   4.818   0.079
 9645SOL    HW229835   0.422   4.861   0.167
 9646SOL     OW29836   2.554   4.872   0.688
 9646SOL    HW129837   2.460   4.840   0.693
 9646SOL    HW229838   2.555   4.971   0.672
 9647SOL     OW29839   5.384   6.774   2.863
 9647SOL    HW129840   5.345   6.845   2.805
 9647SOL    HW229841   5.471   6.744   2.824
 9648SOL     OW29842   3.836   2.348   0.689
 9648SOL    HW129843   3.869   2.388   0.603
 9648SOL    HW229844   3.909   2.351   0.757
 9649SOL     OW29845   0.229   5.871   0.440
 9649SOL    HW129846   0.200   5.775   0.444
 9649SOL    HW229847   0.300   5.882   0.371
 9650SOL     OW29848   6.988   5.443   5.213
 9650SOL    HW129849   6.908   5.487   5.171
 9650SOL    HW229850   0.016   5.386   5.145
 9651SOL     OW29851   3.447   1.071   0.431
 9651SOL    HW129852   3.467   1.158   0.385
 9651SOL    HW229853   3.353   1.071   0.464
 9652SOL     OW29854   0.108   4.194   6.879
 9652SOL    HW129855   0.186   4.195   6.942
 9652SOL    HW229856   0.137   4.225   6.789
 9653SOL     OW29857   6.035   3.766   4.634
 9653SOL    HW129858   6.115   3.798   4.685
 9653SOL    HW229859   6.057   3.680   4.589
 9654SOL     OW29860   3.993   3.262   4.748
 9654SOL    HW129861   4.071   3.283   4.689
 9654SOL    HW229862   3.927   3.206   4.698
 9655SOL     OW29863   4.642   0.606   0.757
 9655SOL    HW129864   4.723   0.595   0.699
 9655SOL    HW229865   4.670   0.619   0.852
 9656SOL     OW29866   5.008   4.502   5.349
 9656SOL    HW129867   4.966   4.416   5.318
 9656SOL    HW229868   5.106   4.489   5.361
 9657SOL     OW29869   5.205   5.179   2.298
 9657SOL    HW129870   5.258   5.151   2.378
 9657SOL    HW229871   5.155   5.263   2.320
 9658SOL     OW29872   5.109   1.147   2.721
 9658SOL    HW129873   5.128   1.216   2.652
 9658SOL    HW229874   5.154   1.171   2.807
 9659SOL     OW29875   4.127   3.459   0.506
 9659SOL    HW129876   4.038   3.485   0.544
 9659SOL    HW229877   4.156   3.526   0.438
 9660SOL     OW29878   2.868   0.139   1.877
 9660SOL    HW129879   2.902   0.210   1.816
 9660SOL    HW229880   2.776   0.112   1.848
 9661SOL     OW29881   3.591   4.118   2.323
 9661SOL    HW129882   3.665   4.124   2.256
 9661SOL    HW229883   3.628   4.139   2.414
 9662SOL     OW29884   3.979   0.594   4.904
 9662SOL    HW129885   3.995   0.532   4.827
 9662SOL    HW229886   4.067   0.616   4.947
 9663SOL     OW29887   1.169   5.777   2.412
 9663SOL    HW129888   1.166   5.870   2.377
 9663SOL    HW229889   1.263   5.753   2.436
 9664SOL     OW29890   1.701   4.390   2.776
 9664SOL    HW129891   1.716   4.309   2.833
 9664SOL    HW229892   1.725   4.472   2.828
 9665SOL     OW29893   5.809   3.674   6.445
 9665SOL    HW129894   5.784   3.742   6.513
 9665SOL    HW229895   5.876   3.713   6.382
 9666SOL     OW29896   5.395   3.898   1.112
 9666SOL    HW129897   5.310   3.934   1.073
 9666SOL    HW229898   5.456   3.974   1.134
 9667SOL     OW29899   5.980   6.408   0.257
 9667SOL    HW129900   5.951   6.482   0.318
 9667SOL    HW229901   6.031   6.340   0.310
 9668SOL     OW29902   2.074   0.179   0.698
 9668SOL    HW129903   2.071   0.160   0.600
 9668SOL    HW229904   2.078   0.278   0.713
 9669SOL     OW29905   3.591   0.585   0.945
 9669SOL    HW129906   3.573   0.683   0.932
 9669SOL    HW229907   3.550   0.534   0.870
 9670SOL     OW29908   0.636   0.068   2.718
 9670SOL    HW129909   0.653   0.076   2.817
 9670SOL    HW229910   0.545   0.103   2.697
 9671SOL     OW29911   0.765   6.077   6.379
 9671SOL    HW129912   0.681   6.032   6.411
 9671SOL    HW229913   0.834   6.074   6.451
 9672SOL     OW29914   0.420   4.568   4.797
 9672SOL    HW129915   0.471   4.483   4.793
 9672SOL    HW229916   0.322   4.548   4.796
 9673SOL     OW29917   2.185   2.926   5.906
 9673SOL    HW129918   2.125   2.848   5.884
 9673SOL    HW229919   2.144   3.010   5.871
 9674SOL     OW29920   1.693   6.914   3.812
 9674SOL    HW129921   1.766   6.872   3.867
 9674SOL    HW229922   1.721   7.006   3.785
 9675SOL     OW29923   6.426   4.037   6.175
 9675SOL    HW129924   6.525   4.038   6.185
 9675SOL    HW229925   6.385   3.987   6.251
 9676SOL     OW29926   0.819   2.955   6.390
 9676SOL    HW129927   0.754   2.934   6.463
 9676SOL    HW229928   0.912   2.954   6.426
 9677SOL     OW29929   0.613   4.622   2.948
 9677SOL    HW129930   0.576   4.579   3.031
 9677SOL    HW229931   0.702   4.582   2.926
 9678SOL     OW29932   5.093   3.550   6.800
 9678SOL    HW129933   5.062   3.495   6.878
 9678SOL    HW229934   5.161   3.498   6.748
 9679SOL     OW29935   1.719   1.197   4.330
 9679SOL    HW129936   1.630   1.227   4.363
 9679SOL    HW229937   1.709   1.154   4.240
 9680SOL     OW29938   4.425   6.415   2.162
 9680SOL    HW129939   4.328   6.425   2.185
 9680SOL    HW229940   4.480   6.469   2.227
 9681SOL     OW29941   0.896   2.450   1.053
 9681SOL    HW129942   0.913   2.437   1.150
 9681SOL    HW229943   0.846   2.536   1.040
 9682SOL     OW29944   3.641   6.632   5.544
 9682SOL    HW129945   3.598   6.718   5.517
 9682SOL    HW229946   3.664   6.580   5.462
 9683SOL     OW29947   3.381   5.792   3.599
 9683SOL    HW129948   3.304   5.806   3.537
 9683SOL    HW229949   3.407   5.695   3.599
 9684SOL     OW29950   1.372   2.569   6.023
 9684SOL    HW129951   1.316   2.486   6.019
 9684SOL    HW229952   1.442   2.566   5.952
 9685SOL     OW29953   3.771   4.743   1.627
 9685SOL    HW129954   3.704   4.715   1.696
 9685SOL    HW229955   3.845   4.675   1.624
 9686SOL     OW29956   0.713   1.778   5.874
 9686SOL    HW129957   0.619   1.792   5.906
 9686SOL    HW229958   0.753   1.699   5.920
 9687SOL     OW29959   5.813   0.515   4.294
 9687SOL    HW129960   5.901   0.499   4.339
 9687SOL    HW229961   5.820   0.491   4.197
 9688SOL     OW29962   0.463   5.087   2.517
 9688SOL    HW129963   0.369   5.076   2.483
 9688SOL    HW229964   0.491   5.005   2.567
 9689SOL     OW29965   1.835   5.689   1.161
 9689SOL    HW129966   1.855   5.593   1.183
 9689SOL    HW229967   1.879   5.749   1.228
 9690SOL     OW29968   5.920   4.758   3.896
 9690SOL    HW129969   5.979   4.681   3.874
 9690SOL    HW229970   5.847   4.728   3.958
 9691SOL     OW29971   4.107   3.815   2.089
 9691SOL    HW129972   4.102   3.730   2.142
 9691SOL    HW229973   4.166   3.881   2.137
 9692SOL     OW29974   6.400   5.503   0.188
 9692SOL    HW129975   6.410   5.520   0.090
 9692SOL    HW229976   6.390   5.405   0.204
 9693SOL     OW29977   4.745   3.288   6.817
 9693SOL    HW129978   4.695   3.375   6.807
 9693SOL    HW229979   4.829   3.305   6.868
 9694SOL     OW29980   2.789   6.459   1.134
 9694SOL    HW129981   2.884   6.478   1.107
 9694SOL    HW229982   2.753   6.384   1.079
 9695SOL     OW29983   1.839   2.643   3.390
 9695SOL    HW129984   1.897   2.724   3.379
 9695SOL    HW229985   1.743   2.669   3.386
 9696SOL     OW29986   4.884   3.977   3.277
 9696SOL    HW129987   4.976   4.001   3.247
 9696SOL    HW229988   4.866   4.021   3.365
 9697SOL     OW29989   6.654   0.081   2.482
 9697SOL    HW129990   6.605   0.050   2.563
 9697SOL    HW229991   6.748   0.047   2.485
 9698SOL     OW29992   6.875   2.998   0.991
 9698SOL    HW129993   6.788   3.042   0.967
 9698SOL    HW229994   6.860   2.935   1.067
 9699SOL     OW29995   1.457   6.688   2.069
 9699SOL    HW129996   1.446   6.733   1.980
 9699SOL    HW229997   1.388   6.616   2.079
 9700SOL     OW29998   5.883   0.763   5.857
 9700SOL    HW129999   5.798   0.729   5.897
 9700SOL    HW230000   5.882   0.863   5.856
 9701SOL     OW30001   5.966   4.065   6.544
 9701SOL    HW130002   5.881   4.054   6.492
 9701SOL    HW230003   5.979   4.161   6.567
 9702SOL     OW30004   2.859   3.513   1.929
 9702SOL    HW130005   2.956   3.490   1.934
 9702SOL    HW230006   2.809   3.465   2.002
 9703SOL     OW30007   6.748   4.462   2.928
 9703SOL    HW130008   6.814   4.387   2.940
 9703SOL    HW230009   6.782   4.543   2.976
 9704SOL     OW30010   1.076   5.127   2.219
 9704SOL    HW130011   1.061   5.225   2.207
 9704SOL    HW230012   1.155   5.099   2.165
 9705SOL     OW30013   0.140   3.957   5.461
 9705SOL    HW130014   0.146   3.861   5.431
 9705SOL    HW230015   0.230   3.986   5.495
 9706SOL     OW30016   0.369   0.168   2.697
 9706SOL    HW130017   0.329   0.198   2.783
 9706SOL    HW230018   0.312   0.098   2.655
 9707SOL     OW30019   1.229   4.913   1.357
 9707SOL    HW130020   1.329   4.922   1.359
 9707SOL    HW230021   1.204   4.817   1.343
 9708SOL     OW30022   2.782   0.950   1.907
 9708SOL    HW130023   2.770   0.928   2.004
 9708SOL    HW230024   2.873   0.922   1.878
 9709SOL     OW30025   3.743   1.490   2.598
 9709SOL    HW130026   3.810   1.478   2.525
 9709SOL    HW230027   3.735   1.587   2.621
 9710SOL     OW30028   5.035   4.400   4.159
 9710SOL    HW130029   4.935   4.394   4.159
 9710SOL    HW230030   5.063   4.496   4.165
 9711SOL     OW30031   3.600   0.320   6.722
 9711SOL    HW130032   3.640   0.249   6.664
 9711SOL    HW230033   3.596   0.406   6.671
 9712SOL     OW30034   4.588   6.874   5.544
 9712SOL    HW130035   4.677   6.918   5.532
 9712SOL    HW230036   4.564   6.824   5.461
 9713SOL     OW30037   0.612   0.660   3.137
 9713SOL    HW130038   0.627   0.587   3.071
 9713SOL    HW230039   0.633   0.627   3.229
 9714SOL     OW30040   2.271   2.996   4.171
 9714SOL    HW130041   2.329   3.055   4.227
 9714SOL    HW230042   2.250   2.912   4.223
 9715SOL     OW30043   0.297   1.631   6.650
 9715SOL    HW130044   0.212   1.641   6.598
 9715SOL    HW230045   0.341   1.544   6.627
 9716SOL     OW30046   1.625   6.427   0.682
 9716SOL    HW130047   1.705   6.372   0.657
 9716SOL    HW230048   1.578   6.456   0.598
 9717SOL     OW30049   4.620   1.825   6.075
 9717SOL    HW130050   4.545   1.819   6.141
 9717SOL    HW230051   4.676   1.742   6.082
 9718SOL     OW30052   2.855   2.515   6.324
 9718SOL    HW130053   2.811   2.429   6.348
 9718SOL    HW230054   2.901   2.552   6.405
 9719SOL     OW30055   4.073   6.894   5.391
 9719SOL    HW130056   3.988   6.865   5.347
 9719SOL    HW230057   4.056   6.916   5.487
 9720SOL     OW30058   2.212   2.287   1.886
 9720SOL    HW130059   2.245   2.209   1.940
 9720SOL    HW230060   2.113   2.282   1.878
 9721SOL     OW30061   0.346   1.912   1.190
 9721SOL    HW130062   0.276   1.882   1.255
 9721SOL    HW230063   0.365   1.838   1.125
 9722SOL     OW30064   3.394   2.845   5.619
 9722SOL    HW130065   3.486   2.831   5.656
 9722SOL    HW230066   3.331   2.867   5.694
 9723SOL     OW30067   6.043   1.320   4.656
 9723SOL    HW130068   6.131   1.273   4.661
 9723SOL    HW230069   5.994   1.308   4.743
 9724SOL     OW30070   1.503   4.982   1.684
 9724SOL    HW130071   1.445   5.057   1.652
 9724SOL    HW230072   1.449   4.920   1.741
 9725SOL     OW30073   5.369   5.747   4.543
 9725SOL    HW130074   5.353   5.843   4.567
 9725SOL    HW230075   5.466   5.726   4.550
 9726SOL     OW30076   0.073   0.118   3.437
 9726SOL    HW130077   0.046   0.076   3.524
 9726SOL    HW230078   0.079   0.047   3.366
 9727SOL     OW30079   6.200   2.810   1.032
 9727SOL    HW130080   6.235   2.819   0.939
 9727SOL    HW230081   6.101   2.800   1.030
 9728SOL     OW30082   5.092   1.692   5.494
 9728SOL    HW130083   5.121   1.708   5.589
 9728SOL    HW230084   5.153   1.740   5.432
 9729SOL     OW30085   6.895   3.930   2.624
 9729SOL    HW130086   6.848   3.842   2.635
 9729SOL    HW230087   6.987   3.914   2.590
 9730SOL     OW30088   0.867   5.815   3.557
 9730SOL    HW130089   0.911   5.905   3.547
 9730SOL    HW230090   0.775   5.818   3.520
 9731SOL     OW30091   6.120   1.517   1.519
 9731SOL    HW130092   6.216   1.536   1.540
 9731SOL    HW230093   6.064   1.594   1.549
 9732SOL     OW30094   6.876   2.524   3.058
 9732SOL    HW130095   6.798   2.587   3.062
 9732SOL    HW230096   6.853   2.446   3.001
 9733SOL     OW30097   5.411   5.847   6.963
 9733SOL    HW130098   5.416   5.923   6.899
 9733SOL    HW230099   5.461   5.870   0.029
 9734SOL     OW30100   3.856   3.651   0.113
 9734SOL    HW130101   3.783   3.583   0.102
 9734SOL    HW230102   3.924   3.639   0.041
 9735SOL     OW30103   1.165   1.777   0.070
 9735SOL    HW130104   1.207   1.780   0.160
 9735SOL    HW230105   1.212   1.709   0.014
 9736SOL     OW30106   5.420   2.695   6.432
 9736SOL    HW130107   5.414   2.778   6.488
 9736SOL    HW230108   5.423   2.615   6.491
 9737SOL     OW30109   5.120   3.485   5.307
 9737SOL    HW130110   5.145   3.467   5.402
 9737SOL    HW230111   5.193   3.452   5.247
 9738SOL     OW30112   2.368   5.982   1.628
 9738SOL    HW130113   2.368   6.081   1.642
 9738SOL    HW230114   2.383   5.962   1.531
 9739SOL     OW30115   5.459   6.263   1.038
 9739SOL    HW130116   5.480   6.242   1.133
 9739SOL    HW230117   5.455   6.179   0.985
 9740SOL     OW30118   6.681   0.546   0.845
 9740SOL    HW130119   6.775   0.511   0.842
 9740SOL    HW230120   6.619   0.481   0.800
 9741SOL     OW30121   2.494   2.573   2.825
 9741SOL    HW130122   2.579   2.550   2.872
 9741SOL    HW230123   2.472   2.501   2.758
 9742SOL     OW30124   4.542   0.230   6.646
 9742SOL    HW130125   4.453   0.203   6.683
 9742SOL    HW230126   4.589   0.150   6.611
 9743SOL     OW30127   5.939   3.719   4.256
 9743SOL    HW130128   5.881   3.645   4.291
 9743SOL    HW230129   6.017   3.680   4.208
 9744SOL     OW30130   1.580   2.956   1.606
 9744SOL    HW130131   1.623   3.047   1.611
 9744SOL    HW230132   1.504   2.951   1.670
 9745SOL     OW30133   1.248   6.786   5.793
 9745SOL    HW130134   1.312   6.733   5.849
 9745SOL    HW230135   1.218   6.866   5.844
 9746SOL     OW30136   3.363   5.884   5.852
 9746SOL    HW130137   3.364   5.818   5.776
 9746SOL    HW230138   3.455   5.918   5.868
 9747SOL     OW30139   4.721   1.543   3.286
 9747SOL    HW130140   4.724   1.539   3.386
 9747SOL    HW230141   4.648   1.606   3.258
 9748SOL     OW30142   0.535   2.249   1.829
 9748SOL    HW130143   0.491   2.230   1.917
 9748SOL    HW230144   0.534   2.166   1.773
 9749SOL     OW30145   6.624   0.033   1.751
 9749SOL    HW130146   6.716   0.071   1.739
 9749SOL    HW230147   6.561   0.081   1.690
 9750SOL     OW30148   5.762   2.400   4.528
 9750SOL    HW130149   5.664   2.383   4.542
 9750SOL    HW230150   5.790   2.481   4.580
 9751SOL     OW30151   3.022   5.039   1.007
 9751SOL    HW130152   3.118   5.065   0.997
 9751SOL    HW230153   3.009   4.947   0.971
 9752SOL     OW30154   4.297   3.873   0.688
 9752SOL    HW130155   4.230   3.918   0.628
 9752SOL    HW230156   4.263   3.872   0.782
 9753SOL     OW30157   6.481   6.599   3.160
 9753SOL    HW130158   6.498   6.516   3.106
 9753SOL    HW230159   6.436   6.574   3.245
 9754SOL     OW30160   3.585   0.339   2.002
 9754SOL    HW130161   3.591   0.240   2.002
 9754SOL    HW230162   3.632   0.376   1.922
 9755SOL     OW30163   2.917   4.279   1.211
 9755SOL    HW130164   2.895   4.233   1.125
 9755SOL    HW230165   2.849   4.254   1.280
 9756SOL     OW30166   4.510   7.001   0.163
 9756SOL    HW130167   4.431   0.032   0.126
 9756SOL    HW230168   4.556   6.950   0.091
 9757SOL     OW30169   5.129   4.078   3.783
 9757SOL    HW130170   5.134   4.159   3.842
 9757SOL    HW230171   5.221   4.045   3.764
 9758SOL     OW30172   3.230   1.127   1.410
 9758SOL    HW130173   3.256   1.046   1.462
 9758SOL    HW230174   3.130   1.133   1.407
 9759SOL     OW30175   6.520   1.653   0.914
 9759SOL    HW130176   6.473   1.585   0.970
 9759SOL    HW230177   6.496   1.637   0.818
 9760SOL     OW30178   5.056   1.182   6.145
 9760SOL    HW130179   5.015   1.093   6.126
 9760SOL    HW230180   5.115   1.175   6.226
 9761SOL     OW30181   0.877   2.765   1.462
 9761SOL    HW130182   0.940   2.722   1.397
 9761SOL    HW230183   0.851   2.698   1.532
 9762SOL     OW30184   3.353   1.079   5.658
 9762SOL    HW130185   3.416   1.116   5.590
 9762SOL    HW230186   3.279   1.031   5.612
 9763SOL     OW30187   5.896   2.132   0.901
 9763SOL    HW130188   5.904   2.041   0.860
 9763SOL    HW230189   5.982   2.154   0.948
 9764SOL     OW30190   0.502   2.544   3.675
 9764SOL    HW130191   0.481   2.630   3.628
 9764SOL    HW230192   0.574   2.559   3.743
 9765SOL     OW30193   6.426   2.254   0.592
 9765SOL    HW130194   6.513   2.204   0.596
 9765SOL    HW230195   6.433   2.337   0.648
 9766SOL     OW30196   0.603   3.033   2.804
 9766SOL    HW130197   0.540   2.969   2.849
 9766SOL    HW230198   0.568   3.126   2.814
 9767SOL     OW30199   3.934   1.704   4.873
 9767SOL    HW130200   4.025   1.720   4.834
 9767SOL    HW230201   3.878   1.787   4.862
 9768SOL     OW30202   4.885   3.046   6.694
 9768SOL    HW130203   4.837   3.106   6.630
 9768SOL    HW230204   4.819   2.989   6.742
 9769SOL     OW30205   3.196   0.933   5.495
 9769SOL    HW130206   3.243   0.857   5.540
 9769SOL    HW230207   3.259   0.977   5.431
 9770SOL     OW30208   1.814   3.481   5.348
 9770SOL    HW130209   1.911   3.458   5.352
 9770SOL    HW230210   1.802   3.567   5.299
 9771SOL     OW30211   3.213   0.611   1.664
 9771SOL    HW130212   3.127   0.660   1.653
 9771SOL    HW230213   3.250   0.628   1.756
 9772SOL     OW30214   0.560   1.154   1.631
 9772SOL    HW130215   0.470   1.171   1.670
 9772SOL    HW230216   0.551   1.118   1.539
 9773SOL     OW30217   4.612   6.227   2.113
 9773SOL    HW130218   4.595   6.213   2.016
 9773SOL    HW230219   4.557   6.304   2.146
 9774SOL     OW30220   1.315   5.304   5.237
 9774SOL    HW130221   1.363   5.222   5.269
 9774SOL    HW230222   1.288   5.360   5.316
 9775SOL     OW30223   1.734   1.073   3.297
 9775SOL    HW130224   1.673   0.994   3.301
 9775SOL    HW230225   1.705   1.142   3.364
 9776SOL     OW30226   1.259   5.715   1.632
 9776SOL    HW130227   1.183   5.744   1.691
 9776SOL    HW230228   1.308   5.639   1.676
 9777SOL     OW30229   4.463   2.118   5.137
 9777SOL    HW130230   4.504   2.125   5.228
 9777SOL    HW230231   4.374   2.073   5.144
 9778SOL     OW30232   1.549   3.097   2.879
 9778SOL    HW130233   1.556   3.030   2.805
 9778SOL    HW230234   1.463   3.085   2.928
 9779SOL     OW30235   2.000   1.093   2.541
 9779SOL    HW130236   2.033   1.171   2.593
 9779SOL    HW230237   2.053   1.012   2.567
 9780SOL     OW30238   1.795   1.905   1.002
 9780SOL    HW130239   1.766   1.962   1.078
 9780SOL    HW230240   1.851   1.829   1.036
 9781SOL     OW30241   1.453   1.170   2.142
 9781SOL    HW130242   1.368   1.180   2.090
 9781SOL    HW230243   1.499   1.258   2.148
 9782SOL     OW30244   0.139   2.353   6.831
 9782SOL    HW130245   0.231   2.350   6.793
 9782SOL    HW230246   0.144   2.359   6.931
 9783SOL     OW30247   4.874   1.444   2.101
 9783SOL    HW130248   4.783   1.468   2.133
 9783SOL    HW230249   4.873   1.353   2.060
 9784SOL     OW30250   2.315   1.318   0.214
 9784SOL    HW130251   2.244   1.318   0.285
 9784SOL    HW230252   2.347   1.411   0.199
 9785SOL     OW30253   1.554   3.699   4.562
 9785SOL    HW130254   1.592   3.787   4.536
 9785SOL    HW230255   1.550   3.639   4.483
 9786SOL     OW30256   3.281   4.086   0.054
 9786SOL    HW130257   3.263   4.168   7.017
 9786SOL    HW230258   3.262   4.106   0.150
 9787SOL     OW30259   2.733   3.141   1.219
 9787SOL    HW130260   2.722   3.237   1.191
 9787SOL    HW230261   2.785   3.136   1.304
 9788SOL     OW30262   2.760   6.940   3.237
 9788SOL    HW130263   2.785   6.936   3.140
 9788SOL    HW230264   2.685   6.877   3.254
 9789SOL     OW30265   4.354   1.765   6.983
 9789SOL    HW130266   4.277   1.783   0.027
 9789SOL    HW230267   4.328   1.791   6.890
 9790SOL     OW30268   4.533   5.899   4.971
 9790SOL    HW130269   4.513   5.917   4.875
 9790SOL    HW230270   4.452   5.861   5.016
 9791SOL     OW30271   0.435   0.941   1.131
 9791SOL    HW130272   0.478   0.925   1.042
 9791SOL    HW230273   0.336   0.947   1.118
 9792SOL     OW30274   3.335   3.254   0.394
 9792SOL    HW130275   3.427   3.249   0.433
 9792SOL    HW230276   3.270   3.279   0.466
 9793SOL     OW30277   5.668   0.932   1.617
 9793SOL    HW130278   5.671   0.862   1.545
 9793SOL    HW230279   5.572   0.952   1.640
 9794SOL     OW30280   4.245   5.918   5.046
 9794SOL    HW130281   4.297   6.002   5.035
 9794SOL    HW230282   4.199   5.919   5.134
 9795SOL     OW30283   1.804   3.838   3.128
 9795SOL    HW130284   1.723   3.783   3.151
 9795SOL    HW230285   1.837   3.812   3.037
 9796SOL     OW30286   4.031   3.553   5.135
 9796SOL    HW130287   4.064   3.628   5.079
 9796SOL    HW230288   4.026   3.582   5.231
 9797SOL     OW30289   3.581   5.449   0.339
 9797SOL    HW130290   3.599   5.359   0.378
 9797SOL    HW230291   3.651   5.471   0.271
 9798SOL     OW30292   0.366   4.008   6.334
 9798SOL    HW130293   0.334   3.914   6.320
 9798SOL    HW230294   0.349   4.062   6.252
 9799SOL     OW30295   3.452   0.009   6.503
 9799SOL    HW130296   3.435   6.994   6.410
 9799SOL    HW230297   3.535   0.064   6.505
 9800SOL     OW30298   0.003   4.293   4.589
 9800SOL    HW130299   7.002   4.257   4.680
 9800SOL    HW230300   6.962   4.372   4.571
 9801SOL     OW30301   3.967   6.597   0.743
 9801SOL    HW130302   3.914   6.580   0.660
 9801SOL    HW230303   4.026   6.677   0.728
 9802SOL     OW30304   4.094   2.549   0.297
 9802SOL    HW130305   4.101   2.509   0.205
 9802SOL    HW230306   4.075   2.647   0.288
 9803SOL     OW30307   2.849   3.758   0.385
 9803SOL    HW130308   2.939   3.739   0.348
 9803SOL    HW230309   2.816   3.846   0.350
 9804SOL     OW30310   1.245   3.694   2.676
 9804SOL    HW130311   1.219   3.772   2.618
 9804SOL    HW230312   1.168   3.633   2.687
 9805SOL     OW30313   0.004   4.702   4.957
 9805SOL    HW130314   0.072   4.769   4.929
 9805SOL    HW230315   6.987   4.725   5.048
 9806SOL     OW30316   3.424   1.419   0.086
 9806SOL    HW130317   3.348   1.418   0.021
 9806SOL    HW230318   3.502   1.372   0.045
 9807SOL     OW30319   3.548   3.380   4.749
 9807SOL    HW130320   3.463   3.366   4.801
 9807SOL    HW230321   3.626   3.368   4.810
 9808SOL     OW30322   2.509   6.005   2.510
 9808SOL    HW130323   2.506   5.912   2.474
 9808SOL    HW230324   2.438   6.060   2.467
 9809SOL     OW30325   6.704   3.313   1.241
 9809SOL    HW130326   6.614   3.295   1.279
 9809SOL    HW230327   6.708   3.282   1.146
 9810SOL     OW30328   4.098   2.842   1.142
 9810SOL    HW130329   4.022   2.780   1.163
 9810SOL    HW230330   4.070   2.904   1.068
 9811SOL     OW30331   5.123   3.492   4.174
 9811SOL    HW130332   5.108   3.551   4.095
 9811SOL    HW230333   5.047   3.502   4.238
 9812SOL     OW30334   2.835   5.100   6.802
 9812SOL    HW130335   2.765   5.070   6.738
 9812SOL    HW230336   2.904   5.028   6.813
 9813SOL     OW30337   4.589   0.556   1.897
 9813SOL    HW130338   4.559   0.539   1.991
 9813SOL    HW230339   4.535   0.500   1.834
 9814SOL     OW30340   6.793   1.354   6.378
 9814SOL    HW130341   6.715   1.291   6.383
 9814SOL    HW230342   6.792   1.402   6.290
 9815SOL     OW30343   5.501   2.361   4.543
 9815SOL    HW130344   5.446   2.308   4.609
 9815SOL    HW230345   5.461   2.452   4.532
 9816SOL     OW30346   3.326   0.720   6.942
 9816SOL    HW130347   3.345   0.784   7.017
 9816SOL    HW230348   3.412   0.680   6.910
 9817SOL     OW30349   6.360   0.136   1.318
 9817SOL    HW130350   6.356   0.223   1.368
 9817SOL    HW230351   6.369   0.061   1.384
 9818SOL     OW30352   3.832   2.430   5.303
 9818SOL    HW130353   3.760   2.373   5.344
 9818SOL    HW230354   3.838   2.517   5.353
 9819SOL     OW30355   2.520   0.595   2.020
 9819SOL    HW130356   2.520   0.646   1.934
 9819SOL    HW230357   2.579   0.515   2.012
 9820SOL     OW30358   4.044   2.779   6.989
 9820SOL    HW130359   3.985   2.832   6.926
 9820SOL    HW230360   4.098   2.843   0.026
 9821SOL     OW30361   0.680   6.318   6.471
 9821SOL    HW130362   0.716   6.259   6.399
 9821SOL    HW230363   0.695   6.275   6.560
 9822SOL     OW30364   0.226   1.218   2.511
 9822SOL    HW130365   0.149   1.278   2.529
 9822SOL    HW230366   0.194   1.124   2.499
 9823SOL     OW30367   3.279   6.504   2.246
 9823SOL    HW130368   3.331   6.589   2.247
 9823SOL    HW230369   3.329   6.434   2.194
 9824SOL     OW30370   2.262   3.963   5.408
 9824SOL    HW130371   2.321   4.026   5.458
 9824SOL    HW230372   2.293   3.957   5.313
 9825SOL     OW30373   4.215   4.630   5.378
 9825SOL    HW130374   4.148   4.703   5.366
 9825SOL    HW230375   4.174   4.542   5.354
 9826SOL     OW30376   5.757   0.068   5.481
 9826SOL    HW130377   5.738   0.012   5.400
 9826SOL    HW230378   5.698   0.038   5.556
 9827SOL     OW30379   1.236   5.353   4.857
 9827SOL    HW130380   1.157   5.383   4.910
 9827SOL    HW230381   1.216   5.361   4.759
 9828SOL     OW30382   2.729   1.615   0.303
 9828SOL    HW130383   2.662   1.599   0.230
 9828SOL    HW230384   2.820   1.623   0.263
 9829SOL     OW30385   3.094   3.963   1.680
 9829SOL    HW130386   3.169   4.029   1.680
 9829SOL    HW230387   3.050   3.962   1.590
 9830SOL     OW30388   5.657   1.224   1.259
 9830SOL    HW130389   5.651   1.256   1.164
 9830SOL    HW230390   5.719   1.282   1.311
 9831SOL     OW30391   6.603   6.285   1.549
 9831SOL    HW130392   6.617   6.230   1.467
 9831SOL    HW230393   6.547   6.364   1.527
 9832SOL     OW30394   3.198   3.609   0.683
 9832SOL    HW130395   3.220   3.698   0.723
 9832SOL    HW230396   3.118   3.571   0.729
 9833SOL     OW30397   4.740   4.638   0.004
 9833SOL    HW130398   4.741   4.553   6.969
 9833SOL    HW230399   4.658   4.640   0.062
 9834SOL     OW30400   1.971   2.944   3.895
 9834SOL    HW130401   1.956   2.938   3.993
 9834SOL    HW230402   2.037   3.018   3.876
 9835SOL     OW30403   5.034   1.864   4.223
 9835SOL    HW130404   5.060   1.876   4.318
 9835SOL    HW230405   4.957   1.800   4.217
 9836SOL     OW30406   5.846   5.213   1.593
 9836SOL    HW130407   5.846   5.272   1.674
 9836SOL    HW230408   5.859   5.270   1.511
 9837SOL     OW30409   2.798   5.576   5.740
 9837SOL    HW130410   2.848   5.644   5.794
 9837SOL    HW230411   2.706   5.608   5.722
 9838SOL     OW30412   6.871   6.697   5.103
 9838SOL    HW130413   6.883   6.720   5.200
 9838SOL    HW230414   6.936   6.750   5.048
 9839SOL     OW30415   5.836   2.962   3.184
 9839SOL    HW130416   5.868   2.938   3.276
 9839SOL    HW230417   5.910   3.008   3.135
 9840SOL     OW30418   5.708   0.072   0.428
 9840SOL    HW130419   5.631   0.122   0.389
 9840SOL    HW230420   5.705   6.995   0.397
 9841SOL     OW30421   2.018   2.942   4.644
 9841SOL    HW130422   2.092   2.875   4.650
 9841SOL    HW230423   2.031   2.999   4.563
 9842SOL     OW30424   3.184   3.090   4.234
 9842SOL    HW130425   3.218   3.149   4.306
 9842SOL    HW230426   3.101   3.129   4.194
 9843SOL     OW30427   6.042   4.570   3.095
 9843SOL    HW130428   6.047   4.642   3.025
 9843SOL    HW230429   6.114   4.503   3.079
 9844SOL     OW30430   4.703   0.290   1.904
 9844SOL    HW130431   4.716   0.357   1.976
 9844SOL    HW230432   4.639   0.325   1.836
 9845SOL     OW30433   1.362   1.634   4.066
 9845SOL    HW130434   1.427   1.644   4.142
 9845SOL    HW230435   1.328   1.724   4.039
 9846SOL     OW30436   2.964   3.244   4.121
 9846SOL    HW130437   2.987   3.306   4.196
 9846SOL    HW230438   2.891   3.284   4.066
 9847SOL     OW30439   2.449   4.444   3.809
 9847SOL    HW130440   2.358   4.437   3.851
 9847SOL    HW230441   2.465   4.366   3.749
 9848SOL     OW30442   6.753   4.423   0.029
 9848SOL    HW130443   6.794   4.370   6.972
 9848SOL    HW230444   6.735   4.362   0.107
 9849SOL     OW30445   6.706   6.429   5.314
 9849SOL    HW130446   6.621   6.474   5.340
 9849SOL    HW230447   6.740   6.374   5.390
 9850SOL     OW30448   5.270   0.475   3.861
 9850SOL    HW130449   5.341   0.405   3.855
 9850SOL    HW230450   5.280   0.540   3.786
 9851SOL     OW30451   5.271   2.448   5.564
 9851SOL    HW130452   5.252   2.486   5.473
 9851SOL    HW230453   5.198   2.385   5.589
 9852SOL     OW30454   5.325   1.702   4.155
 9852SOL    HW130455   5.275   1.783   4.122
 9852SOL    HW230456   5.385   1.669   4.082
 9853SOL     OW30457   0.765   5.333   1.035
 9853SOL    HW130458   0.694   5.282   0.986
 9853SOL    HW230459   0.735   5.349   1.129
 9854SOL     OW30460   3.474   6.614   3.936
 9854SOL    HW130461   3.533   6.690   3.906
 9854SOL    HW230462   3.429   6.574   3.856
 9855SOL     OW30463   2.258   4.159   1.103
 9855SOL    HW130464   2.182   4.147   1.166
 9855SOL    HW230465   2.241   4.106   1.020
 9856SOL     OW30466   3.936   3.743   0.825
 9856SOL    HW130467   3.896   3.813   0.767
 9856SOL    HW230468   4.022   3.776   0.864
 9857SOL     OW30469   6.286   4.411   3.104
 9857SOL    HW130470   6.297   4.355   3.022
 9857SOL    HW230471   6.340   4.372   3.178
 9858SOL     OW30472   2.919   1.201   1.758
 9858SOL    HW130473   2.928   1.297   1.784
 9858SOL    HW230474   3.008   1.156   1.761
 9859SOL     OW30475   0.280   6.637   1.233
 9859SOL    HW130476   0.214   6.588   1.290
 9859SOL    HW230477   0.363   6.654   1.286
 9860SOL     OW30478   1.173   0.906   2.601
 9860SOL    HW130479   1.258   0.959   2.610
 9860SOL    HW230480   1.127   0.903   2.689
 9861SOL     OW30481   2.706   6.329   3.793
 9861SOL    HW130482   2.641   6.402   3.817
 9861SOL    HW230483   2.744   6.290   3.877
 9862SOL     OW30484   0.079   1.750   0.956
 9862SOL    HW130485   0.068   1.849   0.964
 9862SOL    HW230486   0.177   1.727   0.958
 9863SOL     OW30487   4.342   0.461   0.481
 9863SOL    HW130488   4.410   0.531   0.501
 9863SOL    HW230489   4.371   0.409   0.401
 9864SOL     OW30490   3.984   5.884   3.432
 9864SOL    HW130491   4.065   5.850   3.480
 9864SOL    HW230492   3.989   5.984   3.424
 9865SOL     OW30493   1.770   3.508   4.134
 9865SOL    HW130494   1.866   3.525   4.112
 9865SOL    HW230495   1.763   3.424   4.189
 9866SOL     OW30496   2.954   4.850   3.453
 9866SOL    HW130497   3.018   4.845   3.376
 9866SOL    HW230498   2.862   4.867   3.418
 9867SOL     OW30499   3.509   6.294   6.320
 9867SOL    HW130500   3.566   6.373   6.342
 9867SOL    HW230501   3.564   6.211   6.321
 9868SOL     OW30502   1.472   5.002   5.910
 9868SOL    HW130503   1.474   4.920   5.967
 9868SOL    HW230504   1.528   5.074   5.952
 9869SOL     OW30505   1.402   4.741   2.741
 9869SOL    HW130506   1.445   4.830   2.726
 9869SOL    HW230507   1.392   4.725   2.840
 9870SOL     OW30508   4.347   5.540   1.245
 9870SOL    HW130509   4.317   5.457   1.291
 9870SOL    HW230510   4.433   5.522   1.197
 9871SOL     OW30511   2.002   2.746   5.790
 9871SOL    HW130512   2.057   2.669   5.758
 9871SOL    HW230513   1.981   2.807   5.713
 9872SOL     OW30514   1.371   3.752   2.966
 9872SOL    HW130515   1.459   3.799   2.969
 9872SOL    HW230516   1.347   3.731   2.871
 9873SOL     OW30517   1.949   1.712   1.118
 9873SOL    HW130518   1.892   1.644   1.073
 9873SOL    HW230519   2.045   1.692   1.099
 9874SOL     OW30520   1.179   3.985   4.689
 9874SOL    HW130521   1.234   3.958   4.610
 9874SOL    HW230522   1.083   3.993   4.662
 9875SOL     OW30523   1.403   1.201   3.266
 9875SOL    HW130524   1.366   1.207   3.173
 9875SOL    HW230525   1.419   1.105   3.290
 9876SOL     OW30526   6.795   5.805   2.230
 9876SOL    HW130527   6.804   5.811   2.329
 9876SOL    HW230528   6.699   5.795   2.205
 9877SOL     OW30529   4.061   0.352   1.351
 9877SOL    HW130530   3.996   0.277   1.363
 9877SOL    HW230531   4.096   0.379   1.440
 9878SOL     OW30532   6.356   1.121   5.135
 9878SOL    HW130533   6.436   1.110   5.194
 9878SOL    HW230534   6.294   1.045   5.149
 9879SOL     OW30535   4.900   5.410   5.090
 9879SOL    HW130536   4.808   5.372   5.078
 9879SOL    HW230537   4.894   5.510   5.094
 9880SOL     OW30538   1.209   2.337   3.872
 9880SOL    HW130539   1.167   2.426   3.851
 9880SOL    HW230540   1.255   2.302   3.791
 9881SOL     OW30541   0.642   1.334   5.863
 9881SOL    HW130542   0.574   1.276   5.908
 9881SOL    HW230543   0.732   1.316   5.903
 9882SOL     OW30544   1.941   2.485   3.184
 9882SOL    HW130545   1.899   2.541   3.255
 9882SOL    HW230546   1.998   2.543   3.126
 9883SOL     OW30547   2.865   1.517   2.603
 9883SOL    HW130548   2.876   1.616   2.598
 9883SOL    HW230549   2.897   1.475   2.518
 9884SOL     OW30550   3.549   0.730   3.783
 9884SOL    HW130551   3.498   0.805   3.741
 9884SOL    HW230552   3.573   0.662   3.713
 9885SOL     OW30553   6.245   3.113   4.812
 9885SOL    HW130554   6.194   3.187   4.768
 9885SOL    HW230555   6.255   3.037   4.747
 9886SOL     OW30556   0.077   2.966   1.448
 9886SOL    HW130557   0.012   3.042   1.444
 9886SOL    HW230558   0.081   2.930   1.541
 9887SOL     OW30559   4.636   6.292   5.890
 9887SOL    HW130560   4.714   6.342   5.852
 9887SOL    HW230561   4.562   6.291   5.823
 9888SOL     OW30562   6.057   4.557   5.617
 9888SOL    HW130563   6.030   4.647   5.652
 9888SOL    HW230564   5.980   4.516   5.568
 9889SOL     OW30565   0.520   5.824   0.797
 9889SOL    HW130566   0.620   5.824   0.807
 9889SOL    HW230567   0.478   5.834   0.888
 9890SOL     OW30568   0.639   2.635   0.762
 9890SOL    HW130569   0.682   2.665   0.848
 9890SOL    HW230570   0.541   2.627   0.775
 9891SOL     OW30571   5.205   1.203   2.097
 9891SOL    HW130572   5.224   1.300   2.081
 9891SOL    HW230573   5.240   1.177   2.187
 9892SOL     OW30574   0.942   0.014   6.713
 9892SOL    HW130575   0.871   0.024   6.783
 9892SOL    HW230576   0.975   0.104   6.685
 9893SOL     OW30577   2.346   1.027   0.310
 9893SOL    HW130578   2.366   1.100   0.245
 9893SOL    HW230579   2.253   0.993   0.294
 9894SOL     OW30580   1.870   0.910   1.495
 9894SOL    HW130581   1.790   0.970   1.493
 9894SOL    HW230582   1.928   0.934   1.573
 9895SOL     OW30583   4.469   3.057   5.358
 9895SOL    HW130584   4.429   3.036   5.448
 9895SOL    HW230585   4.424   3.138   5.320
 9896SOL     OW30586   6.303   6.704   5.693
 9896SOL    HW130587   6.207   6.713   5.667
 9896SOL    HW230588   6.359   6.767   5.638
 9897SOL     OW30589   5.247   4.986   4.848
 9897SOL    HW130590   5.163   4.955   4.803
 9897SOL    HW230591   5.239   5.084   4.868
 9898SOL     OW30592   2.676   0.244   6.828
 9898SOL    HW130593   2.761   0.298   6.830
 9898SOL    HW230594   2.697   0.150   6.803
 9899SOL     OW30595   6.948   4.847   7.009
 9899SOL    HW130596   6.889   4.876   0.067
 9899SOL    HW230597   6.912   4.882   6.923
 9900SOL     OW30598   2.338   4.313   3.149
 9900SOL    HW130599   2.296   4.273   3.068
 9900SOL    HW230600   2.272   4.373   3.194
 9901SOL     OW30601   1.998   3.342   5.610
 9901SOL    HW130602   2.069   3.401   5.572
 9901SOL    HW230603   1.958   3.288   5.536
 9902SOL     OW30604   2.607   4.420   0.800
 9902SOL    HW130605   2.556   4.406   0.884
 9902SOL    HW230606   2.604   4.336   0.745
 9903SOL     OW30607   5.587   1.426   5.294
 9903SOL    HW130608   5.674   1.377   5.293
 9903SOL    HW230609   5.548   1.427   5.202
 9904SOL     OW30610   6.084   1.910   0.316
 9904SOL    HW130611   6.171   1.959   0.319
 9904SOL    HW230612   6.022   1.949   0.384
 9905SOL     OW30613   4.800   0.448   0.267
 9905SOL    HW130614   4.892   0.483   0.251
 9905SOL    HW230615   4.799   0.349   0.255
 9906SOL     OW30616   3.121   3.508   4.763
 9906SOL    HW130617   3.069   3.531   4.846
 9906SOL    HW230618   3.070   3.441   4.710
 9907SOL     OW30619   1.543   6.608   1.740
 9907SOL    HW130620   1.448   6.602   1.710
 9907SOL    HW230621   1.594   6.531   1.703
 9908SOL     OW30622   5.232   3.852   1.847
 9908SOL    HW130623   5.206   3.947   1.827
 9908SOL    HW230624   5.163   3.790   1.811
 9909SOL     OW30625   2.014   0.122   4.939
 9909SOL    HW130626   1.966   0.081   5.017
 9909SOL    HW230627   1.983   0.078   4.854
 9910SOL     OW30628   6.921   4.653   3.933
 9910SOL    HW130629   6.976   4.655   4.016
 9910SOL    HW230630   6.825   4.669   3.956
 9911SOL     OW30631   2.366   6.415   2.224
 9911SOL    HW130632   2.274   6.385   2.200
 9911SOL    HW230633   2.431   6.343   2.200
 9912SOL     OW30634   4.640   1.071   6.084
 9912SOL    HW130635   4.550   1.081   6.041
 9912SOL    HW230636   4.642   0.988   6.138
 9913SOL     OW30637   5.257   3.156   0.599
 9913SOL    HW130638   5.209   3.124   0.517
 9913SOL    HW230639   5.246   3.255   0.607
 9914SOL     OW30640   6.667   3.231   4.577
 9914SOL    HW130641   6.732   3.179   4.522
 9914SOL    HW230642   6.703   3.323   4.593
 9915SOL     OW30643   4.620   1.281   3.481
 9915SOL    HW130644   4.677   1.216   3.531
 9915SOL    HW230645   4.526   1.275   3.512
 9916SOL     OW30646   1.424   3.004   1.123
 9916SOL    HW130647   1.359   2.932   1.145
 9916SOL    HW230648   1.503   2.998   1.184
 9917SOL     OW30649   6.014   4.539   5.272
 9917SOL    HW130650   6.020   4.625   5.323
 9917SOL    HW230651   6.020   4.462   5.335
 9918SOL     OW30652   4.867   3.178   2.486
 9918SOL    HW130653   4.917   3.236   2.422
 9918SOL    HW230654   4.815   3.109   2.436
 9919SOL     OW30655   5.308   5.622   0.300
 9919SOL    HW130656   5.255   5.704   0.324
 9919SOL    HW230657   5.314   5.561   0.379
 9920SOL     OW30658   4.579   1.327   2.635
 9920SOL    HW130659   4.565   1.262   2.560
 9920SOL    HW230660   4.660   1.383   2.616
 9921SOL     OW30661   4.079   5.054   6.146
 9921SOL    HW130662   4.129   5.022   6.066
 9921SOL    HW230663   3.987   5.014   6.146
 9922SOL     OW30664   6.930   6.192   1.197
 9922SOL    HW130665   6.849   6.240   1.230
 9922SOL    HW230666   6.906   6.134   1.119
 9923SOL     OW30667   5.766   4.379   0.582
 9923SOL    HW130668   5.716   4.447   0.528
 9923SOL    HW230669   5.725   4.371   0.673
 9924SOL     OW30670   1.565   4.227   4.335
 9924SOL    HW130671   1.541   4.171   4.414
 9924SOL    HW230672   1.564   4.171   4.252
 9925SOL     OW30673   4.826   2.388   4.385
 9925SOL    HW130674   4.827   2.289   4.400
 9925SOL    HW230675   4.919   2.425   4.393
 9926SOL     OW30676   3.553   5.021   1.364
 9926SOL    HW130677   3.652   5.026   1.351
 9926SOL    HW230678   3.519   5.110   1.395
 9927SOL     OW30679   5.249   0.124   4.054
 9927SOL    HW130680   5.184   0.192   4.021
 9927SOL    HW230681   5.314   0.168   4.116
 9928SOL     OW30682   5.002   4.123   2.399
 9928SOL    HW130683   5.067   4.184   2.354
 9928SOL    HW230684   5.049   4.041   2.431
 9929SOL     OW30685   0.766   4.267   3.249
 9929SOL    HW130686   0.704   4.285   3.325
 9929SOL    HW230687   0.729   4.192   3.193
 9930SOL     OW30688   5.845   0.864   2.943
 9930SOL    HW130689   5.833   0.866   3.042
 9930SOL    HW230690   5.941   0.846   2.921
 9931SOL     OW30691   1.319   5.258   5.885
 9931SOL    HW130692   1.384   5.333   5.893
 9931SOL    HW230693   1.369   5.172   5.875
 9932SOL     OW30694   0.699   6.017   4.649
 9932SOL    HW130695   0.668   6.011   4.554
 9932SOL    HW230696   0.781   6.075   4.654
 9933SOL     OW30697   0.014   6.641   2.896
 9933SOL    HW130698   0.034   6.553   2.938
 9933SOL    HW230699   0.099   6.691   2.883
 9934SOL     OW30700   0.071   2.378   4.816
 9934SOL    HW130701   0.083   2.283   4.846
 9934SOL    HW230702   0.148   2.433   4.849
 9935SOL     OW30703   2.158   0.307   5.905
 9935SOL    HW130704   2.225   0.259   5.960
 9935SOL    HW230705   2.066   0.285   5.938
 9936SOL     OW30706   1.664   4.122   3.727
 9936SOL    HW130707   1.743   4.101   3.784
 9936SOL    HW230708   1.666   4.219   3.703
 9937SOL     OW30709   6.573   2.166   5.776
 9937SOL    HW130710   6.511   2.093   5.807
 9937SOL    HW230711   6.665   2.147   5.811
 9938SOL     OW30712   6.843   6.317   2.940
 9938SOL    HW130713   6.939   6.344   2.951
 9938SOL    HW230714   6.796   6.327   3.027
 9939SOL     OW30715   3.656   2.917   3.665
 9939SOL    HW130716   3.632   3.013   3.651
 9939SOL    HW230717   3.619   2.885   3.752
 9940SOL     OW30718   0.218   1.413   0.834
 9940SOL    HW130719   0.279   1.406   0.912
 9940SOL    HW230720   0.212   1.325   0.787
 9941SOL     OW30721   3.472   5.959   4.536
 9941SOL    HW130722   3.405   5.925   4.470
 9941SOL    HW230723   3.461   5.910   4.623
 9942SOL     OW30724   2.719   5.836   4.228
 9942SOL    HW130725   2.795   5.776   4.205
 9942SOL    HW230726   2.746   5.931   4.212
 9943SOL     OW30727   0.622   6.744   4.895
 9943SOL    HW130728   0.646   6.840   4.909
 9943SOL    HW230729   0.705   6.690   4.887
 9944SOL     OW30730   1.959   4.577   6.306
 9944SOL    HW130731   1.867   4.537   6.306
 9944SOL    HW230732   1.957   4.664   6.256
 9945SOL     OW30733   0.138   5.948   6.456
 9945SOL    HW130734   0.157   5.975   6.362
 9945SOL    HW230735   0.187   6.010   6.518
 9946SOL     OW30736   5.505   0.395   4.044
 9946SOL    HW130737   5.529   0.429   4.135
 9946SOL    HW230738   5.526   0.465   3.976
 9947SOL     OW30739   6.038   4.511   3.979
 9947SOL    HW130740   6.130   4.550   3.976
 9947SOL    HW230741   5.995   4.535   4.066
 9948SOL     OW30742   5.368   3.995   3.445
 9948SOL    HW130743   5.365   4.088   3.481
 9948SOL    HW230744   5.278   3.952   3.455
 9949SOL     OW30745   6.450   4.994   2.047
 9949SOL    HW130746   6.415   4.907   2.083
 9949SOL    HW230747   6.398   5.069   2.086
 9950SOL     OW30748   3.835   6.055   0.334
 9950SOL    HW130749   3.917   6.046   0.392
 9950SOL    HW230750   3.821   6.151   0.311
 9951SOL     OW30751   6.214   2.999   2.919
 9951SOL    HW130752   6.225   3.011   2.820
 9951SOL    HW230753   6.138   3.056   2.950
 9952SOL     OW30754   0.327   4.470   6.190
 9952SOL    HW130755   0.427   4.475   6.182
 9952SOL    HW230756   0.287   4.558   6.161
 9953SOL     OW30757   5.581   3.283   3.871
 9953SOL    HW130758   5.490   3.243   3.867
 9953SOL    HW230759   5.579   3.376   3.832
 9954SOL     OW30760   4.630   0.597   5.449
 9954SOL    HW130761   4.662   0.514   5.405
 9954SOL    HW230762   4.531   0.607   5.435
 9955SOL     OW30763   0.483   4.707   4.267
 9955SOL    HW130764   0.490   4.638   4.340
 9955SOL    HW230765   0.515   4.795   4.302
 9956SOL     OW30766   1.135   6.123   0.560
 9956SOL    HW130767   1.165   6.117   0.655
 9956SOL    HW230768   1.049   6.073   0.550
 9957SOL     OW30769   5.797   5.347   2.559
 9957SOL    HW130770   5.846   5.434   2.566
 9957SOL    HW230771   5.744   5.346   2.474
 9958SOL     OW30772   3.071   4.440   0.777
 9958SOL    HW130773   3.077   4.400   0.685
 9958SOL    HW230774   3.050   4.538   0.769
 9959SOL     OW30775   3.191   4.384   1.137
 9959SOL    HW130776   3.275   4.332   1.122
 9959SOL    HW230777   3.116   4.321   1.157
 9960SOL     OW30778   0.645   1.156   2.328
 9960SOL    HW130779   0.611   1.180   2.237
 9960SOL    HW230780   0.622   1.230   2.392
 9961SOL     OW30781   2.204   3.991   4.550
 9961SOL    HW130782   2.201   3.955   4.457
 9961SOL    HW230783   2.169   3.922   4.614
 9962SOL     OW30784   5.846   6.395   4.325
 9962SOL    HW130785   5.854   6.471   4.389
 9962SOL    HW230786   5.931   6.386   4.273
 9963SOL     OW30787   3.152   2.304   0.338
 9963SOL    HW130788   3.119   2.219   0.379
 9963SOL    HW230789   3.149   2.296   0.238
 9964SOL     OW30790   5.850   6.571   4.568
 9964SOL    HW130791   5.946   6.593   4.587
 9964SOL    HW230792   5.802   6.556   4.654
 9965SOL     OW30793   5.273   6.659   1.442
 9965SOL    HW130794   5.275   6.700   1.533
 9965SOL    HW230795   5.288   6.561   1.449
 9966SOL     OW30796   6.510   1.184   2.939
 9966SOL    HW130797   6.578   1.132   2.990
 9966SOL    HW230798   6.547   1.274   2.915
 9967SOL     OW30799   0.987   5.421   0.332
 9967SOL    HW130800   0.918   5.490   0.309
 9967SOL    HW230801   1.004   5.363   0.252
 9968SOL     OW30802   4.072   3.241   3.519
 9968SOL    HW130803   4.018   3.314   3.559
 9968SOL    HW230804   4.023   3.154   3.526
 9969SOL     OW30805   1.744   3.361   1.040
 9969SOL    HW130806   1.646   3.378   1.030
 9969SOL    HW230807   1.759   3.295   1.114
 9970SOL     OW30808   6.552   4.495   2.394
 9970SOL    HW130809   6.454   4.503   2.412
 9970SOL    HW230810   6.591   4.422   2.449
 9971SOL     OW30811   2.706   6.825   6.941
 9971SOL    HW130812   2.727   6.897   6.875
 9971SOL    HW230813   2.654   6.752   6.896
 9972SOL     OW30814   6.922   4.881   1.708
 9972SOL    HW130815   6.898   4.974   1.736
 9972SOL    HW230816   0.003   4.875   1.690
 9973SOL     OW30817   5.298   6.305   3.654
 9973SOL    HW130818   5.280   6.298   3.752
 9973SOL    HW230819   5.379   6.252   3.631
 9974SOL     OW30820   2.471   0.830   4.160
 9974SOL    HW130821   2.375   0.846   4.182
 9974SOL    HW230822   2.480   0.745   4.108
 9975SOL     OW30823   6.841   4.108   0.950
 9975SOL    HW130824   6.899   4.059   0.886
 9975SOL    HW230825   6.830   4.203   0.919
 9976SOL     OW30826   2.947   6.390   4.328
 9976SOL    HW130827   2.955   6.307   4.383
 9976SOL    HW230828   3.024   6.393   4.263
 9977SOL     OW30829   6.762   4.952   4.100
 9977SOL    HW130830   6.751   4.887   4.024
 9977SOL    HW230831   6.846   4.932   4.150
 9978SOL     OW30832   6.811   3.139   4.191
 9978SOL    HW130833   6.821   3.159   4.094
 9978SOL    HW230834   6.898   3.152   4.238
 9979SOL     OW30835   1.037   3.606   5.062
 9979SOL    HW130836   1.068   3.697   5.035
 9979SOL    HW230837   0.978   3.568   4.990
 9980SOL     OW30838   2.804   6.639   5.014
 9980SOL    HW130839   2.850   6.726   5.031
 9980SOL    HW230840   2.858   6.565   5.054
 9981SOL     OW30841   3.719   2.103   3.277
 9981SOL    HW130842   3.674   2.186   3.243
 9981SOL    HW230843   3.653   2.028   3.277
 9982SOL     OW30844   6.381   6.809   2.804
 9982SOL    HW130845   6.437   6.891   2.800
 9982SOL    HW230846   6.310   6.813   2.733
 9983SOL     OW30847   6.738   0.674   1.211
 9983SOL    HW130848   6.800   0.612   1.163
 9983SOL    HW230849   6.680   0.720   1.145
 9984SOL     OW30850   3.331   0.410   6.498
 9984SOL    HW130851   3.426   0.422   6.527
 9984SOL    HW230852   3.275   0.481   6.540
 9985SOL     OW30853   1.569   1.623   1.243
 9985SOL    HW130854   1.637   1.652   1.309
 9985SOL    HW230855   1.558   1.693   1.173
 9986SOL     OW30856   5.172   4.183   4.295
 9986SOL    HW130857   5.172   4.165   4.394
 9986SOL    HW230858   5.086   4.225   4.269
 9987SOL     OW30859   0.123   4.063   5.204
 9987SOL    HW130860   0.200   4.004   5.178
 9987SOL    HW230861   0.104   4.051   5.301
 9988SOL     OW30862   6.656   1.109   4.147
 9988SOL    HW130863   6.721   1.175   4.184
 9988SOL    HW230864   6.563   1.132   4.178
 9989SOL     OW30865   1.612   2.441   4.926
 9989SOL    HW130866   1.580   2.535   4.933
 9989SOL    HW230867   1.663   2.416   5.009
 9990SOL     OW30868   1.187   4.636   1.296
 9990SOL    HW130869   1.238   4.699   1.237
 9990SOL    HW230870   1.169   4.551   1.246
 9991SOL     OW30871   4.104   2.168   3.420
 9991SOL    HW130872   4.100   2.205   3.328
 9991SOL    HW230873   4.012   2.147   3.452
 9992SOL     OW30874   6.410   5.026   6.168
 9992SOL    HW130875   6.481   5.013   6.099
 9992SOL    HW230876   6.374   5.119   6.161
 9993SOL     OW30877   1.330   0.671   2.060
 9993SOL    HW130878   1.271   0.731   2.115
 9993SOL    HW230879   1.385   0.728   1.998
 9994SOL     OW30880   6.176   4.049   3.292
 9994SOL    HW130881   6.180   4.025   3.389
 9994SOL    HW230882   6.268   4.076   3.260
 9995SOL     OW30883   5.381   1.879   4.387
 9995SOL    HW130884   5.360   1.820   4.308
 9995SOL    HW230885   5.455   1.941   4.363
 9996SOL     OW30886   3.094   2.916   0.774
 9996SOL    HW130887   3.085   2.878   0.866
 9996SOL    HW230888   3.186   2.953   0.762
 9997SOL     OW30889   2.595   0.735   4.377
 9997SOL    HW130890   2.546   0.783   4.304
 9997SOL    HW230891   2.647   0.801   4.431
 9998SOL     OW30892   6.241   6.338   4.899
 9998SOL    HW130893   6.192   6.302   4.820
 9998SOL    HW230894   6.251   6.266   4.967
 9999SOL     OW30895   0.354   0.994   4.945
 9999SOL    HW130896   0.396   0.994   5.035
 9999SOL    HW230897   0.364   0.904   4.903
10000SOL     OW30898   6.752   4.965   0.974
10000SOL    HW130899   6.730   4.937   1.068
10000SOL    HW230900   6.671   4.954   0.917
10001SOL     OW30901   3.509   0.395   3.550
10001SOL    HW130902   3.435   0.382   3.616
10001SOL    HW230903   3.549   0.486   3.563
10002SOL     OW30904   0.981   1.964   1.742
10002SOL    HW130905   0.988   1.953   1.643
10002SOL    HW230906   1.072   1.969   1.782
10003SOL     OW30907   5.410   4.291   1.506
10003SOL    HW130908   5.494   4.266   1.554
10003SOL    HW230909   5.430   4.360   1.437
10004SOL     OW30910   6.348   3.816   4.086
10004SOL    HW130911   6.392   3.747   4.143
10004SOL    HW230912   6.250   3.799   4.081
10005SOL     OW30913   4.826   0.254   3.530
10005SOL    HW130914   4.885   0.197   3.587
10005SOL    HW230915   4.861   0.254   3.436
10006SOL     OW30916   5.014   2.638   4.375
10006SOL    HW130917   5.076   2.596   4.309
10006SOL    HW230918   5.037   2.608   4.467
10007SOL     OW30919   5.039   5.625   3.749
10007SOL    HW130920   4.948   5.633   3.792
10007SOL    HW230921   5.103   5.685   3.797
10008SOL     OW30922   2.483   6.794   4.012
10008SOL    HW130923   2.528   6.877   3.980
10008SOL    HW230924   2.386   6.812   4.028
10009SOL     OW30925   2.028   4.251   1.766
10009SOL    HW130926   2.105   4.208   1.815
10009SOL    HW230927   2.055   4.342   1.737
10010SOL     OW30928   5.406   0.810   6.091
10010SOL    HW130929   5.327   0.826   6.032
10010SOL    HW230930   5.397   0.866   6.173
10011SOL     OW30931   6.771   6.741   3.799
10011SOL    HW130932   6.734   6.670   3.739
10011SOL    HW230933   6.707   6.817   3.804
10012SOL     OW30934   4.958   1.432   5.200
10012SOL    HW130935   4.903   1.388   5.271
10012SOL    HW230936   5.055   1.426   5.224
10013SOL     OW30937   1.257   0.430   1.215
10013SOL    HW130938   1.218   0.503   1.158
10013SOL    HW230939   1.268   0.348   1.159
10014SOL     OW30940   1.544   4.650   5.866
10014SOL    HW130941   1.546   4.701   5.952
10014SOL    HW230942   1.458   4.669   5.818
10015SOL     OW30943   2.737   5.779   6.005
10015SOL    HW130944   2.819   5.779   5.948
10015SOL    HW230945   2.658   5.808   5.950
10016SOL     OW30946   2.537   1.382   5.201
10016SOL    HW130947   2.482   1.309   5.161
10016SOL    HW230948   2.587   1.430   5.128
10017SOL     OW30949   6.501   1.953   3.211
10017SOL    HW130950   6.422   1.925   3.156
10017SOL    HW230951   6.581   1.900   3.181
10018SOL     OW30952   4.500   6.624   6.350
10018SOL    HW130953   4.482   6.697   6.415
10018SOL    HW230954   4.590   6.584   6.369
10019SOL     OW30955   1.071   0.789   3.642
10019SOL    HW130956   1.090   0.787   3.740
10019SOL    HW230957   1.104   0.875   3.603
10020SOL     OW30958   1.274   3.933   0.332
10020SOL    HW130959   1.195   3.986   0.361
10020SOL    HW230960   1.318   3.979   0.255
10021SOL     OW30961   4.810   3.131   1.177
10021SOL    HW130962   4.896   3.143   1.128
10021SOL    HW230963   4.808   3.040   1.218
10022SOL     OW30964   2.109   1.087   5.966
10022SOL    HW130965   2.179   1.124   5.905
10022SOL    HW230966   2.137   1.099   6.061
10023SOL     OW30967   0.557   3.277   0.212
10023SOL    HW130968   0.636   3.221   0.238
10023SOL    HW230969   0.551   3.356   0.273
10024SOL     OW30970   1.050   3.537   2.742
10024SOL    HW130971   1.001   3.578   2.819
10024SOL    HW230972   0.991   3.534   2.662
10025SOL     OW30973   1.126   1.861   0.902
10025SOL    HW130974   1.199   1.822   0.845
10025SOL    HW230975   1.046   1.802   0.896
10026SOL     OW30976   5.937   0.753   4.585
10026SOL    HW130977   6.003   0.806   4.532
10026SOL    HW230978   5.848   0.755   4.539
10027SOL     OW30979   5.879   2.710   5.852
10027SOL    HW130980   5.894   2.718   5.950
10027SOL    HW230981   5.846   2.618   5.831
10028SOL     OW30982   1.659   1.725   1.738
10028SOL    HW130983   1.607   1.800   1.696
10028SOL    HW230984   1.623   1.707   1.830
10029SOL     OW30985   3.874   1.322   4.213
10029SOL    HW130986   3.839   1.373   4.135
10029SOL    HW230987   3.968   1.351   4.233
10030SOL     OW30988   0.663   1.403   1.602
10030SOL    HW130989   0.596   1.467   1.637
10030SOL    HW230990   0.628   1.309   1.612
10031SOL     OW30991   0.356   5.328   3.016
10031SOL    HW130992   0.430   5.355   2.954
10031SOL    HW230993   0.356   5.388   3.096
10032SOL     OW30994   3.583   2.228   5.363
10032SOL    HW130995   3.593   2.155   5.431
10032SOL    HW230996   3.545   2.190   5.279
10033SOL     OW30997   6.024   2.760   3.923
10033SOL    HW130998   6.091   2.775   3.995
10033SOL    HW230999   5.965   2.840   3.915
10034SOL     OW31000   4.209   6.233   6.337
10034SOL    HW131001   4.225   6.295   6.260
10034SOL    HW231002   4.291   6.178   6.354
10035SOL     OW31003   0.659   6.366   4.380
10035SOL    HW131004   0.565   6.349   4.410
10035SOL    HW231005   0.711   6.405   4.456
10036SOL     OW31006   6.184   0.013   0.271
10036SOL    HW131007   6.134   0.098   0.288
10036SOL    HW231008   6.124   6.953   0.285
10037SOL     OW31009   0.020   6.833   1.247
10037SOL    HW131010   0.110   6.866   1.274
10037SOL    HW231011   0.029   6.742   1.207
10038SOL     OW31012   5.944   6.914   1.349
10038SOL    HW131013   5.995   6.866   1.421
10038SOL    HW231014   5.896   6.847   1.293
10039SOL     OW31015   4.011   0.963   3.066
10039SOL    HW131016   4.003   0.867   3.093
10039SOL    HW231017   4.105   0.994   3.081
10040SOL     OW31018   0.902   1.752   0.312
10040SOL    HW131019   0.971   1.798   0.256
10040SOL    HW231020   0.911   1.782   0.408
10041SOL     OW31021   0.612   6.707   0.094
10041SOL    HW131022   0.634   6.688   0.190
10041SOL    HW231023   0.513   6.719   0.084
10042SOL     OW31024   6.625   2.016   3.857
10042SOL    HW131025   6.722   1.991   3.860
10042SOL    HW231026   6.613   2.109   3.891
10043SOL     OW31027   2.539   3.229   5.412
10043SOL    HW131028   2.537   3.182   5.500
10043SOL    HW231029   2.584   3.171   5.344
10044SOL     OW31030   3.979   1.025   6.588
10044SOL    HW131031   4.073   1.051   6.612
10044SOL    HW231032   3.935   0.984   6.668
10045SOL     OW31033   2.434   0.440   1.445
10045SOL    HW131034   2.469   0.347   1.439
10045SOL    HW231035   2.346   0.440   1.491
10046SOL     OW31036   0.802   6.204   6.703
10046SOL    HW131037   0.869   6.273   6.675
10046SOL    HW231038   0.825   6.171   6.794
10047SOL     OW31039   1.519   4.146   1.075
10047SOL    HW131040   1.514   4.067   1.137
10047SOL    HW231041   1.590   4.209   1.107
10048SOL     OW31042   6.344   3.516   0.989
10048SOL    HW131043   6.355   3.436   1.047
10048SOL    HW231044   6.271   3.500   0.923
10049SOL     OW31045   6.664   2.083   4.618
10049SOL    HW131046   6.645   2.033   4.533
10049SOL    HW231047   6.601   2.161   4.624
10050SOL     OW31048   0.221   2.031   6.053
10050SOL    HW131049   0.274   2.004   5.972
10050SOL    HW231050   0.283   2.059   6.126
10051SOL     OW31051   1.628   0.476   2.869
10051SOL    HW131052   1.554   0.445   2.929
10051SOL    HW231053   1.596   0.550   2.811
10052SOL     OW31054   0.848   0.254   4.588
10052SOL    HW131055   0.892   0.279   4.675
10052SOL    HW231056   0.859   0.328   4.522
10053SOL     OW31057   5.972   5.167   2.113
10053SOL    HW131058   5.993   5.245   2.171
10053SOL    HW231059   6.002   5.083   2.158
10054SOL     OW31060   5.020   4.326   3.290
10054SOL    HW131061   4.923   4.338   3.269
10054SOL    HW231062   5.035   4.340   3.388
10055SOL     OW31063   2.021   1.748   6.986
10055SOL    HW131064   2.063   1.838   6.996
10055SOL    HW231065   2.089   1.677   7.007
10056SOL     OW31066   5.066   2.551   4.611
10056SOL    HW131067   5.054   2.464   4.657
10056SOL    HW231068   5.069   2.625   4.679
10057SOL     OW31069   5.633   4.385   4.595
10057SOL    HW131070   5.606   4.296   4.633
10057SOL    HW231071   5.551   4.441   4.582
10058SOL     OW31072   6.342   4.103   4.179
10058SOL    HW131073   6.257   4.098   4.230
10058SOL    HW231074   6.337   4.045   4.098
10059SOL     OW31075   5.375   6.018   6.018
10059SOL    HW131076   5.400   5.984   6.109
10059SOL    HW231077   5.392   6.116   6.013
10060SOL     OW31078   2.915   1.668   1.609
10060SOL    HW131079   2.871   1.703   1.691
10060SOL    HW231080   2.922   1.742   1.541
10061SOL     OW31081   4.166   0.051   3.286
10061SOL    HW131082   4.098   0.123   3.270
10061SOL    HW231083   4.178   7.015   3.203
10062SOL     OW31084   6.550   0.210   4.518
10062SOL    HW131085   6.513   0.303   4.508
10062SOL    HW231086   6.475   0.146   4.531
10063SOL     OW31087   4.333   2.370   3.224
10063SOL    HW131088   4.410   2.350   3.163
10063SOL    HW231089   4.366   2.385   3.317
10064SOL     OW31090   2.268   6.121   2.394
10064SOL    HW131091   2.234   6.193   2.333
10064SOL    HW231092   2.251   6.148   2.489
10065SOL     OW31093   6.246   1.829   1.643
10065SOL    HW131094   6.345   1.839   1.650
10065SOL    HW231095   6.217   1.842   1.549
10066SOL     OW31096   5.928   4.136   3.405
10066SOL    HW131097   5.998   4.124   3.335
10066SOL    HW231098   5.958   4.094   3.490
10067SOL     OW31099   5.386   3.464   5.270
10067SOL    HW131100   5.456   3.394   5.285
10067SOL    HW231101   5.411   3.519   5.190
10068SOL     OW31102   2.138   3.888   2.755
10068SOL    HW131103   2.215   3.947   2.731
10068SOL    HW231104   2.102   3.845   2.672
10069SOL     OW31105   2.856   5.263   1.472
10069SOL    HW131106   2.782   5.329   1.464
10069SOL    HW231107   2.841   5.188   1.407
10070SOL     OW31108   5.005   0.489   6.962
10070SOL    HW131109   4.968   0.569   7.010
10070SOL    HW231110   4.980   0.493   6.865
10071SOL     OW31111   5.180   1.359   4.970
10071SOL    HW131112   5.233   1.397   4.895
10071SOL    HW231113   5.093   1.324   4.935
10072SOL     OW31114   5.689   3.099   2.245
10072SOL    HW131115   5.688   3.009   2.288
10072SOL    HW231116   5.595   3.131   2.233
10073SOL     OW31117   5.559   5.554   5.169
10073SOL    HW131118   5.602   5.469   5.141
10073SOL    HW231119   5.468   5.535   5.206
10074SOL     OW31120   2.120   4.407   1.087
10074SOL    HW131121   2.158   4.315   1.098
10074SOL    HW231122   2.029   4.411   1.128
10075SOL     OW31123   0.786   3.463   1.300
10075SOL    HW131124   0.803   3.380   1.353
10075SOL    HW231125   0.721   3.521   1.350
10076SOL     OW31126   6.250   4.660   3.951
10076SOL    HW131127   6.304   4.635   3.871
10076SOL    HW231128   6.292   4.740   3.996
10077SOL     OW31129   4.022   3.661   6.918
10077SOL    HW131130   4.071   3.608   6.848
10077SOL    HW231131   4.069   3.748   6.932
10078SOL     OW31132   6.081   6.191   3.752
10078SOL    HW131133   5.995   6.242   3.765
10078SOL    HW231134   6.070   6.098   3.785
10079SOL     OW31135   6.458   4.685   2.949
10079SOL    HW131136   6.487   4.750   3.020
10079SOL    HW231137   6.529   4.677   2.880
10080SOL     OW31138   5.076   2.655   4.888
10080SOL    HW131139   5.059   2.576   4.946
10080SOL    HW231140   5.080   2.738   4.944
10081SOL     OW31141   1.860   5.060   0.802
10081SOL    HW131142   1.816   4.995   0.864
10081SOL    HW231143   1.797   5.082   0.727
10082SOL     OW31144   0.086   4.542   1.856
10082SOL    HW131145   0.113   4.523   1.762
10082SOL    HW231146   7.005   4.533   1.865
10083SOL     OW31147   3.380   5.902   2.988
10083SOL    HW131148   3.313   5.895   2.914
10083SOL    HW231149   3.352   5.844   3.064
10084SOL     OW31150   1.736   3.680   4.797
10084SOL    HW131151   1.836   3.686   4.788
10084SOL    HW231152   1.694   3.690   4.707
10085SOL     OW31153   3.451   6.647   1.986
10085SOL    HW131154   3.389   6.580   1.945
10085SOL    HW231155   3.503   6.604   2.059
10086SOL     OW31156   2.519   0.862   2.962
10086SOL    HW131157   2.453   0.799   2.921
10086SOL    HW231158   2.563   0.818   3.040
10087SOL     OW31159   1.416   5.550   6.477
10087SOL    HW131160   1.515   5.549   6.488
10087SOL    HW231161   1.382   5.643   6.494
10088SOL     OW31162   5.531   1.780   0.858
10088SOL    HW131163   5.465   1.800   0.930
10088SOL    HW231164   5.504   1.697   0.810
10089SOL     OW31165   3.696   6.490   3.164
10089SOL    HW131166   3.623   6.431   3.127
10089SOL    HW231167   3.671   6.520   3.256
10090SOL     OW31168   3.800   6.055   2.506
10090SOL    HW131169   3.813   6.035   2.410
10090SOL    HW231170   3.764   6.148   2.516
10091SOL     OW31171   4.745   6.435   3.171
10091SOL    HW131172   4.824   6.485   3.135
10091SOL    HW231173   4.676   6.425   3.099
10092SOL     OW31174   6.733   1.438   2.437
10092SOL    HW131175   6.687   1.465   2.352
10092SOL    HW231176   6.800   1.508   2.462
10093SOL     OW31177   4.508   4.198   6.342
10093SOL    HW131178   4.484   4.106   6.313
10093SOL    HW231179   4.572   4.239   6.277
10094SOL     OW31180   4.392   2.933   0.292
10094SOL    HW131181   4.450   2.861   0.329
10094SOL    HW231182   4.372   3.000   0.364
10095SOL     OW31183   4.229   2.673   5.420
10095SOL    HW131184   4.202   2.669   5.324
10095SOL    HW231185   4.272   2.586   5.446
10096SOL     OW31186   6.674   4.778   1.960
10096SOL    HW131187   6.663   4.839   1.883
10096SOL    HW231188   6.758   4.800   2.009
10097SOL     OW31189   0.826   0.956   1.281
10097SOL    HW131190   0.758   0.887   1.255
10097SOL    HW231191   0.912   0.938   1.233
10098SOL     OW31192   3.991   4.723   0.613
10098SOL    HW131193   3.940   4.809   0.621
10098SOL    HW231194   4.064   4.721   0.681
10099SOL     OW31195   6.987   6.211   3.428
10099SOL    HW131196   0.005   6.144   3.363
10099SOL    HW231197   6.976   6.168   3.518
10100SOL     OW31198   5.402   5.611   4.093
10100SOL    HW131199   5.430   5.558   4.172
10100SOL    HW231200   5.468   5.684   4.075
10101SOL     OW31201   6.648   2.085   6.075
10101SOL    HW131202   6.673   2.179   6.049
10101SOL    HW231203   6.731   2.030   6.083
10102SOL     OW31204   0.333   4.992   3.153
10102SOL    HW131205   0.354   5.087   3.177
10102SOL    HW231206   0.416   4.937   3.159
10103SOL     OW31207   0.337   0.797   6.923
10103SOL    HW131208   0.250   0.767   6.962
10103SOL    HW231209   0.389   0.718   6.892
10104SOL     OW31210   2.873   1.878   4.138
10104SOL    HW131211   2.861   1.891   4.236
10104SOL    HW231212   2.784   1.874   4.093
10105SOL     OW31213   3.529   1.655   4.086
10105SOL    HW131214   3.565   1.726   4.025
10105SOL    HW231215   3.432   1.640   4.066
10106SOL     OW31216   6.702   3.757   1.139
10106SOL    HW131217   6.675   3.854   1.133
10106SOL    HW231218   6.623   3.700   1.119
10107SOL     OW31219   4.717   5.625   5.490
10107SOL    HW131220   4.631   5.574   5.497
10107SOL    HW231221   4.790   5.574   5.535
10108SOL     OW31222   3.263   1.672   4.797
10108SOL    HW131223   3.193   1.605   4.822
10108SOL    HW231224   3.254   1.753   4.855
10109SOL     OW31225   1.213   3.191   0.385
10109SOL    HW131226   1.157   3.233   0.457
10109SOL    HW231227   1.292   3.146   0.426
10110SOL     OW31228   6.371   6.025   1.801
10110SOL    HW131229   6.297   6.026   1.734
10110SOL    HW231230   6.459   6.033   1.754
10111SOL     OW31231   6.130   2.517   1.677
10111SOL    HW131232   6.150   2.513   1.579
10111SOL    HW231233   6.057   2.452   1.699
10112SOL     OW31234   0.632   2.952   3.795
10112SOL    HW131235   0.684   3.010   3.857
10112SOL    HW231236   0.535   2.957   3.817
10113SOL     OW31237   6.810   6.963   6.281
10113SOL    HW131238   6.818   6.867   6.309
10113SOL    HW231239   6.749   6.970   6.202
10114SOL     OW31240   6.405   4.468   1.160
10114SOL    HW131241   6.310   4.438   1.149
10114SOL    HW231242   6.428   4.535   1.090
10115SOL     OW31243   2.720   1.679   6.630
10115SOL    HW131244   2.709   1.729   6.544
10115SOL    HW231245   2.812   1.696   6.666
10116SOL     OW31246   1.066   6.782   6.200
10116SOL    HW131247   0.986   6.741   6.244
10116SOL    HW231248   1.062   6.766   6.102
10117SOL     OW31249   0.913   4.431   1.222
10117SOL    HW131250   0.843   4.363   1.241
10117SOL    HW231251   0.869   4.516   1.193
10118SOL     OW31252   4.086   5.429   3.532
10118SOL    HW131253   4.125   5.433   3.439
10118SOL    HW231254   4.009   5.492   3.538
10119SOL     OW31255   5.727   5.839   6.901
10119SOL    HW131256   5.667   5.762   6.920
10119SOL    HW231257   5.759   5.879   6.987
10120SOL     OW31258   2.535   2.350   2.552
10120SOL    HW131259   2.446   2.307   2.571
10120SOL    HW231260   2.529   2.403   2.467
10121SOL     OW31261   6.570   5.693   2.058
10121SOL    HW131262   6.517   5.764   2.010
10121SOL    HW231263   6.514   5.611   2.069
10122SOL     OW31264   2.081   6.955   3.621
10122SOL    HW131265   1.997   6.905   3.638
10122SOL    HW231266   2.099   6.960   3.523
10123SOL     OW31267   6.045   6.664   6.574
10123SOL    HW131268   6.061   6.589   6.510
10123SOL    HW231269   6.116   6.663   6.645
10124SOL     OW31270   0.282   4.564   3.263
10124SOL    HW131271   0.286   4.621   3.345
10124SOL    HW231272   0.375   4.542   3.234
10125SOL     OW31273   2.182   2.736   4.254
10125SOL    HW131274   2.087   2.723   4.281
10125SOL    HW231275   2.216   2.654   4.208
10126SOL     OW31276   0.299   5.926   4.941
10126SOL    HW131277   0.209   5.901   4.904
10126SOL    HW231278   0.344   5.989   4.878
10127SOL     OW31279   2.847   0.465   4.930
10127SOL    HW131280   2.768   0.526   4.936
10127SOL    HW231281   2.843   0.415   4.844
10128SOL     OW31282   2.898   0.886   0.624
10128SOL    HW131283   2.956   0.863   0.702
10128SOL    HW231284   2.920   0.979   0.593
10129SOL     OW31285   6.837   2.022   5.806
10129SOL    HW131286   6.912   2.018   5.741
10129SOL    HW231287   6.799   1.930   5.818
10130SOL     OW31288   1.011   2.743   3.241
10130SOL    HW131289   1.068   2.747   3.159
10130SOL    HW231290   0.982   2.649   3.257
10131SOL     OW31291   2.624   0.700   4.901
10131SOL    HW131292   2.666   0.780   4.944
10131SOL    HW231293   2.538   0.727   4.859
10132SOL     OW31294   5.831   0.686   2.029
10132SOL    HW131295   5.798   0.687   2.123
10132SOL    HW231296   5.789   0.611   1.979
10133SOL     OW31297   4.868   5.501   1.328
10133SOL    HW131298   4.806   5.572   1.295
10133SOL    HW231299   4.962   5.532   1.322
10134SOL     OW31300   6.360   1.532   2.615
10134SOL    HW131301   6.309   1.499   2.695
10134SOL    HW231302   6.330   1.626   2.594
10135SOL     OW31303   6.634   6.923   3.340
10135SOL    HW131304   6.694   6.874   3.276
10135SOL    HW231305   6.672   7.013   3.360
10136SOL     OW31306   5.273   0.435   3.189
10136SOL    HW131307   5.327   0.370   3.136
10136SOL    HW231308   5.183   0.445   3.147
10137SOL     OW31309   6.014   5.858   2.462
10137SOL    HW131310   6.110   5.828   2.461
10137SOL    HW231311   6.006   5.945   2.510
10138SOL     OW31312   0.205   1.951   1.878
10138SOL    HW131313   0.182   1.931   1.974
10138SOL    HW231314   0.262   1.878   1.842
10139SOL     OW31315   4.184   2.569   0.968
10139SOL    HW131316   4.261   2.522   1.012
10139SOL    HW231317   4.147   2.637   1.032
10140SOL     OW31318   6.173   5.879   3.841
10140SOL    HW131319   6.147   5.846   3.750
10140SOL    HW231320   6.269   5.908   3.840
10141SOL     OW31321   1.299   1.902   5.196
10141SOL    HW131322   1.368   1.928   5.264
10141SOL    HW231323   1.231   1.975   5.188
10142SOL     OW31324   4.056   6.247   1.992
10142SOL    HW131325   4.006   6.162   1.974
10142SOL    HW231326   4.131   6.228   2.055
10143SOL     OW31327   0.284   3.100   6.834
10143SOL    HW131328   0.370   3.141   6.866
10143SOL    HW231329   0.239   3.163   6.772
10144SOL     OW31330   4.854   0.200   2.559
10144SOL    HW131331   4.894   0.284   2.523
10144SOL    HW231332   4.812   0.148   2.485
10145SOL     OW31333   6.403   0.788   5.194
10145SOL    HW131334   6.477   0.745   5.246
10145SOL    HW231335   6.416   0.772   5.096
10146SOL     OW31336   1.803   1.460   5.534
10146SOL    HW131337   1.868   1.476   5.460
10146SOL    HW231338   1.710   1.480   5.503
10147SOL     OW31339   4.153   4.600   0.307
10147SOL    HW131340   4.127   4.695   0.288
10147SOL    HW231341   4.200   4.596   0.395
10148SOL     OW31342   6.475   5.959   6.385
10148SOL    HW131343   6.477   5.952   6.285
10148SOL    HW231344   6.509   6.048   6.413
10149SOL     OW31345   3.650   2.898   4.394
10149SOL    HW131346   3.616   2.868   4.483
10149SOL    HW231347   3.572   2.917   4.334
10150SOL     OW31348   6.547   3.916   6.421
10150SOL    HW131349   6.632   3.967   6.409
10150SOL    HW231350   6.566   3.831   6.471
10151SOL     OW31351   0.133   0.272   6.997
10151SOL    HW131352   0.213   0.312   6.952
10151SOL    HW231353   0.098   0.197   6.941
10152SOL     OW31354   3.643   6.815   4.055
10152SOL    HW131355   3.711   6.824   4.129
10152SOL    HW231356   3.553   6.840   4.090
10153SOL     OW31357   4.478   4.416   0.846
10153SOL    HW131358   4.468   4.442   0.942
10153SOL    HW231359   4.409   4.349   0.821
10154SOL     OW31360   5.007   5.010   6.111
10154SOL    HW131361   5.024   4.941   6.182
10154SOL    HW231362   5.089   5.020   6.055
10155SOL     OW31363   4.790   2.566   4.966
10155SOL    HW131364   4.772   2.531   4.874
10155SOL    HW231365   4.770   2.664   4.970
10156SOL     OW31366   2.969   2.003   6.692
10156SOL    HW131367   3.042   1.962   6.637
10156SOL    HW231368   2.903   1.933   6.719
10157SOL     OW31369   0.500   5.897   2.420
10157SOL    HW131370   0.413   5.909   2.372
10157SOL    HW231371   0.575   5.921   2.358
10158SOL     OW31372   0.222   4.705   6.087
10158SOL    HW131373   0.140   4.747   6.126
10158SOL    HW231374   0.238   4.743   5.996
10159SOL     OW31375   3.848   3.199   1.666
10159SOL    HW131376   3.813   3.114   1.705
10159SOL    HW231377   3.942   3.215   1.699
10160SOL     OW31378   0.194   4.726   2.569
10160SOL    HW131379   0.167   4.678   2.486
10160SOL    HW231380   0.241   4.662   2.630
10161SOL     OW31381   6.614   2.447   0.463
10161SOL    HW131382   6.682   2.374   0.465
10161SOL    HW231383   6.620   2.496   0.376
10162SOL     OW31384   1.820   2.048   2.214
10162SOL    HW131385   1.794   2.013   2.304
10162SOL    HW231386   1.786   1.987   2.143
10163SOL     OW31387   3.882   5.410   4.789
10163SOL    HW131388   3.824   5.418   4.707
10163SOL    HW231389   3.839   5.348   4.854
10164SOL     OW31390   0.248   1.826   3.449
10164SOL    HW131391   0.329   1.790   3.496
10164SOL    HW231392   0.181   1.855   3.517
10165SOL     OW31393   2.131   3.154   3.832
10165SOL    HW131394   2.209   3.111   3.786
10165SOL    HW231395   2.079   3.207   3.765
10166SOL     OW31396   3.459   6.191   3.750
10166SOL    HW131397   3.512   6.122   3.699
10166SOL    HW231398   3.362   6.171   3.742
10167SOL     OW31399   3.874   1.414   0.470
10167SOL    HW131400   3.925   1.455   0.545
10167SOL    HW231401   3.900   1.318   0.461
10168SOL     OW31402   0.222   1.022   6.741
10168SOL    HW131403   0.264   0.948   6.793
10168SOL    HW231404   0.216   0.995   6.645
10169SOL     OW31405   4.645   5.032   2.779
10169SOL    HW131406   4.722   4.971   2.795
10169SOL    HW231407   4.594   5.001   2.698
10170SOL     OW31408   4.400   6.959   6.463
10170SOL    HW131409   4.402   6.890   6.535
10170SOL    HW231410   4.350   6.922   6.384
10171SOL     OW31411   1.400   4.414   3.076
10171SOL    HW131412   1.321   4.404   3.137
10171SOL    HW231413   1.475   4.356   3.108
10172SOL     OW31414   0.334   0.568   3.565
10172SOL    HW131415   0.245   0.573   3.609
10172SOL    HW231416   0.349   0.651   3.511
10173SOL     OW31417   4.371   2.348   4.445
10173SOL    HW131418   4.431   2.425   4.423
10173SOL    HW231419   4.351   2.350   4.543
10174SOL     OW31420   4.324   5.568   0.939
10174SOL    HW131421   4.401   5.531   0.990
10174SOL    HW231422   4.239   5.538   0.982
10175SOL     OW31423   0.018   6.604   4.486
10175SOL    HW131424   0.094   6.669   4.478
10175SOL    HW231425   0.041   6.520   4.437
10176SOL     OW31426   0.298   1.610   4.852
10176SOL    HW131427   0.304   1.672   4.773
10176SOL    HW231428   0.202   1.599   4.878
10177SOL     OW31429   3.016   0.469   5.269
10177SOL    HW131430   3.040   0.469   5.366
10177SOL    HW231431   2.982   0.379   5.242
10178SOL     OW31432   6.142   1.638   1.795
10178SOL    HW131433   6.177   1.720   1.751
10178SOL    HW231434   6.123   1.568   1.725
10179SOL     OW31435   6.685   5.742   1.063
10179SOL    HW131436   6.760   5.716   1.002
10179SOL    HW231437   6.712   5.725   1.158
10180SOL     OW31438   1.877   0.241   6.001
10180SOL    HW131439   1.781   0.258   5.981
10180SOL    HW231440   1.885   0.189   6.085
10181SOL     OW31441   0.505   3.753   2.294
10181SOL    HW131442   0.557   3.669   2.302
10181SOL    HW231443   0.547   3.824   2.352
10182SOL     OW31444   2.521   6.960   6.461
10182SOL    HW131445   2.511   6.984   6.365
10182SOL    HW231446   2.431   6.948   6.502
10183SOL     OW31447   3.651   6.040   6.826
10183SOL    HW131448   3.705   5.962   6.855
10183SOL    HW231449   3.555   6.026   6.852
10184SOL     OW31450   4.918   3.296   4.020
10184SOL    HW131451   5.012   3.266   4.002
10184SOL    HW231452   4.886   3.352   3.944
10185SOL     OW31453   3.004   4.656   1.663
10185SOL    HW131454   2.979   4.617   1.752
10185SOL    HW231455   3.014   4.582   1.596
10186SOL     OW31456   3.480   3.220   1.881
10186SOL    HW131457   3.462   3.314   1.909
10186SOL    HW231458   3.496   3.217   1.782
10187SOL     OW31459   1.246   3.369   4.929
10187SOL    HW131460   1.328   3.425   4.921
10187SOL    HW231461   1.166   3.429   4.933
10188SOL     OW31462   2.601   6.554   6.825
10188SOL    HW131463   2.671   6.501   6.873
10188SOL    HW231464   2.520   6.561   6.882
10189SOL     OW31465   1.991   1.779   5.396
10189SOL    HW131466   2.036   1.859   5.357
10189SOL    HW231467   1.892   1.790   5.388
10190SOL     OW31468   2.721   4.173   1.027
10190SOL    HW131469   2.652   4.193   1.097
10190SOL    HW231470   2.675   4.146   0.942
10191SOL     OW31471   6.214   0.297   0.013
10191SOL    HW131472   6.146   0.224   0.016
10191SOL    HW231473   6.203   0.356   0.093
10192SOL     OW31474   2.859   0.839   4.038
10192SOL    HW131475   2.874   0.782   4.119
10192SOL    HW231476   2.866   0.783   3.956
10193SOL     OW31477   3.873   3.829   3.808
10193SOL    HW131478   3.904   3.743   3.850
10193SOL    HW231479   3.932   3.851   3.731
10194SOL     OW31480   3.319   5.737   3.213
10194SOL    HW131481   3.246   5.731   3.281
10194SOL    HW231482   3.405   5.707   3.253
10195SOL     OW31483   5.510   0.018   2.554
10195SOL    HW131484   5.415   7.007   2.560
10195SOL    HW231485   5.516   0.107   2.508
10196SOL     OW31486   4.780   4.314   3.833
10196SOL    HW131487   4.826   4.402   3.832
10196SOL    HW231488   4.814   4.259   3.910
10197SOL     OW31489   5.675   1.669   2.344
10197SOL    HW131490   5.737   1.621   2.282
10197SOL    HW231491   5.699   1.649   2.439
10198SOL     OW31492   3.598   1.222   2.157
10198SOL    HW131493   3.632   1.167   2.081
10198SOL    HW231494   3.666   1.224   2.230
10199SOL     OW31495   1.501   1.919   6.908
10199SOL    HW131496   1.560   1.956   6.980
10199SOL    HW231497   1.548   1.844   6.862
10200SOL     OW31498   4.288   0.016   4.090
10200SOL    HW131499   4.346   0.037   4.011
10200SOL    HW231500   4.343   6.994   4.163
10201SOL     OW31501   0.568   5.424   2.877
10201SOL    HW131502   0.543   5.485   2.952
10201SOL    HW231503   0.570   5.476   2.791
10202SOL     OW31504   1.379   2.707   3.742
10202SOL    HW131505   1.416   2.789   3.786
10202SOL    HW231506   1.314   2.734   3.670
10203SOL     OW31507   6.394   2.368   1.376
10203SOL    HW131508   6.486   2.401   1.396
10203SOL    HW231509   6.328   2.441   1.390
10204SOL     OW31510   1.561   5.966   4.002
10204SOL    HW131511   1.566   6.066   3.998
10204SOL    HW231512   1.507   5.932   3.925
10205SOL     OW31513   3.838   6.838   1.529
10205SOL    HW131514   3.759   6.875   1.481
10205SOL    HW231515   3.818   6.744   1.557
10206SOL     OW31516   6.115   5.705   6.896
10206SOL    HW131517   6.075   5.775   6.836
10206SOL    HW231518   6.055   5.624   6.896
10207SOL     OW31519   3.538   1.471   2.081
10207SOL    HW131520   3.569   1.385   2.120
10207SOL    HW231521   3.504   1.455   1.988
10208SOL     OW31522   0.953   2.257   6.216
10208SOL    HW131523   0.911   2.289   6.131
10208SOL    HW231524   0.886   2.259   6.289
10209SOL     OW31525   4.037   6.096   0.500
10209SOL    HW131526   4.060   6.189   0.471
10209SOL    HW231527   4.119   6.040   0.500
10210SOL     OW31528   4.564   6.205   6.642
10210SOL    HW131529   4.643   6.158   6.683
10210SOL    HW231530   4.508   6.245   6.715
10211SOL     OW31531   4.208   4.915   4.437
10211SOL    HW131532   4.196   5.005   4.479
10211SOL    HW231533   4.199   4.844   4.508
10212SOL     OW31534   6.763   6.042   5.749
10212SOL    HW131535   6.838   5.979   5.770
10212SOL    HW231536   6.703   6.049   5.829
10213SOL     OW31537   3.234   0.180   4.605
10213SOL    HW131538   3.178   0.216   4.679
10213SOL    HW231539   3.331   0.183   4.631
10214SOL     OW31540   6.616   0.298   0.128
10214SOL    HW131541   6.572   0.249   0.203
10214SOL    HW231542   6.546   0.337   0.068
10215SOL     OW31543   4.794   2.300   0.210
10215SOL    HW131544   4.717   2.289   0.272
10215SOL    HW231545   4.840   2.387   0.229
10216SOL     OW31546   5.026   0.569   2.768
10216SOL    HW131547   4.931   0.599   2.756
10216SOL    HW231548   5.052   0.511   2.690
10217SOL     OW31549   2.722   1.857   6.393
10217SOL    HW131550   2.713   1.954   6.416
10217SOL    HW231551   2.774   1.847   6.308
10218SOL     OW31552   3.876   0.810   6.083
10218SOL    HW131553   3.884   0.711   6.076
10218SOL    HW231554   3.813   0.833   6.157
10219SOL     OW31555   6.958   5.434   0.975
10219SOL    HW131556   6.947   5.370   0.899
10219SOL    HW231557   6.892   5.412   1.047
10220SOL     OW31558   4.723   2.889   6.483
10220SOL    HW131559   4.738   2.871   6.580
10220SOL    HW231560   4.673   2.975   6.473
10221SOL     OW31561   1.967   6.918   5.134
10221SOL    HW131562   2.042   6.861   5.099
10221SOL    HW231563   1.882   6.892   5.088
10222SOL     OW31564   2.682   4.976   5.182
10222SOL    HW131565   2.725   5.048   5.236
10222SOL    HW231566   2.594   5.007   5.148
10223SOL     OW31567   2.592   5.844   5.768
10223SOL    HW131568   2.554   5.875   5.680
10223SOL    HW231569   2.520   5.798   5.820
10224SOL     OW31570   3.976   6.309   5.350
10224SOL    HW131571   3.954   6.345   5.441
10224SOL    HW231572   3.906   6.244   5.322
10225SOL     OW31573   4.545   0.538   5.111
10225SOL    HW131574   4.600   0.484   5.176
10225SOL    HW231575   4.587   0.629   5.101
10226SOL     OW31576   6.682   2.151   6.360
10226SOL    HW131577   6.669   2.157   6.261
10226SOL    HW231578   6.677   2.243   6.400
10227SOL     OW31579   4.404   4.841   5.341
10227SOL    HW131580   4.383   4.918   5.280
10227SOL    HW231581   4.415   4.874   5.434
10228SOL     OW31582   1.057   2.654   1.297
10228SOL    HW131583   1.144   2.630   1.339
10228SOL    HW231584   1.073   2.701   1.210
10229SOL     OW31585   2.798   0.579   2.009
10229SOL    HW131586   2.779   0.584   1.910
10229SOL    HW231587   2.829   0.669   2.041
10230SOL     OW31588   5.322   6.990   3.281
10230SOL    HW131589   5.262   6.935   3.223
10230SOL    HW231590   5.276   7.010   3.367
10231SOL     OW31591   5.077   0.061   4.845
10231SOL    HW131592   5.120   6.989   4.857
10231SOL    HW231593   4.987   0.060   4.888
10232SOL     OW31594   4.039   2.228   2.843
10232SOL    HW131595   4.137   2.226   2.822
10232SOL    HW231596   3.986   2.210   2.761
10233SOL     OW31597   5.277   6.781   5.373
10233SOL    HW131598   5.312   6.723   5.299
10233SOL    HW231599   5.340   6.777   5.450
10234SOL     OW31600   4.146   4.582   1.148
10234SOL    HW131601   4.196   4.497   1.130
10234SOL    HW231602   4.208   4.647   1.191
10235SOL     OW31603   4.999   6.973   6.680
10235SOL    HW131604   4.961   6.880   6.681
10235SOL    HW231605   4.929   0.020   6.651
10236SOL     OW31606   1.080   5.111   1.258
10236SOL    HW131607   0.995   5.120   1.310
10236SOL    HW231608   1.134   5.035   1.295
10237SOL     OW31609   5.698   2.252   2.447
10237SOL    HW131610   5.711   2.342   2.487
10237SOL    HW231611   5.607   2.217   2.471
10238SOL     OW31612   5.325   4.841   5.745
10238SOL    HW131613   5.417   4.877   5.756
10238SOL    HW231614   5.301   4.783   5.823
10239SOL     OW31615   5.583   4.016   3.926
10239SOL    HW131616   5.530   4.077   3.985
10239SOL    HW231617   5.543   4.016   3.834
10240SOL     OW31618   5.052   3.467   2.383
10240SOL    HW131619   5.019   3.477   2.477
10240SOL    HW231620   5.016   3.542   2.327
10241SOL     OW31621   1.168   2.457   2.420
10241SOL    HW131622   1.095   2.441   2.355
10241SOL    HW231623   1.253   2.476   2.371
10242SOL     OW31624   0.937   5.548   6.551
10242SOL    HW131625   0.956   5.631   6.603
10242SOL    HW231626   0.838   5.536   6.541
10243SOL     OW31627   6.841   5.770   3.884
10243SOL    HW131628   6.794   5.683   3.901
10243SOL    HW231629   6.814   5.805   3.795
10244SOL     OW31630   2.655   5.931   0.027
10244SOL    HW131631   2.683   5.915   0.122
10244SOL    HW231632   2.735   5.958   6.991
10245SOL     OW31633   4.165   3.839   0.938
10245SOL    HW131634   4.227   3.763   0.962
10245SOL    HW231635   4.157   3.900   1.017
10246SOL     OW31636   3.146   3.732   4.576
10246SOL    HW131637   3.111   3.655   4.630
10246SOL    HW231638   3.222   3.700   4.519
10247SOL     OW31639   1.093   5.346   6.616
10247SOL    HW131640   1.191   5.367   6.623
10247SOL    HW231641   1.043   5.429   6.590
10248SOL     OW31642   6.354   6.708   3.761
10248SOL    HW131643   6.369   6.693   3.859
10248SOL    HW231644   6.417   6.651   3.709
10249SOL     OW31645   4.473   1.542   5.733
10249SOL    HW131646   4.473   1.628   5.682
10249SOL    HW231647   4.490   1.559   5.829
10250SOL     OW31648   4.620   5.665   0.711
10250SOL    HW131649   4.523   5.642   0.706
10250SOL    HW231650   4.670   5.588   0.752
10251SOL     OW31651   3.869   4.591   1.202
10251SOL    HW131652   3.966   4.573   1.184
10251SOL    HW231653   3.841   4.675   1.156
10252SOL     OW31654   0.069   4.623   0.603
10252SOL    HW131655   0.046   4.603   0.507
10252SOL    HW231656   0.074   4.722   0.615
10253SOL     OW31657   5.267   4.300   0.260
10253SOL    HW131658   5.336   4.241   0.216
10253SOL    HW231659   5.312   4.361   0.324
10254SOL     OW31660   3.539   1.945   5.702
10254SOL    HW131661   3.473   1.966   5.630
10254SOL    HW231662   3.533   1.848   5.726
10255SOL     OW31663   3.005   4.844   3.891
10255SOL    HW131664   3.099   4.878   3.903
10255SOL    HW231665   2.941   4.905   3.938
10256SOL     OW31666   5.482   5.279   0.146
10256SOL    HW131667   5.523   5.211   0.207
10256SOL    HW231668   5.382   5.273   0.152
10257SOL     OW31669   1.765   4.371   4.507
10257SOL    HW131670   1.725   4.434   4.573
10257SOL    HW231671   1.692   4.324   4.458
10258SOL     OW31672   4.178   1.233   2.374
10258SOL    HW131673   4.139   1.198   2.288
10258SOL    HW231674   4.108   1.235   2.444
10259SOL     OW31675   5.732   3.227   3.621
10259SOL    HW131676   5.704   3.281   3.542
10259SOL    HW231677   5.688   3.263   3.703
10260SOL     OW31678   6.816   5.859   2.470
10260SOL    HW131679   6.745   5.848   2.539
10260SOL    HW231680   6.858   5.949   2.480
10261SOL     OW31681   1.897   0.221   2.285
10261SOL    HW131682   1.932   0.130   2.262
10261SOL    HW231683   1.838   0.253   2.211
10262SOL     OW31684   6.868   6.228   3.933
10262SOL    HW131685   6.839   6.323   3.947
10262SOL    HW231686   6.862   6.178   4.020
10263SOL     OW31687   6.583   4.025   4.843
10263SOL    HW131688   6.638   4.026   4.927
10263SOL    HW231689   6.511   3.955   4.851
10264SOL     OW31690   0.408   0.663   0.948
10264SOL    HW131691   0.340   0.664   0.874
10264SOL    HW231692   0.375   0.604   1.022
10265SOL     OW31693   5.351   2.214   4.709
10265SOL    HW131694   5.299   2.274   4.769
10265SOL    HW231695   5.355   2.122   4.749
10266SOL     OW31696   3.312   3.699   6.951
10266SOL    HW131697   3.296   3.752   6.867
10266SOL    HW231698   3.230   3.647   6.974
10267SOL     OW31699   6.992   0.904   6.231
10267SOL    HW131700   0.029   0.824   6.256
10267SOL    HW231701   6.982   0.964   6.311
10268SOL     OW31702   6.857   4.794   0.377
10268SOL    HW131703   6.932   4.731   0.356
10268SOL    HW231704   6.840   4.794   0.475
10269SOL     OW31705   4.507   1.799   5.678
10269SOL    HW131706   4.591   1.787   5.731
10269SOL    HW231707   4.482   1.896   5.677
10270SOL     OW31708   3.356   6.168   3.353
10270SOL    HW131709   3.317   6.242   3.408
10270SOL    HW231710   3.285   6.130   3.294
10271SOL     OW31711   1.366   4.739   1.116
10271SOL    HW131712   1.299   4.784   1.057
10271SOL    HW231713   1.427   4.682   1.061
10272SOL     OW31714   1.505   3.529   4.362
10272SOL    HW131715   1.447   3.453   4.333
10272SOL    HW231716   1.510   3.597   4.289
10273SOL     OW31717   4.647   6.929   4.030
10273SOL    HW131718   4.653   6.865   4.107
10273SOL    HW231719   4.729   6.923   3.974
10274SOL     OW31720   1.704   4.409   0.071
10274SOL    HW131721   1.631   4.404   0.003
10274SOL    HW231722   1.792   4.415   0.024
10275SOL     OW31723   0.012   5.773   1.977
10275SOL    HW131724   0.039   5.712   1.903
10275SOL    HW231725   6.951   5.828   1.949
10276SOL     OW31726   2.811   6.851   0.668
10276SOL    HW131727   2.768   6.847   0.578
10276SOL    HW231728   2.905   6.883   0.659
10277SOL     OW31729   6.245   5.475   1.935
10277SOL    HW131730   6.285   5.479   2.027
10277SOL    HW231731   6.311   5.510   1.868
10278SOL     OW31732   6.267   1.242   4.927
10278SOL    HW131733   6.293   1.339   4.931
10278SOL    HW231734   6.311   1.192   5.001
10279SOL     OW31735   3.925   6.504   4.176
10279SOL    HW131736   3.866   6.432   4.214
10279SOL    HW231737   3.894   6.526   4.084
10280SOL     OW31738   2.999   2.435   6.860
10280SOL    HW131739   2.932   2.444   6.933
10280SOL    HW231740   2.956   2.390   6.781
10281SOL     OW31741   4.497   1.187   4.368
10281SOL    HW131742   4.465   1.146   4.454
10281SOL    HW231743   4.510   1.285   4.381
10282SOL     OW31744   1.560   3.109   4.133
10282SOL    HW131745   1.491   3.044   4.101
10282SOL    HW231746   1.615   3.140   4.056
10283SOL     OW31747   1.722   5.296   6.713
10283SOL    HW131748   1.667   5.218   6.682
10283SOL    HW231749   1.792   5.264   6.777
10284SOL     OW31750   5.463   2.761   0.514
10284SOL    HW131751   5.390   2.714   0.464
10284SOL    HW231752   5.442   2.859   0.520
10285SOL     OW31753   4.934   1.385   0.566
10285SOL    HW131754   4.856   1.330   0.597
10285SOL    HW231755   4.955   1.361   0.471
10286SOL     OW31756   3.092   6.798   3.806
10286SOL    HW131757   3.100   6.701   3.780
10286SOL    HW231758   3.002   6.814   3.846
10287SOL     OW31759   1.838   3.737   2.360
10287SOL    HW131760   1.903   3.773   2.427
10287SOL    HW231761   1.888   3.692   2.286
10288SOL     OW31762   4.794   0.065   4.501
10288SOL    HW131763   4.886   0.103   4.496
10288SOL    HW231764   4.753   0.087   4.589
10289SOL     OW31765   2.411   1.686   2.503
10289SOL    HW131766   2.467   1.608   2.532
10289SOL    HW231767   2.392   1.679   2.405
10290SOL     OW31768   2.936   3.414   3.168
10290SOL    HW131769   2.981   3.375   3.248
10290SOL    HW231770   2.959   3.360   3.087
10291SOL     OW31771   3.858   0.254   3.459
10291SOL    HW131772   3.837   0.275   3.364
10291SOL    HW231773   3.957   0.261   3.474
10292SOL     OW31774   6.383   3.226   4.567
10292SOL    HW131775   6.358   3.315   4.604
10292SOL    HW231776   6.483   3.219   4.560
10293SOL     OW31777   1.707   4.673   3.226
10293SOL    HW131778   1.623   4.619   3.225
10293SOL    HW231779   1.777   4.624   3.278
10294SOL     OW31780   6.518   0.530   2.843
10294SOL    HW131781   6.470   0.453   2.799
10294SOL    HW231782   6.477   0.548   2.932
10295SOL     OW31783   1.563   4.212   3.152
10295SOL    HW131784   1.597   4.181   3.241
10295SOL    HW231785   1.627   4.186   3.080
10296SOL     OW31786   6.949   3.527   1.750
10296SOL    HW131787   6.917   3.546   1.658
10296SOL    HW231788   6.942   3.610   1.806
10297SOL     OW31789   3.628   4.500   5.865
10297SOL    HW131790   3.627   4.436   5.943
10297SOL    HW231791   3.561   4.573   5.881
10298SOL     OW31792   6.006   3.148   3.025
10298SOL    HW131793   5.966   3.214   2.961
10298SOL    HW231794   6.073   3.194   3.083
10299SOL     OW31795   4.439   4.840   2.316
10299SOL    HW131796   4.370   4.912   2.308
10299SOL    HW231797   4.424   4.771   2.246
10300SOL     OW31798   0.281   5.905   2.562
10300SOL    HW131799   0.365   5.904   2.509
10300SOL    HW231800   0.229   5.821   2.543
10301SOL     OW31801   4.381   1.146   2.043
10301SOL    HW131802   4.304   1.179   1.989
10301SOL    HW231803   4.391   1.203   2.125
10302SOL     OW31804   0.055   4.187   3.515
10302SOL    HW131805   0.080   4.219   3.424
10302SOL    HW231806   7.016   4.257   3.560
10303SOL     OW31807   4.836   3.626   0.982
10303SOL    HW131808   4.820   3.687   1.060
10303SOL    HW231809   4.914   3.568   1.001
10304SOL     OW31810   6.084   6.121   4.109
10304SOL    HW131811   6.132   6.075   4.184
10304SOL    HW231812   6.075   6.058   4.032
10305SOL     OW31813   1.444   5.140   1.187
10305SOL    HW131814   1.452   5.086   1.270
10305SOL    HW231815   1.536   5.160   1.152
10306SOL     OW31816   5.054   3.819   6.770
10306SOL    HW131817   5.140   3.867   6.782
10306SOL    HW231818   5.068   3.721   6.787
10307SOL     OW31819   3.057   2.403   6.019
10307SOL    HW131820   3.139   2.393   6.074
10307SOL    HW231821   3.039   2.500   6.003
10308SOL     OW31822   3.339   5.088   3.820
10308SOL    HW131823   3.299   5.038   3.743
10308SOL    HW231824   3.266   5.117   3.882
10309SOL     OW31825   0.144   6.458   4.104
10309SOL    HW131826   0.157   6.557   4.115
10309SOL    HW231827   0.122   6.438   4.009
10310SOL     OW31828   3.530   4.199   4.382
10310SOL    HW131829   3.440   4.160   4.402
10310SOL    HW231830   3.520   4.294   4.356
10311SOL     OW31831   1.573   0.297   0.683
10311SOL    HW131832   1.633   0.222   0.655
10311SOL    HW231833   1.495   0.303   0.621
10312SOL     OW31834   3.109   4.477   0.508
10312SOL    HW131835   3.204   4.449   0.519
10312SOL    HW231836   3.104   4.576   0.494
10313SOL     OW31837   6.541   5.562   3.389
10313SOL    HW131838   6.530   5.641   3.448
10313SOL    HW231839   6.450   5.528   3.362
10314SOL     OW31840   6.608   5.276   5.249
10314SOL    HW131841   6.570   5.191   5.284
10314SOL    HW231842   6.651   5.259   5.160
10315SOL     OW31843   4.175   5.569   5.181
10315SOL    HW131844   4.181   5.669   5.181
10315SOL    HW231845   4.187   5.535   5.274
10316SOL     OW31846   7.010   2.961   3.846
10316SOL    HW131847   6.998   2.903   3.926
10316SOL    HW231848   0.024   2.906   3.769
10317SOL     OW31849   6.121   3.957   6.007
10317SOL    HW131850   6.122   4.006   6.094
10317SOL    HW231851   6.214   3.925   5.986
10318SOL     OW31852   5.091   4.696   2.309
10318SOL    HW131853   5.054   4.782   2.344
10318SOL    HW231854   5.109   4.633   2.385
10319SOL     OW31855   6.144   6.659   3.410
10319SOL    HW131856   6.119   6.569   3.445
10319SOL    HW231857   6.131   6.728   3.482
10320SOL     OW31858   3.239   6.402   1.862
10320SOL    HW131859   3.213   6.426   1.769
10320SOL    HW231860   3.336   6.378   1.864
10321SOL     OW31861   4.791   6.557   5.371
10321SOL    HW131862   4.742   6.474   5.397
10321SOL    HW231863   4.770   6.580   5.276
10322SOL     OW31864   0.168   1.571   6.295
10322SOL    HW131865   0.172   1.660   6.340
10322SOL    HW231866   0.110   1.578   6.214
10323SOL     OW31867   0.276   1.955   5.066
10323SOL    HW131868   0.286   1.856   5.069
10323SOL    HW231869   0.365   1.997   5.048
10324SOL     OW31870   3.328   3.674   4.919
10324SOL    HW131871   3.306   3.771   4.925
10324SOL    HW231872   3.281   3.634   4.840
10325SOL     OW31873   0.650   3.242   3.822
10325SOL    HW131874   0.579   3.205   3.881
10325SOL    HW231875   0.682   3.329   3.859
10326SOL     OW31876   6.203   1.219   0.912
10326SOL    HW131877   6.258   1.201   0.994
10326SOL    HW231878   6.257   1.195   0.831
10327SOL     OW31879   6.329   1.992   3.900
10327SOL    HW131880   6.429   1.990   3.888
10327SOL    HW231881   6.289   2.062   3.842
10328SOL     OW31882   0.076   3.319   1.700
10328SOL    HW131883   0.124   3.340   1.615
10328SOL    HW231884   0.033   3.402   1.735
10329SOL     OW31885   2.355   5.649   2.639
10329SOL    HW131886   2.365   5.728   2.699
10329SOL    HW231887   2.435   5.643   2.579
10330SOL     OW31888   3.964   3.494   0.751
10330SOL    HW131889   3.991   3.432   0.825
10330SOL    HW231890   3.962   3.588   0.785
10331SOL     OW31891   4.897   2.130   4.442
10331SOL    HW131892   4.996   2.144   4.442
10331SOL    HW231893   4.868   2.100   4.533
10332SOL     OW31894   1.712   2.790   6.585
10332SOL    HW131895   1.638   2.800   6.651
10332SOL    HW231896   1.690   2.843   6.503
10333SOL     OW31897   6.795   4.460   5.159
10333SOL    HW131898   6.753   4.526   5.222
10333SOL    HW231899   6.888   4.439   5.190
10334SOL     OW31900   0.982   4.874   5.902
10334SOL    HW131901   0.899   4.927   5.914
10334SOL    HW231902   1.021   4.852   5.992
10335SOL     OW31903   2.769   5.122   2.832
10335SOL    HW131904   2.684   5.163   2.866
10335SOL    HW231905   2.755   5.089   2.739
10336SOL     OW31906   4.421   0.220   3.209
10336SOL    HW131907   4.374   0.151   3.264
10336SOL    HW231908   4.511   0.238   3.248
10337SOL     OW31909   1.452   3.253   5.635
10337SOL    HW131910   1.524   3.188   5.611
10337SOL    HW231911   1.438   3.252   5.734
10338SOL     OW31912   1.870   3.822   2.855
10338SOL    HW131913   1.848   3.787   2.764
10338SOL    HW231914   1.950   3.881   2.850
10339SOL     OW31915   3.505   6.388   6.616
10339SOL    HW131916   3.495   6.431   6.706
10339SOL    HW231917   3.597   6.404   6.581
10340SOL     OW31918   2.146   5.766   0.934
10340SOL    HW131919   2.109   5.707   1.006
10340SOL    HW231920   2.236   5.731   0.906
10341SOL     OW31921   6.880   2.701   1.565
10341SOL    HW131922   6.817   2.765   1.522
10341SOL    HW231923   6.954   2.752   1.609
10342SOL     OW31924   3.467   5.309   3.727
10342SOL    HW131925   3.549   5.312   3.784
10342SOL    HW231926   3.408   5.234   3.757
10343SOL     OW31927   2.932   2.189   4.410
10343SOL    HW131928   3.022   2.222   4.437
10343SOL    HW231929   2.867   2.204   4.484
10344SOL     OW31930   5.149   4.075   1.126
10344SOL    HW131931   5.124   4.168   1.152
10344SOL    HW231932   5.080   4.011   1.158
10345SOL     OW31933   2.803   2.178   6.338
10345SOL    HW131934   2.863   2.164   6.259
10345SOL    HW231935   2.858   2.185   6.421
10346SOL     OW31936   6.712   5.085   6.788
10346SOL    HW131937   6.716   5.171   6.839
10346SOL    HW231938   6.637   5.029   6.823
10347SOL     OW31939   3.956   6.559   2.438
10347SOL    HW131940   3.983   6.497   2.512
10347SOL    HW231941   3.949   6.507   2.352
10348SOL     OW31942   0.290   2.998   4.175
10348SOL    HW131943   0.275   2.913   4.225
10348SOL    HW231944   0.202   3.042   4.156
10349SOL     OW31945   6.010   1.786   0.076
10349SOL    HW131946   6.104   1.772   0.048
10349SOL    HW231947   6.009   1.827   0.168
10350SOL     OW31948   2.112   5.257   4.040
10350SOL    HW131949   2.189   5.319   4.054
10350SOL    HW231950   2.115   5.220   3.947
10351SOL     OW31951   4.121   5.868   5.305
10351SOL    HW131952   4.048   5.908   5.359
10351SOL    HW231953   4.203   5.859   5.361
10352SOL     OW31954   0.735   1.831   1.776
10352SOL    HW131955   0.818   1.879   1.746
10352SOL    HW231956   0.761   1.743   1.816
10353SOL     OW31957   5.480   2.559   3.556
10353SOL    HW131958   5.390   2.519   3.537
10353SOL    HW231959   5.547   2.524   3.491
10354SOL     OW31960   6.903   2.512   1.765
10354SOL    HW131961   7.001   2.495   1.781
10354SOL    HW231962   6.893   2.584   1.696
10355SOL     OW31963   6.349   1.872   0.633
10355SOL    HW131964   6.323   1.932   0.557
10355SOL    HW231965   6.442   1.837   0.618
10356SOL     OW31966   6.513   2.344   6.259
10356SOL    HW131967   6.424   2.306   6.287
10356SOL    HW231968   6.504   2.386   6.169
10357SOL     OW31969   0.298   6.567   6.580
10357SOL    HW131970   0.282   6.490   6.641
10357SOL    HW231971   0.381   6.551   6.527
10358SOL     OW31972   0.261   3.747   4.138
10358SOL    HW131973   0.262   3.651   4.110
10358SOL    HW231974   0.185   3.794   4.094
10359SOL     OW31975   1.013   2.566   1.898
10359SOL    HW131976   1.041   2.565   1.994
10359SOL    HW231977   0.993   2.472   1.868
10360SOL     OW31978   5.832   4.782   1.248
10360SOL    HW131979   5.811   4.750   1.341
10360SOL    HW231980   5.930   4.776   1.231
10361SOL     OW31981   5.898   1.876   3.693
10361SOL    HW131982   5.890   1.811   3.618
10361SOL    HW231983   5.837   1.953   3.678
10362SOL     OW31984   0.189   6.577   2.448
10362SOL    HW131985   0.119   6.613   2.385
10362SOL    HW231986   0.225   6.652   2.503
10363SOL     OW31987   5.098   5.210   6.282
10363SOL    HW131988   5.043   5.150   6.223
10363SOL    HW231989   5.113   5.166   6.370
10364SOL     OW31990   6.073   5.344   1.078
10364SOL    HW131991   6.069   5.267   1.142
10364SOL    HW231992   5.996   5.338   1.015
10365SOL     OW31993   6.119   6.182   6.478
10365SOL    HW131994   6.122   6.089   6.515
10365SOL    HW231995   6.185   6.239   6.526
10366SOL     OW31996   2.375   0.198   3.313
10366SOL    HW131997   2.438   0.203   3.235
10366SOL    HW231998   2.325   0.284   3.322
10367SOL     OW31999   4.106   5.701   2.339
10367SOL    HW132000   4.183   5.737   2.393
10367SOL    HW232001   4.124   5.714   2.242
10368SOL     OW32002   1.292   5.595   2.109
10368SOL    HW132003   1.315   5.596   2.206
10368SOL    HW232004   1.375   5.587   2.054
10369SOL     OW32005   2.688   0.976   5.792
10369SOL    HW132006   2.656   0.978   5.698
10369SOL    HW232007   2.616   0.938   5.851
10370SOL     OW32008   2.263   2.127   6.673
10370SOL    HW132009   2.180   2.094   6.627
10370SOL    HW232010   2.276   2.224   6.651
10371SOL     OW32011   3.872   5.313   2.481
10371SOL    HW132012   3.944   5.294   2.548
10371SOL    HW232013   3.805   5.239   2.482
10372SOL     OW32014   1.078   6.277   1.330
10372SOL    HW132015   1.086   6.195   1.273
10372SOL    HW232016   1.144   6.272   1.404
10373SOL     OW32017   6.605   0.985   5.430
10373SOL    HW132018   6.586   1.000   5.527
10373SOL    HW232019   6.577   0.892   5.405
10374SOL     OW32020   2.160   5.278   2.211
10374SOL    HW132021   2.236   5.262   2.275
10374SOL    HW232022   2.134   5.374   2.214
10375SOL     OW32023   2.552   5.422   6.390
10375SOL    HW132024   2.549   5.450   6.486
10375SOL    HW232025   2.603   5.489   6.336
10376SOL     OW32026   1.986   4.625   3.646
10376SOL    HW132027   1.901   4.646   3.693
10376SOL    HW232028   2.062   4.672   3.691
10377SOL     OW32029   3.012   1.025   3.685
10377SOL    HW132030   3.059   0.950   3.638
10377SOL    HW232031   2.970   0.990   3.769
10378SOL     OW32032   6.759   6.992   5.208
10378SOL    HW132033   6.666   6.972   5.177
10378SOL    HW232034   6.824   6.934   5.160
10379SOL     OW32035   0.932   5.188   3.235
10379SOL    HW132036   0.845   5.223   3.202
10379SOL    HW232037   1.007   5.240   3.193
10380SOL     OW32038   3.161   1.357   3.953
10380SOL    HW132039   3.092   1.383   3.886
10380SOL    HW232040   3.135   1.269   3.995
10381SOL     OW32041   2.391   6.746   3.629
10381SOL    HW132042   2.326   6.779   3.698
10381SOL    HW232043   2.444   6.824   3.595
10382SOL     OW32044   3.913   5.661   2.546
10382SOL    HW132045   3.981   5.659   2.473
10382SOL    HW232046   3.960   5.664   2.635
10383SOL     OW32047   0.359   6.757   0.038
10383SOL    HW132048   0.370   6.833   6.992
10383SOL    HW232049   0.351   6.792   0.131
10384SOL     OW32050   5.538   5.225   1.214
10384SOL    HW132051   5.596   5.145   1.221
10384SOL    HW232052   5.539   5.258   1.119
10385SOL     OW32053   3.764   4.554   6.487
10385SOL    HW132054   3.695   4.483   6.498
10385SOL    HW232055   3.839   4.539   6.552
10386SOL     OW32056   0.228   0.523   2.121
10386SOL    HW132057   0.184   0.436   2.098
10386SOL    HW232058   0.324   0.506   2.146
10387SOL     OW32059   5.558   0.992   2.082
10387SOL    HW132060   5.629   0.970   2.015
10387SOL    HW232061   5.559   1.091   2.100
10388SOL     OW32062   0.719   0.009   4.987
10388SOL    HW132063   0.674   0.093   4.956
10388SOL    HW232064   0.762   0.025   5.075
10389SOL     OW32065   0.644   3.989   0.777
10389SOL    HW132066   0.665   4.041   0.860
10389SOL    HW232067   0.727   3.943   0.745
10390SOL     OW32068   1.699   2.519   2.220
10390SOL    HW132069   1.669   2.433   2.179
10390SOL    HW232070   1.660   2.528   2.311
10391SOL     OW32071   6.360   0.174   3.440
10391SOL    HW132072   6.337   0.230   3.360
10391SOL    HW232073   6.457   0.150   3.437
10392SOL     OW32074   5.604   3.481   4.116
10392SOL    HW132075   5.632   3.467   4.021
10392SOL    HW232076   5.520   3.429   4.134
10393SOL     OW32077   1.761   2.522   1.332
10393SOL    HW132078   1.714   2.528   1.244
10393SOL    HW232079   1.696   2.494   1.403
10394SOL     OW32080   3.002   5.573   3.722
10394SOL    HW132081   3.010   5.551   3.625
10394SOL    HW232082   2.956   5.662   3.733
10395SOL     OW32083   0.878   1.315   1.448
10395SOL    HW132084   0.825   1.254   1.390
10395SOL    HW232085   0.816   1.375   1.499
10396SOL     OW32086   3.293   1.826   5.143
10396SOL    HW132087   3.279   1.908   5.087
10396SOL    HW232088   3.276   1.848   5.239
10397SOL     OW32089   4.774   1.264   3.839
10397SOL    HW132090   4.680   1.300   3.841
10397SOL    HW232091   4.809   1.258   3.932
10398SOL     OW32092   4.790   2.851   2.801
10398SOL    HW132093   4.741   2.823   2.718
10398SOL    HW232094   4.858   2.921   2.778
10399SOL     OW32095   1.059   3.106   2.091
10399SOL    HW132096   0.970   3.121   2.048
10399SOL    HW232097   1.119   3.183   2.070
10400SOL     OW32098   2.157   6.534   0.582
10400SOL    HW132099   2.170   6.434   0.583
10400SOL    HW232100   2.196   6.573   0.665
10401SOL     OW32101   6.346   1.032   5.591
10401SOL    HW132102   6.307   0.970   5.523
10401SOL    HW232103   6.392   1.107   5.544
10402SOL     OW32104   6.513   4.496   5.340
10402SOL    HW132105   6.438   4.454   5.288
10402SOL    HW232106   6.582   4.428   5.361
10403SOL     OW32107   3.679   7.016   1.375
10403SOL    HW132108   3.640   0.005   1.283
10403SOL    HW232109   3.623   0.051   1.439
10404SOL     OW32110   0.726   5.348   5.464
10404SOL    HW132111   0.741   5.250   5.457
10404SOL    HW232112   0.636   5.370   5.426
10405SOL     OW32113   0.133   1.309   6.867
10405SOL    HW132114   0.158   1.256   6.786
10405SOL    HW232115   0.093   1.248   6.935
10406SOL     OW32116   1.617   5.275   1.022
10406SOL    HW132117   1.710   5.281   1.060
10406SOL    HW232118   1.594   5.361   0.977
10407SOL     OW32119   1.972   5.702   0.282
10407SOL    HW132120   2.037   5.686   0.208
10407SOL    HW232121   1.979   5.797   0.313
10408SOL     OW32122   4.523   0.839   0.031
10408SOL    HW132123   4.575   0.907   6.997
10408SOL    HW232124   4.553   0.840   0.127
10409SOL     OW32125   6.697   3.759   0.387
10409SOL    HW132126   6.748   3.845   0.386
10409SOL    HW232127   6.746   3.692   0.443
10410SOL     OW32128   4.025   6.168   0.893
10410SOL    HW132129   4.110   6.115   0.897
10410SOL    HW232130   3.955   6.116   0.843
10411SOL     OW32131   1.313   5.085   4.167
10411SOL    HW132132   1.403   5.064   4.129
10411SOL    HW232133   1.313   5.179   4.202
10412SOL     OW32134   4.957   0.498   2.067
10412SOL    HW132135   4.869   0.511   2.113
10412SOL    HW232136   4.966   0.561   1.991
10413SOL     OW32137   5.965   3.310   1.436
10413SOL    HW132138   5.893   3.262   1.386
10413SOL    HW232139   5.963   3.407   1.412
10414SOL     OW32140   5.149   3.689   3.955
10414SOL    HW132141   5.243   3.655   3.945
10414SOL    HW232142   5.146   3.786   3.931
10415SOL     OW32143   0.631   0.681   0.054
10415SOL    HW132144   0.565   0.756   0.051
10415SOL    HW232145   0.713   0.711   0.101
10416SOL     OW32146   5.335   2.888   3.444
10416SOL    HW132147   5.422   2.857   3.407
10416SOL    HW232148   5.337   2.987   3.456
10417SOL     OW32149   1.702   3.774   2.025
10417SOL    HW132150   1.645   3.737   2.099
10417SOL    HW232151   1.713   3.872   2.037
10418SOL     OW32152   1.843   5.467   6.101
10418SOL    HW132153   1.777   5.433   6.167
10418SOL    HW232154   1.935   5.461   6.140
10419SOL     OW32155   1.334   0.935   6.265
10419SOL    HW132156   1.411   0.997   6.247
10419SOL    HW232157   1.256   0.961   6.208
10420SOL     OW32158   0.567   2.911   2.163
10420SOL    HW132159   0.607   2.976   2.227
10420SOL    HW232160   0.527   2.834   2.213
10421SOL     OW32161   0.637   1.939   2.921
10421SOL    HW132162   0.658   1.992   3.003
10421SOL    HW232163   0.547   1.966   2.885
10422SOL     OW32164   5.788   1.956   0.285
10422SOL    HW132165   5.862   1.995   0.230
10422SOL    HW232166   5.725   2.029   0.312
10423SOL     OW32167   4.657   5.437   2.605
10423SOL    HW132168   4.563   5.414   2.577
10423SOL    HW232169   4.670   5.415   2.701
10424SOL     OW32170   4.443   1.468   6.463
10424SOL    HW132171   4.451   1.399   6.391
10424SOL    HW232172   4.464   1.427   6.551
10425SOL     OW32173   2.004   6.928   1.807
10425SOL    HW132174   1.908   6.956   1.815
10425SOL    HW232175   2.020   6.889   1.716
10426SOL     OW32176   6.433   3.697   6.194
10426SOL    HW132177   6.481   3.609   6.194
10426SOL    HW232178   6.391   3.712   6.104
10427SOL     OW32179   4.760   1.036   1.157
10427SOL    HW132180   4.767   1.043   1.058
10427SOL    HW232181   4.705   1.111   1.192
10428SOL     OW32182   4.707   2.115   3.399
10428SOL    HW132183   4.775   2.177   3.362
10428SOL    HW232184   4.642   2.090   3.327
10429SOL     OW32185   5.474   5.492   2.451
10429SOL    HW132186   5.523   5.492   2.538
10429SOL    HW232187   5.457   5.586   2.421
10430SOL     OW32188   4.295   5.964   2.889
10430SOL    HW132189   4.318   6.056   2.856
10430SOL    HW232190   4.209   5.967   2.939
10431SOL     OW32191   3.032   1.731   5.681
10431SOL    HW132192   3.069   1.790   5.753
10431SOL    HW232193   2.958   1.675   5.718
10432SOL     OW32194   4.067   0.322   4.829
10432SOL    HW132195   4.085   0.315   4.731
10432SOL    HW232196   4.077   0.232   4.871
10433SOL     OW32197   2.228   5.893   1.894
10433SOL    HW132198   2.241   5.802   1.934
10433SOL    HW232199   2.278   5.899   1.808
10434SOL     OW32200   3.403   2.471   5.377
10434SOL    HW132201   3.471   2.399   5.366
10434SOL    HW232202   3.318   2.444   5.332
10435SOL     OW32203   5.738   5.272   6.542
10435SOL    HW132204   5.777   5.282   6.450
10435SOL    HW232205   5.651   5.223   6.536
10436SOL     OW32206   0.347   1.546   2.496
10436SOL    HW132207   0.264   1.528   2.549
10436SOL    HW232208   0.427   1.538   2.556
10437SOL     OW32209   1.144   2.978   0.238
10437SOL    HW132210   1.144   3.053   0.304
10437SOL    HW232211   1.177   2.895   0.282
10438SOL     OW32212   3.169   6.836   5.870
10438SOL    HW132213   3.182   6.738   5.855
10438SOL    HW232214   3.071   6.857   5.870
10439SOL     OW32215   3.113   0.304   5.747
10439SOL    HW132216   3.147   0.343   5.662
10439SOL    HW232217   3.128   0.205   5.746
10440SOL     OW32218   1.236   5.654   0.464
10440SOL    HW132219   1.285   5.627   0.381
10440SOL    HW232220   1.169   5.584   0.489
10441SOL     OW32221   4.479   6.583   1.423
10441SOL    HW132222   4.434   6.505   1.466
10441SOL    HW232223   4.556   6.552   1.368
10442SOL     OW32224   4.010   6.055   6.343
10442SOL    HW132225   4.080   6.121   6.315
10442SOL    HW232226   4.014   6.043   6.442
10443SOL     OW32227   6.846   2.660   5.120
10443SOL    HW132228   6.937   2.635   5.085
10443SOL    HW232229   6.811   2.738   5.067
10444SOL     OW32230   4.056   4.844   5.352
10444SOL    HW132231   4.034   4.849   5.254
10444SOL    HW232232   4.048   4.936   5.392
10445SOL     OW32233   6.488   6.293   1.915
10445SOL    HW132234   6.524   6.220   1.856
10445SOL    HW232235   6.482   6.260   2.009
10446SOL     OW32236   1.037   6.676   5.959
10446SOL    HW132237   1.095   6.721   5.891
10446SOL    HW232238   1.045   6.577   5.948
10447SOL     OW32239   5.064   2.172   6.925
10447SOL    HW132240   4.971   2.144   6.950
10447SOL    HW232241   5.081   2.149   6.829
10448SOL     OW32242   3.406   3.640   2.400
10448SOL    HW132243   3.467   3.573   2.359
10448SOL    HW232244   3.461   3.710   2.448
10449SOL     OW32245   1.408   5.202   4.992
10449SOL    HW132246   1.354   5.266   4.936
10449SOL    HW232247   1.384   5.215   5.089
10450SOL     OW32248   0.470   3.455   0.396
10450SOL    HW132249   0.378   3.417   0.402
10450SOL    HW232250   0.470   3.549   0.429
10451SOL     OW32251   1.949   4.111   2.524
10451SOL    HW132252   1.924   4.203   2.552
10451SOL    HW232253   2.020   4.115   2.454
10452SOL     OW32254   2.296   3.200   6.079
10452SOL    HW132255   2.287   3.292   6.040
10452SOL    HW232256   2.357   3.146   6.021
10453SOL     OW32257   5.116   0.809   2.100
10453SOL    HW132258   5.125   0.819   2.199
10453SOL    HW232259   5.202   0.834   2.057
10454SOL     OW32260   3.703   5.210   2.164
10454SOL    HW132261   3.644   5.219   2.245
10454SOL    HW232262   3.746   5.120   2.164
10455SOL     OW32263   1.091   4.852   3.537
10455SOL    HW132264   1.011   4.801   3.569
10455SOL    HW232265   1.072   4.888   3.446
10456SOL     OW32266   3.668   6.661   1.323
10456SOL    HW132267   3.653   6.563   1.336
10456SOL    HW232268   3.756   6.676   1.278
10457SOL     OW32269   3.966   3.031   4.112
10457SOL    HW132270   3.871   3.060   4.120
10457SOL    HW232271   3.979   2.945   4.162
10458SOL     OW32272   6.584   6.234   2.159
10458SOL    HW132273   6.595   6.201   2.253
10458SOL    HW232274   6.647   6.185   2.099
10459SOL     OW32275   0.169   5.246   1.751
10459SOL    HW132276   0.211   5.313   1.689
10459SOL    HW232277   0.085   5.285   1.789
10460SOL     OW32278   0.774   4.040   1.553
10460SOL    HW132279   0.848   4.093   1.513
10460SOL    HW232280   0.710   4.012   1.481
10461SOL     OW32281   3.789   0.507   6.330
10461SOL    HW132282   3.840   0.425   6.303
10461SOL    HW232283   3.710   0.519   6.269
10462SOL     OW32284   4.955   6.607   1.350
10462SOL    HW132285   4.929   6.548   1.427
10462SOL    HW232286   5.045   6.579   1.317
10463SOL     OW32287   4.469   3.257   0.615
10463SOL    HW132288   4.492   3.290   0.524
10463SOL    HW232289   4.410   3.324   0.661
10464SOL     OW32290   5.873   6.437   1.999
10464SOL    HW132291   5.783   6.399   2.018
10464SOL    HW232292   5.919   6.458   2.085
10465SOL     OW32293   0.240   4.622   5.259
10465SOL    HW132294   0.332   4.624   5.298
10465SOL    HW232295   0.177   4.671   5.320
10466SOL     OW32296   4.246   5.609   5.450
10466SOL    HW132297   4.302   5.690   5.434
10466SOL    HW232298   4.185   5.625   5.528
10467SOL     OW32299   4.260   1.752   3.935
10467SOL    HW132300   4.262   1.841   3.980
10467SOL    HW232301   4.300   1.760   3.843
10468SOL     OW32302   2.773   5.141   3.231
10468SOL    HW132303   2.843   5.134   3.302
10468SOL    HW232304   2.763   5.054   3.184
10469SOL     OW32305   1.272   4.623   6.242
10469SOL    HW132306   1.184   4.671   6.238
10469SOL    HW232307   1.263   4.534   6.197
10470SOL     OW32308   2.659   1.754   4.621
10470SOL    HW132309   2.571   1.791   4.651
10470SOL    HW232310   2.682   1.790   4.531
10471SOL     OW32311   4.896   4.484   6.574
10471SOL    HW132312   4.829   4.411   6.566
10471SOL    HW232313   4.988   4.445   6.580
10472SOL     OW32314   4.083   1.589   3.560
10472SOL    HW132315   4.033   1.547   3.484
10472SOL    HW232316   4.091   1.523   3.635
10473SOL     OW32317   4.719   4.805   6.742
10473SOL    HW132318   4.717   4.708   6.764
10473SOL    HW232319   4.669   4.856   6.812
10474SOL     OW32320   4.715   0.696   4.247
10474SOL    HW132321   4.619   0.680   4.222
10474SOL    HW232322   4.737   0.792   4.233
10475SOL     OW32323   3.868   6.310   1.506
10475SOL    HW132324   3.906   6.338   1.418
10475SOL    HW232325   3.942   6.307   1.574
10476SOL     OW32326   0.426   4.665   6.732
10476SOL    HW132327   0.440   4.594   6.801
10476SOL    HW232328   0.400   4.751   6.776
10477SOL     OW32329   4.545   4.903   4.898
10477SOL    HW132330   4.638   4.866   4.893
10477SOL    HW232331   4.503   4.898   4.807
10478SOL     OW32332   0.993   6.830   2.729
10478SOL    HW132333   0.919   6.766   2.711
10478SOL    HW232334   0.974   6.917   2.683
10479SOL     OW32335   0.900   3.985   2.720
10479SOL    HW132336   0.998   3.996   2.741
10479SOL    HW232337   0.848   4.057   2.766
10480SOL     OW32338   4.353   1.161   0.127
10480SOL    HW132339   4.292   1.082   0.138
10480SOL    HW232340   4.298   1.245   0.129
10481SOL     OW32341   3.508   1.670   3.497
10481SOL    HW132342   3.427   1.657   3.555
10481SOL    HW232343   3.523   1.587   3.443
10482SOL     OW32344   0.839   6.644   6.294
10482SOL    HW132345   0.822   6.652   6.392
10482SOL    HW232346   0.848   6.547   6.269
10483SOL     OW32347   0.946   6.147   0.939
10483SOL    HW132348   1.023   6.088   0.915
10483SOL    HW232349   0.975   6.243   0.937
10484SOL     OW32350   6.606   1.441   1.678
10484SOL    HW132351   6.661   1.473   1.755
10484SOL    HW232352   6.571   1.349   1.698
10485SOL     OW32353   3.527   4.110   4.843
10485SOL    HW132354   3.429   4.111   4.821
10485SOL    HW232355   3.542   4.145   4.935
10486SOL     OW32356   5.726   4.702   5.327
10486SOL    HW132357   5.646   4.757   5.348
10486SOL    HW232358   5.759   4.657   5.410
10487SOL     OW32359   5.410   3.590   2.709
10487SOL    HW132360   5.321   3.628   2.684
10487SOL    HW232361   5.445   3.636   2.790
10488SOL     OW32362   0.586   2.461   5.420
10488SOL    HW132363   0.493   2.458   5.384
10488SOL    HW232364   0.647   2.501   5.351
10489SOL     OW32365   6.008   4.800   2.897
10489SOL    HW132366   5.910   4.819   2.899
10489SOL    HW232367   6.034   4.767   2.807
10490SOL     OW32368   5.023   6.430   6.181
10490SOL    HW132369   5.077   6.512   6.201
10490SOL    HW232370   5.056   6.354   6.236
10491SOL     OW32371   2.374   1.684   5.649
10491SOL    HW132372   2.317   1.737   5.585
10491SOL    HW232373   2.430   1.747   5.703
10492SOL     OW32374   3.483   6.549   6.833
10492SOL    HW132375   3.532   6.513   6.912
10492SOL    HW232376   3.385   6.531   6.844
10493SOL     OW32377   3.457   6.431   0.439
10493SOL    HW132378   3.417   6.344   0.410
10493SOL    HW232379   3.504   6.418   0.527
10494SOL     OW32380   6.971   5.407   3.675
10494SOL    HW132381   6.923   5.382   3.760
10494SOL    HW232382   0.050   5.384   3.684
10495SOL     OW32383   6.556   6.129   0.060
10495SOL    HW132384   6.488   6.202   0.047
10495SOL    HW232385   6.556   6.100   0.156
10496SOL     OW32386   0.650   4.198   6.195
10496SOL    HW132387   0.707   4.148   6.259
10496SOL    HW232388   0.666   4.296   6.206
10497SOL     OW32389   4.015   6.414   0.182
10497SOL    HW132390   4.105   6.417   0.226
10497SOL    HW232391   3.949   6.371   0.244
10498SOL     OW32392   3.475   3.895   0.125
10498SOL    HW132393   3.418   3.973   0.098
10498SOL    HW232394   3.439   3.812   0.082
10499SOL     OW32395   4.152   4.802   3.452
10499SOL    HW132396   4.212   4.734   3.409
10499SOL    HW232397   4.180   4.815   3.547
10500SOL     OW32398   1.831   2.799   5.145
10500SOL    HW132399   1.868   2.840   5.228
10500SOL    HW232400   1.900   2.739   5.103
10501SOL     OW32401   3.836   5.080   3.101
10501SOL    HW132402   3.911   5.036   3.052
10501SOL    HW232403   3.749   5.043   3.071
10502SOL     OW32404   3.348   3.208   3.136
10502SOL    HW132405   3.353   3.124   3.082
10502SOL    HW232406   3.359   3.287   3.076
10503SOL     OW32407   6.677   6.396   0.869
10503SOL    HW132408   6.593   6.362   0.827
10503SOL    HW232409   6.659   6.481   0.917
10504SOL     OW32410   1.854   2.998   5.715
10504SOL    HW132411   1.809   2.987   5.804
10504SOL    HW232412   1.946   3.035   5.729
10505SOL     OW32413   5.545   6.604   2.022
10505SOL    HW132414   5.607   6.657   1.964
10505SOL    HW232415   5.584   6.514   2.040
10506SOL     OW32416   0.747   5.021   5.863
10506SOL    HW132417   0.685   4.997   5.937
10506SOL    HW232418   0.714   4.981   5.777
10507SOL     OW32419   1.765   6.251   6.222
10507SOL    HW132420   1.834   6.317   6.192
10507SOL    HW232421   1.811   6.168   6.253
10508SOL     OW32422   1.963   6.174   1.284
10508SOL    HW132423   1.933   6.267   1.300
10508SOL    HW232424   2.059   6.164   1.312
10509SOL     OW32425   4.921   3.797   1.946
10509SOL    HW132426   4.914   3.866   2.018
10509SOL    HW232427   4.863   3.824   1.868
10510SOL     OW32428   5.235   6.053   2.045
10510SOL    HW132429   5.167   5.983   2.064
10510SOL    HW232430   5.291   6.069   2.127
10511SOL     OW32431   3.956   1.826   0.795
10511SOL    HW132432   4.024   1.888   0.834
10511SOL    HW232433   3.870   1.832   0.846
10512SOL     OW32434   3.465   0.067   4.896
10512SOL    HW132435   3.426   0.082   4.987
10512SOL    HW232436   3.449   6.990   4.868
10513SOL     OW32437   3.829   3.418   0.533
10513SOL    HW132438   3.804   3.510   0.503
10513SOL    HW232439   3.879   3.425   0.619
10514SOL     OW32440   1.305   4.647   1.624
10514SOL    HW132441   1.297   4.746   1.613
10514SOL    HW232442   1.222   4.603   1.588
10515SOL     OW32443   2.149   3.790   5.104
10515SOL    HW132444   2.234   3.834   5.134
10515SOL    HW232445   2.127   3.819   5.011
10516SOL     OW32446   5.418   2.010   1.563
10516SOL    HW132447   5.474   1.998   1.646
10516SOL    HW232448   5.340   2.068   1.585
10517SOL     OW32449   0.017   2.012   2.164
10517SOL    HW132450   0.081   2.089   2.159
10517SOL    HW232451   0.015   1.977   2.258
10518SOL     OW32452   0.611   5.580   2.633
10518SOL    HW132453   0.562   5.524   2.565
10518SOL    HW232454   0.704   5.546   2.643
10519SOL     OW32455   1.839   6.777   0.327
10519SOL    HW132456   1.919   6.837   0.335
10519SOL    HW232457   1.834   6.718   0.408
10520SOL     OW32458   3.084   2.949   6.068
10520SOL    HW132459   3.001   3.004   6.057
10520SOL    HW232460   3.062   2.867   6.121
10521SOL     OW32461   5.918   1.869   2.399
10521SOL    HW132462   5.994   1.847   2.339
10521SOL    HW232463   5.833   1.831   2.361
10522SOL     OW32464   4.922   1.390   2.969
10522SOL    HW132465   4.863   1.470   2.964
10522SOL    HW232466   4.906   1.342   3.054
10523SOL     OW32467   0.625   3.960   1.330
10523SOL    HW132468   0.612   3.963   1.231
10523SOL    HW232469   0.669   3.874   1.356
10524SOL     OW32470   6.122   6.632   4.580
10524SOL    HW132471   6.146   6.669   4.491
10524SOL    HW232472   6.198   6.578   4.616
10525SOL     OW32473   5.273   2.235   3.424
10525SOL    HW132474   5.201   2.166   3.431
10525SOL    HW232475   5.323   2.224   3.339
10526SOL     OW32476   1.806   5.817   5.781
10526SOL    HW132477   1.728   5.755   5.783
10526SOL    HW232478   1.876   5.780   5.720
10527SOL     OW32479   0.659   6.557   5.817
10527SOL    HW132480   0.731   6.584   5.752
10527SOL    HW232481   0.688   6.581   5.909
10528SOL     OW32482   2.339   6.001   5.366
10528SOL    HW132483   2.353   6.095   5.397
10528SOL    HW232484   2.315   6.000   5.269
10529SOL     OW32485   6.493   5.079   6.623
10529SOL    HW132486   6.571   5.083   6.686
10529SOL    HW232487   6.465   4.984   6.610
10530SOL     OW32488   5.826   0.516   1.258
10530SOL    HW132489   5.814   0.451   1.183
10530SOL    HW232490   5.866   0.469   1.337
10531SOL     OW32491   3.185   1.156   6.464
10531SOL    HW132492   3.194   1.128   6.560
10531SOL    HW232493   3.276   1.163   6.423
10532SOL     OW32494   4.591   5.553   5.889
10532SOL    HW132495   4.491   5.561   5.891
10532SOL    HW232496   4.616   5.459   5.870
10533SOL     OW32497   4.598   6.460   3.922
10533SOL    HW132498   4.524   6.394   3.907
10533SOL    HW232499   4.678   6.434   3.867
10534SOL     OW32500   0.834   6.331   4.751
10534SOL    HW132501   0.926   6.347   4.787
10534SOL    HW232502   0.783   6.272   4.813
10535SOL     OW32503   3.926   1.435   2.368
10535SOL    HW132504   3.990   1.408   2.440
10535SOL    HW232505   3.939   1.531   2.345
10536SOL     OW32506   5.792   3.475   4.310
10536SOL    HW132507   5.877   3.422   4.302
10536SOL    HW232508   5.739   3.467   4.226
10537SOL     OW32509   2.951   1.379   2.815
10537SOL    HW132510   2.883   1.392   2.887
10537SOL    HW232511   2.922   1.427   2.732
10538SOL     OW32512   6.370   2.774   3.325
10538SOL    HW132513   6.412   2.732   3.405
10538SOL    HW232514   6.440   2.794   3.256
10539SOL     OW32515   6.867   0.329   1.929
10539SOL    HW132516   6.788   0.298   1.982
10539SOL    HW232517   6.859   0.297   1.835
10540SOL     OW32518   1.468   2.640   6.262
10540SOL    HW132519   1.556   2.685   6.248
10540SOL    HW232520   1.418   2.636   6.176
10541SOL     OW32521   3.761   2.755   6.299
10541SOL    HW132522   3.791   2.847   6.323
10541SOL    HW232523   3.674   2.735   6.344
10542SOL     OW32524   3.676   6.313   2.537
10542SOL    HW132525   3.642   6.406   2.545
10542SOL    HW232526   3.713   6.283   2.625
10543SOL     OW32527   1.245   3.020   4.339
10543SOL    HW132528   1.263   3.076   4.421
10543SOL    HW232529   1.318   2.952   4.329
10544SOL     OW32530   2.873   2.162   2.249
10544SOL    HW132531   2.885   2.215   2.165
10544SOL    HW232532   2.787   2.187   2.293
10545SOL     OW32533   1.201   3.397   1.026
10545SOL    HW132534   1.209   3.464   1.100
10545SOL    HW232535   1.162   3.441   0.945
10546SOL     OW32536   1.707   0.431   5.296
10546SOL    HW132537   1.681   0.516   5.341
10546SOL    HW232538   1.799   0.405   5.325
10547SOL     OW32539   3.184   5.654   6.337
10547SOL    HW132540   3.118   5.601   6.284
10547SOL    HW232541   3.192   5.746   6.297
10548SOL     OW32542   1.472   5.038   2.993
10548SOL    HW132543   1.471   5.129   2.952
10548SOL    HW232544   1.405   4.980   2.947
10549SOL     OW32545   6.828   1.363   2.689
10549SOL    HW132546   6.743   1.416   2.701
10549SOL    HW232547   6.806   1.273   2.651
10550SOL     OW32548   0.037   4.380   2.835
10550SOL    HW132549   0.014   4.412   2.743
10550SOL    HW232550   0.080   4.454   2.887
10551SOL     OW32551   4.975   0.341   4.610
10551SOL    HW132552   4.937   0.380   4.526
10551SOL    HW232553   5.069   0.371   4.621
10552SOL     OW32554   2.634   0.091   3.413
10552SOL    HW132555   2.683   0.029   3.351
10552SOL    HW232556   2.541   0.107   3.377
10553SOL     OW32557   5.672   5.416   1.366
10553SOL    HW132558   5.718   5.461   1.289
10553SOL    HW232559   5.611   5.345   1.331
10554SOL     OW32560   5.518   5.927   1.361
10554SOL    HW132561   5.430   5.885   1.383
10554SOL    HW232562   5.580   5.915   1.439
10555SOL     OW32563   3.333   3.232   2.120
10555SOL    HW132564   3.294   3.299   2.057
10555SOL    HW232565   3.352   3.276   2.208
10556SOL     OW32566   2.167   2.092   2.044
10556SOL    HW132567   2.075   2.130   2.037
10556SOL    HW232568   2.207   2.117   2.132
10557SOL     OW32569   0.715   4.138   2.848
10557SOL    HW132570   0.768   4.142   2.933
10557SOL    HW232571   0.618   4.148   2.869
10558SOL     OW32572   4.851   5.214   4.527
10558SOL    HW132573   4.950   5.226   4.535
10558SOL    HW232574   4.832   5.136   4.467
10559SOL     OW32575   3.762   5.713   1.671
10559SOL    HW132576   3.744   5.660   1.754
10559SOL    HW232577   3.677   5.755   1.640
10560SOL     OW32578   6.138   0.053   4.284
10560SOL    HW132579   6.069   6.998   4.286
10560SOL    HW232580   6.092   0.142   4.281
10561SOL     OW32581   0.667   5.766   5.520
10561SOL    HW132582   0.648   5.674   5.556
10561SOL    HW232583   0.593   5.828   5.545
10562SOL     OW32584   2.886   1.030   2.653
10562SOL    HW132585   2.963   1.092   2.670
10562SOL    HW232586   2.824   1.031   2.731
10563SOL     OW32587   1.453   5.441   2.303
10563SOL    HW132588   1.493   5.373   2.364
10563SOL    HW232589   1.476   5.533   2.335
10564SOL     OW32590   5.394   5.501   3.153
10564SOL    HW132591   5.310   5.551   3.137
10564SOL    HW232592   5.420   5.509   3.249
10565SOL     OW32593   6.784   1.022   4.675
10565SOL    HW132594   6.871   0.989   4.713
10565SOL    HW232595   6.799   1.058   4.583
10566SOL     OW32596   3.423   1.480   0.386
10566SOL    HW132597   3.485   1.517   0.455
10566SOL    HW232598   3.471   1.411   0.332
10567SOL     OW32599   3.292   1.585   6.487
10567SOL    HW132600   3.348   1.573   6.569
10567SOL    HW232601   3.351   1.598   6.407
10568SOL     OW32602   6.324   1.500   6.575
10568SOL    HW132603   6.258   1.544   6.636
10568SOL    HW232604   6.382   1.438   6.628
10569SOL     OW32605   3.657   0.464   1.648
10569SOL    HW132606   3.748   0.424   1.639
10569SOL    HW232607   3.660   0.542   1.711
10570SOL     OW32608   1.166   4.052   2.714
10570SOL    HW132609   1.213   4.021   2.631
10570SOL    HW232610   1.228   4.107   2.769
10571SOL     OW32611   0.661   4.024   4.694
10571SOL    HW132612   0.567   4.050   4.673
10571SOL    HW232613   0.702   4.091   4.756
10572SOL     OW32614   6.830   5.664   0.833
10572SOL    HW132615   6.857   5.569   0.846
10572SOL    HW232616   6.777   5.672   0.748
10573SOL     OW32617   6.112   2.035   3.262
10573SOL    HW132618   6.121   1.955   3.321
10573SOL    HW232619   6.026   2.083   3.283
10574SOL     OW32620   5.361   2.367   2.979
10574SOL    HW132621   5.382   2.394   2.885
10574SOL    HW232622   5.298   2.432   3.019
10575SOL     OW32623   4.936   0.000   2.777
10575SOL    HW132624   4.961   0.049   2.694
10575SOL    HW232625   4.917   6.922   2.755
10576SOL     OW32626   1.325   3.136   4.989
10576SOL    HW132627   1.285   3.099   5.073
10576SOL    HW232628   1.287   3.227   4.972
10577SOL     OW32629   4.401   4.662   6.524
10577SOL    HW132630   4.413   4.730   6.452
10577SOL    HW232631   4.368   4.577   6.484
10578SOL     OW32632   1.314   2.989   1.986
10578SOL    HW132633   1.376   2.965   2.060
10578SOL    HW232634   1.220   2.993   2.021
10579SOL     OW32635   0.231   3.296   0.380
10579SOL    HW132636   0.281   3.220   0.420
10579SOL    HW232637   0.247   3.298   0.281
10580SOL     OW32638   4.780   6.887   5.946
10580SOL    HW132639   4.874   6.915   5.925
10580SOL    HW232640   4.723   6.898   5.865
10581SOL     OW32641   3.959   0.357   2.461
10581SOL    HW132642   3.974   0.259   2.474
10581SOL    HW232643   4.044   0.406   2.478
10582SOL     OW32644   0.009   3.749   0.649
10582SOL    HW132645   0.089   3.706   0.691
10582SOL    HW232646   6.968   3.678   0.609
10583SOL     OW32647   3.836   1.821   6.082
10583SOL    HW132648   3.810   1.777   5.996
10583SOL    HW232649   3.819   1.759   6.158
10584SOL     OW32650   6.652   0.412   3.963
10584SOL    HW132651   6.654   0.478   4.038
10584SOL    HW232652   6.727   0.347   3.974
10585SOL     OW32653   1.537   0.787   4.733
10585SOL    HW132654   1.615   0.742   4.691
10585SOL    HW232655   1.545   0.782   4.833
10586SOL     OW32656   4.937   3.712   6.342
10586SOL    HW132657   4.961   3.691   6.247
10586SOL    HW232658   4.991   3.653   6.403
10587SOL     OW32659   2.132   5.390   5.606
10587SOL    HW132660   2.183   5.381   5.691
10587SOL    HW232661   2.048   5.335   5.611
10588SOL     OW32662   1.166   4.454   4.199
10588SOL    HW132663   1.092   4.512   4.233
10588SOL    HW232664   1.130   4.364   4.175
10589SOL     OW32665   6.133   0.733   3.330
10589SOL    HW132666   6.105   0.647   3.373
10589SOL    HW232667   6.053   0.787   3.306
10590SOL     OW32668   6.929   6.055   2.153
10590SOL    HW132669   6.897   5.964   2.178
10590SOL    HW232670   0.009   6.062   2.170
10591SOL     OW32671   0.101   4.621   2.343
10591SOL    HW132672   0.011   4.621   2.386
10591SOL    HW232673   0.135   4.527   2.336
10592SOL     OW32674   6.265   4.052   4.870
10592SOL    HW132675   6.187   4.079   4.813
10592SOL    HW232676   6.269   4.112   4.950
10593SOL     OW32677   3.948   5.657   2.932
10593SOL    HW132678   3.980   5.711   2.854
10593SOL    HW232679   4.002   5.680   3.013
10594SOL     OW32680   3.986   5.962   3.947
10594SOL    HW132681   3.977   6.047   3.896
10594SOL    HW232682   4.006   5.887   3.884
10595SOL     OW32683   6.245   5.568   0.432
10595SOL    HW132684   6.197   5.644   0.388
10595SOL    HW232685   6.315   5.532   0.370
10596SOL     OW32686   6.039   3.747   0.698
10596SOL    HW132687   6.078   3.779   0.612
10596SOL    HW232688   5.941   3.768   0.700
10597SOL     OW32689   0.995   6.543   5.174
10597SOL    HW132690   1.068   6.482   5.203
10597SOL    HW232691   1.022   6.638   5.187
10598SOL     OW32692   2.746   1.494   1.201
10598SOL    HW132693   2.655   1.519   1.234
10598SOL    HW232694   2.810   1.488   1.278
10599SOL     OW32695   0.794   1.908   0.827
10599SOL    HW132696   0.712   1.953   0.861
10599SOL    HW232697   0.858   1.894   0.903
10600SOL     OW32698   4.394   1.338   2.232
10600SOL    HW132699   4.470   1.321   2.294
10600SOL    HW232700   4.309   1.343   2.284
10601SOL     OW32701   1.801   2.113   5.546
10601SOL    HW132702   1.787   2.016   5.568
10601SOL    HW232703   1.713   2.157   5.530
10602SOL     OW32704   6.980   6.786   0.924
10602SOL    HW132705   6.962   6.745   0.835
10602SOL    HW232706   0.058   6.772   0.948
10603SOL     OW32707   5.382   0.255   2.936
10603SOL    HW132708   5.358   0.295   2.847
10603SOL    HW232709   5.309   0.192   2.965
10604SOL     OW32710   5.434   1.922   4.646
10604SOL    HW132711   5.422   1.920   4.547
10604SOL    HW232712   5.530   1.935   4.668
10605SOL     OW32713   4.805   1.646   1.177
10605SOL    HW132714   4.876   1.604   1.234
10605SOL    HW232715   4.799   1.598   1.090
10606SOL     OW32716   5.682   1.332   1.000
10606SOL    HW132717   5.778   1.308   1.010
10606SOL    HW232718   5.673   1.429   0.977
10607SOL     OW32719   2.024   5.162   1.194
10607SOL    HW132720   2.000   5.108   1.275
10607SOL    HW232721   2.122   5.153   1.176
10608SOL     OW32722   5.221   3.943   2.467
10608SOL    HW132723   5.309   3.936   2.514
10608SOL    HW232724   5.231   3.907   2.374
10609SOL     OW32725   5.831   6.431   6.663
10609SOL    HW132726   5.843   6.478   6.576
10609SOL    HW232727   5.813   6.497   6.735
10610SOL     OW32728   0.314   2.385   3.239
10610SOL    HW132729   0.276   2.390   3.147
10610SOL    HW232730   0.261   2.320   3.293
10611SOL     OW32731   4.187   5.395   6.208
10611SOL    HW132732   4.106   5.341   6.186
10611SOL    HW232733   4.203   5.391   6.307
10612SOL     OW32734   5.221   2.373   3.792
10612SOL    HW132735   5.243   2.425   3.875
10612SOL    HW232736   5.180   2.435   3.724
10613SOL     OW32737   5.579   4.882   5.943
10613SOL    HW132738   5.606   4.859   6.036
10613SOL    HW232739   5.641   4.837   5.878
10614SOL     OW32740   4.222   1.956   0.385
10614SOL    HW132741   4.258   1.967   0.477
10614SOL    HW232742   4.250   2.034   0.328
10615SOL     OW32743   3.495   2.646   5.910
10615SOL    HW132744   3.449   2.607   5.831
10615SOL    HW232745   3.541   2.731   5.885
10616SOL     OW32746   1.472   5.636   0.227
10616SOL    HW132747   1.571   5.622   0.219
10616SOL    HW232748   1.455   5.730   0.257
10617SOL     OW32749   2.431   3.438   0.056
10617SOL    HW132750   2.392   3.528   0.076
10617SOL    HW232751   2.399   3.406   6.985
10618SOL     OW32752   0.201   4.923   4.889
10618SOL    HW132753   0.273   4.867   4.932
10618SOL    HW232754   0.214   4.924   4.790
10619SOL     OW32755   1.317   2.573   0.921
10619SOL    HW132756   1.265   2.658   0.935
10619SOL    HW232757   1.407   2.595   0.884
10620SOL     OW32758   3.989   1.350   5.727
10620SOL    HW132759   3.972   1.255   5.751
10620SOL    HW232760   4.077   1.358   5.681
10621SOL     OW32761   0.978   5.073   4.705
10621SOL    HW132762   0.998   4.998   4.641
10621SOL    HW232763   0.931   5.147   4.657
10622SOL     OW32764   3.972   2.210   6.273
10622SOL    HW132765   3.968   2.159   6.187
10622SOL    HW232766   3.917   2.293   6.266
10623SOL     OW32767   5.084   4.628   5.102
10623SOL    HW132768   5.093   4.556   5.171
10623SOL    HW232769   4.989   4.660   5.099
10624SOL     OW32770   0.242   1.280   5.612
10624SOL    HW132771   0.299   1.362   5.609
10624SOL    HW232772   0.287   1.206   5.564
10625SOL     OW32773   6.199   5.412   6.671
10625SOL    HW132774   6.200   5.345   6.596
10625SOL    HW232775   6.289   5.412   6.715
10626SOL     OW32776   5.818   3.780   1.848
10626SOL    HW132777   5.865   3.792   1.935
10626SOL    HW232778   5.734   3.726   1.863
10627SOL     OW32779   5.178   5.384   5.091
10627SOL    HW132780   5.078   5.386   5.086
10627SOL    HW232781   5.215   5.462   5.040
10628SOL     OW32782   2.560   6.186   1.881
10628SOL    HW132783   2.632   6.238   1.929
10628SOL    HW232784   2.494   6.153   1.948
10629SOL     OW32785   4.287   6.009   4.185
10629SOL    HW132786   4.208   6.071   4.187
10629SOL    HW232787   4.370   6.061   4.165
10630SOL     OW32788   4.290   0.861   1.723
10630SOL    HW132789   4.350   0.892   1.649
10630SOL    HW232790   4.342   0.857   1.808
10631SOL     OW32791   3.654   6.301   2.272
10631SOL    HW132792   3.677   6.397   2.262
10631SOL    HW232793   3.666   6.273   2.367
10632SOL     OW32794   5.817   0.864   4.819
10632SOL    HW132795   5.885   0.897   4.753
10632SOL    HW232796   5.757   0.797   4.774
10633SOL     OW32797   3.209   3.345   0.176
10633SOL    HW132798   3.244   3.299   0.258
10633SOL    HW232799   3.120   3.305   0.152
10634SOL     OW32800   1.086   4.208   0.699
10634SOL    HW132801   1.003   4.205   0.643
10634SOL    HW232802   1.164   4.176   0.646
10635SOL     OW32803   3.239   4.325   6.933
10635SOL    HW132804   3.298   4.402   6.908
10635SOL    HW232805   3.188   4.295   6.852
10636SOL     OW32806   0.133   2.352   0.518
10636SOL    HW132807   0.103   2.274   0.464
10636SOL    HW232808   0.062   2.423   0.516
10637SOL     OW32809   1.788   0.021   5.825
10637SOL    HW132810   1.693   0.029   5.856
10637SOL    HW232811   1.843   0.095   5.866
10638SOL     OW32812   5.901   4.637   6.853
10638SOL    HW132813   5.860   4.547   6.843
10638SOL    HW232814   5.859   4.701   6.788
10639SOL     OW32815   6.653   5.318   6.952
10639SOL    HW132816   6.624   5.269   0.016
10639SOL    HW232817   6.670   5.414   6.975
10640SOL     OW32818   4.157   5.501   4.737
10640SOL    HW132819   4.093   5.431   4.770
10640SOL    HW232820   4.251   5.474   4.758
10641SOL     OW32821   1.246   1.526   3.669
10641SOL    HW132822   1.208   1.494   3.756
10641SOL    HW232823   1.304   1.454   3.630
10642SOL     OW32824   6.804   2.122   5.455
10642SOL    HW132825   6.817   2.168   5.367
10642SOL    HW232826   6.891   2.120   5.504
10643SOL     OW32827   3.084   5.558   4.799
10643SOL    HW132828   3.180   5.546   4.825
10643SOL    HW232829   3.056   5.482   4.740
10644SOL     OW32830   1.336   3.717   3.629
10644SOL    HW132831   1.324   3.782   3.703
10644SOL    HW232832   1.399   3.645   3.658
10645SOL     OW32833   2.027   3.343   3.648
10645SOL    HW132834   1.933   3.318   3.623
10645SOL    HW232835   2.025   3.424   3.707
10646SOL     OW32836   5.285   1.438   3.099
10646SOL    HW132837   5.283   1.529   3.058
10646SOL    HW232838   5.378   1.417   3.130
10647SOL     OW32839   4.443   5.990   4.745
10647SOL    HW132840   4.392   6.073   4.768
10647SOL    HW232841   4.379   5.918   4.718
10648SOL     OW32842   4.742   3.609   5.786
10648SOL    HW132843   4.749   3.509   5.795
10648SOL    HW232844   4.711   3.632   5.694
10649SOL     OW32845   6.230   3.272   3.159
10649SOL    HW132846   6.321   3.303   3.131
10649SOL    HW232847   6.239   3.199   3.227
10650SOL     OW32848   0.738   0.245   3.088
10650SOL    HW132849   0.697   0.319   3.035
10650SOL    HW232850   0.836   0.263   3.100
10651SOL     OW32851   2.170   5.684   5.048
10651SOL    HW132852   2.093   5.652   4.993
10651SOL    HW232853   2.243   5.616   5.046
10652SOL     OW32854   3.301   0.334   0.032
10652SOL    HW132855   3.312   0.270   6.974
10652SOL    HW232856   3.239   0.408   0.005
10653SOL     OW32857   5.878   6.046   4.755
10653SOL    HW132858   5.809   6.032   4.684
10653SOL    HW232859   5.882   5.966   4.814
10654SOL     OW32860   0.200   1.624   3.768
10654SOL    HW132861   0.172   1.708   3.815
10654SOL    HW232862   0.154   1.546   3.810
10655SOL     OW32863   6.158   4.811   0.535
10655SOL    HW132864   6.191   4.717   0.545
10655SOL    HW232865   6.162   4.838   0.439
10656SOL     OW32866   5.589   0.560   5.744
10656SOL    HW132867   5.540   0.513   5.671
10656SOL    HW232868   5.637   0.493   5.801
10657SOL     OW32869   4.353   0.007   5.287
10657SOL    HW132870   4.259   6.990   5.291
10657SOL    HW232871   4.416   6.953   5.317
10658SOL     OW32872   1.596   1.202   5.359
10658SOL    HW132873   1.502   1.232   5.348
10658SOL    HW232874   1.657   1.259   5.303
10659SOL     OW32875   0.956   5.485   6.896
10659SOL    HW132876   0.866   5.520   6.871
10659SOL    HW232877   1.015   5.482   6.814
10660SOL     OW32878   6.109   2.126   6.097
10660SOL    HW132879   6.054   2.044   6.112
10660SOL    HW232880   6.204   2.106   6.120
10661SOL     OW32881   3.524   5.473   5.688
10661SOL    HW132882   3.505   5.392   5.742
10661SOL    HW232883   3.621   5.477   5.665
10662SOL     OW32884   3.731   1.853   0.921
10662SOL    HW132885   3.669   1.776   0.907
10662SOL    HW232886   3.678   1.932   0.954
10663SOL     OW32887   6.473   3.091   3.729
10663SOL    HW132888   6.535   3.018   3.756
10663SOL    HW232889   6.509   3.179   3.760
10664SOL     OW32890   1.283   6.353   4.612
10664SOL    HW132891   1.205   6.304   4.651
10664SOL    HW232892   1.321   6.300   4.536
10665SOL     OW32893   4.491   3.709   0.601
10665SOL    HW132894   4.403   3.745   0.634
10665SOL    HW232895   4.479   3.671   0.509
10666SOL     OW32896   5.271   3.293   1.549
10666SOL    HW132897   5.212   3.330   1.621
10666SOL    HW232898   5.240   3.328   1.460
10667SOL     OW32899   5.353   2.633   4.234
10667SOL    HW132900   5.425   2.602   4.172
10667SOL    HW232901   5.271   2.577   4.221
10668SOL     OW32902   3.158   3.279   5.801
10668SOL    HW132903   3.159   3.306   5.897
10668SOL    HW232904   3.069   3.238   5.779
10669SOL     OW32905   6.649   3.014   1.950
10669SOL    HW132906   6.713   3.030   2.025
10669SOL    HW232907   6.672   3.073   1.873
10670SOL     OW32908   4.671   4.754   4.073
10670SOL    HW132909   4.736   4.769   4.148
10670SOL    HW232910   4.687   4.664   4.033
10671SOL     OW32911   2.136   3.268   4.789
10671SOL    HW132912   2.037   3.263   4.782
10671SOL    HW232913   2.165   3.236   4.879
10672SOL     OW32914   6.669   4.888   1.236
10672SOL    HW132915   6.729   4.872   1.315
10672SOL    HW232916   6.576   4.906   1.268
10673SOL     OW32917   3.146   0.968   1.855
10673SOL    HW132918   3.124   0.963   1.953
10673SOL    HW232919   3.244   0.985   1.844
10674SOL     OW32920   4.112   3.250   4.225
10674SOL    HW132921   4.138   3.286   4.135
10674SOL    HW232922   4.065   3.162   4.213
10675SOL     OW32923   3.560   6.182   5.814
10675SOL    HW132924   3.648   6.225   5.832
10675SOL    HW232925   3.514   6.162   5.901
10676SOL     OW32926   1.460   1.260   4.453
10676SOL    HW132927   1.416   1.173   4.473
10676SOL    HW232928   1.391   1.330   4.432
10677SOL     OW32929   0.215   1.570   6.907
10677SOL    HW132930   0.233   1.600   6.813
10677SOL    HW232931   0.183   1.476   6.906
10678SOL     OW32932   3.338   5.056   2.583
10678SOL    HW132933   3.250   5.051   2.536
10678SOL    HW232934   3.393   5.129   2.542
10679SOL     OW32935   5.222   3.917   0.286
10679SOL    HW132936   5.187   3.999   0.240
10679SOL    HW232937   5.244   3.938   0.381
10680SOL     OW32938   4.007   1.740   5.291
10680SOL    HW132939   3.962   1.662   5.248
10680SOL    HW232940   4.029   1.718   5.386
10681SOL     OW32941   2.949   3.300   5.312
10681SOL    HW132942   2.890   3.365   5.265
10681SOL    HW232943   2.897   3.217   5.335
10682SOL     OW32944   5.049   3.247   6.189
10682SOL    HW132945   4.982   3.289   6.128
10682SOL    HW232946   5.044   3.148   6.181
10683SOL     OW32947   1.528   0.177   3.301
10683SOL    HW132948   1.537   0.174   3.202
10683SOL    HW232949   1.509   0.271   3.331
10684SOL     OW32950   4.610   4.060   1.383
10684SOL    HW132951   4.611   4.159   1.393
10684SOL    HW232952   4.521   4.024   1.410
10685SOL     OW32953   0.786   0.842   2.552
10685SOL    HW132954   0.839   0.869   2.471
10685SOL    HW232955   0.815   0.898   2.630
10686SOL     OW32956   2.952   1.684   6.730
10686SOL    HW132957   3.013   1.710   6.805
10686SOL    HW232958   2.942   1.585   6.727
10687SOL     OW32959   0.791   3.118   3.096
10687SOL    HW132960   0.833   3.207   3.076
10687SOL    HW232961   0.707   3.132   3.148
10688SOL     OW32962   4.822   1.110   3.631
10688SOL    HW132963   4.857   1.019   3.652
10688SOL    HW232964   4.808   1.161   3.716
10689SOL     OW32965   1.527   1.409   2.939
10689SOL    HW132966   1.597   1.390   3.008
10689SOL    HW232967   1.440   1.370   2.969
10690SOL     OW32968   0.927   6.925   4.828
10690SOL    HW132969   1.004   6.981   4.859
10690SOL    HW232970   0.842   6.960   4.866
10691SOL     OW32971   3.537   6.386   1.899
10691SOL    HW132972   3.534   6.409   1.802
10691SOL    HW232973   3.632   6.378   1.928
10692SOL     OW32974   2.785   2.223   4.203
10692SOL    HW132975   2.707   2.269   4.244
10692SOL    HW232976   2.851   2.200   4.274
10693SOL     OW32977   1.648   4.458   0.350
10693SOL    HW132978   1.564   4.456   0.405
10693SOL    HW232979   1.628   4.424   0.258
10694SOL     OW32980   5.348   2.073   5.453
10694SOL    HW132981   5.429   2.067   5.512
10694SOL    HW232982   5.266   2.061   5.508
10695SOL     OW32983   4.808   4.979   1.465
10695SOL    HW132984   4.838   4.949   1.556
10695SOL    HW232985   4.853   5.066   1.442
10696SOL     OW32986   6.675   5.045   4.419
10696SOL    HW132987   6.609   5.017   4.349
10696SOL    HW232988   6.694   4.967   4.479
10697SOL     OW32989   2.780   5.140   4.620
10697SOL    HW132990   2.751   5.048   4.593
10697SOL    HW232991   2.727   5.207   4.569
10698SOL     OW32992   4.157   4.556   6.901
10698SOL    HW132993   4.196   4.524   6.988
10698SOL    HW232994   4.191   4.648   6.881
10699SOL     OW32995   4.377   4.175   1.460
10699SOL    HW132996   4.317   4.146   1.535
10699SOL    HW232997   4.437   4.248   1.492
10700SOL     OW32998   5.238   0.428   1.576
10700SOL    HW132999   5.138   0.425   1.573
10700SOL    HW233000   5.274   0.421   1.483
10701SOL     OW33001   3.225   6.376   6.393
10701SOL    HW133002   3.165   6.306   6.354
10701SOL    HW233003   3.319   6.342   6.395
10702SOL     OW33004   5.753   2.685   2.583
10702SOL    HW133005   5.753   2.775   2.626
10702SOL    HW233006   5.741   2.614   2.653
10703SOL     OW33007   1.085   2.036   5.679
10703SOL    HW133008   1.054   2.128   5.701
10703SOL    HW233009   1.011   1.985   5.636
10704SOL     OW33010   5.269   6.921   2.116
10704SOL    HW133011   5.333   6.934   2.040
10704SOL    HW233012   5.238   6.826   2.118
10705SOL     OW33013   4.721   3.717   1.458
10705SOL    HW133014   4.740   3.813   1.478
10705SOL    HW233015   4.807   3.665   1.463
10706SOL     OW33016   2.881   0.818   2.137
10706SOL    HW133017   2.823   0.850   2.212
10706SOL    HW233018   2.960   0.879   2.127
10707SOL     OW33019   3.934   6.975   3.728
10707SOL    HW133020   3.944   6.993   3.825
10707SOL    HW233021   4.017   7.002   3.679
10708SOL     OW33022   4.176   1.061   1.505
10708SOL    HW133023   4.164   0.963   1.489
10708SOL    HW233024   4.203   1.076   1.600
10709SOL     OW33025   5.685   4.155   2.723
10709SOL    HW133026   5.726   4.079   2.774
10709SOL    HW233027   5.658   4.227   2.786
10710SOL     OW33028   4.869   1.298   3.224
10710SOL    HW133029   4.886   1.244   3.306
10710SOL    HW233030   4.841   1.391   3.249
10711SOL     OW33031   2.432   6.382   3.547
10711SOL    HW133032   2.448   6.460   3.606
10711SOL    HW233033   2.519   6.348   3.511
10712SOL     OW33034   5.601   0.907   3.523
10712SOL    HW133035   5.583   0.999   3.489
10712SOL    HW233036   5.700   0.893   3.531
10713SOL     OW33037   1.051   3.764   1.044
10713SOL    HW133038   1.141   3.807   1.037
10713SOL    HW233039   1.048   3.683   0.986
10714SOL     OW33040   3.060   3.997   5.275
10714SOL    HW133041   3.069   4.096   5.265
10714SOL    HW233042   3.128   3.951   5.218
10715SOL     OW33043   6.220   1.025   1.971
10715SOL    HW133044   6.288   0.954   1.982
10715SOL    HW233045   6.214   1.053   1.875
10716SOL     OW33046   5.169   0.990   3.143
10716SOL    HW133047   5.094   0.934   3.106
10716SOL    HW233048   5.180   1.072   3.088
10717SOL     OW33049   3.624   2.644   0.422
10717SOL    HW133050   3.586   2.630   0.331
10717SOL    HW233051   3.556   2.687   0.481
10718SOL     OW33052   1.646   5.345   6.276
10718SOL    HW133053   1.677   5.386   6.361
10718SOL    HW233054   1.547   5.360   6.265
10719SOL     OW33055   0.046   4.422   5.246
10719SOL    HW133056   0.114   4.495   5.237
10719SOL    HW233057   0.069   4.364   5.324
10720SOL     OW33058   0.075   5.697   2.707
10720SOL    HW133059   0.006   5.764   2.733
10720SOL    HW233060   0.070   5.681   2.608
10721SOL     OW33061   4.886   2.557   6.121
10721SOL    HW133062   4.811   2.549   6.056
10721SOL    HW233063   4.973   2.545   6.073
10722SOL     OW33064   0.229   3.736   5.289
10722SOL    HW133065   0.206   3.703   5.198
10722SOL    HW233066   0.318   3.780   5.286
10723SOL     OW33067   5.675   6.038   0.509
10723SOL    HW133068   5.692   6.136   0.521
10723SOL    HW233069   5.763   5.989   0.504
10724SOL     OW33070   0.022   6.273   5.809
10724SOL    HW133071   0.024   6.252   5.712
10724SOL    HW233072   0.051   6.192   5.861
10725SOL     OW33073   2.695   6.796   6.179
10725SOL    HW133074   2.782   6.845   6.183
10725SOL    HW233075   2.713   6.698   6.170
10726SOL     OW33076   3.827   0.641   4.129
10726SOL    HW133077   3.896   0.678   4.192
10726SOL    HW233078   3.847   0.675   4.036
10727SOL     OW33079   2.526   6.179   6.829
10727SOL    HW133080   2.518   6.080   6.838
10727SOL    HW233081   2.565   6.217   6.913
10728SOL     OW33082   5.388   6.155   1.689
10728SOL    HW133083   5.318   6.225   1.676
10728SOL    HW233084   5.347   6.072   1.727
10729SOL     OW33085   6.154   2.226   0.408
10729SOL    HW133086   6.223   2.295   0.386
10729SOL    HW233087   6.164   2.197   0.503
10730SOL     OW33088   5.033   0.501   3.052
10730SOL    HW133089   5.046   0.590   3.096
10730SOL    HW233090   5.056   0.509   2.955
10731SOL     OW33091   3.450   6.782   1.206
10731SOL    HW133092   3.486   6.856   1.148
10731SOL    HW233093   3.527   6.730   1.243
10732SOL     OW33094   0.740   3.433   6.347
10732SOL    HW133095   0.710   3.337   6.344
10732SOL    HW233096   0.768   3.462   6.255
10733SOL     OW33097   5.609   0.502   0.348
10733SOL    HW133098   5.684   0.510   0.283
10733SOL    HW233099   5.546   0.579   0.337
10734SOL     OW33100   5.824   2.775   2.109
10734SOL    HW133101   5.902   2.793   2.168
10734SOL    HW233102   5.844   2.696   2.051
10735SOL     OW33103   0.158   5.573   2.940
10735SOL    HW133104   0.160   5.631   2.860
10735SOL    HW233105   0.252   5.557   2.972
10736SOL     OW33106   2.023   1.450   4.852
10736SOL    HW133107   2.069   1.497   4.777
10736SOL    HW233108   2.077   1.458   4.935
10737SOL     OW33109   6.875   1.989   6.395
10737SOL    HW133110   6.790   2.041   6.387
10737SOL    HW233111   6.883   1.953   6.488
10738SOL     OW33112   3.956   0.389   4.249
10738SOL    HW133113   4.039   0.353   4.208
10738SOL    HW233114   3.956   0.489   4.242
10739SOL     OW33115   2.373   1.705   2.228
10739SOL    HW133116   2.331   1.788   2.191
10739SOL    HW233117   2.462   1.691   2.186
10740SOL     OW33118   4.502   6.093   3.487
10740SOL    HW133119   4.556   6.038   3.551
10740SOL    HW233120   4.539   6.083   3.394
10741SOL     OW33121   2.537   0.259   3.101
10741SOL    HW133122   2.628   0.256   3.142
10741SOL    HW233123   2.545   0.244   3.002
10742SOL     OW33124   6.934   5.727   0.018
10742SOL    HW133125   6.882   5.809   0.043
10742SOL    HW233126   6.899   5.649   0.070
10743SOL     OW33127   2.724   1.486   5.023
10743SOL    HW133128   2.702   1.474   4.926
10743SOL    HW233129   2.807   1.542   5.031
10744SOL     OW33130   6.177   1.600   0.367
10744SOL    HW133131   6.183   1.510   0.325
10744SOL    HW233132   6.184   1.671   0.297
10745SOL     OW33133   6.958   5.851   5.804
10745SOL    HW133134   0.039   5.841   5.822
10745SOL    HW233135   6.925   5.769   5.757
10746SOL     OW33136   1.870   4.316   5.345
10746SOL    HW133137   1.827   4.400   5.379
10746SOL    HW233138   1.893   4.257   5.422
10747SOL     OW33139   3.049   2.192   4.813
10747SOL    HW133140   3.103   2.251   4.873
10747SOL    HW233141   2.955   2.187   4.848
10748SOL     OW33142   5.856   1.289   2.306
10748SOL    HW133143   5.787   1.216   2.307
10748SOL    HW233144   5.887   1.307   2.399
10749SOL     OW33145   3.445   7.014   0.217
10749SOL    HW133146   3.474   6.982   0.307
10749SOL    HW233147   3.444   0.096   0.215
10750SOL     OW33148   4.502   6.320   6.138
10750SOL    HW133149   4.488   6.250   6.208
10750SOL    HW233150   4.575   6.292   6.076
10751SOL     OW33151   2.580   5.321   3.269
10751SOL    HW133152   2.653   5.253   3.270
10751SOL    HW233153   2.491   5.274   3.262
10752SOL     OW33154   5.319   5.077   3.787
10752SOL    HW133155   5.249   5.109   3.723
10752SOL    HW233156   5.327   5.143   3.862
10753SOL     OW33157   5.695   4.332   4.116
10753SOL    HW133158   5.790   4.311   4.141
10753SOL    HW233159   5.636   4.257   4.146
10754SOL     OW33160   1.360   0.025   2.689
10754SOL    HW133161   1.294   6.979   2.729
10754SOL    HW233162   1.452   7.015   2.714
10755SOL     OW33163   6.013   5.485   1.487
10755SOL    HW133164   6.106   5.468   1.453
10755SOL    HW233165   6.016   5.509   1.584
10756SOL     OW33166   0.413   0.375   5.137
10756SOL    HW133167   0.437   0.297   5.079
10756SOL    HW233168   0.412   0.347   5.233
10757SOL     OW33169   2.918   3.223   1.794
10757SOL    HW133170   2.955   3.133   1.773
10757SOL    HW233171   2.987   3.293   1.776
10758SOL     OW33172   0.190   5.059   4.327
10758SOL    HW133173   0.261   5.128   4.338
10758SOL    HW233174   0.215   4.998   4.251
10759SOL     OW33175   6.825   0.999   6.989
10759SOL    HW133176   6.816   1.096   7.011
10759SOL    HW233177   6.734   0.957   6.984
10760SOL     OW33178   5.733   1.748   4.536
10760SOL    HW133179   5.718   1.826   4.476
10760SOL    HW233180   5.740   1.779   4.631
10761SOL     OW33181   3.041   5.219   5.609
10761SOL    HW133182   2.946   5.250   5.617
10761SOL    HW233183   3.048   5.153   5.534
10762SOL     OW33184   3.091   1.401   6.462
10762SOL    HW133185   3.142   1.315   6.452
10762SOL    HW233186   3.155   1.476   6.481
10763SOL     OW33187   4.739   5.836   4.278
10763SOL    HW133188   4.668   5.847   4.208
10763SOL    HW233189   4.817   5.788   4.238
10764SOL     OW33190   4.130   0.076   4.961
10764SOL    HW133191   4.222   0.037   4.964
10764SOL    HW233192   4.063   0.002   4.970
10765SOL     OW33193   6.853   3.571   6.884
10765SOL    HW133194   6.853   3.564   6.983
10765SOL    HW233195   6.791   3.644   6.855
10766SOL     OW33196   3.120   3.400   1.734
10766SOL    HW133197   3.197   3.450   1.696
10766SOL    HW233198   3.119   3.411   1.834
10767SOL     OW33199   4.561   2.109   2.275
10767SOL    HW133200   4.506   2.192   2.283
10767SOL    HW233201   4.503   2.033   2.245
10768SOL     OW33202   5.792   4.575   6.069
10768SOL    HW133203   5.844   4.647   6.115
10768SOL    HW233204   5.700   4.572   6.108
10769SOL     OW33205   1.702   3.442   4.970
10769SOL    HW133206   1.723   3.539   4.960
10769SOL    HW233207   1.637   3.429   5.045
10770SOL     OW33208   4.112   5.693   3.905
10770SOL    HW133209   4.126   5.607   3.857
10770SOL    HW233210   4.076   5.675   3.997
10771SOL     OW33211   2.554   1.984   4.275
10771SOL    HW133212   2.550   1.959   4.371
10771SOL    HW233213   2.595   2.074   4.265
10772SOL     OW33214   5.270   6.151   4.041
10772SOL    HW133215   5.225   6.232   4.004
10772SOL    HW233216   5.208   6.104   4.104
10773SOL     OW33217   5.758   5.248   3.092
10773SOL    HW133218   5.736   5.152   3.081
10773SOL    HW233219   5.756   5.293   3.002
10774SOL     OW33220   0.376   6.871   3.688
10774SOL    HW133221   0.329   6.784   3.674
10774SOL    HW233222   0.317   6.946   3.658
10775SOL     OW33223   0.009   3.525   1.081
10775SOL    HW133224   0.053   3.456   1.139
10775SOL    HW233225   0.002   3.611   1.131
10776SOL     OW33226   1.600   0.247   5.957
10776SOL    HW133227   1.559   0.195   6.032
10776SOL    HW233228   1.531   0.266   5.887
10777SOL     OW33229   2.673   5.464   1.566
10777SOL    HW133230   2.719   5.498   1.648
10777SOL    HW233231   2.574   5.479   1.574
10778SOL     OW33232   6.020   5.522   2.172
10778SOL    HW133233   6.110   5.560   2.152
10778SOL    HW233234   6.028   5.448   2.237
10779SOL     OW33235   5.170   2.806   3.745
10779SOL    HW133236   5.126   2.821   3.656
10779SOL    HW233237   5.225   2.723   3.740
10780SOL     OW33238   6.832   0.623   2.116
10780SOL    HW133239   6.852   0.588   2.025
10780SOL    HW233240   6.857   0.555   2.185
10781SOL     OW33241   3.148   6.895   4.175
10781SOL    HW133242   3.234   6.935   4.144
10781SOL    HW233243   3.159   6.796   4.185
10782SOL     OW33244   6.631   5.209   3.581
10782SOL    HW133245   6.623   5.241   3.676
10782SOL    HW233246   6.727   5.198   3.557
10783SOL     OW33247   6.554   2.661   3.100
10783SOL    HW133248   6.609   2.732   3.055
10783SOL    HW233249   6.472   2.644   3.046
10784SOL     OW33250   2.213   1.850   4.915
10784SOL    HW133251   2.253   1.769   4.957
10784SOL    HW233252   2.130   1.877   4.965
10785SOL     OW33253   0.990   2.923   6.018
10785SOL    HW133254   0.972   2.975   5.934
10785SOL    HW233255   1.072   2.958   6.062
10786SOL     OW33256   6.491   3.951   4.421
10786SOL    HW133257   6.487   3.900   4.335
10786SOL    HW233258   6.532   4.041   4.404
10787SOL     OW33259   2.016   2.166   5.973
10787SOL    HW133260   2.043   2.228   5.899
10787SOL    HW233261   1.983   2.219   6.051
10788SOL     OW33262   5.460   3.643   6.021
10788SOL    HW133263   5.483   3.551   5.987
10788SOL    HW233264   5.539   3.681   6.069
10789SOL     OW33265   4.925   0.954   0.154
10789SOL    HW133266   4.940   1.010   0.073
10789SOL    HW233267   5.008   0.904   0.177
10790SOL     OW33268   6.053   6.294   2.906
10790SOL    HW133269   6.099   6.362   2.962
10790SOL    HW233270   5.969   6.264   2.952
10791SOL     OW33271   0.685   6.275   2.536
10791SOL    HW133272   0.714   6.353   2.481
10791SOL    HW233273   0.592   6.249   2.511
10792SOL     OW33274   3.835   4.947   6.179
10792SOL    HW133275   3.787   4.910   6.259
10792SOL    HW233276   3.801   4.902   6.096
10793SOL     OW33277   5.512   4.082   4.518
10793SOL    HW133278   5.414   4.065   4.509
10793SOL    HW233279   5.562   3.999   4.492
10794SOL     OW33280   3.261   3.529   4.325
10794SOL    HW133281   3.272   3.504   4.229
10794SOL    HW233282   3.293   3.623   4.339
10795SOL     OW33283   0.206   4.973   2.713
10795SOL    HW133284   0.132   5.039   2.723
10795SOL    HW233285   0.183   4.907   2.641
10796SOL     OW33286   0.688   6.400   5.512
10796SOL    HW133287   0.695   6.329   5.581
10796SOL    HW233288   0.763   6.465   5.523
10797SOL     OW33289   4.008   2.824   0.306
10797SOL    HW133290   4.086   2.862   0.257
10797SOL    HW233291   3.928   2.824   0.247
10798SOL     OW33292   5.922   1.188   0.975
10798SOL    HW133293   6.019   1.195   0.954
10798SOL    HW233294   5.896   1.091   0.980
10799SOL     OW33295   5.205   1.558   0.971
10799SOL    HW133296   5.278   1.492   0.987
10799SOL    HW233297   5.186   1.564   0.873
10800SOL     OW33298   6.533   6.741   0.725
10800SOL    HW133299   6.544   6.694   0.813
10800SOL    HW233300   6.543   6.675   0.650
10801SOL     OW33301   2.075   0.695   1.454
10801SOL    HW133302   2.020   0.618   1.485
10801SOL    HW233303   2.015   0.775   1.440
10802SOL     OW33304   5.731   1.651   3.636
10802SOL    HW133305   5.789   1.569   3.636
10802SOL    HW233306   5.714   1.680   3.730
10803SOL     OW33307   2.375   5.002   4.994
10803SOL    HW133308   2.355   4.966   5.085
10803SOL    HW233309   2.393   4.927   4.931
10804SOL     OW33310   6.183   3.476   4.215
10804SOL    HW133311   6.269   3.431   4.191
10804SOL    HW233312   6.156   3.539   4.142
10805SOL     OW33313   6.462   6.989   6.828
10805SOL    HW133314   6.428   0.057   6.788
10805SOL    HW233315   6.479   6.922   6.756
10806SOL     OW33316   1.579   5.448   0.830
10806SOL    HW133317   1.656   5.468   0.770
10806SOL    HW233318   1.520   5.380   0.786
10807SOL     OW33319   3.254   5.270   4.632
10807SOL    HW133320   3.279   5.249   4.726
10807SOL    HW233321   3.157   5.250   4.618
10808SOL     OW33322   1.578   3.678   6.712
10808SOL    HW133323   1.480   3.661   6.722
10808SOL    HW233324   1.630   3.615   6.769
10809SOL     OW33325   1.250   0.668   4.748
10809SOL    HW133326   1.347   0.693   4.742
10809SOL    HW233327   1.235   0.613   4.830
10810SOL     OW33328   6.174   0.752   3.798
10810SOL    HW133329   6.110   0.767   3.723
10810SOL    HW233330   6.155   0.817   3.872
10811SOL     OW33331   5.527   5.697   4.919
10811SOL    HW133332   5.570   5.657   5.000
10811SOL    HW233333   5.522   5.796   4.930
10812SOL     OW33334   0.296   2.867   0.994
10812SOL    HW133335   0.272   2.812   1.075
10812SOL    HW233336   0.213   2.904   0.953
10813SOL     OW33337   0.979   3.965   7.003
10813SOL    HW133338   0.996   4.062   0.006
10813SOL    HW233339   1.066   3.919   6.984
10814SOL     OW33340   3.258   1.856   1.827
10814SOL    HW133341   3.349   1.896   1.836
10814SOL    HW233342   3.193   1.927   1.797
10815SOL     OW33343   4.766   0.756   4.746
10815SOL    HW133344   4.854   0.803   4.755
10815SOL    HW233345   4.780   0.668   4.701
10816SOL     OW33346   3.271   3.156   5.276
10816SOL    HW133347   3.181   3.146   5.235
10816SOL    HW233348   3.309   3.066   5.296
10817SOL     OW33349   1.382   6.089   4.474
10817SOL    HW133350   1.398   5.992   4.459
10817SOL    HW233351   1.448   6.142   4.420
10818SOL     OW33352   4.127   3.923   6.996
10818SOL    HW133353   4.070   3.929   0.060
10818SOL    HW233354   4.221   3.903   0.004
10819SOL     OW33355   6.157   5.543   5.172
10819SOL    HW133356   6.215   5.520   5.250
10819SOL    HW233357   6.061   5.537   5.199
10820SOL     OW33358   1.943   4.871   6.229
10820SOL    HW133359   1.928   4.961   6.270
10820SOL    HW233360   2.019   4.826   6.275
10821SOL     OW33361   4.387   5.400   3.653
10821SOL    HW133362   4.457   5.436   3.714
10821SOL    HW233363   4.300   5.446   3.672
10822SOL     OW33364   5.576   0.500   2.592
10822SOL    HW133365   5.494   0.488   2.647
10822SOL    HW233366   5.657   0.497   2.651
10823SOL     OW33367   5.627   6.726   2.753
10823SOL    HW133368   5.652   6.767   2.840
10823SOL    HW233369   5.645   6.791   2.679
10824SOL     OW33370   1.481   2.565   2.792
10824SOL    HW133371   1.447   2.589   2.700
10824SOL    HW233372   1.574   2.599   2.803
10825SOL     OW33373   6.900   1.424   0.610
10825SOL    HW133374   6.937   1.501   0.661
10825SOL    HW233375   6.858   1.359   0.674
10826SOL     OW33376   6.658   3.237   2.331
10826SOL    HW133377   6.662   3.176   2.252
10826SOL    HW233378   6.570   3.284   2.333
10827SOL     OW33379   6.955   3.197   3.968
10827SOL    HW133380   6.976   3.110   3.922
10827SOL    HW233381   6.919   3.262   3.901
10828SOL     OW33382   6.917   4.286   4.841
10828SOL    HW133383   6.987   4.354   4.861
10828SOL    HW233384   6.897   4.233   4.923
10829SOL     OW33385   3.799   3.199   5.802
10829SOL    HW133386   3.877   3.141   5.778
10829SOL    HW233387   3.721   3.175   5.744
10830SOL     OW33388   5.536   1.860   3.780
10830SOL    HW133389   5.476   1.783   3.799
10830SOL    HW233390   5.499   1.914   3.705
10831SOL     OW33391   4.181   0.046   3.611
10831SOL    HW133392   4.178   0.059   3.512
10831SOL    HW233393   4.257   7.004   3.635
10832SOL     OW33394   6.915   2.916   6.643
10832SOL    HW133395   6.914   2.816   6.648
10832SOL    HW233396   6.827   2.952   6.674
10833SOL     OW33397   0.746   1.340   6.463
10833SOL    HW133398   0.678   1.379   6.527
10833SOL    HW233399   0.803   1.413   6.427
10834SOL     OW33400   6.810   6.385   1.680
10834SOL    HW133401   6.851   6.317   1.740
10834SOL    HW233402   6.724   6.351   1.644
10835SOL     OW33403   6.482   2.626   5.451
10835SOL    HW133404   6.515   2.546   5.501
10835SOL    HW233405   6.439   2.690   5.514
10836SOL     OW33406   6.992   1.603   3.528
10836SOL    HW133407   0.037   1.559   3.463
10836SOL    HW233408   0.009   1.694   3.551
10837SOL     OW33409   6.667   2.907   3.797
10837SOL    HW133410   6.714   2.865   3.876
10837SOL    HW233411   6.722   2.896   3.715
10838SOL     OW33412   0.342   6.395   2.990
10838SOL    HW133413   0.379   6.436   3.074
10838SOL    HW233414   0.386   6.436   2.910
10839SOL     OW33415   4.609   2.768   0.325
10839SOL    HW133416   4.706   2.793   0.323
10839SOL    HW233417   4.593   2.695   0.259
10840SOL     OW33418   2.812   0.613   2.562
10840SOL    HW133419   2.806   0.516   2.540
10840SOL    HW233420   2.768   0.667   2.490
10841SOL     OW33421   2.190   5.225   5.061
10841SOL    HW133422   2.236   5.139   5.037
10841SOL    HW233423   2.221   5.255   5.151
10842SOL     OW33424   6.880   4.579   1.471
10842SOL    HW133425   6.818   4.621   1.538
10842SOL    HW233426   6.834   4.501   1.428
10843SOL     OW33427   2.638   1.374   1.862
10843SOL    HW133428   2.631   1.285   1.817
10843SOL    HW233429   2.732   1.408   1.855
10844SOL     OW33430   2.315   5.299   4.647
10844SOL    HW133431   2.242   5.239   4.679
10844SOL    HW233432   2.349   5.265   4.559
10845SOL     OW33433   3.988   0.735   4.324
10845SOL    HW133434   3.955   0.787   4.404
10845SOL    HW233435   4.080   0.767   4.299
10846SOL     OW33436   5.619   6.595   5.982
10846SOL    HW133437   5.649   6.501   5.964
10846SOL    HW233438   5.647   6.622   6.074
10847SOL     OW33439   3.548   7.006   6.789
10847SOL    HW133440   3.548   0.074   6.839
10847SOL    HW233441   3.456   6.988   6.753
10848SOL     OW33442   1.823   3.257   1.857
10848SOL    HW133443   1.755   3.186   1.875
10848SOL    HW233444   1.797   3.342   1.904
10849SOL     OW33445   1.662   6.568   3.590
10849SOL    HW133446   1.596   6.543   3.519
10849SOL    HW233447   1.753   6.534   3.564
10850SOL     OW33448   4.592   4.459   0.414
10850SOL    HW133449   4.526   4.388   0.435
10850SOL    HW233450   4.659   4.465   0.489
10851SOL     OW33451   1.784   4.691   0.553
10851SOL    HW133452   1.811   4.632   0.477
10851SOL    HW233453   1.865   4.729   0.597
10852SOL     OW33454   3.063   1.268   2.035
10852SOL    HW133455   3.127   1.275   2.112
10852SOL    HW233456   2.993   1.200   2.057
10853SOL     OW33457   3.734   1.109   6.364
10853SOL    HW133458   3.745   1.102   6.463
10853SOL    HW233459   3.737   1.018   6.323
10854SOL     OW33460   2.964   5.775   5.843
10854SOL    HW133461   3.035   5.731   5.787
10854SOL    HW233462   2.979   5.874   5.843
10855SOL     OW33463   4.425   1.149   6.854
10855SOL    HW133464   4.520   1.118   6.853
10855SOL    HW233465   4.389   1.143   6.948
10856SOL     OW33466   0.397   1.190   0.590
10856SOL    HW133467   0.343   1.253   0.534
10856SOL    HW233468   0.455   1.134   0.531
10857SOL     OW33469   6.932   2.249   1.748
10857SOL    HW133470   6.906   2.342   1.776
10857SOL    HW233471   6.930   2.188   1.827
10858SOL     OW33472   2.058   6.462   2.052
10858SOL    HW133473   2.062   6.560   2.070
10858SOL    HW233474   1.963   6.435   2.033
10859SOL     OW33475   1.685   4.640   3.694
10859SOL    HW133476   1.708   4.722   3.746
10859SOL    HW233477   1.605   4.658   3.636
10860SOL     OW33478   0.214   3.386   3.037
10860SOL    HW133479   0.151   3.308   3.031
10860SOL    HW233480   0.160   3.470   3.046
10861SOL     OW33481   4.299   3.319   5.249
10861SOL    HW133482   4.249   3.305   5.163
10861SOL    HW233483   4.238   3.301   5.326
10862SOL     OW33484   1.381   0.637   5.588
10862SOL    HW133485   1.309   0.629   5.657
10862SOL    HW233486   1.465   0.671   5.630
10863SOL     OW33487   2.113   6.550   4.173
10863SOL    HW133488   2.028   6.497   4.177
10863SOL    HW233489   2.130   6.593   4.261
10864SOL     OW33490   3.412   6.676   3.090
10864SOL    HW133491   3.315   6.692   3.072
10864SOL    HW233492   3.429   6.682   3.189
10865SOL     OW33493   6.637   1.071   6.192
10865SOL    HW133494   6.725   1.102   6.157
10865SOL    HW233495   6.612   0.985   6.147
10866SOL     OW33496   5.589   4.824   6.792
10866SOL    HW133497   5.642   4.837   6.708
10866SOL    HW233498   5.514   4.889   6.794
10867SOL     OW33499   3.045   2.096   0.144
10867SOL    HW133500   3.098   2.166   0.096
10867SOL    HW233501   3.100   2.014   0.156
10868SOL     OW33502   1.785   2.237   3.381
10868SOL    HW133503   1.779   2.311   3.447
10868SOL    HW233504   1.881   2.224   3.354
10869NA      NA33505   6.256   2.279   5.240
10870NA      NA33506   4.413   4.628   5.250
10871NA      NA33507   2.210   3.370   1.722
10872NA      NA33508   4.950   3.547   5.167
10873NA      NA33509   4.080   2.384   5.314
10874NA      NA33510   3.575   4.939   1.875
10875NA      NA33511   6.767   6.540   4.926
10876NA      NA33512   3.773   3.493   5.066
10877NA      NA33513   4.768   6.115   5.954
10878NA      NA33514   2.523   6.994   4.915
10879NA      NA33515   0.532   4.856   2.881
10880NA      NA33516   2.082   0.466   2.532
10881NA      NA33517   3.685   4.476   1.314
10882NA      NA33518   3.874   3.585   3.039
   7.01773   7.01773   7.01773
